LAMMPS data file via write_data, version 30 Jul 2021, timestep = 24000000

972 atoms
2 atom types
648 bonds
1 bond types
324 angles
1 angle types

-0.009303064185216314 20.009304064159906 xlo xhi
0.04365624867119777 19.95634475132719 ylo yhi
-0.06394902176162987 20.763947021751676 zlo zhi

Masses

1 1.008
2 15.999

Pair Coeffs # lj/cut/tip4p/long/omp

1 0 0
2 0.21084 3.1668

Bond Coeffs # harmonic/omp

1 450 0.9572

Angle Coeffs # harmonic/omp

1 55 104.52

Atoms # full

10 4 2 -1.1794 1.2438780734085222 4.114195982899728 4.070916103324856 0 0 0
11 4 1 0.5897 1.0965988457928455 3.342131940761034 3.524600069056943 0 0 0
12 4 1 0.5897 2.191275248834743 4.135445778938587 4.205974949626769 0 0 0
33 11 1 0.5897 1.931712135110235 2.2573404079000654 1.48032214873092 0 0 0
31 11 2 -1.1794 1.1423163585424834 2.154755136404517 2.011962343660901 0 0 0
18 6 1 0.5897 4.239821148010236 3.193950370351523 3.4796968238196277 0 0 0
4 2 2 -1.1794 4.326635329015684 1.4028892519991079 3.568743127098765 0 0 0
16 6 2 -1.1794 3.9993518672827735 4.102745816225071 3.6598684581731633 0 0 0
23 8 1 0.5897 2.6590978890471586 1.2077378385285622 4.420576243362486 0 0 0
110 37 1 0.5897 1.739924608121054 9.253025667008082 0.615106763407976 0 0 0
32 11 1 0.5897 0.4252732465562433 2.397664487976363 1.4261636403478246 0 0 0
14 5 1 0.5897 3.974060289489364 5.829200567752787 0.8161499831394143 0 0 0
17 6 1 0.5897 4.252277562709419 4.579185888226419 2.8690667551672946 0 0 0
114 38 1 0.5897 3.4004178693106786 7.692396448757489 3.75276077858365 0 0 0
112 38 2 -1.1794 4.206153025406297 7.9115726954233745 3.2847446362727895 0 0 0
20 7 1 0.5897 1.0833590210912518 5.4839686839639885 2.812660950519792 0 0 0
3 1 1 0.5897 3.812701135644616 2.7919764207048146 0.26897665236968804 0 0 0
130 44 2 -1.1794 2.172618266720009 7.534033936501444 5.122156154499335 0 0 0
141 47 1 0.5897 0.4882612018801277 7.7731776417857095 1.822301407713952 0 0 0
5 2 1 0.5897 4.499516322609699 0.7487974352934411 2.891551518355797 0 0 0
15 5 1 0.5897 4.489339250902573 6.695117907554204 1.9461048557057947 0 0 0
13 5 2 -1.1794 4.644745861966692 5.863520150977772 1.498308953940102 0 0 0
19 7 2 -1.1794 0.8037162790132877 6.024937972161298 2.074116817208807 0 0 0
140 47 1 0.5897 0.4945638226827136 9.140311652587082 2.4725630374190755 0 0 0
139 47 2 -1.1794 0.31208492858766335 8.6969728334139 1.6440097855964486 0 0 0
236 79 1 0.5897 0.8342729887259368 0.30891790878622727 2.1163493856534465 0 1 0
674 225 1 0.5897 1.7222574135755238 5.8129732800892056 0.5217489163835333 0 0 1
113 38 1 0.5897 4.907462304761079 7.6884145117400795 3.8968546002749513 0 0 0
6 2 1 0.5897 4.821608562418423 1.0977803714523033 4.329175864523033 0 0 0
126 42 1 0.5897 4.129033235994979 9.749055727710578 3.198760754324693 0 0 0
111 37 1 0.5897 3.2017359774730916 9.324926343323863 0.22794992822365012 0 0 0
102 34 1 0.5897 0.3249167713891068 0.8599746017971733 4.971918236478817 1 0 0
132 44 1 0.5897 1.2235089433082063 7.652914666418177 5.085888611887669 0 0 0
1 1 2 -1.1794 2.8818577253653492 2.838236194811129 0.050651019902311134 0 0 0
2 1 1 0.5897 2.6997511920237023 3.7747571066140577 -0.026707750059902224 0 0 0
325 109 2 -1.1794 2.8664003105285696 2.8120135697571564 7.123548805399719 0 0 0
326 109 1 0.5897 2.627609504437827 2.1731323219048773 6.451908253014387 0 0 0
327 109 1 0.5897 3.8032644807551774 2.6743392716117502 7.263491060829548 0 0 0
355 119 2 -1.1794 0.94091991991123 2.136073912509828 9.057940365058997 0 0 0
356 119 1 0.5897 1.6989290610198542 2.317073245261544 8.502084664336216 0 0 0
27 9 1 0.5897 2.536336042180903 4.486988950752346 6.711152133037687 0 0 0
329 110 1 0.5897 4.07624077918244 0.702574787426206 9.553940191189538 0 0 0
335 112 1 0.5897 1.0386902334910602 3.561862160344362 10.138787800696278 0 0 0
25 9 2 -1.1794 2.5310221258505234 5.444143368572124 6.706673377005858 0 0 0
465 155 1 0.5897 0.005512935365985072 8.856498550314853 8.463633868135968 0 0 0
437 146 1 0.5897 4.297272735957471 7.755146026282006 9.512240836363603 0 0 0
463 155 2 -1.1794 0.7041821720538012 8.72464202018271 9.104565069601644 0 0 0
561 187 1 0.5897 1.0318493903551804 0.34917182078123715 9.058604893888303 0 1 0
26 9 1 0.5897 1.8965332712880814 5.683766264785132 7.3821823579726065 0 0 0
468 156 1 0.5897 4.699266337821356 9.141901410196288 7.409852296010134 0 0 0
344 115 1 0.5897 1.072786971667442 5.535932311531859 9.329370632795877 0 0 0
464 155 1 0.5897 1.5101320386278474 8.910034264497256 8.62251163518738 0 0 0
343 115 2 -1.1794 0.7665960119321108 6.035468157864041 8.572381789696447 0 0 0
337 113 2 -1.1794 4.730383452781644 6.080508616012378 8.424881222995076 0 0 0
435 145 1 0.5897 2.5606236240010176 8.62956938765387 6.634091797845947 0 0 0
433 145 2 -1.1794 2.8464868558079557 9.177795459076778 7.3648870060876 0 0 0
339 113 1 0.5897 4.173367906888853 5.826810946169928 7.688866519975227 0 0 0
345 115 1 0.5897 0.7878814689355957 6.947484454556351 8.862199249657944 0 0 0
131 44 1 0.5897 2.294812143302851 6.732230516466981 5.630524916578192 0 0 0
342 114 1 0.5897 4.191958595309117 4.823873754005544 9.86020037833342 0 0 0
328 110 2 -1.1794 4.135616937801386 1.5176976836664884 10.052205051106032 0 0 0
357 119 1 0.5897 0.18520527142019153 2.294101916559473 8.492043373732848 0 0 0
341 114 1 0.5897 4.082330339939991 3.3702625825406005 10.268713940873226 0 0 0
24 8 1 0.5897 2.467880818814467 0.14372479020631734 5.480482266812707 0 0 0
22 8 2 -1.1794 2.093974408088611 0.9617672434175475 5.153021029746055 0 0 0
649 217 2 -1.1794 2.6534636979211057 2.523103796197493 14.069648714690336 0 0 0
650 217 1 0.5897 2.495567341406337 1.8844943497340063 13.37426573958488 0 0 0
651 217 1 0.5897 2.1077382484655285 2.22529114200037 14.797547332148126 0 0 0
348 116 1 0.5897 2.725539759724679 0.9208152548971688 11.257206248476079 0 0 0
346 116 2 -1.1794 2.1781661628485427 0.6695277609171952 12.001235681956187 0 0 0
350 117 1 0.5897 2.7832524607884146 4.4314959701423575 13.7736101484033 0 0 0
347 116 1 0.5897 1.3004413327221638 0.9702351515375588 11.765784951801894 0 0 0
349 117 2 -1.1794 2.7582943453158952 5.371101684118245 13.954456339782764 0 0 0
683 228 1 0.5897 4.522060816943734 2.513842215310002 14.3082816795109 0 0 0
792 264 1 0.5897 4.544406191017505 9.07679285094539 14.339083404809694 0 0 0
330 110 1 0.5897 4.6932996627001735 1.302041958070567 10.799755089054088 0 0 0
405 135 1 0.5897 0.1949209781404297 4.336925934390059 12.124051730794655 1 0 0
351 117 1 0.5897 3.6091267299115564 5.5622098853837025 14.349234884490155 0 0 0
456 152 1 0.5897 2.4218264734944657 6.620027240637832 12.582802409671457 0 0 0
454 152 2 -1.1794 2.082732470250088 7.355014574904445 12.071839238784916 0 0 0
757 253 2 -1.1794 2.699924063445184 9.228184738151077 14.095052385364276 0 0 0
759 253 1 0.5897 2.4061157723880022 8.616265429688983 13.420134805254849 0 0 0
455 152 1 0.5897 2.7102958638363295 7.459976420984562 11.35665163640597 0 0 0
668 223 1 0.5897 1.3073088725721493 5.797914969726835 14.976946487810713 0 0 0
340 114 2 -1.1794 3.85779376485935 4.25580517980867 10.554428576799157 0 0 0
533 178 1 0.5897 0.129222401192862 7.376663949655871 11.672961457640557 1 0 0
336 112 1 0.5897 2.187542075352836 4.446510125574475 10.574039959972282 0 0 0
334 112 2 -1.1794 1.234572418980278 4.367574573722161 10.617032011824625 0 0 0
789 263 1 0.5897 1.4239770475697047 8.963554522880962 15.21632357358846 0 0 0
436 146 2 -1.1794 4.154791411364958 8.01620656566765 10.422127185561497 0 0 0
661 221 2 -1.1794 4.937681943099304 5.976715591172619 15.425705899851687 0 0 0
438 146 1 0.5897 4.007500766578048 8.961075641784921 10.38043024534125 0 0 0
653 218 1 0.5897 3.445530953373666 1.0512011913576633 17.590779255545392 0 0 0
652 218 2 -1.1794 4.302254019557279 1.1130927905271961 17.168309366559907 0 0 0
664 222 2 -1.1794 4.074151090917713 4.003408965624152 17.194855003085028 0 0 0
671 224 1 0.5897 2.265997364643573 1.8684729254983041 19.42997826033097 0 0 0
666 222 1 0.5897 4.264836609936317 3.065812015764148 17.222496764729204 0 0 0
670 224 2 -1.1794 2.1205312268396557 1.1321229719012125 18.835907579560708 0 0 0
665 222 1 0.5897 3.136534258211386 4.063129019479631 17.37809859876549 0 0 0
681 227 1 0.5897 1.0147717935231377 2.6928456766720568 16.837681366807473 0 0 0
672 224 1 0.5897 1.1767908379981538 1.135592598864461 18.675973983096608 0 0 0
658 220 2 -1.1794 1.4542125723428885 4.229393473830941 17.554484630667478 0 0 0
662 221 1 0.5897 4.593223288613302 5.2598521439470405 15.958350214601616 0 0 0
679 227 2 -1.1794 0.8897262432707974 1.9804171404244155 16.210728235561298 0 0 0
858 286 1 0.5897 0.34064335530473666 7.552597128655014 18.741065491062376 1 0 0
659 220 1 0.5897 0.8204026017638866 4.352999805601772 18.261126891083716 0 0 0
660 220 1 0.5897 1.1108202451847884 4.752116028077597 16.82983491143281 0 0 0
654 218 1 0.5897 4.31914450878116 0.38128902498520434 16.551495824222986 0 0 0
663 221 1 0.5897 4.6461149210651485 6.770464378206915 15.874273860022546 0 0 0
788 263 1 0.5897 0.9504419467375768 9.418541450058358 16.580506731919765 0 0 0
761 254 1 0.5897 4.153956432703328 9.020548907010609 16.980592617225607 0 0 0
778 260 2 -1.1794 2.142214906637842 7.641031659399965 18.93672353241694 0 0 0
675 225 1 0.5897 2.211152692755467 6.301312363781729 20.002525323660194 0 0 0
779 260 1 0.5897 2.2373692285062248 8.4029471886502 19.508312720259067 0 0 0
760 254 2 -1.1794 4.199373167137556 8.065537558993979 17.026380327392648 0 0 0
780 260 1 0.5897 2.809530538284801 7.762800736189038 18.261300224383636 0 0 0
787 263 2 -1.1794 0.7444824482908519 8.808191953696864 15.872432425964954 0 0 0
669 223 1 0.5897 0.8204279757674697 6.9996446084517245 15.758458430316328 0 0 0
762 254 1 0.5897 4.924808140302955 7.888208258767373 17.625225801216498 0 0 0
109 37 2 -1.1794 2.32353410271433 9.536476486573601 20.739180504234213 0 0 -1
884 295 1 0.5897 0.6516145474611645 0.20861379185508297 15.95881115351304 0 1 0
667 223 2 -1.1794 0.6800825355080847 6.058877719392584 15.651341598314758 0 0 0
680 227 1 0.5897 0.12196900356532267 2.2406265852536795 15.701686736789258 0 0 0
673 225 2 -1.1794 2.350831514206091 5.61525309706251 20.655297424539828 0 0 0
120 40 1 0.5897 1.0962806516299775 11.460648905673729 3.1313974014867467 0 0 0
129 43 1 0.5897 0.6963663220173748 13.592238329373776 2.1334470037579627 0 0 0
118 40 2 -1.1794 1.1226005994574277 10.695649839029658 3.706138953578091 0 0 0
119 40 1 0.5897 2.0421531318925026 10.618052016950266 3.960448798762979 0 0 0
240 80 1 0.5897 2.275215984571817 14.032443034285617 4.244776606366974 0 0 0
127 43 2 -1.1794 0.6054581692563407 12.661075629399397 1.9312269293059148 0 0 0
125 42 1 0.5897 4.514768324906802 10.875253274387878 4.134140150171746 0 0 0
123 41 1 0.5897 3.930998482344545 12.172219621661677 0.6052916609785626 0 0 0
222 74 1 0.5897 3.9819921172184833 13.945869897355292 2.3717242453919707 0 0 0
124 42 2 -1.1794 3.931073680319021 10.662359479228757 3.405907021533251 0 0 0
219 73 1 0.5897 3.6787332950770972 15.88100042191115 0.08101269790678622 0 0 0
226 76 2 -1.1794 1.4555986431607804 17.434898267937637 3.773695068153312 0 0 0
220 74 2 -1.1794 3.7558118887386933 14.36168048125934 3.2037737721223882 0 0 0
233 78 1 0.5897 4.317588115679864 17.79545742950673 2.779916143248662 0 0 0
122 41 1 0.5897 4.321504188799024 11.61525741569996 1.9578863972124427 0 0 0
227 76 1 0.5897 1.2365657401537369 18.148793958640784 3.174819467757291 0 0 0
221 74 1 0.5897 3.9632082125435697 15.287044878327647 3.0737522703445075 0 0 0
234 78 1 0.5897 3.189855703443715 17.239530723231535 3.6232575991134626 0 0 0
235 79 2 -1.1794 0.7596154701457478 19.28920783095038 1.9131967719775926 0 0 0
230 77 1 0.5897 3.999662490899735 19.330819651573893 0.950244650384485 0 0 0
247 83 2 -1.1794 0.6703953202771795 15.434914275516677 2.114828503957037 0 0 0
249 83 1 0.5897 1.3310566670476909 15.457564684986837 1.422473539682966 0 0 0
228 76 1 0.5897 0.761064469948879 17.45232270184616 4.432190312739775 0 0 0
248 83 1 0.5897 0.906549548815594 16.158155421790692 2.6957269565709083 0 0 0
783 261 1 0.5897 1.7058988806170379 12.388106965606081 0.581912759014826 0 0 1
232 78 2 -1.1794 4.122010050562703 17.12724767442791 3.4368325897729064 0 0 0
229 77 2 -1.1794 4.5016950336476524 19.33679524811813 1.765288880202652 0 0 0
121 41 2 -1.1794 4.622702239944329 12.204485258816185 1.2662300903031638 0 0 0
238 80 2 -1.1794 1.670558286190007 13.874219762352823 4.969792193264701 0 0 0
890 297 1 0.5897 1.92067680479027 19.117783290818366 0.5742075773898317 0 0 1
217 73 2 -1.1794 2.7532307253757953 16.107730815167535 -0.010059300814225049 0 0 0
218 73 1 0.5897 2.7292949074804524 17.060171896685592 0.0820775990441831 0 0 0
133 45 2 -1.1794 2.1218021848862008 11.771123945218786 6.5368057149593755 0 0 0
134 45 1 0.5897 1.3783932763511324 12.002436180151419 7.093717462247016 0 0 0
135 45 1 0.5897 2.8865497118875125 12.102511546326507 7.007576318785609 0 0 0
453 151 1 0.5897 0.7075198112262507 12.178603797024037 9.321287424168842 0 0 0
451 151 2 -1.1794 0.48122903967435926 12.780166520477879 8.611915270427739 0 0 0
450 150 1 0.5897 3.9454092967334473 11.175109688349789 9.717322456215442 0 0 0
446 149 1 0.5897 3.9296392790846406 13.155083354768768 8.873789790265704 0 0 0
445 149 2 -1.1794 4.08430902629967 12.373048750735737 8.343915202599703 0 0 0
553 185 2 -1.1794 4.499301330152749 18.949975809031603 8.646741912718394 0 0 0
573 191 1 0.5897 0.8233526791146428 14.537933157969274 9.07841461204745 0 0 0
239 80 1 0.5897 1.9266255193868351 13.018318407899327 5.31345871558754 0 0 0
571 191 2 -1.1794 0.6463064183155925 15.47108833761557 8.95982356205007 0 0 0
572 191 1 0.5897 1.0609012610717632 15.891639779650482 9.713207190886651 0 0 0
242 81 1 0.5897 2.591855671443363 17.639014169259553 6.5623760018175386 0 0 0
544 182 2 -1.1794 4.013795195450638 14.382039122697655 10.20523766741491 0 0 0
243 81 1 0.5897 1.9993273964981881 18.815900550126987 7.307883930160303 0 0 0
555 185 1 0.5897 4.138500103153434 18.77572932413327 7.777357594691603 0 0 0
541 181 2 -1.1794 2.4391345526674924 15.95360009148197 6.6749712976431415 0 0 0
543 181 1 0.5897 2.065110225820642 15.341812944099406 6.0408347332936145 0 0 0
241 81 2 -1.1794 2.646197191421036 18.5915914275053 6.638894168791865 0 0 0
542 181 1 0.5897 1.8507878030904037 15.907658927024526 7.428688149737159 0 0 0
559 187 2 -1.1794 0.9704810762199015 19.327409059327294 8.860615300058718 0 0 0
576 192 1 0.5897 4.184230924929455 15.643098362227411 7.123002066219012 0 0 0
558 186 1 0.5897 4.2537077105267285 17.82842089341432 9.940099960847071 0 0 0
551 184 1 0.5897 1.3297802990516925 17.944969699174226 10.15436318837952 0 0 0
443 148 1 0.5897 0.7592980522192496 10.136245156720198 10.07684580149825 0 0 0
560 187 1 0.5897 0.05203718466697893 19.191224030388618 8.627873049513015 0 0 0
434 145 1 0.5897 2.5959389895156035 10.066002483034904 7.110852639442443 0 0 0
557 186 1 0.5897 4.314143352811255 16.3402491042192 10.211267853472158 0 0 0
317 106 1 0.5897 0.02230065706694262 14.31458455110782 5.158233845438267 1 0 0
457 153 2 -1.1794 2.500783961525387 11.981287441384286 13.57528392772979 0 0 0
458 153 1 0.5897 1.7988282928006627 12.149837956564227 14.20391332110082 0 0 0
459 153 1 0.5897 3.2847170037930047 12.343630423474334 13.988128483482388 0 0 0
562 188 2 -1.1794 1.9931660650817098 14.255704752120048 11.947572310384755 0 0 0
563 188 1 0.5897 2.1496218964623006 13.415564287436753 12.378775059875423 0 0 0
564 188 1 0.5897 2.2569733410274155 14.910166677817912 12.594403316689743 0 0 0
552 184 1 0.5897 2.357747671103374 17.291197931872773 11.053212522419877 0 0 0
512 171 1 0.5897 0.01724698345539366 11.210574466945795 11.897691342875191 1 0 0
546 182 1 0.5897 4.7306132280138184 14.144360088663516 10.793438801241884 0 0 0
449 150 1 0.5897 4.408417743450095 10.945230193109527 11.140372995341423 0 0 0
642 214 1 0.5897 0.21082276801978964 14.265329094811184 11.891981788322376 1 0 0
444 148 1 0.5897 2.0031521208677283 10.787102685248897 10.643567119487615 0 0 0
545 182 1 0.5897 3.235408532590388 14.379631073991328 10.762393979890604 0 0 0
879 293 1 0.5897 4.08971707711433 18.728976261237467 14.927882127790767 0 0 0
865 289 2 -1.1794 2.713361943790751 15.989304025033748 13.847752521260885 0 0 0
867 289 1 0.5897 2.1595412335144446 15.797105728330386 14.604513367523614 0 0 0
565 189 2 -1.1794 2.4305869379714027 18.73922130427797 13.944126431226362 0 0 0
442 148 2 -1.1794 1.0570275565450393 10.906539135076718 10.560808366113282 0 0 0
567 189 1 0.5897 2.3555670791214274 19.209912012432053 13.113955810390568 0 0 0
866 289 1 0.5897 3.6078114461371134 15.885053413366167 14.17234858488024 0 0 0
566 189 1 0.5897 2.3468320773312685 17.816167340157165 13.70499417355471 0 0 0
885 295 1 0.5897 1.166862558764959 19.087888308045848 14.979707219999352 0 0 0
550 184 2 -1.1794 1.4138743946162486 17.399857000080267 10.936735648897892 0 0 0
556 186 2 -1.1794 4.134286903833369 17.17997425422087 10.634052815664441 0 0 0
896 299 1 0.5897 0.10030113122296265 15.60268204220943 15.382368400335437 0 0 0
769 257 2 -1.1794 4.767445321880939 12.769303218831434 15.421015994935074 0 0 0
758 253 1 0.5897 2.6624954522566364 10.08664015291747 13.67326765061944 0 0 0
883 295 2 -1.1794 0.40710157468353014 19.306897777260318 15.519249816915949 0 0 0
775 259 2 -1.1794 0.522121623206811 12.562688316962044 15.454712587640913 0 0 0
448 150 2 -1.1794 3.786940827795774 10.626638407907786 10.485703006536273 0 0 0
621 207 1 0.5897 0.14612185793010402 17.816715033361334 12.038615317284707 1 0 0
768 256 1 0.5897 0.9418210410953967 11.520395165016899 16.769277877513396 0 0 0
888 296 1 0.5897 2.099310171272997 13.630794214082254 19.355300767014242 0 0 0
766 256 2 -1.1794 1.2619757009265296 10.989141497804521 17.498379601023583 0 0 0
773 258 1 0.5897 3.0462769857160485 10.950795882764151 17.35328895210039 0 0 0
886 296 2 -1.1794 1.9315725032568751 14.443626891092388 18.878426027461924 0 0 0
774 258 1 0.5897 4.219058129437697 11.400910200522185 16.508265957926433 0 0 0
772 258 2 -1.1794 3.989506595955416 10.831188368928784 17.242469343458563 0 0 0
869 290 1 0.5897 3.4282506199329386 14.422464237272957 17.848691340865074 0 0 0
873 291 1 0.5897 4.903513482363201 17.915954096392454 18.850447864236926 0 0 0
876 292 1 0.5897 0.5963516992581629 17.97571407126465 16.904404003215152 0 0 0
767 256 1 0.5897 0.5706676393850909 11.04540763664988 18.158116503396304 0 0 0
868 290 2 -1.1794 4.225340416196128 14.555953800317688 17.33573515540663 0 0 0
877 293 2 -1.1794 4.764248698663826 18.855451880465452 15.595223839357972 0 0 0
887 296 1 0.5897 2.1716808586607366 15.13659897271459 19.49357980662216 0 0 0
882 294 1 0.5897 3.96380514139113 16.402096935515505 17.340912108144046 0 0 0
878 293 1 0.5897 4.521786330945532 18.253323135126216 16.298769512841112 0 0 0
782 261 1 0.5897 2.2165287924616455 11.442588271693316 20.343342577943936 0 0 0
881 294 1 0.5897 2.7765054654668435 17.305830911296404 17.59676360890194 0 0 0
897 299 1 0.5897 0.9902592800924277 15.903103965976946 16.56976297322415 0 0 0
874 292 2 -1.1794 0.8924043579274475 17.469170613865757 17.660773697304858 0 0 0
875 292 1 0.5897 0.24695804582791997 17.656198755421663 18.34250185495447 0 0 0
889 297 2 -1.1794 2.6036351543404903 18.912090287842283 20.763680786813346 0 0 0
880 294 2 -1.1794 3.728349184088935 17.31678903326761 17.496067361797582 0 0 0
891 297 1 0.5897 2.447205072203589 19.519581901165655 20.04064238883372 0 0 0
965 322 1 0.5897 0.17658786999997014 14.258517417731017 18.886709302865043 1 0 0
895 299 2 -1.1794 0.9275671276443616 15.348995933425291 15.791709430104037 0 0 0
781 261 2 -1.1794 2.2226550690416316 12.36348312687462 20.604383224864296 0 0 0
771 257 1 0.5897 4.479989430944902 13.410697830153847 16.070836268176137 0 0 0
870 290 1 0.5897 4.932205685593914 14.259965942300951 17.90936059130858 0 0 0
777 259 1 0.5897 0.656291301385242 13.504549166185603 15.560120686325288 0 0 0
9 3 1 0.5897 5.143123446264201 4.443529818570142 4.841418179519622 0 0 0
34 12 2 -1.1794 5.649786696149316 2.541336749728588 0.15163841295066405 0 0 0
55 19 2 -1.1794 7.476864279959518 6.010497322279211 1.6132561951231474 0 0 0
46 16 2 -1.1794 7.853049533547003 4.37908092968872 3.9272398415648992 0 0 0
48 16 1 0.5897 7.15404428266981 4.520609310385565 4.5657424776270155 0 0 0
67 23 2 -1.1794 7.670783829275369 2.3268661701969386 2.1087934026842032 0 0 0
68 23 1 0.5897 8.284998417915405 2.687926317680266 1.469505617498632 0 0 0
69 23 1 0.5897 6.8276525348914765 2.3225693082398435 1.6555803290283733 0 0 0
47 16 1 0.5897 7.545068841753843 3.647392927176611 3.392409887742279 0 0 0
166 56 2 -1.1794 8.73742735894134 7.443024572988378 4.763605752569069 0 0 0
56 19 1 0.5897 6.527534453004822 5.94673766076506 1.5085390153819531 0 0 0
176 59 1 0.5897 7.419279393084279 7.866723103073785 2.0062779222642604 0 0 0
57 19 1 0.5897 7.669937855023521 5.475059196583389 2.3829099068546657 0 0 0
155 52 1 0.5897 7.9790225925437 9.966606510031516 3.344111696851136 0 0 0
711 237 1 0.5897 8.970661815626048 5.881489155094841 0.38036160294212223 0 0 1
177 59 1 0.5897 8.096527969589909 8.97176758003052 1.2238438932056244 0 0 0
143 48 1 0.5897 5.804769955060046 9.154830194123514 0.8873808503376938 0 0 0
175 59 2 -1.1794 7.373375214291608 8.806192623354766 1.8287848099803508 0 0 0
273 91 1 0.5897 7.6025588426756245 0.3439851393550854 2.010870683213066 0 1 0
53 18 1 0.5897 9.795093681779171 4.144126164585313 4.051595974896665 0 0 0
167 56 1 0.5897 8.958576968667233 6.577791596751244 5.108114622457388 0 0 0
142 48 2 -1.1794 5.060166835098087 9.055767770578077 0.29402395892784294 0 0 0
145 49 2 -1.1794 9.331577110248185 9.410399674301576 -0.054226125066315294 0 0 0
138 46 1 0.5897 6.991473632495486 7.419000024620001 5.129412910944957 0 0 0
380 127 1 0.5897 7.564741451780155 6.9994499129822625 8.636245253460979 0 0 0
393 131 1 0.5897 7.701483153696347 1.048418849618062 9.063815261932021 0 0 0
59 20 1 0.5897 9.247307014848355 1.2035487484733287 5.882180661682674 0 0 0
362 121 1 0.5897 9.427932648036668 3.64931622880273 6.861572480676927 0 0 0
358 120 2 -1.1794 5.608446694850127 2.5260657061040783 7.324087519981284 0 0 0
391 131 2 -1.1794 7.707171552828491 2.0054119572427855 9.082420734946517 0 0 0
360 120 1 0.5897 5.5534594762012235 1.797866561652693 6.7052224241148854 0 0 0
8 3 1 0.5897 5.657602208633578 3.952400433369144 6.177962147046056 0 0 0
359 120 1 0.5897 6.248253074496758 2.2394158425197515 7.975858884519262 0 0 0
361 121 2 -1.1794 9.488879725569545 2.7397434676296197 7.153436371673571 0 0 0
392 131 1 0.5897 8.290328655113662 2.255909148564467 8.365815984477415 0 0 0
28 10 2 -1.1794 6.041481850739809 0.5534258425014899 5.42241074161192 0 0 0
168 56 1 0.5897 8.888108835013183 8.039086327845045 5.497309103422403 0 0 0
338 113 1 0.5897 5.622759656068616 6.010633192012004 8.085681833019567 0 0 0
381 127 1 0.5897 7.591725508963573 5.568232439235192 9.128986511366154 0 0 0
62 21 1 0.5897 8.668990219285734 5.591317221605819 6.9633349265339985 0 0 0
467 156 1 0.5897 5.818506742867746 8.449029196268224 6.662015955438246 0 0 0
61 21 2 -1.1794 9.406421405143893 5.295086722984941 6.429725720451235 0 0 0
500 167 1 0.5897 7.861942269320118 9.203242359240779 9.83632218266357 0 0 0
466 156 2 -1.1794 5.652816985175502 9.112850379725305 7.331483689576373 0 0 0
501 167 1 0.5897 6.941665628809012 8.965059671041036 8.657969245896242 0 0 0
499 167 2 -1.1794 7.763367127317334 8.667947760946104 9.04886851410825 0 0 0
469 157 2 -1.1794 9.189013754085664 9.027966210823758 6.787701435130827 0 0 0
470 157 1 0.5897 8.76692873990547 8.963063606482121 7.644443403726337 0 0 0
379 127 2 -1.1794 7.4959245154050596 6.093646935855977 8.334566347213972 0 0 0
7 3 2 -1.1794 5.751590826009877 4.665466347655607 5.5462960138521975 0 0 0
137 46 1 0.5897 5.906969254123588 6.418911052149529 5.469432775386453 0 0 0
136 46 2 -1.1794 6.061757365162559 7.355701405076026 5.348257869346733 0 0 0
371 124 1 0.5897 7.8523445728585015 3.397636662405656 10.103340989028807 0 0 0
29 10 1 0.5897 6.966231805050244 0.7120386065304328 5.232835574176108 0 0 0
58 20 2 -1.1794 8.800583874649796 0.6368157361853551 5.25324544405258 0 0 0
331 111 2 -1.1794 5.879971272484585 4.620571632684525 12.364428831326828 0 0 0
462 154 1 0.5897 5.5314222346357305 7.490291083342968 11.472165592960499 0 0 0
386 129 1 0.5897 9.135682100150838 4.6146343743054885 13.529559073239078 0 0 0
354 118 1 0.5897 5.682224696796383 1.3829113185286201 12.81423750702551 0 0 0
682 228 2 -1.1794 5.470396984992323 2.567819735466112 14.189908736562016 0 0 0
686 229 1 0.5897 8.680272173307578 2.5213185771591755 14.17977334617079 0 0 0
384 128 1 0.5897 9.080669562724974 0.5719873878179048 11.120343351830767 0 0 0
353 118 1 0.5897 6.697575527268057 0.7123191964332338 11.91342957680559 0 0 0
685 229 2 -1.1794 9.249587587194723 2.6613383014550442 13.423068484703245 0 0 0
684 228 1 0.5897 5.601751132021155 3.354111274195781 13.660042308638296 0 0 0
383 128 1 0.5897 8.711340081672406 1.2146856242301405 12.4404807401089 0 0 0
382 128 2 -1.1794 8.49753849734506 0.4739480544781704 11.873138890359069 0 0 0
372 124 1 0.5897 7.307083352501789 4.330915146538876 11.163412582147858 0 0 0
352 118 2 -1.1794 5.759478647258384 0.7503152237889398 12.099974033053691 0 0 0
492 164 1 0.5897 8.195086389565269 7.383363537914975 11.598603445234511 0 0 0
794 265 1 0.5897 9.217393720470003 8.635459422668239 13.211994741744897 0 0 0
387 129 1 0.5897 8.972469647765582 6.08312165849472 13.1997566995335 0 0 0
333 111 1 0.5897 5.991896378745246 5.545956438809075 12.58192977538879 0 0 0
790 264 2 -1.1794 5.436584275332772 9.22757290680646 14.026737467408529 0 0 0
385 129 2 -1.1794 9.248462125721138 5.490456533177194 13.89895928268481 0 0 0
490 164 2 -1.1794 9.098066878753949 7.349249434121459 11.914410115428582 0 0 0
491 164 1 0.5897 9.631937624663875 7.430100505609674 11.123965527748588 0 0 0
460 154 2 -1.1794 6.309645413929094 7.351598922492175 12.012020085086121 0 0 0
791 264 1 0.5897 5.9879329642454415 9.080809505246375 14.795387285406242 0 0 0
461 154 1 0.5897 6.263877921373701 8.036190498165682 12.679512466401652 0 0 0
793 265 2 -1.1794 9.18330408530476 9.175692020485547 14.00149038271779 0 0 0
332 111 1 0.5897 5.16234588062647 4.607960958338745 11.731048308270909 0 0 0
705 235 1 0.5897 8.066098111193737 5.597233180203635 15.23519858870111 0 0 0
370 124 2 -1.1794 8.021753324047573 4.235673456831319 10.533748715595765 0 0 0
377 126 1 0.5897 9.89518981071702 4.047325107552234 10.58149012262597 0 0 0
824 275 1 0.5897 8.09633411653845 8.94345634073967 15.38558562917045 0 0 0
717 239 1 0.5897 6.808409064117186 2.242522253541514 15.303343790420092 0 0 0
704 235 1 0.5897 6.639932766489799 5.893699694752111 15.647714675787528 0 0 0
655 219 2 -1.1794 5.690282819963048 4.871261225715629 19.251095803513646 0 0 0
716 239 1 0.5897 7.610272849703994 1.1180424645830114 15.923436444476318 0 0 0
710 237 1 0.5897 9.567989365550394 4.708718498127409 20.460065371040564 0 0 0
823 275 2 -1.1794 7.418555144406767 8.655501097397554 15.997151830801776 0 0 0
38 13 1 0.5897 9.192916188213799 2.27104485710071 20.036948340666587 0 0 -1
695 232 1 0.5897 7.780972928612446 3.2617478124942476 17.148740277796264 0 0 0
708 236 1 0.5897 8.126303678832585 1.0930688291325001 18.57166406326766 0 0 0
657 219 1 0.5897 6.512948968820387 4.602287902064113 18.842255831198607 0 0 0
676 226 2 -1.1794 6.21253586832929 0.8200681640967212 18.99940287614031 0 0 0
706 236 2 -1.1794 9.06350231042809 0.9742909795255041 18.72594471964969 0 0 0
694 232 2 -1.1794 7.933379609152597 4.014440416906468 17.720149806295982 0 0 0
703 235 2 -1.1794 7.547641441368258 5.997323902710014 15.933384979524979 0 0 0
715 239 2 -1.1794 7.674409443759956 2.034294213304366 15.653993665401904 0 0 0
816 272 1 0.5897 8.76547751017332 8.352031502571812 19.332394009235337 0 0 0
814 272 2 -1.1794 8.780181502498504 7.669310159035265 18.661586095043035 0 0 0
144 48 1 0.5897 5.376480659364419 8.467895662908822 20.435864617773035 0 0 -1
696 232 1 0.5897 7.779383027149752 4.775585278576103 17.1604863946305 0 0 0
784 262 2 -1.1794 6.074001099956788 7.617965020312604 18.966281676835134 0 0 0
786 262 1 0.5897 7.020049456873186 7.64666778458827 18.82355062315721 0 0 0
815 272 1 0.5897 9.079542832104925 6.885941200963802 19.123085639525957 0 0 0
825 275 1 0.5897 7.579769546925956 7.718808227366468 16.110405023724415 0 0 0
785 262 1 0.5897 5.903372393506048 6.724821740011045 19.26525223158576 0 0 0
677 226 1 0.5897 5.579310881601123 1.0194622421369701 18.309761299060703 0 0 0
36 12 1 0.5897 5.685447191887751 3.382876769413753 20.524793583446613 0 0 -1
656 219 1 0.5897 5.011353350020288 4.553943021734078 18.65555105339768 0 0 0
35 12 1 0.5897 5.867978005762573 1.8958704633705348 20.30717215894167 0 0 -1
702 234 1 0.5897 9.784215586461452 3.962006830076164 17.460472009762643 0 0 0
707 236 1 0.5897 9.116858041511334 0.21484489810675075 19.306166484137464 0 0 0
709 237 2 -1.1794 9.51553825013262 5.664434760064603 20.4517260517523 0 0 0
37 13 2 -1.1794 9.416349140709537 2.9322480946848417 20.692072539015758 0 0 -1
276 92 1 0.5897 8.884575649838357 14.177455059185634 4.3245684328957825 0 0 0
165 55 1 0.5897 7.703543338250841 12.053485711082606 2.7038510258262782 0 0 0
285 95 1 0.5897 7.5987745586279365 14.601618915990606 2.1978291996695223 0 0 0
819 273 1 0.5897 8.405807230164553 12.382649555853689 0.2998117859295159 0 0 1
164 55 1 0.5897 6.474657843182915 12.363287946704657 1.875634456827752 0 0 0
250 84 2 -1.1794 5.443353396862808 15.690048070360705 0.16457881430831164 0 0 0
156 52 1 0.5897 9.090806047869876 10.777553743042702 3.9752298729429336 0 0 0
163 55 2 -1.1794 7.367071847636162 12.663765054526248 2.047605965090235 0 0 0
154 52 2 -1.1794 8.145452323557912 10.631867457122516 4.011971882825229 0 0 0
264 88 1 0.5897 8.422723323716886 17.422663976772284 4.018691684911795 0 0 0
231 77 1 0.5897 5.416446126674112 19.34860041647016 1.4835649848952812 0 0 0
283 95 2 -1.1794 7.596610752480201 15.451614513023445 1.7576742370841196 0 0 0