LAMMPS data file via write_data, version 30 Jul 2021, timestep = 28250000

1008 atoms
2 atom types
672 bonds
1 bond types
336 angles
1 angle types

-3.1067548785735077 14.716753878127538 xlo xhi
-0.31729164954181677 22.897290649565566 ylo yhi
0.13711386864457964 19.092884131356367 zlo zhi
-0.141306657314997 -6.1816334744596055 0.47341037337612 xy xz yz

Masses

1 1.008
2 15.999

Pair Coeffs # lj/cut/tip4p/long/omp

1 0 0
2 0.21084 3.1668

Bond Coeffs # harmonic/omp

1 450 0.9572

Angle Coeffs # harmonic/omp

1 55 104.52

Atoms # full

55 19 2 -1.1794 -0.7471993894462292 4.2916253783075184 3.5075416882686765 0 0 0
121 41 2 -1.1794 -2.1831819403070725 2.131689246408008 2.7685600119933906 1 0 0
56 19 1 0.5897 -1.224462203768517 3.607960942368907 3.037381630429824 0 0 0
122 41 1 0.5897 -1.981784286758435 1.758225254177383 1.9105861027834559 1 0 0
86 29 1 0.5897 -1.9968248390297825 1.0566164358845238 4.211798198667024 1 0 0
602 201 1 0.5897 -0.153097644633164 5.4154328486684005 0.4593651330719557 1 0 1
123 41 1 0.5897 -3.1246719914453522 2.3017743196674294 2.741207480466943 1 0 0
158 53 1 0.5897 -4.020053978938749 4.5907634105310295 4.527251882202342 1 0 0
100 34 2 -1.1794 -3.261477152844825 5.124428354854694 0.7820386845836498 1 0 0
101 34 1 0.5897 -2.435771876193 4.699151910865712 0.5508528104539487 1 0 0
57 19 1 0.5897 0.037987859458977535 4.4415179960321485 2.9811694766387213 0 0 0
482 161 1 0.5897 -1.0617717481640159 -0.22768358582536757 0.9899965000928258 1 1 0
157 53 2 -1.1794 -3.3268997503540483 5.174836891412065 4.834777348413702 1 0 0
21 7 1 0.5897 1.0433591230706378 2.221524749349116 0.9211995109397153 0 0 0
87 29 1 0.5897 -1.9495747355182587 1.5136193983598771 5.654246050589269 1 0 0
133 45 2 -1.1794 -1.7203744500965596 3.152775079584583 6.350044639752433 1 0 0
98 33 1 0.5897 -3.788449048205885 5.100027576155516 8.686167675812662 1 0 0
134 45 1 0.5897 -2.516640682096091 3.061517802492918 6.8732411069158275 1 0 0
124 42 2 -1.1794 -4.318334493074632 2.6184945116156224 7.713817245743511 1 0 0
69 23 1 0.5897 -2.1406335421672273 0.706828396608582 9.146265206522758 0 0 0
67 23 2 -1.1794 -1.9809452612504086 -0.015406132348692536 8.538721062967905 0 0 0
159 53 1 0.5897 -2.5757941309529913 4.599725559839043 4.980597847260182 1 0 0
125 42 1 0.5897 -4.529306718791705 1.9211667894169713 7.0929514563996925 1 0 0
135 45 1 0.5897 -1.2149381401297399 3.830765859342698 6.7985030950765655 1 0 0
669 223 1 0.5897 -5.02452950885638 1.8571328415833719 9.32478301425734 1 0 0
126 42 1 0.5897 -4.88411674367714 3.3469738307323675 7.457980897381434 1 0 0
85 29 2 -1.1794 -2.1102052841292687 0.7433411906673963 5.109135982167919 1 0 0
90 30 1 0.5897 -3.9625641627677046 0.719088844044959 5.472020925930313 1 0 0
88 30 2 -1.1794 -4.845084755353881 1.0866754680369561 5.5178999693792505 1 0 0
97 33 2 -1.1794 -3.759652869171405 4.8519233220824916 9.610200403955334 1 0 0
559 187 2 -1.1794 -3.5990718599192637 4.263292116537367 12.721841584751823 0 0 0
626 209 1 0.5897 -5.805416631858948 1.9896709324094406 12.870787912496992 1 0 0
986 329 1 0.5897 -4.673095879643308 0.06762396805494414 10.848473032666442 1 1 0
663 221 1 0.5897 -6.537699705058753 5.714499684698714 13.316482755688972 1 0 0
625 209 2 -1.1794 -5.944203585972547 2.6504254112585106 12.192229669794294 1 0 0
627 209 1 0.5897 -6.829441515602752 2.9770243862922463 12.352771123263388 1 0 0
560 187 1 0.5897 -3.8982982143468146 5.017408443233041 13.229800378202189 0 0 0
561 187 1 0.5897 -4.403772881876992 3.8193345384503257 12.45449892780374 0 0 0
668 223 1 0.5897 -5.718269515267546 1.8663079749188012 10.670238916644314 1 0 0
667 223 2 -1.1794 -5.543657218079491 1.3082180581849203 9.91246295195485 1 0 0
99 33 1 0.5897 -4.646917261254681 4.550776079849039 9.80560611142827 1 0 0
523 175 2 -1.1794 -2.0157612022867752 2.5845577266587743 9.902923917627522 0 0 0
524 175 1 0.5897 -2.567839977183899 3.314050978744877 9.62129751603346 0 0 0
662 221 1 0.5897 -7.104938723601215 4.459010027501364 13.944310255503996 1 0 0
661 221 2 -1.1794 -6.494120164017032 5.177651048579787 14.107799958769348 1 0 0
589 197 2 -1.1794 -5.956954560058442 0.5836063472395245 14.254461949818474 1 0 0
987 329 1 0.5897 -3.415025870032763 -0.014059670639573696 11.686459464028244 1 1 0
606 202 1 0.5897 -6.4240855495433795 4.912961495308493 10.60676913494677 1 0 0
629 210 1 0.5897 -8.053348265422322 3.498774333713884 16.782508314525558 1 0 0
601 201 2 -1.1794 -6.675683020158328 5.258479504001185 18.780621764022243 1 0 0
637 213 2 -1.1794 -5.140030177324496 3.021169788614292 15.452765009614293 1 0 0
164 55 1 0.5897 -7.786061317445516 1.8363655013944138 18.257285053699594 1 0 -1
638 213 1 0.5897 -5.434146276801149 3.7121454383506984 14.85916600804853 1 0 0
639 213 1 0.5897 -5.81325762179288 2.9857730105211697 16.132191953430038 1 0 0
590 197 1 0.5897 -5.613363549797345 1.2817181545538823 14.812001617426187 1 0 0
20 7 1 0.5897 -5.281951671323059 2.133894459356746 18.47826467843188 0 0 -1
628 210 2 -1.1794 -7.465840712605882 2.7523371669974686 16.66473033711379 1 0 0
571 191 2 -1.1794 -5.466030842746717 0.6470442675070214 17.472161296269825 0 0 0
165 55 1 0.5897 -9.11401845672468 1.2441240102335929 18.678532023097944 1 0 -1
163 55 2 -1.1794 -8.251137032977034 1.4841082130598915 19.016099998780955 1 0 -1
603 201 1 0.5897 -6.104585654632929 4.495476206980395 18.869605869027914 1 0 0
630 210 1 0.5897 -7.975951151927191 2.1234858213690133 16.154293840061015 1 0 0
19 7 2 -1.1794 -5.071735473865869 2.9378006871132216 18.95349694509636 0 0 -1
572 191 1 0.5897 -6.243357614202251 0.27081856382659786 17.059416555575904 0 0 0
593 198 1 0.5897 -7.615914551346611 0.8417363898859436 14.582719404501596 1 0 0
290 97 1 0.5897 -1.7759749229642565 10.96247323547975 3.1602986554305477 1 0 0
146 49 1 0.5897 -1.0424612529412034 6.818897258309051 2.076830673556387 1 0 0
332 111 1 0.5897 -1.78793061459253 9.287067610599294 1.3256597879149812 1 0 0
112 38 2 -1.1794 -2.739106901226124 6.780811060112123 2.7231981420418205 1 0 0
145 49 2 -1.1794 -0.18361769650990212 6.845421213714565 1.6551998936149086 1 0 0
289 97 2 -1.1794 -2.4593022296918803 10.362421901406352 2.86159846066144 1 0 0
147 49 1 0.5897 -0.24734444349897222 7.5637599863998615 1.025706874546712 1 0 0
291 97 1 0.5897 -3.23502295474324 10.913847243044744 2.7598400382995116 1 0 0
255 85 1 0.5897 -2.2052825561896547 8.795441226873788 4.0891889747400825 1 0 0
9 3 1 0.5897 -0.5649172959229394 5.83814762210768 4.3548013201186615 0 0 0
113 38 1 0.5897 -2.843895682656351 6.199847990633422 3.4767210644797446 1 0 0
331 111 2 -1.1794 -1.676209924130981 8.86332906587428 0.4747118292492159 1 0 0
114 38 1 0.5897 -2.982716231271099 6.242907717554264 1.969847147933768 1 0 0
292 98 2 -1.1794 -5.086342311065762 10.147751558976266 7.354395313773683 1 0 0
111 37 1 0.5897 -4.754378183592331 6.767096107959555 7.116913200664982 1 0 0
258 86 1 0.5897 -5.002527939782161 9.240447518468113 5.89556968622153 1 0 0
293 98 1 0.5897 -4.169602970799266 10.417621130621392 7.407618589277971 1 0 0
301 101 2 -1.1794 -2.4889094704927905 10.775748151552557 6.7313152284537825 1 0 0
236 79 1 0.5897 -2.6138465503819415 7.335605881423001 7.660275262399016 0 0 0
109 37 2 -1.1794 -3.9517216241021105 6.250127330906952 7.18415746794193 1 0 0
235 79 2 -1.1794 -1.9411462596633289 7.8044418934136175 8.15409518604005 0 0 0
302 101 1 0.5897 -2.208533482685377 10.056713017395904 6.165097016506597 1 0 0
294 98 1 0.5897 -5.297713128395202 9.84062383810905 8.235982619666778 1 0 0
837 279 1 0.5897 -5.8729804434933826 8.225947838834143 9.286627109075319 1 0 0
303 101 1 0.5897 -1.6770448769426274 11.221016433669657 6.9737561528463345 1 0 0
110 37 1 0.5897 -3.7890785098134288 5.942255445157445 6.292592807115224 1 0 0
692 231 1 0.5897 -2.6198959429978066 9.414831210897862 9.222140452302705 0 0 0
253 85 2 -1.1794 -2.203389650817543 8.531759014770875 5.009315389061292 1 0 0
257 86 1 0.5897 -3.869372469244129 8.562529302547825 5.155402690614966 1 0 0
254 85 1 0.5897 -1.8953386553223708 7.625518414612945 4.998725933474671 1 0 0
793 265 2 -1.1794 -5.8548733062896945 10.263823017303109 12.079530779034895 1 0 0
835 279 2 -1.1794 -5.337998905896935 8.872555751471689 9.746949726959077 1 0 0
795 265 1 0.5897 -5.757020396109537 9.910948360918152 11.195179369484086 1 0 0
618 206 1 0.5897 -5.791920330707596 6.8020329863301505 11.482934964263764 1 0 0
649 217 2 -1.1794 -3.963437127884945 7.14811355644991 11.30418387153802 1 0 0
651 217 1 0.5897 -3.204919348677717 7.617088792709169 11.651809471374838 1 0 0
759 253 1 0.5897 -5.335781778923509 9.22555903693377 13.455186495479346 1 0 0
650 217 1 0.5897 -3.592918009042231 6.376903035620726 10.875007021796275 1 0 0
794 265 1 0.5897 -5.234993985023525 10.992241768771057 12.117265384527752 1 0 0
616 206 2 -1.1794 -6.6615012684577835 6.478223015889563 11.71769036962008 1 0 0
836 279 1 0.5897 -4.700793929520411 8.352154412241216 10.236158559514127 1 0 0
691 231 2 -1.1794 -2.3908759770286983 10.141994264103207 9.800980286277538 0 0 0
757 253 2 -1.1794 -5.168714136414257 8.843572204094219 14.316822379202911 1 0 0
797 266 1 0.5897 -6.7338724502428535 10.943392302092258 16.896701994493018 1 0 0
614 205 1 0.5897 -6.922504950444864 6.052854247253641 17.092814572210074 1 0 0
741 247 1 0.5897 -5.591153462145041 9.241334863128772 17.824724926792964 0 0 0
333 111 1 0.5897 -7.985800459140483 10.039864752644371 18.79367483043306 1 0 -1
798 266 1 0.5897 -7.86197771595746 9.943185703412516 16.759579235523542 1 0 0
613 205 2 -1.1794 -7.100248786175513 6.703072562419044 16.413154769120926 1 0 0
758 253 1 0.5897 -5.0806927356035345 9.597217831330921 14.900379680652891 1 0 0
740 247 1 0.5897 -5.88992849275151 7.920444852936139 17.147950352191327 0 0 0
796 266 2 -1.1794 -7.627790367407383 10.76591035433853 17.189125716156983 1 0 0
739 247 2 -1.1794 -5.226451880262043 8.369667866594453 17.671562183824452 0 0 0
805 269 2 -1.1794 -5.2185688305643385 11.157592508073845 15.889223270023784 1 0 0
511 171 2 -1.1794 -3.7584542402252676 6.557928374945836 14.630849340247998 0 0 0
762 254 1 0.5897 -7.311433143056986 8.631486082347381 14.963642387584372 1 0 0
615 205 1 0.5897 -6.815031037993169 6.285033104787175 15.600713296007344 1 0 0
512 171 1 0.5897 -4.2481226028255055 7.354312288918171 14.425305636531768 0 0 0
654 218 1 0.5897 -8.827006647914297 8.113255677839058 18.31948417632137 1 0 0
281 94 1 0.5897 -3.132986423387477 13.415494001833942 3.410059161139569 1 0 0
315 105 1 0.5897 -0.5252526891201823 13.994225350319835 1.6529330307710461 1 0 0
223 75 2 -1.1794 -0.4239371685331359 12.305181932528626 3.3447256246973036 0 0 0
225 75 1 0.5897 -0.7402062621050387 12.817530655225138 4.0888044467074405 0 0 0
423 141 1 0.5897 -2.2713682743597667 16.572360799314225 4.200247205831704 1 0 0
282 94 1 0.5897 -2.5779465688256034 14.516517405499854 2.5315484695255295 1 0 0
313 105 2 -1.1794 -0.8002233062281392 14.868953092108683 1.927754969794659 1 0 0
314 105 1 0.5897 -0.023252341247164132 15.246351910101469 2.340082910363417 1 0 0
280 94 2 -1.1794 -3.300664844787983 13.892330337923944 2.5971834964840967 1 0 0
500 167 1 0.5897 -1.6228755375873414 15.89422788396221 0.6713783081098382 1 0 0
268 90 2 -1.1794 -2.9226764073504325 12.316034689889362 0.3407907554288954 1 0 0
499 167 2 -1.1794 -2.4784158053327463 16.22212709244465 0.39450288835762587 1 0 0
771 257 1 0.5897 0.25582816689655763 11.798959369860066 0.24482876448429225 1 0 1
269 90 1 0.5897 -3.228870680696523 12.876409739584334 1.0537923246166812 1 0 0
770 257 1 0.5897 -1.1944316267753992 12.222296717146962 0.14954006881330967 1 0 1
404 135 1 0.5897 -1.9460202418166639 15.757831505312142 7.317223512554909 0 0 0
279 93 1 0.5897 -5.17339689638294 14.207707462000794 7.523600670396866 1 0 0
1004 335 1 0.5897 -5.1933908130873725 16.980132747312204 8.688023941244138 1 0 0
327 109 1 0.5897 -3.7905428702888657 13.17577551679534 5.698837027606946 1 0 0
277 93 2 -1.1794 -4.351348856505837 13.99473357964009 7.082056745794909 1 0 0
278 93 1 0.5897 -3.6997993831929614 14.553703787022119 7.505370753281776 1 0 0
403 135 2 -1.1794 -2.4264071085052348 15.514722664949431 8.108604984560763 0 0 0
326 109 1 0.5897 -2.941888722883477 11.949580401755425 5.437805236306648 1 0 0
267 89 1 0.5897 -3.5399477031410993 12.670384380172806 8.318144402792967 1 0 0
422 141 1 0.5897 -2.483682686214417 17.074513056049256 5.612498427660368 1 0 0
425 142 1 0.5897 -4.406597036074599 15.825409545906611 5.089571659846672 1 0 0
405 135 1 0.5897 -2.298778399916244 16.253847213594526 8.703315149980208 0 0 0
176 59 1 0.5897 -0.9016432313337592 14.941494816836233 5.336410410142766 0 0 0
773 258 1 0.5897 -5.213879816538304 12.245828862484295 9.334668716528215 1 0 0
265 89 2 -1.1794 -3.474622068053141 12.520706506331202 9.261295753184173 1 0 0
462 154 1 0.5897 -5.167314416198968 17.185941798904175 6.377362100550007 1 0 0
772 258 2 -1.1794 -6.133801985759611 12.309739634413473 9.591036058757803 1 0 0
325 109 2 -1.1794 -3.50294533903664 12.589204237131966 4.999250355441358 1 0 0
421 141 2 -1.1794 -2.3085168459733576 16.27856281962717 5.1104748190242635 1 0 0
175 59 2 -1.1794 -0.46267666268437324 14.091195998166622 5.360935022859979 0 0 0
266 89 1 0.5897 -2.993210114582778 11.697180432393516 9.340881217688297 1 0 0
1003 335 2 -1.1794 -5.248655923514692 16.702525258825546 9.602395734144899 1 0 0
925 309 2 -1.1794 -5.603877432133167 16.22603419645482 14.01937881791212 1 0 0
729 243 1 0.5897 -3.8786696630687096 12.870453789814325 13.144269852963816 0 0 0
819 273 1 0.5897 -3.3491664455366954 14.132632336245912 10.557005783319555 1 0 0
962 321 1 0.5897 -5.699006870402419 17.20019181309378 12.500718249176861 1 0 0
1005 335 1 0.5897 -4.439761814132003 16.213931048474386 9.7542773938275 1 0 0
786 262 1 0.5897 -6.388469256750592 13.67661755788954 12.663220115865414 1 0 0
818 273 1 0.5897 -4.551861778842699 14.449220931434658 11.419990602550433 1 0 0
784 262 2 -1.1794 -6.349262230538342 14.039255960695648 11.778246237891404 1 0 0
817 273 2 -1.1794 -3.7479547305687815 14.83441587722133 11.071461895825168 1 0 0
831 277 1 0.5897 -7.19598841552251 12.637685427618669 14.211067079372393 1 0 0
774 258 1 0.5897 -6.128265296546475 12.870009384221246 10.367105864001438 1 0 0
727 243 2 -1.1794 -3.8713626155223277 11.989317710225139 12.770298347306094 0 0 0
785 262 1 0.5897 -6.902218133619659 14.819776225265487 11.81390970863354 1 0 0
829 277 2 -1.1794 -6.365509064245536 13.105345249375453 14.299198377089041 1 0 0
728 243 1 0.5897 -3.2269203464049596 12.033777675428466 12.064080772200882 0 0 0
873 291 1 0.5897 -2.746289801884585 15.946339154967292 11.833717209821637 0 0 0
926 309 1 0.5897 -4.8260098684883665 15.694709263941542 14.18901226543607 1 0 0
830 277 1 0.5897 -6.48634272042425 13.6669579388641 15.064820826411575 1 0 0
806 269 1 0.5897 -5.657339712720996 11.753013282247748 15.281589815837501 1 0 0
907 303 2 -1.1794 -5.436668111006453 16.24762843795923 17.847009748731914 0 0 0
908 303 1 0.5897 -5.872807174790484 15.542230739475277 17.369030625983466 0 0 0
781 261 2 -1.1794 -6.9794218389814295 14.542427469298586 16.663098756114145 1 0 0
782 261 1 0.5897 -6.873929702959659 14.001854171266485 17.446003083686044 1 0 0
769 257 2 -1.1794 -6.484448324597127 13.010285403812798 18.956346786869013 1 0 0
783 261 1 0.5897 -7.784113023106727 15.036607239898123 16.819264473976858 1 0 0
807 269 1 0.5897 -4.560862263150899 11.700340839480202 16.324004951682607 1 0 0
930 310 1 0.5897 -7.413686081548954 16.25419317589376 14.3635220951152 1 0 0
679 227 2 -1.1794 -3.626472128535121 14.329793906419647 14.384741048630909 0 0 0
927 309 1 0.5897 -5.622320208971823 16.860229068311455 14.736088231232959 1 0 0
909 303 1 0.5897 -4.564564815881494 16.298986175675843 17.456010471442486 0 0 0
501 167 1 0.5897 -8.462076121744534 17.33539348147287 18.666385539261434 1 0 -1
393 131 1 0.5897 -0.7586299103874059 20.478421127527064 4.036809857782496 0 0 0
483 161 1 0.5897 -1.322068274912785 22.18652006692892 2.26953874443323 1 0 0
457 153 2 -1.1794 -2.4358471340655043 17.72885670972113 2.7492765198667537 1 0 0
437 146 1 0.5897 -2.7301050134508107 20.291627065733977 0.25379800458827534 1 0 0
448 150 2 -1.1794 -3.3554897496136507 22.03663463832659 2.778856378507747 1 0 0
459 153 1 0.5897 -1.7566261076996714 18.3834605267591 2.911702913340135 1 0 0
481 161 2 -1.1794 -0.6792281752852625 22.538620220361892 1.6539640521714558 1 0 0
391 131 2 -1.1794 -0.773149707429579 19.67809572642294 3.511873550167707 0 0 0
449 150 1 0.5897 -3.583005483447341 21.403115068530354 2.0983163389385417 1 0 0
392 131 1 0.5897 -0.016810763492630443 19.758522627606588 2.930847747216072 0 0 0
938 313 1 0.5897 -0.36120276188600275 21.075033316390545 0.5494570576551645 1 0 1
495 165 1 0.5897 -3.6356898240180495 21.223480758006595 4.439224648925196 1 0 0
458 153 1 0.5897 -2.3226140649469205 17.488594270224866 1.8297145166733775 1 0 0
355 119 2 -1.1794 0.823674711007452 17.9487628009597 0.719398738686279 0 0 0
939 313 1 0.5897 -0.2264634283947622 19.5883831441159 0.2966177289227705 1 0 1
450 150 1 0.5897 -3.7923250965609303 22.844891555846402 2.5101643759604473 1 0 0
937 313 2 -1.1794 -0.8119080827904273 20.33126543799441 0.14953713526124146 1 0 1
471 157 1 0.5897 -3.171488543901032 18.422084581480824 7.041597911967822 1 0 0
469 157 2 -1.1794 -2.4504733846847384 18.850465144482953 6.580282390706373 1 0 0
494 165 1 0.5897 -4.070555609144161 21.150528251785992 5.887435462187009 1 0 0
460 154 2 -1.1794 -5.05148336340889 17.74424036447683 7.146194611589716 1 0 0
445 149 2 -1.1794 -4.138460893590565 21.639025451310324 7.667378018382347 1 0 0
446 149 1 0.5897 -4.19186841623318 20.833318980828302 8.181525285747519 1 0 0
345 115 1 0.5897 -0.9110435614555081 22.741506514194988 4.929719586786501 0 0 0
470 157 1 0.5897 -2.8759913953208773 19.49847928921131 6.018774716959914 1 0 0
447 149 1 0.5897 -4.969569399169305 22.08430431886258 7.831930420797471 1 0 0
493 165 2 -1.1794 -3.899394682667052 20.604506844430013 5.120124212786912 1 0 0
68 23 1 0.5897 -2.994184386551494 22.86475666062453 8.32889656889506 0 -1 0
343 115 2 -1.1794 -0.35490827628207366 21.96251738291543 4.917857496727997 0 0 0
859 287 2 -1.1794 -2.160604962517832 17.802875199029017 9.502870529544705 0 0 0
998 333 1 0.5897 -7.212783601121032 20.65943182045637 13.788766306937708 1 0 0
985 329 2 -1.1794 -4.286773146795019 22.672454722144863 11.364285465803432 1 0 0
895 299 2 -1.1794 -4.076034903263304 19.59700486267741 12.87549856518507 0 0 0
860 287 1 0.5897 -2.595250321826346 18.62954184321658 9.712443196887971 0 0 0
963 321 1 0.5897 -5.599458855550542 17.489362478494947 11.01804948762454 1 0 0
896 299 1 0.5897 -4.6809274445055635 19.09773257759977 12.326845344185466 0 0 0
954 318 1 0.5897 -6.045790112166744 21.826136228980218 12.129486580611687 1 0 0
961 321 2 -1.1794 -5.892853966543511 17.87061764461668 11.845534124624166 1 0 0
848 283 1 0.5897 -4.600722651975133 21.286392679468484 14.104684889767123 0 0 0
952 318 2 -1.1794 -6.9146778706675 21.504308982248332 12.369481171551607 1 0 0
897 299 1 0.5897 -3.946036809603268 19.048952084696495 13.64944328410294 0 0 0
435 145 1 0.5897 -3.7999380598902923 20.841616856973218 10.611072836067438 1 0 0
434 145 1 0.5897 -4.751190255795134 19.805938057559977 10.050391808954824 1 0 0
433 145 2 -1.1794 -3.820530474137506 20.015704409156193 10.127669529450394 1 0 0
966 322 1 0.5897 -8.375258903949891 17.501005098732975 16.43323218199714 1 0 0
974 325 1 0.5897 -6.65127832326271 18.331221884025375 16.460487143344825 1 0 0
950 317 1 0.5897 -7.391318916750062 21.20350730279514 16.158554730360724 1 0 0
573 191 1 0.5897 -5.227787622370537 23.139049645278035 17.972284103411162 0 -1 0
973 325 2 -1.1794 -5.883917749039787 18.42717340751043 15.896588556997138 1 0 0
949 317 2 -1.1794 -7.487965610510202 21.92044648321989 16.785376948362888 1 0 0
975 325 1 0.5897 -5.2418197036677245 18.88317825778301 16.440601393908654 1 0 0
951 317 1 0.5897 -7.353387253602084 21.51143863053533 17.640269755099737 1 0 0
849 283 1 0.5897 -3.6209691832807858 22.11360315273462 14.909445136658919 0 0 0
884 295 1 0.5897 -4.144801052364464 20.59887122827896 16.2273568397504 0 0 0
964 322 2 -1.1794 -8.25045806106446 18.13489923568241 17.139514934352327 1 0 0
997 333 2 -1.1794 -7.506753074519398 20.18437363851742 14.566043598798593 1 0 0
999 333 1 0.5897 -6.774315613092151 19.609209302440597 14.787195635749974 1 0 0
847 283 2 -1.1794 -4.510307794615484 21.760423981614053 14.931310834952876 0 0 0
357 119 1 0.5897 -5.54564236428979 17.744257017498526 19.025984496068695 0 0 -1
591 197 1 0.5897 -5.630219703532111 23.012626726537427 14.537435269281897 1 -1 0
32 11 1 0.5897 1.3299562544172518 1.5724555479867 2.9811199328132765 0 0 0
54 18 1 0.5897 3.384525100539082 3.241116626861482 3.0384256532099654 0 0 0
527 176 1 0.5897 4.179854925755629 1.6357657991372219 0.22270712479395982 0 0 1
52 18 2 -1.1794 4.058120585955366 2.750533561659108 3.509371166564496 0 0 0
47 16 1 0.5897 2.087372045613394 4.6034992113379545 1.4055091319253772 0 0 0
31 11 2 -1.1794 1.4607360146809052 0.9957726480720301 2.22849007475903 0 0 0
71 24 1 0.5897 3.130278233848549 0.37129665931332445 1.9840696485163252 0 0 0
46 16 2 -1.1794 2.1477252437397416 4.2855619294921645 2.3063192190822934 0 0 0
33 11 1 0.5897 0.7593282253201532 0.3480927880826814 2.297592672105431 0 0 0
78 26 1 0.5897 -0.01737477188198877 2.720165487591534 4.677328840811283 0 0 0
48 16 1 0.5897 2.4155632579461743 5.051764817951983 2.8137337893094014 0 0 0
70 24 2 -1.1794 3.9251375639310213 0.3117522610001795 1.4542496602877037 0 0 0
53 18 1 0.5897 4.586618766623079 2.347073100752268 2.8209145237903397 0 0 0
76 26 2 -1.1794 0.6438054472530128 2.0356054788578737 4.779312868377719 0 0 0
11 4 1 0.5897 2.527264875199517 5.248439401707314 4.856083815806497 0 0 0
16 6 2 -1.1794 5.3897920269964406 4.604545465723278 0.15416884757243224 0 0 0
59 20 1 0.5897 2.0264365522445473 3.1557039049277433 5.849228957862328 0 0 0
60 20 1 0.5897 3.2700046384069967 3.6006356144046037 6.588983245735681 0 0 0
58 20 2 -1.1794 2.4562254155433383 3.9316451340225917 6.209066232489257 0 0 0
34 12 2 -1.1794 0.6360810316292871 0.9949867029438968 7.258244364230039 0 0 0
35 12 1 0.5897 0.6356894891681857 1.7463592631418687 7.8512750478883655 0 0 0
4 2 2 -1.1794 3.8278225976914504 0.7834420717608643 5.654572030762862 0 0 0
77 26 1 0.5897 0.45516776378855006 1.6448025491556344 5.632487716414435 0 0 0
45 15 1 0.5897 1.0101157559520724 4.657630105209807 6.902796692432213 0 0 0
5 2 1 0.5897 3.5478639966257317 -0.04084660742430368 5.256492305890238 0 0 0
43 15 2 -1.1794 0.14339671196563097 4.90294035750461 7.226356695036615 0 0 0
402 134 1 0.5897 2.1058951623647566 -0.11411013130649958 8.101845142351912 0 1 0
44 15 1 0.5897 0.3145880576217972 5.353070084341669 8.053566521921912 0 0 0
36 12 1 0.5897 -0.21307377088904067 0.5767115170078384 7.400128392123249 0 0 0
6 2 1 0.5897 3.8998654313271945 1.392672311976877 4.919761980840653 0 0 0
24 8 1 0.5897 1.3460965786025572 3.2656763561639934 9.326583244540982 0 0 0
22 8 2 -1.1794 0.710325858226514 2.550585591275668 9.301791833405957 0 0 0
525 175 1 0.5897 -1.138485103974058 2.8160978877806793 9.598142533411425 0 0 0
536 179 1 0.5897 -2.1299289012461884 1.4112550799433792 12.945376062558145 0 0 0
574 192 2 -1.1794 0.6909175472434841 0.43621580118077696 11.403645319620397 0 0 0
575 192 1 0.5897 1.3710974723297138 0.1304476148336377 12.003674295533816 0 0 0
23 8 1 0.5897 1.0605950497734487 1.8967736198074059 9.906882753175827 0 0 0
557 186 1 0.5897 0.36042872465934384 2.8997095161573383 13.471635829989145 0 0 0
535 179 2 -1.1794 -1.9916494491844543 0.8341098931858262 12.194383643797895 0 0 0
556 186 2 -1.1794 0.6224972787608056 3.7988079323251753 13.273346034954407 0 0 0
537 179 1 0.5897 -2.067993849331411 1.4089454456484156 11.432785382084361 0 0 0
576 192 1 0.5897 0.013316906528674455 0.7991495347175923 11.973940187408706 0 0 0
558 186 1 0.5897 0.01166159147686674 4.0824516205452515 12.593212911525972 0 0 0
552 184 1 0.5897 -2.1183640875743173 4.857959450258727 12.060710179898773 0 0 0
550 184 2 -1.1794 -1.3174156064761506 5.345037293124151 11.867349963934664 0 0 0
521 174 1 0.5897 2.3431489484272223 5.108041751545538 10.646886206854587 0 0 0
520 174 2 -1.1794 2.175536023499202 4.924992679326505 9.722457367425157 0 0 0
582 194 1 0.5897 -2.664309266363958 3.1103282679609414 13.99391869921156 0 0 0
580 194 2 -1.1794 -2.0079081510803096 2.4970615400611273 14.324373566112865 0 0 0
564 188 1 0.5897 -1.5444370211363188 4.617382123386847 16.513465391116128 0 0 0
547 183 2 -1.1794 -3.3142186596672376 4.775297215047326 16.741848270255804 0 0 0
563 188 1 0.5897 -0.8870055100769418 3.9679298401267147 15.314425446863074 0 0 0
581 194 1 0.5897 -2.3489276970490343 2.214595353007682 15.172932116000833 0 0 0
562 188 2 -1.1794 -0.7142523702128134 4.56824292611075 16.039692649983813 0 0 0
538 180 2 -1.1794 -2.860020013074129 1.126917818841299 16.547331062429517 0 0 0
539 180 1 0.5897 -2.721490363326045 1.7629533107864592 17.249107670309126 0 0 0
510 170 1 0.5897 0.6792420493197637 1.5099168631247446 15.256516104898598 0 0 0
540 180 1 0.5897 -3.785266323164964 0.8917296926054585 16.61578298609584 0 0 0
528 176 1 0.5897 -3.137540147738945 2.9687659630063243 18.665786543072304 0 0 0
526 176 2 -1.1794 -2.1947710771726925 2.829107664217037 18.57785276946502 0 0 0
508 170 2 -1.1794 0.6452718464682654 0.9007187787242785 14.518985731717684 0 0 0
548 183 1 0.5897 -3.4337561710690645 5.3654301824510195 15.99770540952566 0 0 0
18 6 1 0.5897 -1.1956320114083079 4.265904968453452 18.803650417366462 0 0 -1
84 28 1 0.5897 -3.4558190654130962 5.844555772773104 18.23293016420094 0 0 -1
549 183 1 0.5897 -3.8064949395706202 3.988924068677731 16.5061384465525 0 0 0
239 80 1 0.5897 4.024830640422481 8.39323854733176 1.3546395285133557 0 0 0
189 63 1 0.5897 2.1241771966010043 10.083841901150342 0.5422309646806349 0 0 0
240 80 1 0.5897 3.424124526463208 7.008988251410048 1.2313971493059777 0 0 0
238 80 2 -1.1794 3.9268507153431216 7.565790403486217 1.8259160647603834 0 0 0
201 67 1 0.5897 2.341408425556809 8.166188538154893 2.7404564897720323 0 0 0
200 67 1 0.5897 0.8341605708879354 8.054540583500701 2.8256117845521853 0 0 0
220 74 2 -1.1794 3.7745069908675504 11.099168462985785 3.7871828955376756 0 0 0
244 82 2 -1.1794 1.0190763935543572 10.585686779480083 4.850099922485647 0 0 0
245 82 1 0.5897 1.5565847524840155 10.021875725219465 4.293891146999897 0 0 0
199 67 2 -1.1794 1.5628301165953493 8.639110185792385 3.0341787982790662 0 0 0
187 63 2 -1.1794 1.2176933477914655 10.290291537785214 0.7696622464099001 0 0 0
222 74 1 0.5897 4.4236302405698344 10.902652422827869 3.111811603061009 0 0 0
10 4 2 -1.1794 2.576203984915166 6.067753786882182 4.363466025020491 0 0 0
188 63 1 0.5897 1.0997917147343594 9.921072909459836 1.644853300431465 0 0 0
12 4 1 0.5897 1.723681888924931 6.480986516878969 4.4996432038750775 0 0 0
696 232 1 0.5897 4.5215795634813265 10.615374809369268 0.33134231150200755 0 0 1
694 232 2 -1.1794 4.049530527066447 9.785070759538627 0.26744062486999465 0 0 1
7 3 2 -1.1794 -0.20352741323482748 6.57868099436446 4.841867075110623 0 0 0
246 82 1 0.5897 0.6575390520495921 9.995717404123683 5.511546921470125 0 0 0
64 22 2 -1.1794 2.2569347735249323 7.159091069273972 7.920514669752807 0 0 0
522 174 1 0.5897 2.1543464602054474 5.787195504214287 9.30711601423095 0 0 0
204 68 1 0.5897 1.201844924828432 8.467844596606719 7.343885510563487 0 0 0
191 64 1 0.5897 0.38820199266076694 10.148994797362446 8.727030477079753 0 0 0
203 68 1 0.5897 -0.31130129024662745 8.473563298405686 7.300625320187463 0 0 0
202 68 2 -1.1794 0.4537609281636237 9.011636192617216 7.097240498054266 0 0 0
172 58 2 -1.1794 4.008057639801249 8.524052913676302 5.375572155612523 0 0 0
237 79 1 0.5897 -1.4137052584677336 7.114105537795671 8.555956915172796 0 0 0
65 22 1 0.5897 2.8756298436166023 7.771056044993259 8.319173058786074 0 0 0
66 22 1 0.5897 2.8018108427116637 6.57948277150975 7.38822857490025 0 0 0
173 58 1 0.5897 3.5244918360874102 7.730286896775997 5.146654176355868 0 0 0
8 3 1 0.5897 -0.14757728178184326 6.267358901474894 5.745263198200002 0 0 0
174 58 1 0.5897 3.555982266773386 9.224635479422156 4.9053691810662245 0 0 0
744 248 1 0.5897 0.0658856363860254 8.464254453162921 11.712420804717526 0 0 0
743 248 1 0.5897 0.9758291163470094 9.06426743890332 10.661813148734916 0 0 0
724 242 2 -1.1794 0.8555565959070899 11.221639321542138 13.135174807951305 0 0 0
588 196 1 0.5897 0.24141056476169576 7.1891109801158875 10.080320646517325 0 0 0
678 226 1 0.5897 0.7441211490245125 9.483090421410262 13.866265235492351 0 0 0
742 248 2 -1.1794 0.9328395968443006 8.368879452301345 11.318246069330534 0 0 0
705 235 1 0.5897 -1.8761059306462569 9.267371328411784 12.731994289449531 0 0 0
703 235 2 -1.1794 -1.625308806322158 8.74519851829373 11.970007247587363 0 0 0
725 242 1 0.5897 0.03565290697923995 11.552435528608115 12.768506767335541 0 0 0
693 231 1 0.5897 -1.4455190709958448 10.245864546753467 9.693339253068785 0 0 0
704 235 1 0.5897 -1.9588040677039724 9.238674571834327 11.22066765868414 0 0 0
750 250 1 0.5897 -2.975301308169736 10.795318107015834 13.844453011691462 0 0 0
587 196 1 0.5897 -0.5177589771949642 5.9053860074274285 10.34078452415454 0 0 0
551 184 1 0.5897 -1.2299035030351 5.96148304956661 12.594379715462663 0 0 0
748 250 2 -1.1794 -2.2111035201786295 10.277353183497683 14.097194597800604 0 0 0
190 64 2 -1.1794 0.4066060244600229 10.379507197322729 9.65581134667782 0 0 0
192 64 1 0.5897 0.9118966098607624 11.191729311141378 9.691532240453164 0 0 0
586 196 2 -1.1794 -0.21550756005107852 6.47604118656444 9.634197470975971 0 0 0
516 172 1 0.5897 -0.359880623519504 7.459033438876767 14.522698528895997 0 0 0
706 236 2 -1.1794 -2.8567198950408423 9.051483263032193 16.53303280948103 0 0 0
708 236 1 0.5897 -2.2158464793373174 8.392503536303645 16.79992604644189 0 0 0
568 190 2 -1.1794 -0.9187569802636295 7.456750880941466 17.68141325520565 0 0 0
707 236 1 0.5897 -3.68200271422823 8.75150387411031 16.91389768028963 0 0 0