LAMMPS (30 Jul 2021)
  using 1 OpenMP thread(s) per MPI task
package omp 0
using multi-threaded neighbor list subroutines
echo both

include		in.partitions
variable        pid world 0
include		in.temp
variable        temperature equal 293.53
variable	tempDamp equal 100.0
include		in.pressure
variable        pressure equal 13625.0
variable        pressureDamp equal 1000.0 # This is 1 ps
include		in.seed
variable        seed world 745823

units		real
atom_style	full
read_restart	restart.lmp.${pid}
read_restart	restart.lmp.0
Reading restart file ...
  restart file = 30 Jul 2021, LAMMPS = 30 Jul 2021
  restoring atom style full from restart
  orthogonal box = (-0.051672978 -0.097837344 -0.018084485) to (24.781674 24.827838 22.828084)
  4 by 4 by 4 MPI processor grid
  restoring pair style lj/cut/tip4p/long/omp from restart
  restoring bond style harmonic/omp from restart
  restoring angle style harmonic/omp from restart
  1920 atoms
  1280 bonds
  640 angles
Finding 1-2 1-3 1-4 neighbors ...
  special bond factors lj:    0        0        0       
  special bond factors coul:  0        0        0       
     2 = max # of 1-2 neighbors
     1 = max # of 1-3 neighbors
     1 = max # of 1-4 neighbors
     2 = max # of special neighbors
  special bonds CPU = 1.374 seconds
  read_restart CPU = 1.746 seconds
include 	in.setup
variable	out_freq equal 1000
variable	out_freq2 equal 10000
variable	out_freq3 equal 1000

timestep	2.0

neigh_modify    delay 7 every 1

include		in.tip4p
# This is TIP4P/Ice

# create groups ###
group ox type 2
640 atoms in group ox
group hy type 1
1280 atoms in group hy

# set charges - beside manually ###
set group ox charge -1.1794
Setting atom values ...
  640 settings made for charge
set group hy charge 0.5897
Setting atom values ...
  1280 settings made for charge

# ### TIP3P Potential Parameters ###
pair_style lj/cut/tip4p/long/omp 2 1 1 1 0.1577 8.5
pair_coeff 1 1*2 0.000 0.000
pair_coeff 2 2 0.21084 3.1668
bond_style  harmonic
bond_coeff  1 450 0.9572
angle_style harmonic
angle_coeff 1 55 104.52
kspace_style pppm/tip4p/omp 1.0e-5
pair_modify tail yes

thermo          ${out_freq}
thermo          1000
thermo_style    custom step temp pe etotal epair emol press lx ly lz vol pxx pyy pzz pxy pxz pyz enthalpy

restart 	${out_freq3} restart.lmp.${pid} restart2.lmp.${pid}
restart 	1000 restart.lmp.${pid} restart2.lmp.${pid}
restart 	1000 restart.lmp.0 restart2.lmp.${pid}
restart 	1000 restart.lmp.0 restart2.lmp.0


include         in.dump
dump            myDump all atom ${out_freq2} dump.water.${pid}
dump            myDump all atom 10000 dump.water.${pid}
dump            myDump all atom 10000 dump.water.0
dump            myDump2 all dcd ${out_freq2} dump.dcd
dump            myDump2 all dcd 10000 dump.dcd
dump_modify     myDump append yes
dump_modify     myDump2 append yes


variable natoms 	equal  "count(all)"                        # NUMBER ATOMS
variable H      	equal  "enthalpy/v_natoms"                 # ENTHALPY-per-atom
variable Vol      	equal  "vol/v_natoms"                 # volume-per-atom
fix AVG all 		ave/time ${out_freq} 1 ${out_freq} v_Vol v_H file vol_enthalpy.dat
fix AVG all 		ave/time 1000 1 ${out_freq} v_Vol v_H file vol_enthalpy.dat
fix AVG all 		ave/time 1000 1 1000 v_Vol v_H file vol_enthalpy.dat




fix 		1 all shake 1e-6 200 0 b 1 a 1
       0 = # of size 2 clusters
       0 = # of size 3 clusters
       0 = # of size 4 clusters
     640 = # of frozen angles
  find clusters CPU = 0.326 seconds
fix             2 all nph aniso ${pressure} ${pressure} ${pressureDamp}
fix             2 all nph aniso 13625 ${pressure} ${pressureDamp}
fix             2 all nph aniso 13625 13625 ${pressureDamp}
fix             2 all nph aniso 13625 13625 1000
fix             3 all temp/csvr ${temperature} ${temperature} ${tempDamp} ${seed}
fix             3 all temp/csvr 293.53 ${temperature} ${tempDamp} ${seed}
fix             3 all temp/csvr 293.53 293.53 ${tempDamp} ${seed}
fix             3 all temp/csvr 293.53 293.53 100 ${seed}
fix             3 all temp/csvr 293.53 293.53 100 745823


run             250000
PPPM initialization ...
  extracting TIP4P info from pair style
  using 12-bit tables for long-range coulomb (../kspace.cpp:340)
  G vector (1/distance) = 0.37470412
  grid = 30 30 30
  stencil order = 5
  estimated absolute RMS force accuracy = 0.0032439467
  estimated relative force accuracy = 9.769049e-06
  using double precision FFTW3
  3d grid and FFT values/proc = 3600 512
Last active /omp style is kspace_style pppm/tip4p/omp
Neighbor list info ...
  update every 1 steps, delay 7 steps, check yes
  max neighbors/atom: 2000, page size: 100000
  master list distance cutoff = 10.8154
  ghost atom cutoff = 10.8154
  binsize = 5.4077, bins = 5 5 5
  1 neighbor lists, perpetual/occasional/extra = 1 0 0
  (1) pair lj/cut/tip4p/long/omp, perpetual
      attributes: half, newton on, omp
      pair build: half/bin/newton/omp
      stencil: half/bin/3d
      bin: standard
Per MPI rank memory allocation (min/avg/max) = 9.333 | 9.341 | 9.346 Mbytes
Step Temp PotEng TotEng E_pair E_mol Press Lx Ly Lz Volume Pxx Pyy Pzz Pxy Pxz Pyz Enthalpy 
14500000    303.68282   -8979.2609   -7821.4835   -8979.2609            0    13684.184    24.833347    24.925676    22.846169    14141.503    13632.173    13787.328     13633.05   -103.19475   -637.63996   -1959.8528   -4999.2667 
14501000     295.0754   -8974.9637   -7850.0017   -8974.9637            0    15435.573    24.773412    24.867614    22.801099    14046.746    16991.347    14229.555    15085.818   -230.87729   -462.50007    700.17926   -4687.9107 
14502000    292.58283   -8953.4674   -7838.0082   -8953.4674            0    14633.249     24.94923    24.821113    22.785842    14110.535    12694.375    16001.849    15203.522   -438.15304    -118.6138    850.60093   -4826.6659 
14503000     301.0711    -8987.445   -7839.6246    -8987.445            0     13325.58    24.872638    24.854578     22.89424    14153.194    14511.241     12642.95     12822.55    643.78963   -1005.0818    1057.6395    -5089.094 
14504000    294.24124   -9031.6467   -7909.8649   -9031.6467            0    11511.688     24.94674    25.031233    22.764591    14215.295    10365.998    11071.517    13097.549    427.58971   -1029.0132   -77.364662   -5523.3136 
14505000    279.29375   -8904.8171    -7840.022   -8904.8171            0    13626.538    24.810042    24.985588    22.918165    14206.822    14119.362    12112.347    14647.906    499.34143   -802.67483    300.06025   -5016.7133 
14506000     298.2159   -8952.1039   -7815.1688   -8952.1039            0    12176.664    24.890986    24.967713    22.880714    14219.701    12762.191    11833.923    11933.877   -507.18807   -1259.7017    -953.3772   -5289.9754 
14507000    286.46822   -8979.0122   -7886.8647   -8979.0122            0    13022.117    25.003659    24.780252    22.887081    14180.766     12136.16    13631.389    13298.803   -130.26448   -311.57867     427.1208   -5193.7355 
14508000    284.83639    -8972.727   -7886.8008    -8972.727            0    13308.585    24.951832    24.874938    22.835029    14173.138    13085.402    14248.156    12592.198   -205.61223   -405.71002    125.44975   -5135.9071 
14509000    295.32624   -8929.6751   -7803.7568   -8929.6751            0    13445.048    24.808153    24.944621    22.847836    14138.926    14226.134    12359.824    13749.184   -609.45888   -947.06157   -607.17411   -5031.3647 
14510000    301.73843    -8977.727   -7827.3625    -8977.727            0    13916.448    24.950291    24.776662     22.89858    14155.558    14072.848    14361.619    13314.877    -580.3394   -140.89556    58.112688   -4954.3913 
14511000    287.60662    -8959.727   -7863.2394    -8959.727            0    12723.591    25.036657    24.805542    22.850995    14191.562    11627.043    14294.521    12249.208   -423.50724   -101.66418    1477.8468   -5229.8458 
14512000    299.39474   -8947.8725   -7806.4432   -8947.8725            0    12450.363    25.137118    24.875411    22.746045    14223.014    10900.484    13223.004      13227.6    438.06616     523.3987    576.06734   -5223.8885 
14513000    285.01804   -8913.8646   -7827.2459   -8913.8646            0     13362.09    24.885852    24.797404    22.990723     14187.68    13817.952    13574.814    12693.504   -689.43698    99.648847   -210.68105    -5062.459 
14514000    283.06947   -8985.8218   -7906.6319   -8985.8218            0    13381.907    24.920423    24.897609     22.84096    14171.878     12915.24    13711.789    13518.692   -206.90559   -875.07115    430.81914   -5140.8286 
14515000    289.86566   -8965.3487   -7860.2486   -8965.3487            0    13158.512    24.837121    24.907966    22.945626    14195.132    13268.985    12530.896    13675.657    547.01537    93.012579    702.97546   -5136.1545 
14516000    298.90164    -8977.678   -7838.1286    -8977.678            0    13103.382    24.794401    25.044092    22.772012    14140.355    12871.831    12355.619    14082.696    166.42255   -750.53406   -9.5599613   -5135.9153 
14517000    301.54615   -8986.2252   -7836.5938   -8986.2252            0    14425.074    24.720869    24.932228     22.87835    14100.987    14832.862    13776.447    14665.912    -190.2702    781.58946    248.47984   -4870.0999 
14518000    286.54097   -8991.4847   -7899.0599   -8991.4847            0     13819.75    24.821094    24.850488    22.971623    14169.272    13961.953    13601.456    13895.841    773.76425   -1010.9182   -154.17442   -5043.2874 
14519000    296.73892   -8995.8238   -7864.5197   -8995.8238            0    12622.878    25.070624    24.884227    22.741537    14187.606     11172.47    13215.797    13480.367   -55.949917    741.90745    379.49561   -5252.6989 
14520000    286.91088   -8975.1939   -7881.3588   -8975.1939            0    13685.244    24.876712    24.828115    22.910483    14150.473    14573.217    12157.786    14324.728    56.724621    345.76012    1407.0091   -5057.1331 
14521000    291.88882   -8986.8973    -7874.084   -8986.8973            0    13425.159    25.076862    24.806446    22.742734    14147.523    12296.017    14070.361      13909.1    533.27366    266.42648   -271.04929   -5104.1097 
14522000    295.79359    -8937.324    -7809.624    -8937.324            0    13930.454    24.882978    24.831659    22.908117    14154.597    13350.677    14491.005     13949.68    438.99283    471.57572   -223.53302   -4933.9565 
14523000    297.41077   -9034.5559   -7900.6903   -9034.5559            0    12579.351    24.833673    24.912639    22.840876    14131.018    12186.573    13181.752    12369.727    706.38244   -667.23207    219.01671   -5308.2572 
14524000     304.7974   -8949.2781   -7787.2514   -8949.2781            0     12698.57    24.829034     24.94007    22.985023    14233.196    13699.524    11917.057     12479.13    226.20283   -331.78927      481.384   -5151.3258 
14525000    292.80017   -8975.0136   -7858.7258   -8975.0136            0    11952.099    24.907298    24.990609     22.87192    14236.593    13241.882    10245.971    12368.445   -603.22246   -3.6758116    156.38861    -5377.158 
14526000    298.82648   -8950.3618   -7811.0989   -8950.3618            0    13120.546    24.922052    24.938202    22.862022    14209.002    13072.522     13322.18    12966.936    261.08096   -44.172643   -387.58409   -5092.2105 
14527000    283.22164    -8922.551   -7842.7809    -8922.551            0     12109.25    24.964156    24.847154    22.968242     14246.93    12013.972    12729.623    11584.154    71.952356    393.97711    123.15088    -5326.759 
14528000     285.0508   -8963.3549   -7876.6113   -8963.3549            0    12391.624    25.125624    24.791292    22.816062    14212.049    11076.474    12458.828    13639.568   -529.47568    1206.3738   -576.78661   -5308.2223 
14529000    293.79095   -9017.4808   -7897.4157   -9017.4808            0    11259.647    24.992499    24.857378    22.914975    14235.883    10611.639    12224.054    10943.249    381.19721    875.90664    796.56933   -5559.7357 
14530000     301.1876   -8969.5024   -7821.2379   -8969.5024            0    12677.372    24.836801    24.927857    22.899727    14177.868    13468.354    12782.388    11781.373   -378.03138    476.95217   -569.36681   -5199.9421 
14531000    302.57567   -8959.1967   -7805.6403   -8959.1967            0     12420.66    24.770287    24.994376    22.952909    14210.556    14635.141    11391.999    11234.841    8.7823536   -802.50846   -249.82153   -5231.5033 
14532000    300.94154   -8963.0976   -7815.7712   -8963.0976            0    13576.106    24.936552    24.902646     22.80162    14159.489     13220.98     13843.04    13664.296   -258.08493   -372.88737    316.97427   -5012.2833 
14533000    293.13608   -8952.5535   -7834.9851   -8952.5535            0    14432.753    24.962452     24.67399    22.954514     14138.22    12732.667    16578.606    13986.986    481.49102    150.93723    159.05806   -4859.0751 
14534000    285.13858   -8989.2938   -7902.2155   -8989.2938            0    12966.429     25.03731    24.849534    22.797427    14183.772    11429.157    13784.278    13685.853    -861.1925   -576.14868   -970.29869   -5220.0347 
14535000    283.07061   -9005.2835   -7926.0893   -9005.2835            0    13489.302    24.963157    24.653168    23.001408    14155.547    11381.138    15729.389    13357.378    481.16625   -47.487359   -160.52698    -5141.302 
14536000    291.26541   -8983.6193   -7873.1827   -8983.6193            0    13730.467    24.806848    24.909142    22.918089    14161.484    13700.519    13151.381    14339.501    456.46093    1230.0026    118.85435   -5037.4195 
14537000    294.07031   -8966.1691    -7845.039   -8966.1691            0    13624.505    24.768657    24.963799    22.814953    14106.937    14114.164    13469.153    13290.199    334.79101    862.85793   -1110.3055   -5041.9987 
14538000    306.00715   -8978.6581   -7812.0193   -8978.6581            0    14728.017    24.908432    24.821275    22.801154     14097.02     15733.37    14445.064    14005.619    348.39598    1336.9864    -533.9322   -4784.0778 
14539000    291.92909   -8995.8347   -7882.8678   -8995.8347            0    12970.219    24.961968    24.799917    22.895561    14173.605    11274.847    14144.008    13491.803   -251.90598   -1907.3332   -1171.1486   -5201.8263 
14540000     294.0284   -8969.0069   -7848.0366   -8969.0069            0     15329.47    25.000995    24.727266    22.752253    14065.585     14556.12    15728.262    15704.027    1022.3397   -128.71949   -902.19931   -4703.4698 
14541000    292.52709   -9017.7944   -7902.5478   -9017.7944            0    14006.138    24.849744     24.81371    22.845981     14087.16    14339.209    13811.141    13868.064   -394.31008    101.09856   -440.86134   -5025.0319 
14542000    292.16966   -8964.6511   -7850.7671   -8964.6511            0    14334.662    24.865502      24.8783    22.807443    14108.945    14759.575    13325.566    14918.845    -854.1961   -1090.1929    262.69312   -4901.2026 
14543000    298.25036   -8969.7293   -7832.6629   -8969.7293            0    14038.005    24.762265    24.962956    22.881146    14143.736    14919.967    13631.982    13562.067   -374.13379    59.050388    794.01276    -4937.017 
14544000    292.13286   -8968.2589   -7854.5152   -8968.2589            0    13478.543    24.844771      24.9991    22.768407    14141.388    14094.204    11540.877    14800.548   -101.62184   -470.69306   -1301.3769   -5074.7324 
14545000    287.65153   -9024.0693   -7927.4104   -9024.0693            0    13947.611    24.819688    24.811594    22.943179    14128.778    12983.386    16136.678    12722.769   -1065.3119    1011.5395    241.89097   -5053.4532 
14546000     307.0162   -8961.9629   -7791.4772   -8961.9629            0    13050.521    25.014665    24.775533    22.849832    14161.221    13610.364    13333.378    12207.823    1511.4218     796.1348   -120.28077   -5096.1937 
14547000    286.85737   -8956.6493   -7863.0182   -8956.6493            0    14641.167    25.103296    24.652034    22.768115    14089.987    13114.525    15837.572    14971.405    353.85201    1037.0853   -82.787369   -4854.4339 
14548000    289.68875   -8975.7919   -7871.3663   -8975.7919            0     13357.11    24.952439    24.947302     22.76533    14171.328    13622.674    12973.307    13475.349   -111.45853    526.99768    39.425722   -5110.7952 
14549000    292.76342   -8953.7995   -7837.6518   -8953.7995            0    13073.923    24.811117    24.973782    22.927413    14206.454    13583.282    13131.907    12506.581   -348.45525   -524.92676   -272.49859   -5128.9107 
14550000    300.68127    -8963.579   -7817.2448    -8963.579            0    13716.418    24.764676    25.040216    22.839524    14163.082     14866.68    11787.522    14495.052   -453.34494   -1488.7358   -213.18093   -4984.0636 
14551000    289.64561   -8953.3906   -7849.1295   -8953.3906            0     11820.04    24.922963    24.940419    22.916932    14244.916    11835.552    12720.794    10903.773    449.58102    760.48076    73.840924   -5393.5459 
14552000    292.10424   -8980.4138   -7866.7792   -8980.4138            0    13247.622    25.019319    24.826395    22.828628    14179.762     11542.67    13986.338    14213.856    196.00359    1257.2353    122.91954    -5127.207 
14553000    290.31341   -8975.6253   -7868.8181   -8975.6253            0    12739.936    24.963548    24.755252    22.997335    14211.869    11401.401     14779.68    12038.727     86.94614    267.01697   -800.05602   -5228.2686 
14554000    288.80292   -8948.4934   -7847.4449   -8948.4934            0    12308.958    24.937469    24.939921    22.866043    14221.273    11930.503    12678.703    12317.669   -661.34221    819.22806   -51.493776    -5294.534 
14555000    289.73748   -8944.5579   -7839.9466   -8944.5579            0    12602.102    24.999839    24.839743    22.863215    14197.818    12012.898    13384.087    12409.321   -422.12979    217.51262   -100.20148   -5230.5475 
14556000    299.37947   -8962.1075   -7820.7364   -8962.1075            0    14042.838    24.860585    24.913749    22.863142    14160.754     13773.17    14207.923    14147.422    81.506561   -233.46134    400.36424   -4920.6085 
14557000    288.61451   -8949.2179   -7848.8878   -8949.2179            0    14438.593    24.766718    24.866221     22.90709    14107.439     15831.39    13653.802    13830.587    136.89494   -623.92787     38.31174   -4878.2553 
14558000    294.65984   -8991.2132   -7867.8355   -8991.2132            0    13902.905    24.755863    25.032978    22.754571    14101.303     15764.84    12008.958    13934.917    447.78337    272.03082    559.22448   -5008.6609 
14559000    288.70685   -8956.4622     -7855.78   -8956.4622            0     14145.61    24.753857    24.891395    22.907808     14114.83    13816.502    15139.703    13480.626    360.80494   -970.68547    -716.8072   -4943.9016 
14560000    285.45732   -8993.7035     -7905.41   -8993.7035            0    14084.183    24.937268    24.876851    22.714937    14091.455    13363.564    15354.336     13534.65   -98.742111    -440.9068   -100.90471   -5010.9778 
14561000    291.52708   -8986.3009   -7874.8667   -8986.3009            0    13477.903    24.835323    24.751025     22.98636    14129.708    12558.624    15245.726     12629.36    521.14421    1129.2732    1356.8945   -5097.5116 
14562000    293.62072   -8971.2052   -7851.7891   -8971.2052            0    12824.367    25.030384    24.899343    22.721342    14160.852    11477.387    12561.416    14434.298   -453.94925    1305.2435    186.57111   -5203.2815 
14563000    300.58416    -8950.817   -7804.8531    -8950.817            0    13252.062    24.898746    24.807549     22.95355    14177.877    14960.528    13522.221    11273.438    -397.6461    1130.1752   -551.96224    -5064.727 
14564000     303.9626   -8991.5618   -7832.7177   -8991.5618            0     14564.99    24.825863    24.940495    22.766317    14096.205    15125.704    14261.144    14308.122   -228.06284    -222.9608    959.60285   -4838.4661 
14565000    281.94335   -8998.1985   -7923.3019   -8998.1985            0    11800.692    24.850843    24.954752    22.926194    14217.602    12764.611     10310.89    12326.574    537.43509   -359.02922   -1079.5346   -5476.4386 
14566000     310.8037   -8961.2696   -7776.3442   -8961.2696            0    12488.983    24.916455    24.993175    22.860811    14236.372    12946.335    11831.187    12689.426   -8.1357055    453.81023    456.71144   -5183.3456 
14567000    285.20744   -8995.7841   -7908.4432   -8995.7841            0    13838.216    24.957841    24.839302    22.792367    14129.794    12894.143    13712.006    14908.499      1353.33   -401.17475   -539.93586    -5056.822 
14568000    282.48778   -8972.8654   -7895.8931   -8972.8654            0     12777.88    25.003661    24.729965    22.939618    14184.476    12067.754     13511.38    12754.505   -286.91645     475.6191   -416.12124   -5252.5838 
14569000    298.48826   -9048.7179   -7910.7446   -9048.7179            0     13124.48    25.021222    24.903336    22.752222     14177.18    12104.542    12051.591    15217.306     52.42265   -1750.6709    484.65396   -5197.1319 
14570000    287.01087   -8980.2562   -7886.0398   -8980.2562            0    13090.651    24.825332     24.90895    22.901542    14161.694     12239.29    13541.239    13491.424   -701.83756    266.91561   -299.96856   -5182.3781 
14571000    298.59439   -8989.3384   -7850.9604   -8989.3384            0    12205.448    24.839784    25.002069     22.85396     14193.36    13825.733    10980.681     11809.93    443.57672   -1314.7405   -511.25061   -5324.4863 
14572000    298.45194   -8962.7323   -7824.8974   -8962.7323            0    13024.625    24.948806    24.899445    22.852272    14196.092    12655.681    12600.588    13817.605     336.7605    355.88218    855.79958   -5128.3384 
14573000    277.86558   -9001.9316   -7942.5812   -9001.9316            0    13544.716    24.982134    24.797173    22.873374    14169.741    12771.186    12689.232    15173.729    5.0542616   -308.72633   -388.75966   -5143.5502 
14574000    296.71802   -8961.9382   -7830.7138   -8961.9382            0    14458.469    24.930737    24.800591    22.813881    14105.754    13453.573    14839.331    15082.504   -26.106911   -464.85065    384.55178   -4856.3471 
14575000    303.72819   -8930.3683   -7772.4179   -8930.3683            0    16878.609       24.794    24.584758    22.994464    14016.379    17881.875    17253.759    15500.194   -656.48269    444.16444   -673.58875   -4322.1852 
14576000    301.50949   -8988.4597    -7838.968   -8988.4597            0    14864.521    24.829523     24.85895    22.796782    14070.992    15923.838    14103.683    14566.043    184.85239   -1026.7894    239.66791    -4788.605 
14577000    289.55945    -8982.686   -7878.7533    -8982.686            0    16404.219    24.858578    24.723364    22.788765    14005.694    15625.122    18795.263    14792.272   -159.54388   -236.97977    125.64468   -4528.0491 
14578000    298.23399   -8945.8118   -7808.8078   -8945.8118            0    13176.406    24.966357    24.827989    22.882093    14183.796    13637.081    13081.189    12810.947   -565.76048   -2568.7207   -4.2753528   -5083.1878 
14579000     290.6262   -8988.9384   -7880.9388   -8988.9384            0    12306.586    24.976199    24.990652    22.743963    14196.133    12690.107    11341.627    12888.025   -560.01626    491.29978    297.48875   -5333.0319 
14580000    287.43537   -8960.2642   -7864.4294   -8960.2642            0    12692.888     24.83305    24.922394    22.968542    14215.209    13736.977    11957.629    12384.058   -874.58912    856.38222   -709.72828    -5233.013 
14581000    300.23559   -8964.9244   -7820.2894   -8964.9244            0    13142.235    24.828371    24.985823    22.826476    14160.571      14180.5     11969.85    13276.355   -701.56444   -534.64058    1005.5866   -5106.1892 
14582000    291.55805   -8982.3667   -7870.8144   -8982.3667            0     13972.16    24.833361    24.858285    22.870609    14118.364    13806.138    14135.621     13974.72   -535.22306   -535.46541    183.78102   -4993.9207 
14583000    284.11029   -8994.0161   -7910.8581   -8994.0161            0    15003.407    24.980654    24.699743     22.78735    14060.153    14238.572      15671.6    15100.048   -130.24046    517.37276    1105.1696   -4834.3658 
14584000    307.14007   -8975.3444   -7804.3864   -8975.3444            0     13672.47     24.95689    24.758574    22.906033    14153.569    15091.168    12539.202    13387.039     -371.243   -1387.8633    330.49303   -4982.1796 
14585000    291.72116   -8987.1407   -7874.9666   -8987.1407            0    13571.029    24.979735    24.990076    22.645406    14136.292    13387.293     12009.99    15315.804    495.75026    1110.5206    748.05016   -5077.1182 
14586000    288.93805   -8949.2515   -7847.6878   -8949.2515            0    12641.665    24.779354    24.828618    23.050538    14181.547    13466.143    14345.482    10113.368    329.65619   -93.617305   -1204.8425   -5233.0969 
14587000    291.67716   -8963.0943   -7851.0879   -8963.0943            0    14471.507    24.912833    24.962582    22.721274    14130.102    14023.648    13510.045    15880.828    561.37839    987.24569    45.430504   -4868.9004 
14588000    298.14747   -8941.3636   -7804.6895   -8941.3636            0    13314.717    24.779023    24.841142    23.033754    14178.179    14081.999    13471.354    12390.797    324.66335   -187.01378   -477.18635   -5051.5497 
14589000    276.17617   -8976.0683   -7923.1588   -8976.0683            0    14127.205    24.891523     24.97347    22.714274    14119.821    13493.818    13412.037     15475.76    364.37971   -1200.8561    221.98892   -5014.0408 
14590000    302.09544   -8991.2175   -7839.4919   -8991.2175            0    14025.949    24.842143    24.929954    22.841718    14146.184    15280.665    13147.011     13650.17   -954.57719   -2015.5015   -107.22541   -4945.8323 
14591000    290.85219   -8992.0017   -7883.1406   -8992.0017            0    15935.853    24.760695     24.79149    22.867603    14037.382    17444.287    14780.111    15583.162   -224.14705   -731.24846   -429.72763   -4620.7397 
14592000    290.54606   -8944.0683   -7836.3742   -8944.0683            0    14648.823    24.896773    24.867434     22.75413    14087.511    14074.166    15167.427    14704.877   -464.76707   -797.66758    611.84251   -4826.7457 
14593000    292.82447   -8947.9592   -7831.5788   -8947.9592            0     14059.03    24.920929    24.710004    22.934268    14122.836    13151.461     16321.85    12703.779    177.85845    315.90225    102.80335   -4935.8814 
14594000    288.89175    -8949.397   -7848.0099    -8949.397            0    15052.768    24.999215    24.776483    22.738228    14083.891    15237.411    15220.142     14700.75   -697.82008   -5.1191094   -792.33383    -4756.185 
14595000    288.17045   -9016.5323   -7917.8951   -9016.5323            0    14507.724    24.746891    24.782572    22.969221     14086.83    15208.267    14235.008    14079.898   -513.23753   -252.97756   -854.94606   -4937.3997 
14596000    303.43452   -9012.6526   -7855.8218   -9012.6526            0    12830.692    24.896816    24.996758    22.756629    14162.353    13197.766    11764.985    13529.326   -1755.2487   -829.49256    56.333888    -5205.727 
14597000    295.68257     -8963.93   -7836.6532     -8963.93            0    13451.241    24.835582    24.862861    22.953274    14173.271    14929.584    12192.137    13232.002   -597.92124    16.076086    631.57375   -5056.2465 
14598000    278.96254   -8977.9816   -7914.4492   -8977.9816            0    13996.666    24.859734    24.923151    22.763017    14103.576    15557.509    11721.443    14711.047    802.11875    1424.6923   -320.56792   -5035.5282 
14599000    301.21158   -8983.0741   -7834.7182   -8983.0741            0    12443.576    24.994678    24.819835    22.887433    14198.534    12052.328    12443.608    12834.791    473.12323    56.354978     1015.193   -5258.0138 
14600000    286.12045   -8996.8009   -7905.9793   -8996.8009            0    13301.641    25.001084    24.838101    22.798986    14157.702    11978.815    13970.542    13955.567   -154.22932    2083.4451    289.61594   -5159.5155 
14601000    290.12407   -8970.4742   -7864.3889   -8970.4742            0    14903.364    24.801494    24.859813    22.879392    14106.529    15143.734    15768.892    13797.468    338.05548    1144.3313    542.15865   -4798.3308 
14602000     301.9187   -8971.0642   -7820.0124   -8971.0642            0    12505.905    24.957576    24.930372    22.851915    14218.499    13047.218      12311.7    12158.798    106.08116   -1336.5028   -964.49766     -5226.76 
14603000    288.14573   -8948.3014   -7849.7584   -8948.3014            0    12174.131    24.838172    25.057633    22.842898    14217.095    12793.745    10937.512    12791.135    502.23906   -1006.2008   -977.50593   -5325.5528 
14604000    289.37845   -8973.2177    -7869.975   -8973.2177            0    12515.388    24.853742    24.955111    22.924606     14218.48    13191.808    11690.985     12663.37    204.49889   -559.73602   -455.71754     -5274.76 
14605000     292.6624   -8955.5751   -7839.8125   -8955.5751            0    12611.164    25.031888    24.924378    22.758662    14199.226     12367.84    12088.912     13376.74    112.37838   -2080.6131   -545.51097   -5228.2783 
14606000    289.83323   -8984.8625    -7879.886   -8984.8625            0    14623.973    24.868175    24.893353    22.777843    14100.675     13777.66    15013.254    15081.006   -1071.8198    8.1689345    777.29148   -4872.5554 
14607000    292.21034   -8973.2819   -7859.2428   -8973.2819            0    14112.525    24.789778    24.913545    22.903734    14145.375    14639.004    13834.352     13864.22    297.65253   -7.5973323    463.66261   -4947.8883 
14608000    294.05033   -8957.8744   -7836.8205   -8957.8744            0    15721.891    24.862226    24.750304    22.854924    14063.724    15324.135    16889.301    14952.238   -285.85171   -46.607408    343.66841   -4612.1821 
14609000    280.10972   -8936.7396   -7868.8336   -8936.7396            0    14535.729    24.877424    24.803174    22.899659    14129.985    13723.452    15249.753    14633.982   -59.029586    579.30777   -32.083137   -4873.4365 
14610000    299.96487   -9028.6939    -7885.091   -9028.6939            0    12374.868    25.035313    24.913071    22.730298    14177.036    11458.566    12228.314    13437.724   -206.37317   -1118.0042   -1013.2593   -5326.4939 
14611000    291.70115   -8969.1207   -7857.0228   -8969.1207            0    12499.964    24.864084    24.891124    22.951382    14204.496    12282.077    12844.939    12372.876    782.29896    160.81436   -382.11121   -5267.5553 
14612000    290.78213   -8968.2866   -7859.6925   -8968.2866            0    10929.403    24.979187    25.005502    22.863341    14280.834    9956.0491    11124.885    11707.274    411.67887   -737.30686    388.17856   -5583.4114 
14613000    292.85377   -8979.4012   -7862.9091   -8979.4012            0    11856.701    25.006035    24.961174    22.772497    14214.137    10838.998    12808.587    11922.516   -620.80536     355.5083    297.55576   -5405.0316 
14614000    300.60066   -8937.2153   -7791.1885   -8937.2153            0    13633.896    24.791669    24.924952    22.940312    14175.533    12967.743    13627.125     14306.82   -122.71401   -385.86293   -450.68118   -4972.5767 
14615000    296.20245    -8912.301   -7783.0421    -8912.301            0    14883.325    25.012025    24.895655    22.646274    14101.625    13569.727    14612.606    16467.641    561.59306   -486.64352    157.14957   -4722.1712 
14616000    291.56787   -8990.3017    -7878.712   -8990.3017            0    14824.267    24.850147      24.7416    22.928607     14097.25    15176.516      15497.1    13799.187   -547.88137   -377.94808    2170.3051   -4830.9325 
14617000    282.26909   -9002.0109   -7925.8724   -9002.0109            0    14027.805    24.970416    24.920385    22.655587    14097.946    13793.454    13439.227    14850.734    418.85442    3.0236527   -1592.4906   -5041.6984 
14618000    271.98167    -8947.657   -7910.7388    -8947.657            0    14528.916    24.848163    24.809066    22.863056    14094.153    15062.211     14089.91    14434.626    657.09728   -544.07964   -383.13526   -4924.3381 
14619000     288.3283    -8933.653    -7834.414    -8933.653            0    15359.575    24.854183     24.83643    22.779126    14061.308    14997.399     15270.72    15810.605     196.4416   -1437.2642    1079.6584   -4684.6297 
14620000    290.80882   -8989.2566   -7880.5608   -8989.2566            0    13414.459    24.849836     24.93624    22.831232    14147.635    13572.319    13058.381    13612.678    241.19412   -6.4348683   -204.93885   -5112.7723 
14621000    286.11122   -8975.6219   -7884.8354   -8975.6219            0    12735.376    24.926052    25.018548    22.733914    14177.179    12716.987    11304.305    14184.836   -1010.2106    244.59409   -669.41057    -5251.674 
14622000    292.08734   -8956.5599   -7842.9898   -8956.5599            0    12725.137    24.900418    24.910789    22.899007    14204.004    13707.402    12371.028     12096.98    502.79524   -945.17651    -830.3503   -5206.9671 
14623000     297.4877   -9045.1739   -7911.0151   -9045.1739            0    11127.171    25.011733    24.839801    22.899305    14227.029    10537.088    12571.267    10273.159   -451.26944    732.14019   -74.792155   -5602.2759 
14624000    302.92234   -8982.1851    -7827.307   -8982.1851            0    12177.228    24.932905    24.845426     22.92914    14203.883    12696.335    11057.582    12777.768   -616.01203    837.55968    241.70048   -5304.8055 
14625000    300.67058   -8948.0122   -7801.7189   -8948.0122            0    13816.913    24.918699    24.935306    22.790856    14161.221    13950.364    13378.041    14122.334      1558.62   -354.36946    861.72668    -4948.155 
14626000    303.79939   -9011.4517   -7853.2299   -9011.4517            0    14092.337     24.71445    24.956111    22.853913    14095.758    15583.412    13714.275    12979.325    268.65593    53.901548   -127.98313   -4956.2376 
14627000    297.50474   -8971.4507   -7837.2269   -8971.4507            0    14406.572    24.830692    24.902173    22.821271    14111.263    15790.275    13875.038    13554.402    412.47846    4.4089973    667.55255    -4872.379 
14628000    290.97499   -8976.0259   -7866.6966   -8976.0259            0    14444.321    24.879951     24.79703    22.854903    14100.307    12673.907     16293.34    14365.717    -106.3935    192.14479    817.37654   -4896.3878 
14629000    296.53826    -8968.672   -7838.1329    -8968.672            0    13785.004    24.919069    24.754089    22.912144     14133.33    13393.782    15944.393    12016.836      638.253   -660.75838   -998.79649   -4996.7663 
14630000     287.8825    -8988.495   -7890.9556    -8988.495            0    15586.509    24.877172    24.780612    22.816279    14065.587    14743.333    16308.311    15707.884   -1331.1121     368.7673   -143.41502   -4693.6614 
14631000    291.47084   -8994.0373   -7882.8175   -8994.0373            0    15511.731    24.911459    24.752533    22.793873    14055.197    15145.672    16252.886    15136.635   -328.74598    223.72209    1148.5076   -4703.2131 
14632000    290.28223   -8968.6009   -7861.9127   -8968.6009            0     13186.34    24.894634    24.870808    22.944052    14205.802    11908.004     14481.91    13169.107    274.47188    331.75078    486.63076   -5130.0056 
14633000     289.1366   -8981.7024   -7879.3819   -8981.7024            0    11740.722    24.855211    25.041275    22.838429    14214.779    13210.696    10208.191    11803.279    -69.45502   -21.013893    588.10188   -5445.4365 
14634000    279.34727   -8975.3022    -7910.303   -8975.3022            0    12382.207    24.887394    24.899086    22.923189    14204.889    11946.816    12471.939    12727.865    51.542641   -119.77709    287.68554   -5345.1587 
14635000    285.18588   -9011.8857   -7924.6271   -9011.8857            0    13700.364    24.807387    24.876019    22.860766    14107.585    14426.327    14050.064    12624.702   -255.09287    -528.0863    327.79123   -5105.8502 
14636000    304.22312   -9001.0383    -7841.201   -9001.0383            0    14257.139    24.815557    24.856329    22.844929    14091.292    14455.674    14438.247    13877.496    694.10806    336.20048   -46.531347   -4911.2586 
14637000    294.86834   -8994.8398   -7870.6672   -8994.8398            0    15105.275    24.981708    24.887085    22.627822    14068.212    12929.389    15170.666    17215.768   -42.774236   -676.01912    457.42135   -4771.5113 
14638000    294.41477   -8967.6532   -7845.2099   -8967.6532            0    15011.191    24.749428    24.881012    22.893293    14097.479    15229.988    15375.663    14427.921    776.84512   -145.46065    1060.4407   -4758.9499 
14639000    289.19326   -9000.8497   -7898.3131   -9000.8497            0    13816.566    24.839685    24.875451    22.828964     14105.98    14935.244     13095.01    13419.445    339.18184   -987.41033   -675.89181   -5055.9519 
14640000     292.1572   -8975.4945    -7861.658   -8975.4945            0      12882.1    24.911755    24.977353    22.803851    14189.233    13172.817    11015.281    14458.202   -859.83587    325.67411    997.63369   -5195.8953 
14641000    290.28051   -9003.0252   -7896.3436   -9003.0252            0    13542.339    24.853814    24.875813    22.864571    14136.223    13812.721    14140.685    12673.612    582.74257   -154.86703    1068.4971   -5104.4236 
14642000    289.23486   -9000.8464   -7898.1512   -9000.8464            0    13357.018    24.873619    24.969265    22.793247    14156.338    13395.121    12978.641    13697.291    621.41054   -243.64314   -48.175387   -5140.5191 
14643000    291.06422    -8976.238   -7866.5684    -8976.238            0    11510.991    24.762135    24.975578    23.041832    14250.189    14080.011    10206.542     10246.42    651.76612    683.37952     1116.038   -5474.3037 
14644000    290.32143   -8977.3693   -7870.5316   -8977.3693            0    13175.305    24.937404    24.975429    22.729842    14156.654    12001.794    13376.326    14147.795    439.51394    686.74837   -517.54393   -5150.3545 
14645000    301.46336   -8950.2293   -7800.9135   -8950.2293            0    13910.591    24.801634    24.805383    23.032753    14170.073    15299.796    13276.705    13155.272    945.77758   -1367.7377   -106.77872   -4926.2067 
14646000    296.71102   -9020.6877     -7889.49   -9020.6877            0    11722.823    24.886387    25.017589     22.80028    14195.395    11896.696    10752.899    12518.875   -497.14574    152.25758   -947.16029   -5462.5693 
14647000    288.85237   -8970.1139    -7868.877   -8970.1139            0    13456.623    24.881793    24.887197    22.818167    14129.877    14088.621    12891.677     13389.57    961.60159    76.193799    78.084856   -5095.8738 
14648000    290.55042   -9019.6591   -7911.9484   -9019.6591            0    13335.864    24.886534    24.823075    22.917495    14157.518     13569.51    13527.396    12910.686   -284.65426   -2131.5892    216.85231   -5158.4542 
14649000    297.73517   -8982.5897   -7847.4875   -8982.5897            0    13383.422    25.009314    24.874559    22.777243    14169.624    14240.556    12097.359     13812.35   -10.779326    1150.7154    257.00707   -5081.8111 
14650000    291.50481   -8998.2512   -7886.9019   -8998.2512            0    12773.813    24.847549    24.839244    22.981371    14183.972    13661.607    12696.304    11963.528   -808.06164    133.66304    -1599.625   -5244.5278 
14651000    300.80842    -8983.983   -7837.1642    -8983.983            0    14076.857    24.874712    24.944351    22.778628    14133.765    13666.654    13917.226     14646.69   -787.46255    1533.5987    436.08016   -4935.5515 
14652000    294.37934   -9020.7073    -7898.399   -9020.7073            0    11950.903    24.869028    24.817184    23.039368     14219.42    12992.216    11834.203     11026.29   -73.328591   -458.41651    1081.0873   -5420.0726 
14653000    295.47872   -8990.0253   -7863.5256   -8990.0253            0    12435.626    25.020334    24.839315    22.886234    14223.519    11601.606    13148.005    12557.266    248.36636   -1092.8949    1221.1144   -5283.9362 
14654000    282.81156   -8989.6258   -7911.4192   -8989.6258            0    13110.451    24.942116    24.870424    22.868412    14185.756    10970.439    13926.694    14434.219    624.88925    286.66922   -1083.7341   -5199.0674 
14655000    298.88148   -9025.5837   -7886.1112   -9025.5837            0    11535.169    25.019811    25.068953    22.696358     14235.62    10961.407    10368.998    13275.103   -892.20076    1017.1098    704.06069   -5491.2725 
14656000     278.2734   -9035.3988   -7974.4937   -9035.3988            0     12961.07    24.827211    24.892664    22.898509    14151.632    12765.422    13407.314    12710.475    39.059293   -792.75364    26.641109   -5299.4968 
14657000    293.43034   -9008.2112   -7889.5209   -9008.2112            0    12398.624    24.916717    24.948408    22.887375    14227.534     12709.73    11104.673    13381.469   -801.46199   -660.21659    795.50935   -5316.8809 
14658000    287.29069   -8965.2933   -7870.0101   -8965.2933            0    13908.638    24.842157     24.95416    22.817425    14144.868    15486.976    12573.885    13665.053   -369.72692   -546.69339    1019.4414   -5000.8196 
14659000      304.576   -8983.2421   -7822.0595   -8983.2421            0    13663.347    24.771144    24.938505    22.876901    14132.327     13790.16    13383.872    13816.008    295.56876    620.90997    -377.3703   -5005.9687 
14660000    286.03549   -8950.3596   -7859.8619   -8950.3596            0    14108.396    24.942052     24.94885    22.728769    14143.557    13247.709    14337.743    14739.737   -896.38271    100.72525    2225.2314   -4949.7333 
14661000    293.35048   -9015.6156   -7897.2298   -9015.6156            0    15668.161    24.803683    24.719923    22.893128     14036.81    15527.042    16227.069    15250.371   -258.83772    279.55935   -934.48557   -4689.7617 
14662000     304.2645    -9019.957    -7859.962    -9019.957            0    12602.086    24.924189    24.949703    22.771124    14160.249    14096.747    11572.052    12137.459   -515.92967    625.69044   -366.48573   -5257.4711 
14663000    297.59051   -8983.0245   -7848.4737   -8983.0245            0    12852.392    24.889567    24.701819     23.05933    14177.281    13067.477    13606.252    11883.448    432.32746   -502.05707    789.48722   -5191.0989 
14664000    286.57702   -8989.0646   -7896.5023   -8989.0646            0    14257.091    24.979908    24.798883    22.792676    14119.467    13595.247    14438.841    14737.185    749.76203   -507.13061    130.87655   -4960.7115 
14665000    302.04002   -9006.3318   -7854.8175   -9006.3318            0    14304.634    24.842906     24.73326    22.952332     14102.97     15633.89    14425.311      12854.7   -410.92857    1093.6773     1975.323   -4912.6784 
14666000    296.61537   -8962.9677   -7832.1346   -8962.9677            0    12840.503    24.897069    24.890423    22.879205    14178.211    11973.313    12392.874    14155.321   -139.47542   -440.21621   -75.153159   -5177.0441 
14667000     275.6013   -8996.0593   -7945.3415   -8996.0593            0    11442.346    24.884821    25.031292    22.833965    14223.259    12250.458    10353.435    11723.144    207.96589    90.716331   -168.54494   -5571.8369 
14668000    296.40488   -8930.3462   -7800.3156   -8930.3462            0    13504.504    24.855116    24.818926    23.008432    14193.379    13354.072     14573.36    12586.081   -797.71319    319.99044   -553.11538   -5004.9388 
14669000    289.06321   -8961.0223   -7858.9815   -8961.0223            0    12982.399     24.93941    24.954425    22.776194    14174.733     12558.58     12942.14    13446.477    873.39561    182.56764    735.53167   -5175.2088 
14670000     291.9148    -8970.777   -7857.8647    -8970.777            0    13841.189    24.853817    24.654704    23.105093    14157.958    14186.928    14598.082    12738.558   -117.63183   -334.34421   -487.16658   -4999.9457 
14671000    292.72891   -8995.5002   -7879.4841   -8995.5002            0    12953.938    24.963206    24.935498    22.758256    14166.331    11930.165    14174.304    12757.344    -923.4344   -736.01181    72.452129   -5203.1823 
14672000    290.99427   -8987.8338   -7878.4309   -8987.8338            0    13162.033    24.866043    24.873012    22.893501    14159.479    12899.103    12323.128    14263.867    517.99615    135.81194   -1519.6439   -5160.4517 
14673000     294.6195   -8976.8519    -7853.628   -8976.8519            0    14948.263    24.799097     25.00807    22.705185    14081.246    15590.935    13654.077    15599.778   -672.61304   -1019.2099    369.53536   -4783.8446 
14674000    282.32301   -8963.2641   -7886.9201   -8963.2641            0    13328.735    24.859016    24.884971     22.93083    14185.376    14191.147    12935.722    12859.337   -482.98101   -629.83886    270.95241   -5129.4825 
14675000    280.73773   -8942.7117   -7872.4114   -8942.7117            0    13404.474     24.99267    24.859975    22.828584    14183.791    13553.444    12832.607    13827.371   -297.25432   -123.71345    946.39745   -5099.6149 
14676000    284.70899    -8974.326   -7888.8855    -8974.326            0    14995.055    24.900488    24.724812     22.89053    14092.781    13625.892    15828.948    15530.326    -514.9877    650.92065   -301.38234   -4806.9704 
14677000    297.82947   -8993.8644   -7858.4026   -8993.8644            0     12457.72    25.022564    24.900377    22.768452    14186.369    10310.378    13183.455    13879.327    -34.79969    -501.9083   -1041.0048   -5280.9797 
14678000     280.9229    -8954.426   -7883.4198    -8954.426            0    12825.862    24.899737    24.880249    22.915807    14196.609     12896.32    13305.163    12276.104   -131.80713    295.61802   -202.31975   -5227.9149 
14679000    289.96903   -8990.3724   -7884.8782   -8990.3724            0    11365.531    24.933072    24.957853    22.873638    14233.714    11905.604    10183.015    12007.974   -778.71195   -229.55108    148.17787   -5525.5744 
14680000     276.1094   -8962.0322   -7909.3773   -8962.0322            0    12707.493    24.877084    25.025225    22.829238    14212.447    13796.564    12017.781    12308.135   -654.96603    54.854838    496.05971   -5275.4448 
14681000    291.32935   -8978.8528   -7868.1725   -8978.8528            0    13401.539    24.781505    24.792202    23.033091    14151.257    14769.641    13284.446    12150.531    -1968.469     332.6015   -339.46912   -5102.3418 
14682000    302.03295   -8959.4106   -7807.9232   -8959.4106            0    14070.911     24.99448    24.858116    22.758389    14140.143    12556.783    14621.865    15034.086    152.31465   -647.71449    37.989949   -4906.2271 
14683000    294.13776   -8988.6716   -7867.2843   -8988.6716            0    14344.629    24.958447    24.746878    22.850894     14113.71    14319.006    15450.768    13264.113   -1139.0757   -1381.4227   -1005.5339   -4914.6722 
14684000    295.77516   -8974.7427    -7847.113   -8974.7427            0    14395.559    24.835461    24.845458    22.866181    14109.541    14619.299    13507.688    15059.691   -154.27111   -2066.3589   -96.519025    -4884.893 
14685000    304.89705    -8937.949   -7775.5424    -8937.949            0    15558.569    24.824145    24.996885    22.682276    14074.949    14794.458    14553.343    17327.905   -134.43418    375.29054   -1055.8407   -4581.8553 
14686000    293.90643   -8939.7688   -7819.2634   -8939.7688            0    13553.043    24.814214     24.97415    22.865721    14170.205    14164.225    13549.789    12945.116   -485.96882     864.3682   -886.98199   -5018.4199 
14687000    285.80021   -9014.7621   -7925.1614   -9014.7621            0    13583.239    24.764208     25.01469    22.824689    14139.187    14274.572    12487.768    13987.377    70.677949    987.56579   -949.32296   -5124.2222 
14688000    302.59686   -8969.6504   -7816.0132   -8969.6504            0    13468.582    24.844757    24.917098    22.850024    14145.519    14003.052    12931.153    13471.542     391.0724    233.00303    -851.3743   -5037.4731 
14689000    282.83709   -9019.4173   -7941.1133   -9019.4173            0     12592.37    24.935112    24.935916     22.80459    14179.435    12106.831     12525.27    13145.007   -453.04014    207.50512    465.99456   -5337.1055 
14690000    294.81048   -8937.1548   -7813.2028   -8937.1548            0     14147.71    24.880425    24.764346    22.936767    14132.431    14571.133    14764.263    13107.733   -80.447393   -696.65677   -53.914695   -4897.2607 
14691000    290.84552    -8959.884   -7851.0482    -8959.884            0    12982.233    24.945424    24.854599    22.871327    14180.417    13278.038    13718.156    11950.504    450.72028    317.37748    60.841309   -5166.2337 
14692000    295.14078   -8970.6199   -7845.4086   -8970.6199            0    13581.347    24.949344    24.883544    22.775709      14139.8    13165.162    14657.131    12921.748     299.5407   -247.17903    340.96265   -5044.7381 
14693000    293.92613   -8981.5278   -7860.9474   -8981.5278            0    14376.246    24.810965    24.872791     22.87642    14117.449    14921.356    14194.238    14013.144   -570.60907   -367.78641    274.44966   -4901.0434 
14694000    287.55228    -8964.066   -7867.7855    -8964.066            0    13258.458    24.863251    24.944946    22.807066    14145.227    12095.227     14198.87    13481.277   -107.93514   -1212.6892   -306.16154   -5132.6503 
14695000    290.43062   -8966.4719   -7859.2179   -8966.4719            0    12862.359    25.014299     24.86547    22.795619    14178.699    12248.356    14005.695    12333.026   -67.583549   -376.31295   -3.7143092   -5199.5164 
14696000    292.74196   -8953.4219    -7837.356   -8953.4219            0    12642.046    24.827869    24.801422    23.064227    14202.177    14448.301    11838.291    11639.546   -458.09865    744.13449    171.41358   -5218.8826 
14697000    288.26658   -8966.5873   -7867.5836   -8966.5873            0    12334.872    24.821026    24.979634    22.901013     14199.09    13289.897    10655.827     13058.89    293.58278    21.181355    995.95025   -5313.2888 
14698000    295.22285   -8967.6576   -7842.1335   -8967.6576            0    12496.096    24.782874    25.079631    22.870092    14214.799    13642.096    11912.356    11933.835    225.71432     293.5169     952.2778   -5251.5897 
14699000    308.47463   -8992.4157   -7816.3697   -8992.4157            0    13453.146    24.895395    24.902663    22.815516    14144.745    13869.129    12849.517    13640.792     834.3466    197.93769   -1219.4731    -5041.166 
14700000    290.92728   -8967.9086   -7858.7611   -8967.9086            0    14325.699    25.016592    24.785777    22.802072    14138.554      13792.1    14641.146     14543.85   -959.47727    670.71722   -158.76766    -4904.855 
14701000      297.006   -8945.3305   -7813.0082   -8945.3305            0      14597.3    24.888019    24.811032    22.862387    14117.465      13993.6    15817.697    13980.603   -600.73568    309.91535    982.38596   -4807.5884 
14702000    288.50437   -8974.6605   -7874.7503   -8974.6605            0    14499.211    24.944763     24.94919    22.655613    14099.757    14312.595    13528.981    15656.059     688.5201    759.72135    -421.5555   -4893.2702 
14703000    291.61353   -9032.2949   -7920.5311   -9032.2949            0    13604.984    24.788351    24.809304    22.948701    14113.032    14094.969    13527.513    13192.468    221.10654    538.08415   -1297.5457   -5120.2977 
14704000    305.56554   -8989.1668   -7824.2116   -8989.1668            0    13643.997    24.940587    25.027853    22.616902    14117.682    13894.304    12037.644    15000.044    -501.9411    525.64793    180.98022    -5015.023 
14705000     287.5252   -8993.5959   -7897.4187   -8993.5959            0    13694.983    24.839957    24.880843    22.850316    14122.388    14698.345    12868.691    13517.913   -275.72119    1152.4917   -162.13991   -5076.7926 
14706000    278.94368   -9035.2311   -7971.7706   -9035.2311            0    12361.739    24.873477    24.898639    22.891563    14177.105    11966.967    12483.348    12634.902    130.25526    862.24989     764.3238   -5415.8756 
14707000    289.86265   -8962.8045   -7857.7159   -8962.8045            0    14212.221    24.957346     24.89829      22.7039    14108.096    12658.827    15264.633    14713.202   -39.779408   -438.67874   -522.52191   -4933.5216 
14708000    283.06414   -8939.3327   -7860.1631   -8939.3327            0    14642.033    24.910559    24.743856    22.922536    14129.068    14310.558    14899.124    14716.417    162.91649   -397.98087   -393.94745   -4843.0556 
14709000    296.90048   -8945.1571   -7813.2371   -8945.1571            0    13757.604    25.122433    24.726055    22.794806    14159.647    12052.922     15714.12     13505.77      842.268   -174.83926   -752.41824   -4972.2377 
14710000    296.01468   -8966.8634   -7838.3204   -8966.8634            0    13778.496    25.029725    24.778407    22.809493    14146.373    12267.401    15491.371    13576.717   -356.77503    1225.5138    557.25062   -4995.6742 
14711000    295.95412   -8954.3089   -7825.9968   -8954.3089            0    13650.947    24.934588    24.777594    22.894233    14144.494    13617.964    14202.397     13132.48    70.145503   -568.68245   -481.12816   -5010.0394 
14712000    297.16447   -9012.0789   -7879.1524   -9012.0789            0    13259.679    24.845751    24.884178    22.849891    14127.313    11808.445     13825.33    14145.262   -742.19965   -861.44268   -522.17101   -5147.2293 
14713000      294.028   -8992.1842   -7871.2153   -8992.1842            0    14210.604     24.83232    24.965911    22.746908    14102.207    14866.116    12514.952    15250.744     239.3763   -517.04309    227.57715    -4948.574 
14714000    290.76423   -8943.5546   -7835.0288   -8943.5546            0    14405.606    24.709613     24.78563    23.047243    14115.131    15664.897    15341.767    12210.154   -297.26538    432.70671    986.13678    -4869.567 
14715000    287.54991   -8964.3968   -7868.1254   -8964.3968            0     14790.36    24.960388    24.906502    22.643398    14076.856    13515.203    14115.733    16740.146    181.65743   -355.33527   -116.57418   -4831.7161 
14716000     286.0201   -8991.0347   -7900.5956   -8991.0347            0    14235.299    24.847078    24.667775    23.025032    14112.552     14082.43    15909.874    12713.594    1393.6767   -1364.9425   -1144.2735   -4970.7277 
14717000    296.30429   -8959.5477   -7829.9006   -8959.5477            0    14497.775    24.843929    24.855869    22.843186    14106.066    15436.033     14146.86     13910.43   -203.93372   -139.78325    1032.0461   -4847.3822 
14718000    295.87514   -8966.5786   -7838.5676   -8966.5786            0    14744.345    24.877893    24.869087      22.7781    14092.594    15234.702    13474.363    15523.968   -326.75781     498.0111    1398.6301   -4808.2211 
14719000    280.39455   -8972.4223   -7903.4304   -8972.4223            0    13513.336    24.784087    24.918408    22.893682     14138.68    13894.322    13225.807     13419.88    630.46646     221.3473   -237.68494   -5117.0056 
14720000    279.92658   -8931.3342   -7864.1264   -8931.3342            0    13125.558    24.893894    24.944153    22.809113     14163.48    13410.921    12435.453    13530.301    930.78693    185.54899    52.425118   -5152.9132 
14721000    287.44728   -8939.9496   -7844.0695   -8939.9496            0     15926.42    25.034129    24.729725    22.733196    14073.829    13796.139    15976.295    18006.824    541.99265    460.63042   -112.51246   -4575.1343 
14722000    288.13398   -8977.0844   -7878.5862   -8977.0844            0    13828.149     24.85376    24.831068    22.862345    14109.391    13963.532    14127.221    13393.693    1297.1787   -11.444503   -846.28908   -5033.1543 
14723000     291.3119   -8970.2113   -7859.5974   -8970.2113            0    13968.545    24.960781    24.845455     22.82714    14156.524    14009.463    14229.481    13666.691    958.09891    531.65608    149.30694   -4975.6742 
14724000     291.8239   -8907.7163   -7795.1506   -8907.7163            0    13805.907     24.82934    24.930028    22.906833    14179.242    14796.558    12972.452     13648.71    353.82204    428.62005    249.02534   -4940.2313 
14725000     283.9701    -8957.284   -7874.6604    -8957.284            0    13524.302    24.859254    24.902505      22.8388    14138.535     14996.43    12665.687     12910.79    1287.3761   -950.23609   -65.244522    -5086.003 
14726000    290.01907   -8962.5057   -7856.8208   -8962.5057            0    13301.507    24.759611    24.952912    22.946431    14176.865    15357.534    11705.778    12841.208   -762.67223   -1093.6324   -331.05891   -5106.6673 
14727000    288.39741   -8930.6703   -7831.1679   -8930.6703            0    13094.914    24.900328    25.030879    22.756497    14183.603    12034.767    12123.488    15126.485    1064.3921   -464.67313   -816.74365   -5122.4417 
14728000    290.35596   -8933.1739   -7826.2046   -8933.1739            0    13198.275    24.891004    24.859623    22.955545    14204.455    14056.429    13765.546    11772.849    164.16732    108.76401   -906.09495   -5092.0843 
14729000    290.22452   -8999.4716   -7893.0034   -8999.4716            0    12579.438    24.939145    24.928448     22.81671    14185.016    11717.514    11745.712    14275.088    383.35726     757.9681   -112.88296   -5290.6459 
14730000    291.89535   -8965.8315   -7852.9934   -8965.8315            0    12638.299    24.925033    24.807925    22.977718    14208.004    11592.713    14183.949    12138.234    394.87247   -217.00028   -561.28694    -5234.222 
14731000     311.8744   -9006.9664   -7817.9589   -9006.9664            0    12773.182     24.95978    24.836231    22.848049    14163.662     13534.13     12419.53    12365.887    -130.4136    1164.7153     763.4961   -5179.4987 
14732000    285.04664   -8929.2841   -7842.5563   -8929.2841            0    14990.079    24.950733    24.916157    22.728885    14130.011    14957.061     14014.13    15999.047   -443.28766    101.19271   -62.492065    -4753.525 
14733000    297.49419   -8950.4362   -7816.2527   -8950.4362            0    14769.512     24.80364    24.823283    22.922521    14113.574    15245.958    13613.956     15448.62    1479.4173    -1661.239    916.03249   -4776.2146 
14734000    294.45004   -8956.4605   -7833.8827   -8956.4605            0    14445.387    24.814979    24.944482    22.789612    14106.697    14323.546    13598.009    15414.607    220.34172   -588.99128     19.33093   -4862.0085 
14735000    284.72865   -8972.2015    -7886.686   -8972.2015            0    15382.256    24.851087    24.725927    22.859796    14046.571    15389.371    16887.248    13870.149    338.34126   0.72247176   -1447.5911   -4735.5566 
14736000    294.48299   -8952.1008   -7829.3974   -8952.1008            0    15490.628     24.88877    24.775051    22.816643    14069.211    14821.978    15666.159    15983.747    655.59806    625.85896   -661.06925   -4650.9526 
14737000    287.84181   -8978.3954   -7881.0111   -8978.3954            0    14413.077    24.880823    24.916174    22.728515      14090.2    13263.246     15491.11    14484.876   -1068.3586    184.33728   -774.98947   -4919.2519 
14738000    303.49164   -8957.9225   -7800.8739   -8957.9225            0    13446.105     24.73293    25.035702    22.891972    14174.853    15072.404    12225.024    13040.887   -596.92296    -1071.461     842.8344   -5021.2186 
14739000    290.46243     -8968.86   -7861.4847     -8968.86            0    13240.183     24.85695    24.941205     22.87721    14183.007    14651.455    12420.303     12648.79    165.60388   -792.76581   -1282.0431   -5122.8242 
14740000    304.17822   -8970.2152   -7810.5491   -8970.2152            0    13747.191    24.981061    24.941341    22.682478    14132.571    13228.605    12707.974    15304.995   -543.99685   -715.55592   -291.91091   -4977.1285 
14741000     298.8469   -8981.9067   -7842.5661   -8981.9067            0     13234.86    24.897258    24.781537    22.933729    14149.935    12296.926     14495.72    12911.934   -1668.6716   -259.17061    -246.8806   -5111.3901 
14742000    302.05089   -8970.7492   -7819.1935   -8970.7492            0    14437.959    24.985913    24.838235    22.773224    14133.199     13670.83    13913.699    15729.348   -1061.8007    232.33205   -52.956941   -4843.2672 
14743000    296.16934   -8979.4616    -7850.329   -8979.4616            0    14866.892    24.788533     24.66743    23.054979    14097.414    14948.338    15520.382    14131.956   -161.34089   -1017.0534    457.17371   -4793.7506 
14744000    291.84576   -9012.0684   -7899.4192   -9012.0684            0    13008.396    24.996206     24.85841    22.800515    14167.464    10197.597    15385.391    13442.201   -580.79733    301.54148    7.6772479   -5211.6515 
14745000     289.4193   -8949.4849   -7846.0866   -8949.4849            0    13325.607    24.800682    24.938793    22.935813    14185.779    12916.503    13639.168    13421.149   -772.02273   -1688.4371    104.66315    -5089.218 
14746000    294.27995   -9011.8583   -7889.9289   -9011.8583            0    12758.801    24.786928    25.085551    22.804892    14179.939    12074.947     12003.98    14197.476    347.44399   -886.91827   -166.02521   -5251.4106 
14747000     296.5821   -8921.1725   -7790.4662   -8921.1725            0    14316.657    24.829803    24.924128    22.826628    14126.514    15243.129    12383.508    15323.334    641.50583    1624.7023   -285.02521   -4840.9382 
14748000    289.97248   -9023.7797   -7918.2724   -9023.7797            0    12070.692    24.940763     24.87389    22.890515    14200.675    13651.478    10292.174    12268.424    892.70737   -702.18476   -524.58974   -5418.4045 
14749000    276.73446   -8983.4092   -7928.3712   -8983.4092            0    13864.354    24.888577    24.823338    22.873794    14131.831     14377.34    14248.926    12966.796    260.34986   -189.68178    592.06271   -5070.9519 
14750000    298.29994   -8947.9997   -7810.7443   -8947.9997            0     13172.25    24.933085    24.880889      22.8698    14187.448    13473.948    12264.623     13778.18   -821.62733   -708.83466   -264.69001   -5085.2822 
Loop time of 573.909 on 64 procs for 250000 steps with 1920 atoms

Performance: 75.273 ns/day, 0.319 hours/ns, 435.610 timesteps/s
99.1% CPU use with 64 MPI tasks x 1 OpenMP threads

MPI task timing breakdown:
Section |  min time  |  avg time  |  max time  |%varavg| %total
---------------------------------------------------------------
Pair    | 63.95      | 66.034     | 68.068     |  12.6 | 11.51
Bond    | 0.27262    | 0.27981    | 0.29082    |   0.8 |  0.05
Kspace  | 247.07     | 257        | 268.55     |  32.9 | 44.78
Neigh   | 8.1268     | 9.2669     | 10.826     |  24.6 |  1.61
Comm    | 95.793     | 109.8      | 120.56     |  57.6 | 19.13
Output  | 1.0875     | 1.0885     | 1.1015     |   0.2 |  0.19
Modify  | 115.06     | 122.76     | 127.23     |  28.3 | 21.39
Other   |            | 7.678      |            |       |  1.34

Nlocal:        30.0000 ave          34 max          25 min
Histogram: 2 0 1 7 13 18 11 8 3 1
Nghost:        2858.14 ave        2884 max        2831 min
Histogram: 2 5 5 12 8 8 9 6 2 7
Neighs:        10709.2 ave       12128 max        8860 min
Histogram: 2 0 4 4 14 14 9 8 7 2

Total # of neighbors = 685386
Ave neighs/atom = 356.97188
Ave special neighs/atom = 2.0000000
Neighbor list builds = 14783
Dangerous builds = 2

unfix		3
unfix		2
unfix		1

write_data	data.final.${pid}
write_data	data.final.0
System init for write_data ...
PPPM initialization ...
  extracting TIP4P info from pair style
  using 12-bit tables for long-range coulomb (../kspace.cpp:340)
  G vector (1/distance) = 0.37461519
  grid = 30 30 30
  stencil order = 5
  estimated absolute RMS force accuracy = 0.0032543673
  estimated relative force accuracy = 9.8004305e-06
  using double precision FFTW3
  3d grid and FFT values/proc = 3600 512
Last active /omp style is kspace_style pppm/tip4p/omp
WARNING: Not all mixed pair coeffs generated from mixing. Use write_data with 'pair ij' option to store all pair coeffs. (../write_data.cpp:312)

write_restart   restart.lmp.${pid}
write_restart   restart.lmp.0
System init for write_restart ...
PPPM initialization ...
  extracting TIP4P info from pair style
  using 12-bit tables for long-range coulomb (../kspace.cpp:340)
  G vector (1/distance) = 0.37461519
  grid = 30 30 30
  stencil order = 5
  estimated absolute RMS force accuracy = 0.0032543673
  estimated relative force accuracy = 9.8004305e-06
  using double precision FFTW3
  3d grid and FFT values/proc = 3600 512
Last active /omp style is kspace_style pppm/tip4p/omp
Total wall time: 0:09:36
