LAMMPS (30 Jul 2021)
Processor partition = 0
  using 2 OpenMP thread(s) per MPI task
using multi-threaded neighbor list subroutines
variable        pid world 0 1
variable        phase world IceII IceIh

shell cd ${phase}
shell cd IceII
include Restart.lmp
echo both
log log.lammps
#include		in.partitions
include		in.temp
variable        temperature equal 182.60
variable	tempDamp equal 100.0
include		in.pressure
variable        pressure equal 2083.6
variable        pressureDamp equal 1000.0 # This is 1 ps
include		in.seed
variable        seed equal 745823

units		real
atom_style	full
box tilt large
read_restart	restart.lmp.${pid}
read_restart	restart.lmp.0
Reading restart file ...
  restart file = 30 Jul 2021, LAMMPS = 30 Jul 2021
  restoring atom style full from restart
  triclinic box = (-10.698256 -9.2790110 0.097649395) to (12.678256 12.269009 21.762350) with tilt (-9.2277683 1.7369668 2.9537483)
  2 by 4 by 4 MPI processor grid
  restoring pair style lj/cut/tip4p/long/omp from restart
  restoring bond style harmonic/omp from restart
  restoring angle style harmonic/omp from restart
  1296 atoms
  864 bonds
  432 angles
Finding 1-2 1-3 1-4 neighbors ...
  special bond factors lj:    0        0        0       
  special bond factors coul:  0        0        0       
     2 = max # of 1-2 neighbors
     1 = max # of 1-3 neighbors
     1 = max # of 1-4 neighbors
     2 = max # of special neighbors
  special bonds CPU = 0.002 seconds
  read_restart CPU = 0.008 seconds
include 	in.setup
variable	out_freq equal 1000
variable	out_freq2 equal 10000
variable	out_freq3 equal 1000

timestep	2.0

neigh_modify    delay 7 every 1

include		in.tip4p
# This is TIP4P/Ice

# create groups ###
group ox type 2
432 atoms in group ox
group hy type 1
864 atoms in group hy

# set charges - beside manually ###
set group ox charge -1.1794
Setting atom values ...
  432 settings made for charge
set group hy charge 0.5897
Setting atom values ...
  864 settings made for charge

# ### TIP3P Potential Parameters ###
pair_style lj/cut/tip4p/long/omp 2 1 1 1 0.1577 8.5
pair_coeff 1 1*2 0.000 0.000
pair_coeff 2 2 0.21084 3.1668
bond_style  harmonic
bond_coeff  1 450 0.9572
angle_style harmonic
angle_coeff 1 55 104.52
kspace_style pppm/tip4p/omp 1.0e-5
pair_modify tail yes

thermo          ${out_freq}
thermo          1000
thermo_style    custom step temp pe etotal epair emol press lx ly lz vol pxx pyy pzz pxy pxz pyz enthalpy

restart 	${out_freq3} restart.lmp.${pid} restart2.lmp.${pid}
restart 	1000 restart.lmp.${pid} restart2.lmp.${pid}
restart 	1000 restart.lmp.0 restart2.lmp.${pid}
restart 	1000 restart.lmp.0 restart2.lmp.0


include         in.dump
dump            myDump all atom ${out_freq2} dump.water.${pid}
dump            myDump all atom 10000 dump.water.${pid}
dump            myDump all atom 10000 dump.water.0
dump            myDump2 all dcd ${out_freq2} dump.dcd
dump            myDump2 all dcd 10000 dump.dcd
dump_modify     myDump append yes
dump_modify     myDump2 append yes


variable natoms 	equal  "count(all)"                        # NUMBER ATOMS
variable H      	equal  "enthalpy/v_natoms"                 # ENTHALPY-per-atom
variable Vol      	equal  "vol/v_natoms"                 # volume-per-atom
fix AVG all 		ave/time ${out_freq} 1 ${out_freq} v_Vol v_H file vol_enthalpy.dat
fix AVG all 		ave/time 1000 1 ${out_freq} v_Vol v_H file vol_enthalpy.dat
fix AVG all 		ave/time 1000 1 1000 v_Vol v_H file vol_enthalpy.dat


timer           timeout 10:00:00 every 1000
New timer settings: style=normal  mode=nosync  timeout=10:00:00

fix 		1 all shake 1e-6 200 0 b 1 a 1
Finding SHAKE clusters ...
       0 = # of size 2 clusters
       0 = # of size 3 clusters
       0 = # of size 4 clusters
     432 = # of frozen angles
  find clusters CPU = 0.001 seconds
fix             2 all nph tri ${pressure} ${pressure} ${pressureDamp}
fix             2 all nph tri 2083.6 ${pressure} ${pressureDamp}
fix             2 all nph tri 2083.6 2083.6 ${pressureDamp}
fix             2 all nph tri 2083.6 2083.6 1000
fix             3 all temp/csvr ${temperature} ${temperature} ${tempDamp} ${seed}
fix             3 all temp/csvr 182.6 ${temperature} ${tempDamp} ${seed}
fix             3 all temp/csvr 182.6 182.6 ${tempDamp} ${seed}
fix             3 all temp/csvr 182.6 182.6 100 ${seed}
fix             3 all temp/csvr 182.6 182.6 100 745823


run             250000
PPPM initialization ...
  extracting TIP4P info from pair style
  using 12-bit tables for long-range coulomb (../kspace.cpp:340)
  G vector (1/distance) = 0.36754248
  grid = 30 40 32
  stencil order = 5
  estimated absolute RMS force accuracy = 0.0044534732
  estimated relative force accuracy = 1.3411502e-05
  using double precision FFTW3
  3d grid and FFT values/proc = 7752 1200
Last active /omp style is kspace_style pppm/tip4p/omp
Neighbor list info ...
  update every 1 steps, delay 7 steps, check yes
  max neighbors/atom: 2000, page size: 100000
  master list distance cutoff = 10.8154
  ghost atom cutoff = 10.8154
  binsize = 5.4077, bins = 7 5 5
  1 neighbor lists, perpetual/occasional/extra = 1 0 0
  (1) pair lj/cut/tip4p/long/omp, perpetual
      attributes: half, newton on, omp
      pair build: half/bin/newton/tri/omp
      stencil: half/bin/3d/tri
      bin: standard
Setting up Verlet run ...
  Unit style    : real
  Current step  : 11750000
  Time step     : 2
  Walltime left : 9:59:59.94
Per MPI rank memory allocation (min/avg/max) = 10.64 | 10.65 | 10.65 Mbytes
Step Temp PotEng TotEng E_pair E_mol Press Lx Ly Lz Volume Pxx Pyy Pzz Pxy Pxz Pyz Enthalpy 
11750000    191.75481   -6502.8693   -6009.5917   -6502.8693            0    2855.2341    23.376511     21.54802      21.6647    10912.889    1858.1734    2862.7985    3844.7305    871.10591    1060.2979   -27.830366   -5555.1718 
11751000    185.00352   -6529.2929   -6053.3826   -6529.2929            0    2536.5343    23.473714    21.471745    21.630612    10902.296    2434.8963    1959.5103    3215.1965    396.31269   -911.69887    525.80419   -5650.0767 
11752000    188.53903   -6531.6184   -6046.6132   -6531.6184            0    2006.5678    23.454677    21.476647    21.688025    10924.861    1279.8836     1854.049    2885.7707    274.25478     153.1282    643.81752    -5726.911 
11753000     182.4399   -6517.5986   -6048.2831   -6517.5986            0    2975.1628    23.424879    21.488586    21.627634    10886.648    2728.7886    2897.3253    3299.3744    762.19851    878.57552    206.19352   -5575.9147 
11754000    177.87369   -6536.1634   -6078.5942   -6536.1634            0    1165.2106    23.439591    21.578631    21.699452    10975.458    358.10315    1787.8715    1349.6572    592.52341    789.33582    361.66589   -5892.0838 
11755000     178.2827   -6512.4619   -6053.8406   -6512.4619            0    2529.7497    23.464434    21.427919    21.725304    10923.352    1183.9723    2936.1442    3469.1327    742.74863   -215.77834    7.8828256   -5650.8365 
11756000     188.3473   -6519.4634   -6034.9515   -6519.4634            0    2133.9587    23.363058    21.598388    21.660344    10929.904    1906.8485    2253.9554    2241.0722    641.84268   -477.84275   -1233.0016   -5694.7954 
11757000    187.29409   -6541.3761   -6059.5735   -6541.3761            0    1462.7698    23.344365    21.596901    21.723593    10952.296    2755.9416   -628.51211    2260.8799   -561.96691    16.517189    976.88087   -5825.9282 
11758000    178.77537   -6505.4259   -6045.5372   -6505.4259            0    1818.7938    23.512668    21.470472    21.751252    10980.643    77.655537     2397.532    2981.1938    -403.0762    856.49056    327.71318   -5754.2729 
11759000     193.9479   -6513.4207   -6014.5016   -6513.4207            0    2311.6009    23.498597    21.361482    21.725695    10905.535    2179.9979    1497.8347    3256.9701    -899.9992    510.33993   -258.19056   -5646.8506 
11760000    187.82107   -6526.5328   -6043.3746   -6526.5328            0    1794.0592    23.189103    21.704337       21.734    10938.811    2843.9374   -289.41321    2827.6536   -810.28504    209.14554    1055.8695   -5757.1659 
11761000     183.8363   -6522.6303   -6049.7226   -6522.6303            0    1810.3067    23.429857     21.49703      21.7335    10946.563    1834.8851    1967.3346    1628.7003   -325.68089    312.74032    17.505508   -5760.7173 
11762000    184.83064   -6489.3638   -6013.8983   -6489.3638            0    2525.5343    23.544011    21.312811    21.772233    10925.068    1256.1524    2919.8918    3400.5588    935.86629    260.22616    1404.5514   -5611.5026 
11763000    188.78814   -6514.4483   -6028.8023   -6514.4483            0    1608.0528    23.391121    21.669981     21.64855    10973.328    1254.0813    1055.9013    2514.1756   -56.436814   -423.92535   -682.35901    -5771.458 
11764000    177.11006   -6528.6926   -6073.0877   -6528.6926            0    3083.5427    23.296828    21.509213    21.740961    10894.318    3645.1273    3133.2612    2472.2395   -568.91958   -509.64683   -266.11103   -5583.1669 
11765000    182.62818   -6518.8939    -6049.094   -6518.8939            0    1787.2946     23.60688    21.326516    21.770739    10960.533    1051.3225    2322.9285    1987.6329    161.26339   -421.78518    51.579772   -5763.3983 
11766000    176.92438   -6507.7048   -6052.5776   -6507.7048            0    1928.0712    23.400565    21.625021    21.631252    10946.229    2246.1949    1534.9531    2003.0655    -243.6915    -309.2953   -12.741694   -5744.7812 
11767000    182.13339   -6514.7606   -6046.2335   -6514.7606            0    1169.3422    23.399209    21.605563     21.69461    10967.777    1522.7271   -180.08229    2165.3819     945.5749   -452.46434    1237.3757   -5859.1928 
11768000     184.0305   -6544.7648   -6071.3575   -6544.7648            0    2430.1652    23.640891    21.342667    21.588288    10892.579    1047.9817    2628.1733    3614.3406   -980.69449    807.00108   -594.61435   -5685.3086 
11769000    181.32008   -6519.1514   -6052.7166   -6519.1514            0    2476.4227    23.330623    21.527474     21.65596    10876.693    2286.0962    2521.9563    2621.2157    -635.8664     682.5085    404.33368    -5659.893 
11770000    179.85815   -6527.8743   -6065.2001   -6527.8743            0     948.5199    23.395594    21.575679     21.78602    10997.057    356.62647    897.49606    1591.4372   -296.63261    381.24662      549.226   -5913.0758 
11771000    182.15871   -6539.8566   -6071.2644   -6539.8566            0    1741.4148    23.530417    21.434236    21.671946    10930.387    724.96762    1952.9858    2546.2909    358.32417   -298.76373    393.24951   -5793.6681 
11772000    184.72247   -6521.3612   -6046.1739   -6521.3612            0    2131.2025     23.46489    21.414319    21.730411    10919.198    1808.7396    2807.6496    1777.2182    938.12624    422.56436    429.18029     -5706.79 
11773000    179.70572   -6523.0664   -6060.7844   -6523.0664            0    2055.4889     23.36041    21.606026    21.665795    10935.282    2997.6162    1238.6852    1930.1652   -1522.4955    318.80476   -1227.4827   -5732.9753 
11774000     197.3305   -6508.6847    -6001.064   -6508.6847            0    2513.4544    23.458442    21.417316    21.752478    10928.812    1839.5235    3753.8523    1946.9873   -705.43806    542.68205    96.711561   -5600.4558 
11775000    186.06509   -6492.1972   -6013.5561   -6492.1972            0    2294.4105    23.476652    21.433604    21.707849    10923.156    1850.4715    2301.5561     2731.204    971.35343   -462.71776    333.96202   -5648.0496 
11776000    190.65415   -6514.1485   -6023.7023   -6514.1485            0    2854.7421    23.349231    21.531466    21.730668    10924.945    2927.7754    1691.8405    3944.6104   -207.83838   -550.12001    146.91932   -5568.8588 
11777000    184.99095   -6512.8193   -6036.9413   -6512.8193            0    1490.9155    23.357306    21.500207    21.836931    10966.221    2666.6948    820.17938    985.87224   -933.98755    657.52122    153.69074   -5798.4976 
11778000    168.91015   -6502.7689   -6068.2579   -6502.7689            0    2334.3493    23.505396    21.383899    21.748724    10931.713    1447.0015     2764.956    2791.0905   -1658.4497    673.85455   -857.26422   -5696.0976 
11779000    185.17886   -6541.3971   -6065.0357   -6541.3971            0    1473.1372    23.369167    21.468681    21.809277    10941.828    3089.6729    1003.4568    326.28177    110.85034    315.18946    286.73294   -5829.9594 
11780000    189.23732   -6507.1541   -6020.3526   -6507.1541            0    2401.0605    23.361406    21.557513    21.738224     10947.67    2660.9879    2051.6821    2490.5116   -567.76712   -1424.7849    731.55908    -5636.998 
11781000    181.95257   -6491.8328   -6023.7709   -6491.8328            0     2764.665    23.429639    21.496341    21.705198    10931.856    2204.9377    3275.3871    2813.6701   -833.24849   -854.41894   -614.23383   -5583.0006 
11782000    181.05356   -6504.9293     -6039.18   -6504.9293            0    1506.3765    23.436942    21.446294    21.848822    10981.995    1780.0173    1017.0059    1722.1063    370.61827    639.15627    189.22958   -5797.9171 
11783000    184.05298   -6522.0298   -6048.5648   -6522.0298            0    2538.4705    23.324234    21.570114       21.739     10937.03    2175.7805    2202.1582     3237.473   -1272.0257    517.97239    703.47617   -5643.6651 
11784000    186.19394   -6541.9119   -6062.9394   -6541.9119            0    1788.9716    23.397387    21.455137     21.78931    10938.106    2083.4182    785.73642    2497.7601   -27.200986     505.2683    183.65826   -5777.5607 
11785000    185.11191   -6550.0037   -6073.8146   -6550.0037            0    1348.0063    23.572602    21.326115    21.803752    10961.008    138.12657    2594.2824    1311.6101   -833.53641    539.20595    -1156.273   -5858.3289 
11786000    176.73561   -6519.8812   -6065.2396   -6519.8812            0    1431.5712    23.247465    21.658902    21.819443    10986.407     1835.071    1652.5346    807.10799   -1593.4351    509.08105   -329.79473   -5835.8654 
11787000    184.21677   -6513.5523   -6039.6658   -6513.5523            0    2323.7515    23.307262    21.557717    21.733365    10919.959    2041.0354    2143.5065    2786.7127   -368.57541    1137.8867    12.892715   -5669.5935 
11788000     177.6539   -6504.8239   -6047.8201   -6504.8239            0    3039.0967    23.562493    21.343699     21.67938    10902.794    1964.8258    4036.8155    3115.6489    332.92945    91.590576    270.83841   -5564.5853 
11789000    190.60789    -6538.039   -6047.7118    -6538.039            0    2577.3007    23.385127    21.545727    21.608701    10887.534    1805.8599    2240.4875    3685.5546    -0.511557     775.6176    456.41002   -5638.4789 
11790000    185.17964   -6537.6512   -6061.2878   -6537.6512            0    1809.0638    23.334671    21.582309    21.733088    10945.133     1545.786    1929.2275    1952.1778    467.28015    78.186996   -526.96661   -5772.5187 
11791000    178.16439   -6523.1567   -6064.8396   -6523.1567            0    2665.4388    23.507864    21.370206    21.718254    10910.554    2311.3236    1967.8422    3717.1506    474.35908   -739.46559    710.55973   -5640.7171 
11792000    178.49692   -6516.1371   -6056.9646   -6516.1371            0    2272.3806    23.466875    21.442515    21.700931    10919.666    2008.3224    2034.2224    2774.5969    197.85475   -503.78213    1273.7149   -5695.0832 
11793000    185.43092    -6511.347   -6034.3372    -6511.347            0    2627.7443    23.285549    21.662813    21.673646    10932.848    2718.1162    1290.2925    3874.8243   -47.919112     1075.726   -201.47917   -5615.3582 
11794000    186.72067   -6524.8735   -6044.5459   -6524.8735            0    2740.4685    23.371692     21.45109    21.745352    10901.995    2339.0654    1970.2021    3912.1379    859.41929    321.71046    657.13367   -5608.8267 
11795000    171.12133   -6537.6959   -6097.4967   -6537.6959            0    1516.1509    23.622645     21.39402    21.725015     10979.46    360.95794    2073.7875    2113.7074   -403.13128   -100.75982    193.48643   -5854.7243 
11796000    183.94845   -6513.1516   -6039.9555   -6513.1516            0    3631.2664    23.328574    21.445819    21.699431    10856.233    3997.2925    3489.2248    3407.2818   -457.57426   -151.01963    -481.4599   -5465.0279 
11797000    181.66467   -6533.8824   -6066.5611   -6533.8824            0    2249.9692     23.33443    21.557751     21.72891    10930.464    1848.8242    1762.5646    3138.5188    1094.0694    352.99249     1202.514   -5707.8944 
11798000     182.6885   -6504.4986   -6034.5436   -6504.4986            0    1054.8422     23.56513    21.420884    21.760554    10984.421    457.37766    1107.7692    1599.3796   -1251.8667   -576.10611   -333.12708   -5865.5616 
11799000    186.91893   -6512.6718   -6031.8342   -6512.6718            0    2680.9548    23.385347    21.420754    21.783484    10912.039     3235.647    2209.3978    2597.8198    1501.2206   -361.14512    611.55585   -5605.1847 
11800000    186.45682   -6530.0726   -6050.4238   -6530.0726            0    1770.6728    23.392335    21.595616    21.693402    10958.897    1398.5165    1577.0845    2336.4174    55.825513   -410.19521   -805.38316   -5767.4273 
11801000     191.1242   -6520.9464    -6029.291   -6520.9464            0    1745.4064    23.502793    21.398586    21.793733    10960.647     1441.719    1419.9757    2374.5245    51.728763   -1829.7465    1047.4969   -5750.2882 
11802000    176.26388   -6523.7568   -6070.3287   -6523.7568            0    2798.2075    23.289079    21.470709    21.825178     10913.31    2841.3377    3597.4453    1955.8395   -664.06304   -329.88148   -753.81496   -5624.9676 
11803000    178.40124   -6528.0609   -6069.1346   -6528.0609            0    1673.6401    23.300158    21.490647    21.874086    10953.131    1476.0564    1699.9206    1844.9434   -618.16521    1555.8655    287.14346    -5801.787 
11804000    183.97585   -6514.5664   -6041.2997   -6514.5664            0    1185.4047    23.434433    21.435803    21.908194    11005.272    1664.7263    960.16343    931.32428   -1313.6886   -36.450042    971.02472   -5851.0416 
11805000    195.50565    -6542.009   -6039.0826    -6542.009            0    2578.1008    23.312993     21.50033    21.749581    10901.695     2972.537    2236.6792    2525.0862    291.07153   -944.75072   -367.29795   -5629.1903 
11806000    182.49491   -6498.3777   -6028.9207   -6498.3777            0    1573.6442    23.349527    21.464835    21.910934    10981.623    1797.5073    78.122478    2845.3027    275.08139     1158.611    953.43184   -5776.8926 
11807000    186.92841   -6531.4019   -6050.5399   -6531.4019            0    1111.8784    23.417376     21.47391    21.878765    11002.013    790.80267    795.39153    1749.4411   -87.829814   -108.97261    234.20688   -5872.1356 
11808000    188.51502   -6538.4796   -6053.5362   -6538.4796            0    2204.2494    23.157855    21.593388      21.8578    10930.136    2801.6798    1377.3295    2433.7388    -814.0915    234.66556    653.37497   -5702.1682 
11809000    179.21503   -6507.9738    -6046.954   -6507.9738            0    2297.8998     23.26109    21.495581    21.897853     10949.16    3105.5766    3157.7403    630.38257    1448.3623    630.46242   -830.39413   -5680.0202 
11810000    179.10724   -6536.9984    -6076.256   -6536.9984            0    1599.0925    23.408971    21.385342    21.905561    10966.118    2173.0212    1577.3173    1046.9391    122.81803   -700.50403   -438.49921   -5820.5138 
11811000     177.8171   -6505.8444   -6048.4208   -6505.8444            0    2177.4551    23.179122    21.567312    21.919665     10957.89    2601.9961    2404.7567    1525.6126    621.57685   -298.00685    435.62713   -5700.4426 
11812000    179.15209   -6495.2409   -6034.3831   -6495.2409            0    3167.3899    23.227125    21.501907    21.877552    10926.251    3244.4164    3509.0593    2748.6939    932.71885    295.39255    -743.2728   -5529.6654 
11813000    184.49082   -6487.1578   -6012.5664   -6487.1578            0    2642.8976    23.489771    21.252121     21.87999    10922.654    2599.2669    2887.2015    2442.2245    285.69943    16.402203    782.53648   -5591.5641 
11814000    182.30595   -6526.5431   -6057.5721   -6526.5431            0    2146.3422    23.283223    21.533645    21.857646    10958.826    2469.3015    1851.8584    2117.8666    1335.9256   -665.30361    181.77236   -5714.5368 
11815000    178.72495   -6547.3037   -6087.5446   -6547.3037            0    77.836643     23.35974    21.607517    21.816466    11011.773    129.17578   -97.379154     201.7133   -551.51425    276.79967   -247.09459   -6075.0444 
11816000    195.68139   -6523.7279   -6020.3495   -6523.7279            0    2215.8814    23.570913    21.251745    21.811646    10925.956     1881.941    2827.1536    1938.5495   -108.52534   -513.02824    1163.4733   -5667.2624 
11817000    177.72101   -6537.0952   -6079.9187   -6537.0952            0    1998.3514    23.357623    21.537913    21.759001    10946.398    3129.6958    1666.9678    1198.3905   -926.53347    82.946618   -608.31312   -5760.8979 
11818000    177.75322   -6523.8487   -6066.5893   -6523.8487            0    2246.6031    23.276953    21.527236     21.76953     10908.46    2825.3479    1374.1034     2540.358    233.65529    1295.7401    581.00712   -5709.1801 
11819000     178.8505   -6553.4735   -6093.3915   -6553.4735            0    1472.6598    23.356131    21.426684    21.872748    10946.095    1878.5398    1982.5889    556.85063    36.578871     157.7235   -279.04287   -5858.2997 
11820000    181.42403   -6525.4703   -6058.7681   -6525.4703            0    1656.6336    23.486405    21.511184    21.703592    10965.097    1131.2812    1215.4236     2623.196   -955.11184    765.66742   -930.38994    -5793.848 
11821000    183.48503   -6518.7864   -6046.7824   -6518.7864            0     1948.478    23.254627    21.581788    21.791403    10936.592    2112.5648    1685.1695    2047.6995    686.14131   -506.67877    1002.3509   -5736.0021 
11822000    200.10804   -6521.8642   -6007.0984   -6521.8642            0     2153.671    23.438617    21.490405    21.735393    10948.235    2289.9968    2547.3005    1623.7156    649.24614   -233.39029   -745.12382   -5663.2244 
11823000    183.06235   -6541.3744   -6070.4576   -6541.3744            0    1884.3525    23.588335    21.330608    21.714614    10925.785    1537.1016    2159.7356    1956.2204   -863.03403    193.49312    128.36525   -5770.2023 
11824000    185.26325   -6528.4698   -6051.8913   -6528.4698            0    2767.9749    23.241673    21.570534    21.757412    10907.759    3391.6464    1586.3238    3325.9544    18.100019   -332.72168    958.21664   -5611.5661 
11825000    183.26112   -6521.6565   -6050.2285   -6521.6565            0    3220.3095    23.401858    21.456208    21.708696    10900.265     2739.916    3448.6308    3472.3817     125.3734   -552.57715   -999.70321   -5538.2985 
11826000    179.20443   -6517.1757   -6056.1833   -6517.1757            0    2443.0138    23.437198    21.430618    21.785353    10942.208    1589.2594    2966.6103    2773.1716    134.01086    707.84772   -231.30795    -5666.325 
11827000    178.34003   -6529.0378    -6070.269   -6529.0378            0    2448.8889     23.39592    21.526267    21.716673    10937.099    2577.6645    1651.8803    3117.1219   -4.7248827    527.07793    269.41015   -5679.6556 
11828000     184.0585   -6494.3083    -6020.829   -6494.3083            0     2205.817    23.481788    21.561993    21.620603    10946.817    1852.0712    1497.0979    3268.2819    655.87308    476.67749   -156.03123   -5668.6745 
11829000    176.50862   -6519.5683   -6065.5106   -6519.5683            0    2416.1148     23.56092    21.414458     21.63452    10915.575    1068.9437    2417.5457     3761.855    48.422663    1003.4143    292.37349   -5680.8834 
11830000    181.05512   -6486.0734   -6020.3202   -6486.0734            0    2110.7354    23.431269    21.533763    21.707024     10952.57    1633.8784    1680.5449    3017.7828    -14.20441   -578.70411   -525.04124   -5683.1682 
11831000     184.8526   -6539.8922   -6064.3701   -6539.8922            0    2056.6706    23.370278     21.58029    21.684107    10936.106    2254.9215    1331.0605    2584.0297    -434.1269    800.56036   -1273.4716   -5736.3479 
11832000    181.21358   -6525.2534   -6059.0925   -6525.2534            0    913.49228     23.50023    21.519345    21.748479    10998.414    367.35951    794.52864    1578.5887   -515.84984     1019.189    282.95042   -5912.5679 
11833000    175.42631   -6505.2054   -6053.9319   -6505.2054            0     3920.411    23.478815    21.408861    21.605252    10859.981    3955.6034    2868.9413    4936.6884   -289.48344    187.22867    5.0418669   -5433.0106 
11834000    190.19599   -6500.4439   -6011.1763   -6500.4439            0    1598.2587    23.344511    21.618848    21.746483    10975.046    2264.7444   -97.116021    2627.1478    403.01725    1009.5657    1208.0578   -5755.3594 
11835000     179.6059   -6522.9974   -6060.9722   -6522.9974            0    2762.5906    23.432758    21.448995    21.694467    10903.837    3202.1829    2682.6664    2402.9225   -1042.3533    911.10856   -339.73158   -5621.6615 
11836000    177.57917   -6523.6468   -6066.8352   -6523.6468            0    1827.2092    23.485763    21.515043    21.697189    10963.529    1110.1085    667.44747    3704.0716    554.56871    7.5218106    832.30241   -5774.6794 
11837000    170.89484   -6515.1139   -6075.4974   -6515.1139            0    2815.8797    23.242909    21.575384    21.730959    10897.526     2587.422    1582.5491     4277.668   -987.59256    169.88948    1421.7887   -5627.9718 
11838000     184.6962   -6521.3549   -6046.2352   -6521.3549            0    3082.7676    23.445721    21.473619    21.618648    10884.221    2752.4637    3656.1738    2839.6653    -151.1945    246.14875   -1348.7043   -5556.8914 
11839000    178.00483   -6548.9143   -6091.0077   -6548.9143            0    1408.3716     23.51481    21.403167    21.720225    10931.603    334.44459    1912.7137    1977.9564    386.85886     233.8874   -237.98417   -5866.4763 
11840000    181.49903   -6534.4375   -6067.5423   -6534.4375            0    1905.7076    23.330433    21.613738    21.672311    10928.433    1897.3809     1046.563    2773.1789    -722.8441    215.03226    574.64563   -5763.8107 
11841000    182.41753   -6545.0913   -6075.8333   -6545.0913            0    1620.1751    23.488407    21.471603    21.695615    10941.831    1314.1605    1693.7995    1852.5653   -632.31379    303.88296    376.02818   -5817.2932 
11842000    176.79828   -6502.6249   -6047.8221   -6502.6249            0    2566.9994    23.481641    21.348939    21.788521    10922.763    3508.0734    1660.6984    2532.2263   -447.41273    60.531453     88.30765    -5638.906 
11843000    187.54602   -6534.6646   -6052.2139   -6534.6646            0    3224.0381    23.308752    21.611311    21.662795    10912.258    4133.8639    2437.2621    3100.9883   -746.54461   -487.70239   -808.30295   -5539.1273 
11844000    187.52314   -6527.4626   -6045.0708   -6527.4626            0    1660.6648    23.395618    21.495395    21.754006    10940.048    1378.2869    2458.8586    1144.8489    1029.8078    261.21334     327.7351   -5780.1128 
11845000    174.29524   -6532.8371   -6084.4732   -6532.8371            0    2994.5866    23.618573    21.350759    21.585055    10884.792    1454.4511    2906.3397    4622.9691   0.20748701    93.420314   -472.42986    -5609.102 
11846000    189.54108   -6517.3853   -6029.8024   -6517.3853            0    1450.6853    23.448601    21.529459    21.813868    11012.419    921.54953    1406.1924    2024.3139   -974.26539    641.43442     576.1089   -5796.8153 
11847000    179.89294   -6515.3297   -6052.5661   -6515.3297            0    2837.9273    23.246439    21.550674    21.753156    10897.819    3140.7072    2771.7824    2601.2924    173.01782     592.6229     486.6522   -5601.5243 
11848000    175.63092   -6532.4576   -6080.6577   -6532.4576            0    2450.9864    23.494039    21.434959    21.704339     10930.17    1972.6187    2219.7419    3160.5986    1397.5142   -1346.9587   -729.44564   -5689.9575 
11849000    182.82356    -6514.597   -6044.2945    -6514.597            0    2240.7228    23.270919    21.453821    21.925813    10946.465    1645.4256    3296.7218     1780.021     243.4462   -164.30698    1107.1196   -5686.5789 
11850000    174.86374   -6519.7687   -6069.9424   -6519.7687            0    2668.2184    23.270548    21.504666    21.835509    10927.043    2603.5268    3085.7384      2315.39    98.342635   -244.64127   -1116.1086   -5644.7359 
11851000     180.3015   -6542.1104   -6078.2958   -6542.1104            0    2667.1222    23.424198    21.341732      21.8644    10930.296    2112.3427    3456.6113    2432.4127   -521.43095    1034.5977   -407.44504   -5653.1374 
11852000    178.89183   -6513.3729   -6053.1846   -6513.3729            0    3018.1448    23.267074    21.547698    21.720879    10889.804    4282.2441    1882.7371    2889.4532   -284.64846   -544.92823   -832.98363    -5573.853 
11853000    190.66056   -6523.7158   -6033.2531   -6523.7158            0    2750.7553    23.365067    21.455812    21.797442    10927.417    2655.7976    2314.1092    3282.3591    460.24273    445.04499   -348.31746   -5594.8785 
11854000    181.84322   -6518.9847   -6051.2041   -6518.9847            0    2091.6298    23.365891    21.483584    21.826021    10956.293    2168.6484    1580.4725    2525.7684   -346.22086    903.75018    989.37058   -5716.9903 
11855000    178.93357   -6501.5435   -6041.2478   -6501.5435            0    2528.3536    23.415946    21.554277    21.696385    10950.464    1349.9955    2542.1933     3692.872   -1191.9614    339.75142   -429.10265   -5637.4665 
11856000     180.6852   -6531.3324   -6066.5307   -6531.3324            0    1581.2264     23.34909    21.474072    21.862824    10962.021    497.32707    1957.8935    2288.4588    1523.8557    559.16649    819.98423   -5813.7403 
11857000    186.42767   -6537.8826   -6058.3087   -6537.8826            0    2262.1131     23.39071    21.507518    21.723455    10928.551     2036.415    1822.1214    2927.8029   -165.83464   -724.45665   -625.50926   -5697.7693 
11858000    185.95788   -6536.9426   -6058.5772   -6536.9426            0    2056.8736    23.396186     21.38001    21.819579    10914.386      1911.51    1784.6948    2474.4158    912.97293   -629.37759    445.34104   -5731.1741 
11859000    178.23086   -6521.4636   -6062.9756   -6521.4636            0      688.544     23.39688    21.525343    21.879991    11019.329    874.92424    145.89047    1044.8173    281.57383   -307.38422   -271.06931   -5952.3227 
11860000    180.71343   -6527.0651   -6062.1908   -6527.0651            0    2753.0883    23.128785    21.573634    21.848018    10901.548    3863.9664    1996.8332    2398.4652    278.28385   -937.99377    373.71881   -5624.4831 
11861000    179.05722   -6507.8218    -6047.208   -6507.8218            0    1243.0771    23.496381    21.422442    21.788338    10967.157    163.08664    1619.3582    1946.7864    529.78263    545.62875     1561.734   -5848.3843 
11862000    180.92517   -6515.9202   -6050.5012   -6515.9202            0    1262.9143    23.523404    21.447166    21.766145    10981.245    632.24068    1700.1386    1456.3636   -301.60942    775.57268   -561.02023   -5848.2452 
11863000    186.75959   -6527.2025   -6046.7748   -6527.2025            0    2192.6329    23.192072    21.705199    21.700123    10923.593     2859.787    1145.7382    2572.3736   -213.45644    221.93809    347.03164   -5697.4678 
11864000    186.65889   -6518.4162   -6038.2475   -6518.4162            0    2239.8852    23.442835    21.409483    21.765325    10923.994    1334.5317    3363.2554    2021.8685   -847.07407    894.93448   -61.964946   -5681.3996 
11865000    184.53872   -6522.8349   -6048.1203   -6522.8349            0    479.94602    23.520321    21.497278    21.774718    11009.796    425.19065     737.3574    277.29001    1311.8302   -338.06733   -1689.1978    -5971.057 
11866000    180.10573    -6548.259    -6084.948    -6548.259            0    3570.2065    23.207648    21.496587    21.750973    10851.239    3715.9259    2551.1147    4443.5789   -637.84107    631.45264    1426.9542   -5519.9479 
11867000    170.17345    -6543.082   -6105.3212    -6543.082            0     656.3125    23.440186    21.543899    21.815338    11016.593   0.89997511    242.23559    1725.8019   -484.57599     17.64134   -448.75232   -5999.8743 
11868000     179.3266   -6536.8517    -6075.545   -6536.8517            0    2654.2323     23.39281    21.414876    21.778739    10910.149    2155.8031    3475.1822    2331.7117    397.69787    354.13803   -538.65336   -5653.2212 
11869000    183.60537   -6532.0863   -6059.7727   -6532.0863            0    1418.9718    23.351351     21.51837     21.77456    10941.346    396.23175    2667.6481    1193.0357    795.06377    338.88199    273.18937   -5833.3497 
11870000    179.76632   -6518.7923   -6056.3544   -6518.7923            0    1902.3953    23.313512    21.546622    21.759514    10930.401    1574.4216    2117.5217    2015.2425   -95.030945    -815.2732    586.68023    -5753.096 
11871000    178.18016   -6515.7343   -6057.3767   -6515.7343            0    1369.6521    23.508418    21.372713    21.837773    10972.142    408.36265    1153.2159    2547.3777    525.85583    1789.5627    1419.4179   -5838.2085 
11872000    186.36029   -6502.3097   -6022.9092   -6502.3097            0    2557.0815    23.361777    21.526812    21.719607     10922.89    2474.4366    3114.7786    2082.0293    651.30111    517.34896   -1226.3712   -5615.5683 
11873000    183.84968   -6535.7179   -6062.7758   -6535.7179            0    1496.1997    23.356121    21.577255    21.748179    10960.233     1574.868     1291.804     1621.927   -23.906516   -649.57208    154.07163   -5823.6176 
11874000    177.08554   -6501.0713   -6045.5295   -6501.0713            0    1982.7785    23.521734    21.362524    21.807874    10958.099    1435.1388    3034.7098     1478.487   -273.35888    737.22687   -638.23994   -5728.6565 
11875000    187.02291   -6512.7837   -6031.6787   -6512.7837            0    1724.3279    23.346672    21.578385     21.78055    10972.681    1943.4553    1335.2798    1894.2486   -306.02623    1032.2475   -937.26072   -5755.7426 
11876000    178.05161   -6518.2887   -6060.2618   -6518.2887            0    825.45425    23.424175    21.501251    21.812536    10985.863    517.55742    942.59975    1016.2056    503.69341    137.85545    989.59639   -5928.0095 
11877000    185.29908   -6531.6385   -6054.9679   -6531.6385            0     2790.532    23.548987    21.251502    21.786268    10902.967    2691.0894    4028.4087    1652.0978    352.10112    74.405609   -1659.3193   -5611.2494 
11878000    177.95726   -6513.5262    -6055.742   -6513.5262            0    996.94847    23.157754    21.641274    22.000344    11025.765    2334.8099    775.37985   -119.34434    164.23636   -129.38935   -502.50612   -5895.4332 
11879000     186.0719   -6494.8622   -6016.2036   -6494.8622            0    2418.2369    23.238032    21.550903    21.834781    10934.871    2842.9153    1833.7643     2578.031   -139.96666    304.42061    777.13806    -5630.558 
11880000    173.99837   -6539.3942    -6091.794   -6539.3942            0    2838.1862    23.424554    21.318167    21.827965    10900.199    2582.8192    3129.6684    2802.0709    341.55092   -936.32298    24.198306   -5640.6126 
11881000    175.27103   -6534.6208   -6083.7467   -6534.6208            0    1179.6767    23.381694    21.494839    21.823079    10967.969     1138.329    727.46836    1673.2326    462.74098   -104.53006    90.092893   -5895.0497 
11882000    183.42116   -6501.4668   -6029.6271   -6501.4668            0    2035.2495    23.153746    21.658726    21.842087    10953.384    3468.0119    518.03484    2119.7017   -58.416885    71.112531     976.8651   -5704.5084 
11883000      184.536   -6520.9606   -6046.2529   -6520.9606            0    1860.5604    23.507728    21.368644    21.826897    10964.268    938.93292     2648.748    1994.0002   -651.08484   -43.083018    -780.1887   -5748.7445 
11884000    174.67474   -6529.2202   -6079.8801   -6529.2202            0    2025.7914    23.312033    21.487463    21.811621      10925.8    2713.8183    933.27792    2430.2779    778.44812   -585.99982    939.30726   -5757.0873 
11885000    179.07732   -6545.2086   -6084.5431   -6545.2086            0    1622.6857    23.225157    21.684648    21.750531    10954.206    2302.7606    1187.8124    1377.4842     477.3801   -505.09349   -209.39534   -5825.3096 
11886000    186.67809   -6514.1759   -6033.9578   -6514.1759            0    2320.3757    23.477023     21.38305    21.825638    10956.696    1663.8111    2999.0662    2298.2499    549.83499   -1222.5991   -46.752371   -5663.1799 
11887000    178.65795   -6520.6525   -6061.0658   -6520.6525            0    2368.4402     23.26683    21.482429    21.845958    10919.222    2384.2723    3232.0797    1488.9685   -679.85548    715.00817   -312.46949    -5683.902 
11888000    179.07817   -6536.0596   -6075.3919   -6536.0596            0    2073.4663    23.293161    21.557965    21.811917    10952.923    1529.6392    2132.8148    2557.9448   -684.26048    1630.1674   -552.50798   -5744.1823 
11889000    175.44963   -6513.7962   -6062.4627   -6513.7962            0    2669.5831     23.54566    21.270086    21.813863     10924.78    1389.5071    4154.6912     2464.551    367.91331   -775.56607    92.872874   -5637.1268 
11890000    181.86339   -6519.9447   -6052.1122   -6519.9447            0    2378.4741    23.271945    21.554455    21.767021    10918.645    2191.0237    2273.3946    2671.0041   -845.15026    549.39692    874.82037   -5673.3705 
11891000    174.83045   -6522.3708   -6072.6302   -6522.3708            0    1816.6244     23.35241    21.507022    21.833472    10965.661    1899.7265    1839.8471    1710.2996   -2.3259452   -505.77384   -435.59412   -5782.1103 
11892000    182.56104   -6527.9616   -6058.3345   -6527.9616            0    953.90236    23.465122    21.323289    21.985972     11000.76    1970.2524    273.22362    618.23105   -214.43156   -155.49769    255.50667   -5905.2953 
11893000    186.16581   -6529.9652    -6051.065   -6529.9652            0    1366.3383    23.288018    21.582485    21.836643    10975.387    2391.1314     378.1175     1329.766    92.457273   -182.69427    90.136063   -5832.3624 
11894000    188.22563   -6544.1066   -6059.9077   -6544.1066            0    3050.4159    23.249031    21.462572    21.804311    10880.002     4091.527    2485.1994    2574.5213      351.393   -1303.4458   -557.66579    -5575.887 
11895000    186.93363    -6510.476   -6029.6006    -6510.476            0    1682.4402    23.468959    21.445386    21.863338    11003.837    830.36169    2159.2269     2057.732    849.46008    662.39981   -317.83264   -5759.6032 
11896000    181.66915   -6528.0195   -6060.6867   -6528.0195            0    1255.1503    23.304533    21.559321    21.816845    10961.436     1558.248    2017.0822    190.12072    92.727766   -565.97483    75.948909   -5860.0368 
11897000    183.82401   -6545.0196   -6072.1435   -6545.0196            0    2626.7923    23.298471    21.492454    21.744767    10888.503    2934.2572    2968.1092    1978.0106   -79.000397    748.79774   -297.65004   -5655.0151 
11898000    180.32525   -6542.1976   -6078.3219   -6542.1976            0    2667.1213    23.459634     21.44897    21.675436    10906.754    1983.5022    1846.4466     4171.415   -679.61821    928.86562   -703.90988   -5654.0793 
11899000    182.95908   -6500.3278   -6029.6767   -6500.3278            0    2961.2925    23.348608    21.408581    21.840626    10917.268    3133.9301    2771.1305    2978.8169   -660.34784   -468.43319    401.42292   -5558.1882 
11900000    176.91674   -6525.5885   -6070.4809   -6525.5885            0    2139.1159    23.315811    21.541499    21.794825    10946.615    1946.7587     2413.693    2056.8961    -598.4828    997.32219   -1531.6171   -5728.9815 
11901000    185.02043    -6513.978   -6038.0242    -6513.978            0    2139.8696    23.262133    21.478983    21.922191    10953.356    2644.1665    2541.2817    1234.1606    475.19001    36.651484   -612.02788    -5696.194 
11902000    180.47758    -6540.586   -6076.3184    -6540.586            0    1213.5615    23.349975    21.390224    21.957789    10967.064    1507.8294    2323.8325   -190.97748   -102.18413   -476.92074   -73.672257   -5882.2173 
11903000    189.48061   -6515.3535   -6027.9262   -6515.3535            0     1852.027    23.298364    21.523262    21.864408    10964.056    2963.9032    1306.3952    1285.7826    220.81484    21.389509   -501.17908    -5731.788 
11904000    186.40568    -6528.868   -6049.3507    -6528.868            0    2074.3023    23.195594     21.45515    21.956089    10926.776    3146.5771    2049.2521    1027.0778    1321.1456    825.95142    59.507922   -5718.7986 
11905000     176.0618   -6526.6425   -6073.7342   -6526.6425            0    1796.7276    23.380155    21.419788    21.879809    10957.364    2699.6551    1726.8166    963.71103   -2464.4068  -0.15691922   -631.88335   -5786.6137 
11906000    168.41594   -6530.0795   -6096.8398   -6530.0795            0    2059.5875     23.32638    21.542237    21.751585    10930.224    2597.1751    1327.0841    2254.5033   -283.70442   -5.1914427   -140.68158    -5768.529 
11907000    188.01556   -6553.5222   -6069.8636   -6553.5222            0    2765.5484    23.326007    21.493662    21.723003    10891.073    2511.3141    2244.4186    3540.9126    395.36281    265.87614   -138.23998   -5630.5974 
11908000    188.09751   -6556.6983   -6072.8289   -6556.6983            0    2107.1206    23.431797    21.410083    21.817732    10945.448    1343.3055    1997.6689    2980.3873   -466.90094    11.713448    90.981319   -5736.4732 
11909000    184.62805   -6523.9352   -6048.9908   -6523.9352            0    1893.8221    23.221564    21.560714    21.886298     10957.89    1983.5721    1972.8368    1725.0574   -215.64145    272.88531   -159.58674   -5746.3399 
11910000    177.69348   -6514.4515   -6057.3459   -6514.4515            0    3920.1362    23.265795     21.45415    21.773774    10868.333    3871.4854    2905.5994    4983.3236   -146.32363    309.99164   -153.54792   -5435.9906 
11911000    177.56494   -6539.8175   -6083.0425   -6539.8175            0      2726.34    23.352264    21.361777     21.82023    10884.932    2984.1042    2987.0423    2207.8734    802.11092    243.58478   -538.98504   -5650.2482 
11912000    181.01193   -6518.6438   -6053.0016   -6518.6438            0    1437.1917    23.343489    21.647304    21.744257    10987.886    1696.8553    1119.1758    1495.5441    188.94436   -1492.9778   -99.819395   -5822.6959 
11913000    186.02706   -6540.8843   -6062.3411   -6540.8843            0    1789.4231    23.295266     21.46502    21.858793    10930.126    2332.2032    1111.6677    1924.3983   -123.91693   -569.29043    577.19526   -5777.0987 
11914000    179.27642   -6531.7148   -6070.5372   -6531.7148            0    1576.2024    23.528084    21.367054    21.835902    10977.472     358.3583    3117.8855    1252.3634    621.18081    637.94241   -742.53522   -5818.1948 
11915000    180.51833   -6522.1679   -6057.7955   -6522.1679            0    2655.4922     23.23024    21.653022    21.670967    10900.602    3579.8987     1490.397     2896.181   -582.27932   -429.50916    355.35234    -5635.641 
11916000    186.24627   -6513.8828   -6034.7757   -6513.8828            0    709.97967    23.473014      21.5457    21.772055    11011.054    1906.1235   -1222.9858    1446.8013    -135.0564   -390.37001    584.77704   -5920.7636 
11917000    182.87991    -6530.461   -6060.0136    -6530.461            0    2131.6039    23.505829    21.423527    21.766914    10961.334    335.90546    3029.8654    3029.0409    861.99202    343.53619    394.06281   -5719.2558 
11918000    179.31323   -6490.0725   -6028.8002   -6490.0725            0    3175.2656    23.229093    21.567071    21.741595     10892.18    4047.7972    2669.8444    2808.1553   -326.16539    -628.5257    1043.9879   -5524.4052 
11919000    196.13942   -6521.4098   -6016.8531   -6521.4098            0     980.8458    23.355648    21.476042    21.899481    10984.492    1851.4969    1653.9441   -562.90359   -292.40514   -172.64765   -841.66711    -5859.724 
11920000    179.60123   -6513.5553    -6051.542   -6513.5553            0    3137.0317    23.374156    21.387117    21.780774    10888.335    2013.0478    4705.5988    2692.4483    124.92673   -672.20734   -945.80283   -5553.3964 
11921000    185.07117   -6535.6349   -6059.5506   -6535.6349            0     1487.738    23.268795    21.535525    21.887374    10967.889    1870.1988    1399.6811    1193.3342    176.47884   -105.35758    966.76712   -5821.5788 
11922000    180.02109   -6514.3343    -6051.241   -6514.3343            0    2213.2709    23.336518    21.561684    21.752266    10945.188    1933.5721    2783.0468    1923.1938    300.34228   -686.49672    -1620.614   -5697.9491 
11923000     177.6323   -6528.4401   -6071.4918   -6528.4401            0    2958.0254    23.302888    21.347387    21.867178    10877.954    4015.8919    3216.2433     1641.941    1220.8746   -698.33751    897.02823   -5602.2194 
11924000    181.57485   -6538.1674   -6071.0772   -6538.1674            0    1589.6591    23.318475    21.540318    21.834396    10967.141    985.84423    1046.1165    2737.0167    60.676515   -282.39734    788.66959   -5816.8199 
11925000    182.46937   -6519.1596   -6049.7682   -6519.1596            0    2909.2303    23.304338    21.484362    21.793897    10911.743    3139.5237     2465.847    3122.3201   -299.20856     537.1811   -766.45623   -5586.8033 
11926000    177.11527   -6533.5144   -6077.8962   -6533.5144            0    1957.3876    23.379018    21.353021    21.915401    10940.446    1337.9085    2813.0421    1721.2123    382.41268   -647.30156   -275.59458   -5765.5848 
11927000    185.66855   -6500.5809   -6022.9599   -6500.5809            0     1102.924    23.345419    21.587296    21.856834    11015.067    1543.7238     1550.043    215.00513    302.63355   -1285.2554   -953.68391   -5845.7824 
11928000    182.00113   -6507.5897   -6039.4029   -6507.5897            0    3294.1412    23.253625    21.477759    21.829232    10902.299    4568.1663    2535.8843    2778.3731    491.44664    194.83025    919.07947   -5515.6382 
11929000    183.78511   -6528.6905   -6055.9145   -6528.6905            0    800.83736    23.499224    21.454191    21.844314     11012.96    541.02882    1086.4513    775.03194   -486.17681   -572.41592   -296.69585   -5927.2898 
11930000    181.17732   -6510.2007   -6044.1331   -6510.2007            0    2532.4881    23.296293    21.522523      21.8245    10942.695    2542.5403    2132.0347    2922.8894   -85.820273    82.457946   -254.41171   -5639.9784 
11931000    177.69049   -6517.0384   -6059.9404   -6517.0384            0    2379.2618    23.267899    21.484254    21.802865    10899.109    3406.5493    973.72987    2757.5063   -446.59767    455.81476    706.43166   -5681.7512 
11932000    183.04167   -6508.8863   -6038.0228   -6508.8863            0   -121.05482    23.629569    21.395658    21.852264    11047.853   -494.77878   -219.09462    350.70894    -674.3208    -343.8472    138.93483   -6057.5273 
11933000    187.18803   -6548.7834   -6067.2536   -6548.7834            0    2428.5006    23.240925    21.517394    21.848173    10925.925    2606.3907    1442.4331    3236.6781    -52.15302   -301.28071    993.81439    -5680.288 
11934000    179.34172   -6533.0632   -6071.7175   -6533.0632            0    2389.7699    23.295073    21.504666    21.771217    10906.352    3820.3555    1473.3361    1875.6181   -512.33181   -1073.1088   -416.12665   -5691.6056 
11935000    188.80757   -6525.5292   -6039.8333   -6525.5292            0    730.44822    23.602723     21.30103      21.8438    10982.239   -619.82712    2757.1663    54.005495   -234.51876    530.03109    714.84142   -5922.8412 
11936000    188.78593   -6524.0758   -6038.4354   -6524.0758            0    1588.2709    23.334685    21.556616    21.782319    10956.874    1549.2128    1640.9839     1574.616   -202.18837   -60.096713   -793.46717   -5784.6381 
11937000    176.69218   -6533.3661   -6078.8362   -6533.3661            0    2068.2493    23.306266    21.586516    21.715579    10925.132    2320.6949    1911.7286    1972.3243   -397.00899     875.9169    166.01416   -5749.2983 
11938000    184.67251   -6507.0772   -6032.0184   -6507.0772            0    3098.6803     23.50617    21.358907    21.698565    10894.114    2122.0319    3291.2907    3882.7184   -382.86852   -899.40926   -18.518376   -5539.7017 
11939000    177.28904   -6550.1194   -6094.0542   -6550.1194            0    939.24721    23.425581    21.551796    21.768247     10989.99    284.81339    2389.7889    143.13934    386.01773    792.04308    19.946229   -5943.5137 
11940000    197.47386   -6518.3707   -6010.3812   -6518.3707            0    2795.3398    23.203028     21.62906    21.714637    10897.701    4372.9988    1856.6967    2156.3237   -31.519345   -643.90494    409.67718   -5566.1128 
11941000    189.05861   -6520.2386   -6033.8969   -6520.2386            0    1344.5668    23.582721    21.436972    21.698451    10969.481    964.98753    1339.5771    1729.1359   -995.01054    205.34874   -662.21863   -5818.7949 
11942000    187.45003    -6529.032   -6046.8282    -6529.032            0    1780.8728    23.429126    21.439414    21.763534    10931.969    1780.3345    1121.1161    2441.1677   -280.41764    271.56488   -181.99812   -5762.9009 
11943000    178.77776   -6523.0455   -6063.1506   -6523.0455            0     2194.161    23.201456    21.600447    21.790353    10920.493    2842.0224    1630.6877    2109.7731   -565.07447     119.7587    139.27781   -5713.6993 
11944000     175.4769   -6505.0835   -6053.6798   -6505.0835            0    1097.9184    23.463862    21.516025    21.813645    11012.598    959.86467    1908.1785    425.71207   -482.49462   -264.74565   -551.80383    -5877.346 
11945000    180.67159   -6502.1217    -6037.355   -6502.1217            0    2927.4606    23.427245    21.319612    21.841328    10908.865    2894.1525    3623.1805    2265.0487    307.50715    910.08767   -244.91123   -5571.6118 
11946000     178.9741   -6525.5928   -6065.1928   -6525.5928            0    2207.6773     23.27621    21.597255    21.772337    10945.002     1339.239    2442.5183    2841.2747   -69.625436    186.44896     -1060.35   -5712.7998 
11947000     184.1106    -6525.433   -6051.8197    -6525.433            0    1878.6319    23.383524    21.446264    21.812555    10938.761    2595.7042    1050.6591    1989.5324   -604.64525   -672.04704      685.014   -5752.1204 
11948000    183.08841   -6510.5109   -6039.5271   -6510.5109            0    1901.1439    23.440233    21.482813    21.767952    10961.517    2866.9254    1354.7444    1481.7618    632.96345   -584.02901   -124.08254   -5735.6055 
11949000    187.26526   -6520.9874    -6039.259   -6520.9874            0    2204.1578    23.362957    21.522969     21.71663    10919.995    1920.1086    2249.4567    2442.9079   -205.03535    110.34488   -201.15333   -5688.2316 
11950000    178.73736    -6526.535    -6066.744    -6526.535            0    2034.8671     23.37318    21.470154    21.820737    10950.208    1848.6007    2409.1501    1846.8504    -363.2185    270.94952    493.55233   -5741.7807 
11951000    187.69988   -6528.5044   -6045.6579   -6528.5044            0    2698.4511    23.312166    21.513259    21.819853    10943.107    2803.4897    2194.1613    3097.7022     1049.541   -180.82616    -175.1774   -5615.0013 
11952000    179.25708   -6520.3048   -6059.1769   -6520.3048            0    2612.3518    23.288193    21.433275    21.887354    10924.903    3159.9364    2676.0538    2001.0653    1251.1554   -263.75109   -172.51714   -5642.9548 
11953000    169.41327   -6528.8962   -6093.0908   -6528.8962            0    1618.8526    23.253216    21.469749    21.985125    10975.869    2975.7063    1138.6734    742.17801    1325.7697   -1591.8775     1108.392   -5833.9582 
11954000    181.54556   -6528.8457   -6061.8308   -6528.8457            0    2053.9719    23.333011    21.508351      21.8285    10954.733    2669.0108    2458.8269     1034.078    1515.7948   -1113.2687   -598.25606   -5733.6809 
11955000    177.90349   -6532.0648   -6074.4189   -6532.0648            0    1871.6791    23.267407    21.490707    21.839133    10920.288    1688.6759    1997.9764    1928.3849    1038.2929   -341.26012   -103.69154   -5776.3331 
11956000      175.595   -6532.5041   -6080.7967   -6532.5041            0    1335.2029    23.442419    21.430997    21.827959    10966.244    1184.1294    1495.2774     1326.202   -755.36912    68.144216    83.657382   -5867.2558 
11957000    184.77115   -6545.9931   -6070.6805   -6545.9931            0    3179.4341    23.316903    21.523258    21.629692    10854.985    3052.6443    3172.0775    3313.5805    1625.9896    681.52963   -1153.2388   -5567.3481 
11958000    173.30214   -6502.4471   -6056.6379   -6502.4471            0    936.84461    23.347527    21.560779    21.856446    11002.335    1256.6585    654.73413     899.1412    449.50958   -231.55872    355.66904   -5906.3139 
11959000    186.79844   -6521.9763   -6041.4487   -6521.9763            0    1899.3658    23.481778    21.430017    21.790062    10965.084    1197.1552    2683.9783     1816.964   -443.48777   -399.78862   -686.98446   -5737.7125 
11960000    182.76101   -6531.8464   -6061.7048   -6531.8464            0    2541.3522    23.250167    21.534204     21.79278    10911.075    2613.5469    2001.5905    3008.9193    532.64741    1121.3134   -712.51978   -5657.3074 
11961000    182.21597   -6511.6359   -6042.8964   -6511.6359            0      1127.54    23.282769    21.572304    21.889757    10994.415    1552.5268     1257.528     572.5654    89.130092    950.24856   -166.90031   -5862.1041 
11962000    175.17716   -6520.2958   -6069.6632   -6520.2958            0    2757.3047    23.408243    21.388957    21.803807    10916.684    2678.7104    2735.9836    2857.2201    583.85115   -454.46795    -217.2631   -5630.6764 
11963000    182.71155   -6529.9439   -6059.9296   -6529.9439            0    2599.5534    23.279327    21.534766    21.764647    10910.941    2279.3481    2065.7786    3453.5336    734.26585   -27.709571    848.34771    -5646.276 
11964000    183.14824   -6530.5616   -6059.4239   -6530.5616            0    2263.0677    23.425497    21.477627    21.706679    10921.153    1146.6664    3121.9432    2520.5937    1155.5166   -125.49676   -69.753766   -5698.9765 
11965000    176.23878   -6541.6981   -6088.3346   -6541.6981            0    1594.8753    23.586073    21.314945    21.807438    10963.381    896.50704    2303.3129    1584.8061   -115.27185    263.23098   -176.87493   -5833.3305 
11966000    185.70564   -6538.6777   -6060.9613   -6538.6777            0    1764.5579    23.217478     21.60864    21.803441    10938.745    2065.2961    1300.4465    1927.9312   -545.81248     235.2225     1374.554   -5779.4607 
11967000    179.01804   -6517.6684   -6057.1554   -6517.6684            0    2675.5087    23.356692    21.493545    21.764392    10926.119    2330.0667    2825.3219    2871.1375   -92.818887    267.75679   -1004.1476   -5630.8231 
11968000    187.64722   -6523.4983   -6040.7873   -6523.4983            0    2683.6198    23.432424    21.386962    21.788221    10919.131    2664.7442    2360.8191    3025.2961    597.57046     283.7826    560.00326    -5613.436 
11969000     176.7673   -6515.6271    -6060.904   -6515.6271            0    1667.5526    23.414822    21.682714    21.596453    10964.452    1262.7639    997.23898    2742.6549    534.19748    540.09318   -104.62917   -5794.2536 
11970000    176.71265   -6540.8359   -6086.2534   -6540.8359            0    2744.4128    23.285317    21.568415     21.70872    10902.714    3532.3032    2433.7725    2267.1629   -141.49895   -311.36567   -788.89805   -5649.8784 
11971000     175.9222   -6517.6516   -6065.1024   -6517.6516            0    2420.7285    23.442326    21.333082    21.816903    10910.569    1874.0243    2922.8102    2465.3511     38.48292    83.316891    823.98357   -5679.9174 
11972000    183.55905   -6546.0101   -6073.8157   -6546.0101            0    2872.6722    23.424763    21.467163    21.648741    10886.355    1498.0682    3873.1931    3246.7553    41.462064    401.93248   -567.01286   -5617.7321 
11973000      184.087   -6542.7702   -6069.2176   -6542.7702            0    590.10207    23.316338    21.648435    21.772368    10989.869    1106.7497   -597.11512    1260.6717   -152.91958    711.25929    863.67086   -5974.6385 
11974000    191.97877   -6525.0652   -6031.2115   -6525.0652            0    3240.9744    23.423344    21.381116    21.742112    10888.825    2936.6478    3248.1357    3538.1399    1519.2895   -441.31972   -504.13246   -5516.5372 
11975000    180.37665   -6534.1095   -6070.1016   -6534.1095            0    989.77728    23.452596    21.569704     21.74109    10998.068    1034.2451    165.73231    1769.3544   -604.61089    360.63761    179.33307   -5911.3457 
11976000    179.14982   -6517.2299   -6056.3779   -6517.2299            0    2591.1525    23.229054    21.555447    21.734522     10882.75    3185.7779    2525.4775    2062.2022   -186.28978   -676.53236    389.31304   -5645.1264 
11977000    194.02338     -6517.39   -6018.2767     -6517.39            0    1354.1383    23.549857    21.465359    21.750809    10995.167    256.30178    1383.6854    2422.4278   -504.06104    434.12191    -408.1685   -5801.1363 
11978000    182.82881   -6492.1762   -6021.8602   -6492.1762            0    1531.7831     23.54516    21.457415    21.754098    10990.568   -108.65267    1639.8908    3064.1111   -379.14074    489.47875    430.74631   -5776.3366 
11979000     185.1451   -6518.3604   -6042.0859   -6518.3604            0    2361.2959    23.351249    21.583143    21.661415    10917.209    1875.1711    2174.0518    3034.6647    615.80433    1018.6487    60.903029   -5666.1292 
11980000    184.26589   -6506.3857   -6032.3729   -6506.3857            0    2091.7699    23.495915     21.52368    21.686732    10967.383    259.92949    2990.5523     3024.828    586.25758      857.595    -1063.704   -5697.7984 
11981000    186.13123   -6512.5629   -6033.7516   -6512.5629            0    1853.8585    23.431212    21.428909    21.841362    10966.664    1507.1051    2912.7753    1141.6951    909.02661    441.89321    159.30098     -5737.25 
11982000     187.2596   -6529.9759   -6048.2619   -6529.9759            0    2374.0816    23.362124    21.517045    21.707309    10911.914    2674.0114    1794.7805    2653.4527    299.34565   -214.94411   -1097.3748   -5670.4528 
11983000    176.47401   -6525.4453   -6071.4767   -6525.4453            0    2223.6988     23.20764    21.495648    21.896583    10923.401    1555.0236    3497.4843    1618.5885    889.12947    712.12931    1421.5552   -5717.2268 
11984000    179.64908   -6516.2362   -6054.0999   -6516.2362            0    1692.0491    23.435666    21.382192    21.877734    10963.061    2107.5206    1541.1896    1427.4371   -1539.4434    765.83713   -1083.9911   -5783.5666 
11985000    171.89552   -6507.2846   -6065.0938   -6507.2846            0    1147.2953     23.37717    21.459522    21.879767    10976.267   -93.795346    2084.1647    1451.5165    944.07847    475.61019   -495.26079   -5881.4375 
11986000    185.46818   -6533.2436    -6056.138   -6533.2436            0    2073.1144    23.202252    21.587803    21.863823    10951.275    2112.5845    2974.0948    1132.6638    1205.6839   -491.41611   -140.43766   -5725.0345 
11987000    181.14999    -6540.253   -6074.2557    -6540.253            0     1532.428     23.45692    21.365283    21.875782    10963.348    734.31975    1248.5093     2614.455    1022.3349   -769.25944    1011.1952    -5829.237 
11988000    186.65794   -6513.9377   -6033.7715   -6513.9377            0    1715.3801    23.409637    21.343079    21.938304    10961.117    1752.9421    2367.2098    1025.9886    319.91542   -177.67901    -341.1795   -5759.5566 
11989000    176.75641   -6520.9387   -6066.2436   -6520.9387            0    1851.8919    23.236147    21.603057    21.830137    10958.113    1504.7285    2765.5718    1285.3753    134.20891     813.5447   -758.21373   -5770.2875 
11990000    183.99006   -6515.1905   -6041.8872   -6515.1905            0    1837.7587    23.393191    21.276049    22.027757    10963.538    1385.0787    3432.9431    695.25413    601.14809   -937.66425    1023.0313   -5748.0444 
11991000     177.4702   -6523.4648   -6066.9335   -6523.4648            0    305.71097    23.429798    21.426295    21.945741    11017.064   -298.07488    1383.8187   -168.61093    506.72052   -474.45765    378.35997   -6017.8141 
11992000    182.03287   -6532.5776   -6064.3092   -6532.5776            0    1272.4805    23.238597    21.624563     21.88679    10998.649    921.08594    1732.7511    1163.6046    387.01489    395.66711     53.68327   -5860.1982 
11993000    182.08479    -6510.597   -6042.1949    -6510.597            0    2726.0362    23.355071    21.387327    21.853852    10916.055    2274.2159    4179.4973    1724.3952   -393.23068     369.5426   -15.123642   -5608.2115 
11994000    182.05817   -6526.0566    -6057.723   -6526.0566            0    1795.0172    23.361675    21.514382    21.866787    10990.509    792.64644    3052.2442     1540.161   -125.63725    879.16583   -942.42679   -5770.0082 
11995000    181.55605   -6483.1147   -6016.0728   -6483.1147            0    3197.8114    23.176581    21.617141    21.824289    10934.218    4115.4457    2301.3491    3176.6393     95.31971     1333.513     455.5948   -5506.1359 
11996000    180.49198   -6532.4679   -6068.1633   -6532.4679            0    1942.9053    23.403687     21.41621    21.817427    10935.293    2335.8621    2086.6818     1406.172   -1133.1007   -472.58402   -987.00583   -5758.3087 
11997000    176.52434   -6506.1785   -6052.0804   -6506.1785            0    3646.0798    23.411627    21.340068    21.812448    10897.624    3688.3761    4183.4118    3066.4515    646.70504   -453.94169   -1070.6981   -5472.6065 
11998000    180.49485   -6509.4198   -6045.1078   -6509.4198            0    2117.7746    23.187462    21.646678    21.801765    10942.993    1736.4839    2335.3322    2281.5075    1261.8331    383.89848   -466.13748   -5707.1272 
11999000    180.28104   -6527.6137   -6063.8517   -6527.6137            0    2848.0919    23.374902    21.464249    21.749233    10912.128    3027.8142    2589.9974    2926.4642   -75.659549   -154.43464   -77.568678   -5610.6001 
12000000    182.43109   -6480.7219    -6011.429   -6480.7219            0    1590.5091    23.529736    21.422063     21.87795    11027.701    1044.2148    1132.1047    2595.2079   -175.24736    -856.0843    1133.2076   -5755.6311 
Loop time of 522.967 on 64 procs for 250000 steps with 1296 atoms

Performance: 82.606 ns/day, 0.291 hours/ns, 478.042 timesteps/s
196.6% CPU use with 32 MPI tasks x 2 OpenMP threads

MPI task timing breakdown:
Section |  min time  |  avg time  |  max time  |%varavg| %total
---------------------------------------------------------------
Pair    | 37.924     | 47.525     | 59.021     |  79.5 |  9.09
Bond    | 0.67623    | 0.99327    | 1.5491     |  18.7 |  0.19
Kspace  | 269.24     | 283        | 294.4      |  37.1 | 54.12
Neigh   | 2.2841     | 2.4326     | 2.6177     |   7.4 |  0.47
Comm    | 67.947     | 73.862     | 78.182     |  27.7 | 14.12
Output  | 0.48848    | 0.48878    | 0.49013    |   0.0 |  0.09
Modify  | 99.19      | 102.37     | 105.37     |  12.3 | 19.57
Other   |            | 12.29      |            |       |  2.35

Nlocal:        40.5000 ave          49 max          30 min
Histogram: 2 2 2 1 3 9 4 4 2 3
Nghost:        3014.38 ave        3059 max        2974 min
Histogram: 1 1 5 5 5 5 6 2 1 1
Neighs:        12659.3 ave       15145 max        9341 min
Histogram: 2 2 2 1 3 8 4 5 0 5

Total # of neighbors = 405098
Ave neighs/atom = 312.57562
Ave special neighs/atom = 2.0000000
Neighbor list builds = 5506
Dangerous builds = 0

unfix		3
unfix		2
unfix		1

write_data	data.final.${pid}
write_data	data.final.0
System init for write_data ...
PPPM initialization ...
  extracting TIP4P info from pair style
  using 12-bit tables for long-range coulomb (../kspace.cpp:340)
  G vector (1/distance) = 0.36847493
  grid = 30 40 32
  stencil order = 5
  estimated absolute RMS force accuracy = 0.0042184869
  estimated relative force accuracy = 1.2703848e-05
  using double precision FFTW3
  3d grid and FFT values/proc = 7752 1200
Last active /omp style is kspace_style pppm/tip4p/omp
WARNING: Not all mixed pair coeffs generated from mixing. Use write_data with 'pair ij' option to store all pair coeffs. (../write_data.cpp:312)

write_restart   restart.lmp.${pid}
write_restart   restart.lmp.0
System init for write_restart ...
PPPM initialization ...
  extracting TIP4P info from pair style
  using 12-bit tables for long-range coulomb (../kspace.cpp:340)
  G vector (1/distance) = 0.36847493
  grid = 30 40 32
  stencil order = 5
  estimated absolute RMS force accuracy = 0.0042184869
  estimated relative force accuracy = 1.2703848e-05
  using double precision FFTW3
  3d grid and FFT values/proc = 7752 1200
Last active /omp style is kspace_style pppm/tip4p/omp
Total wall time: 0:08:43
