LAMMPS (30 Jul 2021)
  using 1 OpenMP thread(s) per MPI task
package omp 0
using multi-threaded neighbor list subroutines
echo both

include		in.partitions
variable        pid world 0
include		in.temp
variable        temperature equal 297.06
variable	tempDamp equal 100.0
include		in.pressure
variable        pressure equal 14500.0
variable        pressureDamp equal 1000.0 # This is 1 ps
include		in.seed
variable        seed world 745823

units		real
atom_style	full
read_restart	restart.lmp.${pid}
read_restart	restart.lmp.0
Reading restart file ...
  restart file = 30 Jul 2021, LAMMPS = 30 Jul 2021
  restoring atom style full from restart
  orthogonal box = (0.76260949 1.9897845 0.93038180) to (17.444963 21.639393 21.282814)
  4 by 4 by 4 MPI processor grid
  restoring pair style lj/cut/tip4p/long/omp from restart
  restoring bond style harmonic/omp from restart
  restoring angle style harmonic/omp from restart
  864 atoms
  576 bonds
  288 angles
Finding 1-2 1-3 1-4 neighbors ...
  special bond factors lj:    0        0        0       
  special bond factors coul:  0        0        0       
     2 = max # of 1-2 neighbors
     1 = max # of 1-3 neighbors
     1 = max # of 1-4 neighbors
     2 = max # of special neighbors
  special bonds CPU = 1.046 seconds
  read_restart CPU = 1.356 seconds
include 	in.setup
variable	out_freq equal 1000
variable	out_freq2 equal 10000
variable	out_freq3 equal 1000

timestep	2.0

neigh_modify    delay 7 every 1

include		in.tip4p
# This is TIP4P/Ice

# create groups ###
group ox type 2
288 atoms in group ox
group hy type 1
576 atoms in group hy

# set charges - beside manually ###
set group ox charge -1.1794
Setting atom values ...
  288 settings made for charge
set group hy charge 0.5897
Setting atom values ...
  576 settings made for charge

# ### TIP3P Potential Parameters ###
pair_style lj/cut/tip4p/long/omp 2 1 1 1 0.1577 8.5
pair_coeff 1 1*2 0.000 0.000
pair_coeff 2 2 0.21084 3.1668
bond_style  harmonic
bond_coeff  1 450 0.9572
angle_style harmonic
angle_coeff 1 55 104.52
kspace_style pppm/tip4p/omp 1.0e-5
pair_modify tail yes

thermo          ${out_freq}
thermo          1000
thermo_style    custom step temp pe etotal epair emol press lx ly lz vol pxx pyy pzz pxy pxz pyz enthalpy

restart 	${out_freq3} restart.lmp.${pid} restart2.lmp.${pid}
restart 	1000 restart.lmp.${pid} restart2.lmp.${pid}
restart 	1000 restart.lmp.0 restart2.lmp.${pid}
restart 	1000 restart.lmp.0 restart2.lmp.0


include         in.dump
dump            myDump all atom ${out_freq2} dump.water.${pid}
dump            myDump all atom 10000 dump.water.${pid}
dump            myDump all atom 10000 dump.water.0
dump            myDump2 all dcd ${out_freq2} dump.dcd
dump            myDump2 all dcd 10000 dump.dcd
dump_modify     myDump append yes
dump_modify     myDump2 append yes


variable natoms 	equal  "count(all)"                        # NUMBER ATOMS
variable H      	equal  "enthalpy/v_natoms"                 # ENTHALPY-per-atom
variable Vol      	equal  "vol/v_natoms"                 # volume-per-atom
fix AVG all 		ave/time ${out_freq} 1 ${out_freq} v_Vol v_H file vol_enthalpy.dat
fix AVG all 		ave/time 1000 1 ${out_freq} v_Vol v_H file vol_enthalpy.dat
fix AVG all 		ave/time 1000 1 1000 v_Vol v_H file vol_enthalpy.dat


timer           timeout 23:50:00 every 1000
New timer settings: style=normal  mode=nosync  timeout=23:50:00

fix 		1 all shake 1e-6 200 0 b 1 a 1
       0 = # of size 2 clusters
       0 = # of size 3 clusters
       0 = # of size 4 clusters
     288 = # of frozen angles
  find clusters CPU = 0.022 seconds
fix             2 all nph iso ${pressure} ${pressure} ${pressureDamp}
fix             2 all nph iso 14500 ${pressure} ${pressureDamp}
fix             2 all nph iso 14500 14500 ${pressureDamp}
fix             2 all nph iso 14500 14500 1000
fix             3 all temp/csvr ${temperature} ${temperature} ${tempDamp} ${seed}
fix             3 all temp/csvr 297.06 ${temperature} ${tempDamp} ${seed}
fix             3 all temp/csvr 297.06 297.06 ${tempDamp} ${seed}
fix             3 all temp/csvr 297.06 297.06 100 ${seed}
fix             3 all temp/csvr 297.06 297.06 100 745823

run             250000
PPPM initialization ...
  extracting TIP4P info from pair style
  using 12-bit tables for long-range coulomb (../kspace.cpp:340)
  G vector (1/distance) = 0.37569064
  grid = 24 24 24
  stencil order = 5
  estimated absolute RMS force accuracy = 0.0030017276
  estimated relative force accuracy = 9.0396135e-06
  using double precision FFTW3
  3d grid and FFT values/proc = 2535 216
Last active /omp style is kspace_style pppm/tip4p/omp
Neighbor list info ...
  update every 1 steps, delay 7 steps, check yes
  max neighbors/atom: 2000, page size: 100000
  master list distance cutoff = 10.8154
  ghost atom cutoff = 10.8154
  binsize = 5.4077, bins = 4 4 4
  1 neighbor lists, perpetual/occasional/extra = 1 0 0
  (1) pair lj/cut/tip4p/long/omp, perpetual
      attributes: half, newton on, omp
      pair build: half/bin/newton/omp
      stencil: half/bin/3d
      bin: standard
Per MPI rank memory allocation (min/avg/max) = 9.240 | 9.243 | 9.245 Mbytes
Step Temp PotEng TotEng E_pair E_mol Press Lx Ly Lz Volume Pxx Pyy Pzz Pxy Pxz Pyz Enthalpy 
18250000    304.35923   -3698.8306   -3177.1693   -3698.8306            0    14739.942    16.682353    19.649609    20.352432    6671.5622    16689.155     13613.29     13917.38    739.72807     265.9784    952.71514    -1743.004 
18251000    303.77913   -3730.8988   -3210.2317   -3730.8988            0    13072.106    16.738502    19.715745    20.420933    6739.1537    12339.447    13268.202     13608.67    1704.2026    924.45793     1631.314   -1925.4575 
18252000    291.29009   -3715.7249   -3216.4636   -3715.7249            0    15111.031    16.649475    19.610882    20.312321    6632.1942     15644.35    14362.835    15325.908    103.50032    647.92542    4.9674954   -1754.8681 
18253000    298.19503   -3728.7585   -3217.6624   -3728.7585            0    15921.934    16.681003    19.648018    20.350784    6669.9418    16445.583    12934.818      18385.4     1988.249   -576.55529   -1022.1227   -1668.8681 
18254000     286.3186   -3757.4372   -3266.6969   -3757.4372            0    15554.414    16.672112    19.637545    20.339937    6659.2821    17515.264    13845.551    15302.427    348.42497   -1376.5277   -202.34284   -1756.0709 
18255000    298.01465   -3711.5602   -3200.7733   -3711.5602            0    15179.152    16.692675    19.661766    20.365024    6683.9527    15061.138    12962.015    17514.304   -351.34888    2870.7964   -291.06405   -1721.1308 
18256000    306.08283   -3712.6931   -3188.0776   -3712.6931            0    15023.882    16.649167     19.61052    20.311945    6631.8264    14483.354    14754.199    15834.094    518.12028    2284.0356    1175.1906    -1734.992 
18257000    300.52122   -3722.5948   -3207.5117   -3722.5948            0    16571.975    16.641372    19.601338    20.302435    6622.5155    16592.746    14954.795    18168.385    911.55566   -831.40675    1449.2635   -1606.9473 
18258000    302.83033   -3726.2091   -3207.1683   -3726.2091            0    14856.346    16.735443    19.712141    20.417201    6735.4592     15315.43      14821.6     14432.01    2443.4417   -1221.7611   -366.63579   -1747.8329 
18259000    313.35452   -3683.2832   -3146.2043   -3683.2832            0    18624.455    16.632161    19.590489    20.291198    6611.5248    18452.621    18422.953    18997.789   -3274.1022   -3.4417977    521.77892   -1350.3914 
18260000    297.33561   -3729.2479   -3219.6248   -3729.2479            0    14468.364    16.734028    19.710474    20.415475     6733.751    17121.216    13969.362    12314.512    2438.7576    850.45009    1097.2298   -1798.7613 
18261000    315.38064   -3745.8164   -3205.2648   -3745.8164            0    15981.582    16.685733    19.653589    20.356555    6675.6176    16174.375    17327.666    14442.703    646.82161    1873.7013   -877.36223   -1649.3454 
18262000    319.71946   -3727.8016   -3179.8134   -3727.8016            0    14811.378    16.718288    19.691935    20.396272    6714.7676      13835.2    15472.605     15126.33    172.63674   -1222.6964    342.69772   -1729.3648 
18263000    309.95747     -3705.95   -3174.6935     -3705.95            0    14449.839    16.664138    19.628154     20.33021    6649.7327    12667.569    16880.665    13801.281    1950.4258    131.39386    62.047579   -1773.3549 
18264000    290.74464   -3771.2073    -3272.881   -3771.2073            0     14930.51    16.653852    19.616037     20.31766    6637.4256     13568.48      16832.3    14390.751    416.25538    384.32529   -237.75487   -1827.6069 
18265000    301.20468   -3765.9507   -3249.6962   -3765.9507            0    14311.743    16.689961    19.658569    20.361713    6680.6934    12388.194    15085.574    15461.462   -249.27572   -1351.6551   -1654.8832   -1855.2879 
18266000    309.00135   -3721.8457    -3192.228   -3721.8457            0    16452.782    16.626632    19.583977    20.284453    6604.9338    16324.137    15637.187    17397.022    45.858405   -506.01826   -95.610413   -1607.3943 
18267000    291.73872   -3727.9222    -3227.892   -3727.9222            0    15393.373    16.657503    19.620338    20.322115    6641.7921    13346.336    17024.324    15809.459   -2189.8286    937.49536   -147.93195   -1736.8326 
18268000    292.22393   -3755.3135   -3254.4516   -3755.3135            0    14039.312    16.691352    19.660207     20.36341    6682.3636    15214.936    13925.246    12977.753    186.27404   -540.28161    19.445754   -1886.2446 
18269000    307.91985   -3757.0491    -3229.285   -3757.0491            0     10620.09    16.747584    19.726442    20.432014    6750.1295    9552.1398    10198.217    12109.913    628.45117    1044.1263    1036.7402   -2183.8039 
18270000    285.06024    -3725.115   -3236.5315    -3725.115            0    13310.637    16.744361    19.722645    20.428081    6746.2324    16933.049    11104.509    11894.353   -1298.8829    2207.5673    2622.2267   -1926.9394 
18271000    306.06346   -3754.3916   -3229.8093   -3754.3916            0    15388.637    16.663023     19.62684    20.328849    6648.3976    15782.439    16143.778    14239.695     -512.853   -1104.5878   -878.96022   -1737.7261 
18272000    294.61279   -3695.4815   -3190.5253   -3695.4815            0    14021.705    16.687993    19.656251    20.359313    6678.3307    13198.505    14155.779    14710.832   -1368.6084    358.79912   -1424.4332   -1824.8588 
18273000    277.30597   -3737.3788   -3262.0859   -3737.3788            0    15562.529     16.69898    19.669192    20.372716    6691.5297    15133.107    15802.031     15752.45   -759.49763    643.79017    163.35967   -1743.3527 
18274000    328.11353   -3725.6956   -3163.3203   -3725.6956            0    16361.115    16.686389    19.654362    20.357356    6676.4054    18634.584    13811.766    16636.997    177.76945   -1731.1472    500.12387   -1570.2626 
18275000    285.52914   -3719.6375   -3230.2504   -3719.6375            0    12425.471    16.720797     19.69489    20.399334    6717.7916    12411.971    12505.525    12358.918   -129.16185    -844.0076    277.24832   -2012.9009 
18276000    304.89286   -3664.6735   -3142.0975   -3664.6735            0    15398.021    16.730432    19.706239    20.411088    6729.4109    13602.633    16218.163    16373.266   -891.78797    395.08613   -2391.6669   -1630.9118 
18277000    310.77592    -3730.736   -3198.0768    -3730.736            0    13808.379    16.766446    19.748658    20.455025    6772.9616    14798.727    13152.635    13473.776     1430.973   -480.33494    494.46683   -1834.1306 
18278000    287.52762   -3728.9624   -3236.1499   -3728.9624            0    13112.605    16.782718    19.767825    20.474876    6792.7004    11686.431     12801.11    14850.274    798.61326    629.54756    1950.8666   -1937.1553 
18279000    287.26865   -3733.1008   -3240.7321   -3733.1008            0    14861.944      16.6518    19.613621    20.315158    6634.9733    14482.582    13771.908    16331.341   -648.24736    -2228.598    900.75963   -1802.6268 
18280000    309.97828   -3721.5972   -3190.3051   -3721.5972            0    14346.198    16.735022    19.711645    20.416687    6734.9508    14368.056    15091.047    13579.491    2029.5473    550.87121    1123.9013   -1781.1878 
18281000     297.5131   -3700.9642   -3191.0369   -3700.9642            0    11768.884    16.755058    19.735245    20.441131    6759.1702    11754.986    9987.0156    13564.649   -340.12245   -556.37389   -451.06323   -2030.9126 
18282000    298.51779   -3724.8184   -3213.1691   -3724.8184            0    12666.054    16.743202    19.721281    20.426668    6744.8326    11534.273    12762.137    13701.751   -392.49879   -182.80764    556.79523   -1967.2542 
18283000    302.88101   -3726.3901   -3207.2625   -3726.3901            0    15157.248    16.711082    19.683447    20.387481    6706.0888    16686.704    14572.213    14212.829   -904.27841     1153.219    818.33579    -1724.862 
18284000    294.99857   -3777.3519   -3271.7345   -3777.3519            0    11311.772    16.753767    19.733725    20.439557    6757.6083    11319.155    9421.1282    13195.031    165.13773   -2172.5419   -875.94307   -2156.9279 
18285000    283.88178   -3735.6189   -3249.0553   -3735.6189            0     15680.31    16.653096    19.615148    20.316739    6636.5225    17848.823    13720.454    15471.653     1290.645   -760.92529    1878.3748   -1731.4071 
18286000    293.65758   -3740.5294   -3237.2104   -3740.5294            0     17008.93    16.642631    19.602821    20.303971    6624.0186    18981.643    15818.768    16226.378    954.50447   -790.52261    479.14359   -1594.0709 
18287000    302.53401   -3731.6178   -3213.0849   -3731.6178            0    14637.066    16.686333    19.654296    20.357288    6676.3382    12913.355    15943.036    15054.808    564.38396     1214.524   -1299.1092   -1787.9097 
18288000    296.45656   -3735.7842   -3227.6678   -3735.7842            0    14219.001    16.699052    19.669277    20.372804    6691.6159    10981.504    15852.694    15822.804   -934.90731    -677.4647    848.79464   -1840.0305 
18289000    286.59038   -3710.9382   -3219.7321   -3710.9382            0     13090.47    16.709607     19.68171    20.385681     6704.313     12512.74    12125.867    14632.804    2519.2029   -1249.8347    864.00202   -1939.8044 
18290000    288.33349   -3732.8131   -3238.6194   -3732.8131            0    13687.881    16.747923    19.726841    20.432427    6750.5392    12984.755    14876.215    13202.674   -401.28405   -1044.8115   -1517.7396   -1891.0517 
18291000    298.43975   -3742.9584   -3231.4429   -3742.9584            0     14133.81    16.749754    19.728998    20.434661    6752.7533    13573.058    16614.144    12214.227    697.41501   -587.29994    1464.1654   -1839.5173 
18292000    284.72319   -3698.6558     -3210.65   -3698.6558            0    15887.918    16.705277    19.676609    20.380398    6699.1022    16488.643    12848.986    18326.126   -110.39596   -759.70589    1175.5513   -1658.4078 
18293000    306.25926    -3742.109   -3217.1912    -3742.109            0     11751.07     16.76786    19.750324     20.45675    6774.6751    12597.084    10019.951    12636.173   -36.862477    677.45634   -201.22376   -2056.1656 
18294000    299.96011   -3774.6269   -3260.5056   -3774.6269            0    15181.773     16.67404    19.639817     20.34229    6661.5935    16603.193    13660.542    15281.586    1454.5861    1070.9366    240.76436   -1785.5582 
18295000    295.28931     -3793.84   -3287.7242     -3793.84            0    12539.847    16.702042      19.6728    20.376453    6695.2119    12484.179    11377.938    13757.424    2436.2692   -516.61141    451.61892   -2063.2985 
18296000    307.27118   -3754.5069   -3227.8546   -3754.5069            0    11948.706    16.691859    19.660806    20.364029    6682.9735    10934.462    13610.452    11301.203    417.31221   -1323.2349    -1103.457   -2063.2822 
18297000    285.10227   -3737.6757   -3249.0202   -3737.6757            0     14353.77     16.66881    19.633656    20.335909    6655.3267    15731.048    11802.365    15527.898    590.03754   -700.10472   -601.49526   -1855.8273 
18298000     293.1121   -3696.8523   -3194.4681   -3696.8523            0    16650.164    16.684734    19.652413    20.355337    6674.4192     16496.02    16782.186    16672.287   -799.47164   -1411.4285     257.0458   -1573.7485 
18299000    303.36628   -3715.1921   -3195.2327   -3715.1921            0    13417.197    16.723658     19.69826    20.402823    6721.2398    13560.867    13043.964    13646.761   -167.27288   -1148.8484    714.85892   -1880.0469 
18300000    274.49628   -3735.6839   -3265.2067   -3735.6839            0    15816.888    16.730624    19.706465    20.411322    6729.6425    18421.121    15023.952    14005.591    2716.0688    909.38497    1174.4506   -1712.8593 
18301000    293.23061     -3709.77   -3207.1828     -3709.77            0    13616.334    16.775535    19.759364    20.466113    6783.9825    15048.792    13910.882    11889.329   -328.42894    -1183.353    106.66235   -1860.0178 
18302000    310.05894    -3756.368   -3224.9376    -3756.368            0    15237.278     16.65659    19.619263    20.321001    6640.7004    15539.728    13076.929    17095.177    -3414.666   -2290.9926    202.81198   -1749.2407 
18303000    292.60746   -3744.7328   -3243.2137   -3744.7328            0    13681.547    16.710327    19.682558     20.38656    6705.1801    13253.023    14743.592    13048.025    530.28244    1895.4393    -49.19542   -1905.3202 
18304000    304.41233   -3716.3453    -3194.593   -3716.3453            0    13836.448    16.699863    19.670232    20.373793    6692.5911    11530.021    16087.085    13892.237   -384.22113    1128.4035     -1506.43   -1844.0924 
18305000    296.60193   -3730.2404   -3221.8748   -3730.2404            0    14630.044    16.699012     19.66923    20.372755    6691.5682     15094.86     13844.44    14950.831     -2087.88    1489.2919    555.18033   -1794.1339 
18306000    305.50887    -3710.955   -3187.3233    -3710.955            0     13877.33    16.729223    19.704815    20.409613    6727.9521    13759.304    12291.106    15581.579   -33.578022   -489.93069    571.00051   -1825.6758 
18307000    319.05985   -3759.7443   -3212.8867   -3759.7443            0    14308.694    16.648549    19.609792    20.311191    6631.0876    14289.097    12630.011    16006.976   -17.967933   -253.97868   -1518.2813    -1829.127 
18308000    299.09585   -3759.6806   -3247.0406   -3759.6806            0    15316.194    16.711754    19.684239    20.388301    6706.8976    16753.717    12850.118    16344.746    424.21971   -952.08324     1538.774   -1748.9143 
18309000     294.6919   -3762.4404   -3257.3485   -3762.4404            0    13038.798    16.774489    19.758132    20.464837    6782.7136    12272.911    13112.988    13730.495    620.45312   -868.53994     1360.174   -1967.5647 
18310000    280.29652    -3748.115   -3267.6963    -3748.115            0    12491.489    16.731134    19.707066    20.411945    6730.2585    11925.886    13269.245    12279.336    209.71177    213.08283   -1139.3473   -2041.6078 
18311000    303.45602   -3752.5804   -3232.4671   -3752.5804            0    13524.712     16.68955    19.658086    20.361212    6680.2004    12591.873    13113.038    14869.226   -432.04603    1556.4699     -419.968   -1914.8373 
18312000    296.84085   -3718.2331   -3209.4581   -3718.2331            0    14844.452    16.720633    19.694697    20.399133    6717.5933    10878.986    16918.252    16736.119   -866.30779    736.64261   -1011.7647   -1755.1588 
18313000    300.31147   -3711.6491   -3196.9256   -3711.6491            0    14204.263    16.734062    19.710515    20.415517    6733.7927     16064.46    14242.526    12305.803   -532.73983   -127.54741    1556.1042   -1801.9894 
18314000    301.12546   -3743.9442   -3227.8254   -3743.9442            0    12741.658    16.756007    19.736363     20.44229    6760.3193    13513.013    13182.343    11529.619   -261.83477    633.24829    343.46239   -1971.5957 
18315000    287.48191   -3764.5633   -3271.8291   -3764.5633            0    13558.343    16.706468    19.678013    20.381852    6700.5356    14420.516    13038.244    13216.268    1656.4779    115.75863   -596.07789   -1946.9019 
18316000    304.59021   -3685.6815   -3163.6243   -3685.6815            0    15136.699    16.699081    19.669311    20.372839     6691.651    12877.808    14832.965    17699.323    12.004078   -157.62843   -1142.1269   -1686.4208 
18317000    293.57092   -3768.6471   -3265.4766   -3768.6471            0    12995.573    16.792561    19.779419    20.486885    6804.6596    11664.472    14095.363    13226.883    534.40369   -736.76383    -182.8908   -1975.8092 
18318000    303.05368   -3722.5312   -3203.1076   -3722.5312            0    14750.581    16.677634     19.64405    20.346675    6665.9023    15780.026    14047.784    14423.934    443.19117   -121.74522    572.86047   -1769.1247 
18319000    290.98309   -3744.9199   -3246.1849   -3744.9199            0    15147.249    16.668373    19.633141    20.335376    6654.8029    15777.512     15801.38    13862.855    743.43285   -873.87352    371.86506   -1776.0918 
18320000    302.54095   -3757.8207   -3239.2759   -3757.8207            0    12223.611    16.711568     19.68402    20.388074    6706.6743    12031.738    12913.177    11725.917    1370.3748   -206.87065    30.416927    -2043.685 
18321000    306.56173   -3759.3116   -3233.8753   -3759.3116            0    15279.352    16.698592    19.668736    20.372243    6691.0635    14501.221    15950.091    15386.744   -1398.9683   -2049.5068   -156.34359    -1742.881 
18322000     313.5466   -3669.6335   -3132.2253   -3669.6335            0     14079.79    16.731345    19.707314    20.412202    6730.5126    16507.714    14921.421    10810.236     2399.713   -1985.6134     804.9742   -1750.1866 
18323000    286.17002   -3755.8191   -3265.3335   -3755.8191            0    13636.601    16.723743     19.69836    20.402927    6721.3422    13372.103    15059.507    12478.192    -1167.817    594.23328    300.86817   -1928.6209 
18324000    311.19637   -3788.5634   -3255.1835   -3788.5634            0    11806.222    16.733122    19.709407     20.41437    6732.6574    10861.253     14646.99    9910.4231    224.76598    280.79241   -621.70745   -2095.9435 
18325000    307.27829   -3740.7602   -3214.0957   -3740.7602            0      15999.5    16.672256    19.637715    20.340114    6659.4553    15076.323    16470.297    16451.881   -1139.8934   -4.8231558   -400.26598   -1660.2031 
18326000    293.68451   -3742.9128   -3239.5476   -3742.9128            0    14097.383    16.720377    19.694395    20.398821    6717.2849    14150.679    14286.769    13854.701    127.99136   -1294.8763   -523.50735   -1858.5016 
18327000    271.10572   -3731.8699   -3267.2039   -3731.8699            0    14743.216    16.719789    19.693703    20.398103    6716.5762    13954.985     14174.52    16100.143   -326.13654   -97.061053   -821.26514   -1823.0414 
18328000    317.30204    -3743.255   -3199.4101    -3743.255            0    14233.431    16.699327    19.669602     20.37314    6691.9473    11718.987    14507.695    16473.611    2594.4075    167.37213   -1079.0719   -1810.2957 
18329000    295.74128   -3755.7353   -3248.8449   -3755.7353            0    15837.472    16.588589    19.539167     20.23804    6559.6995    16271.955    16341.572    14898.888    -414.9695   -1519.9199     547.1614   -1733.7296 
18330000    302.66426   -3741.6204   -3222.8642   -3741.6204            0    13098.247    16.746186    19.724795    20.430307    6748.4386    13340.596    12908.923    13045.221   -747.79529   -267.01925   -973.38337   -1933.7471 
18331000    295.99532   -3731.9791   -3224.6533   -3731.9791            0    14601.126    16.675638    19.641698    20.344239    6663.5082    14859.643    14271.458    14672.276    2002.5782    1228.3605    746.11004   -1805.7096 
18332000    303.48107   -3776.2875   -3256.1314   -3776.2875            0    15441.676    16.691952    19.660915    20.364143    6683.0851    15973.302    15076.216     15275.51     261.5533   -259.64617   -231.76911   -1751.0939 
18333000    286.22035    -3741.341   -3250.7691    -3741.341            0    13266.668    16.752671    19.732434     20.43822    6756.2821    14096.281    10921.498    14782.223   -467.77783   -84.407316   -363.15723   -1943.5587 
18334000    302.39745    -3678.473   -3160.1741    -3678.473            0    12919.497    16.765915    19.748033    20.454377    6772.3179    12636.621    14167.168    11954.701    1762.3079   -1603.8004   -1911.8347   -1884.1502 
18335000    311.82231   -3762.5614   -3228.1087   -3762.5614            0     13197.35    16.711027    19.683383    20.387414    6706.0228    14471.599    13032.045    12088.405    1318.4428    1425.4572    368.66077   -1937.4018 
18336000     300.4235   -3765.8757   -3250.9601   -3765.8757            0    12866.925    16.766792    19.749067    20.455448    6773.3818    13129.394    12345.565    13125.817    502.28997   -13.543423    842.06962   -1979.9289 
18337000    304.18086   -3753.4056     -3232.05   -3753.4056            0    16160.435    16.663188    19.627034     20.32905    6648.5944    15358.059    17051.043    16072.203    714.32105    815.38671    144.25514   -1665.0869 
18338000    321.42027   -3720.5901   -3169.6868   -3720.5901            0    13110.075    16.750491    19.729865    20.435559    6753.6443    12634.306     12657.66    14038.259    103.26834    288.23191   -483.03338   -1878.4103 
18339000    274.96633   -3726.3405   -3255.0577   -3726.3405            0    15472.092    16.710319    19.682549     20.38655    6705.1705    16519.069    16209.666    13687.542    185.92198    769.20019    252.00198   -1742.0722 
18340000    304.47852   -3749.7155   -3227.8498   -3749.7155            0    14192.891    16.711514    19.683957    20.388009    6706.6094    14402.219    10944.843    17231.612    578.75747     746.7506   -1121.6095    -1839.657 
18341000    285.37168    -3788.871   -3299.7537    -3788.871            0    13537.262    16.756661    19.737134    20.443088    6761.1111    12808.101    13516.074    14287.612     -1023.38   -195.23408   -462.00531   -1964.9273 
18342000    300.63601   -3760.6551   -3245.3753   -3760.6551            0    15239.319    16.698931    19.669136    20.372657    6691.4716     15006.07     14677.17    16034.718     96.02517   -683.33144     -475.614   -1758.1968 
18343000    286.36971   -3742.5757   -3251.7479   -3742.5757            0    17040.626    16.678075     19.64457    20.347213    6666.4309    18345.928    16388.502    16387.449    1114.0697   -2912.6308    1021.0732   -1595.0061 
18344000    298.99045   -3773.1895   -3260.7301   -3773.1895            0    14055.743    16.751041    19.730514    20.436231    6754.3102    13411.089    14135.892    14620.247    2300.7882   -1641.6322    -1805.714   -1876.1736 
18345000    289.36844   -3744.3373   -3248.3697   -3744.3373            0    13652.633    16.729623    19.705286    20.410101    6728.4352    11535.828    14462.359    14959.711   -227.24363   -447.53843    1435.8259   -1908.6734 
18346000    318.41878   -3784.3684   -3238.6095   -3784.3684            0    12136.801    16.734596    19.711144    20.416169    6734.4374    14016.738    10913.582    11480.082   -1459.8515    710.79298    1942.0951   -2046.5953 
18347000    292.08082   -3741.1955    -3240.579   -3741.1955            0     13686.68    16.701793    19.672506    20.376149    6694.9123    13739.704    15125.946    12194.391    1381.6895   -258.11262   -1071.8327    -1904.233 
18348000    293.05809   -3808.1452   -3305.8537   -3808.1452            0    13598.598    16.734631    19.711185    20.416211    6734.4795    12433.084    15197.184    13165.525   -1700.4275   -1933.8792     68.92797   -1970.2609 
18349000    290.63335   -3771.5445   -3273.4089   -3771.5445            0    12648.829    16.747946    19.726868    20.432455    6750.5669     10726.78    14262.443    12957.262    1476.3479   -120.82283    949.82815   -2028.1305 
18350000    293.57674    -3785.032   -3281.8515    -3785.032            0    15170.706    16.700464     19.67094    20.374526    6693.3135    16539.377    13734.657    15238.083    432.07874    1314.6362    196.77547   -1800.9614 
18351000    285.54477   -3791.6357   -3302.2217   -3791.6357            0    13758.491    16.726268    19.701335    20.406008     6724.388    13656.863    12889.075    14729.536    1073.4627    27.551114    760.86754   -1952.9498 
18352000    303.62097   -3735.9401   -3215.5442   -3735.9401            0    12739.822    16.716698    19.690062    20.394332    6712.8518    16041.629    10158.889    12018.949     139.1634    111.03026    1037.9685   -1968.3148 
18353000     312.7455   -3748.0178   -3211.9827   -3748.0178            0    15121.899    16.698958    19.669166    20.372689     6691.503    15556.276     13590.54    16218.881   -1278.1835    1984.1438   -2833.2012   -1736.2561 
18354000    286.11018   -3676.2521    -3185.869   -3676.2521            0     15984.34     16.63359    19.592172    20.292941    6613.2288    16459.335    17279.634     14214.05   -227.42089     664.6952    357.08983   -1644.2249 
18355000    305.13356   -3721.6182   -3198.6297   -3721.6182            0    14926.149    16.706246    19.677751    20.381581    6700.2688    12734.271    15791.852    16252.325   -370.10265    222.02719    998.85486   -1740.0979 
18356000    284.25955   -3711.1355   -3223.9244   -3711.1355            0    12066.449    16.698836    19.669023    20.372541    6691.3564    10749.284    13810.482    11639.579    210.76697    803.90599    -68.74755    -2046.401 
18357000    277.09624   -3703.6574   -3228.7239   -3703.6574            0    15259.637    16.701181    19.671785    20.375401    6694.1756    14454.107    16656.631    14668.172    39.702812    1282.9308     590.3368   -1738.9609 
18358000    296.87766   -3722.5867   -3213.7485   -3722.5867            0    12897.302    16.797636    19.785396    20.493076    6810.8302    12467.748      12587.9    13636.256   -1026.8999    1207.2253   -227.83541   -1932.6728 
18359000    298.65411    -3772.114   -3260.2311    -3772.114            0    13477.144    16.748879    19.727967    20.433593    6751.6947    12290.907    13713.335    14427.189   -438.24855   -105.92343    1213.0489   -1933.1834 
18360000    288.07488    -3723.925   -3230.1745    -3723.925            0    14014.644    16.725648    19.700604    20.405252      6723.64    15019.511    13713.354    13311.068    737.57722    890.10465   -783.50405   -1855.9351 
18361000    300.41764   -3724.9792   -3210.0737   -3724.9792            0    13958.807    16.710153    19.682353    20.386348    6704.9709    12618.826    15843.507    13414.086   -610.49297   -279.45734    1699.8669   -1845.1101 
18362000    305.90888   -3752.1329   -3227.8155   -3752.1329            0    14117.833    16.676135    19.642285    20.344846    6664.1047    11925.407    15425.824    15002.269    120.72597   -326.26424   -1349.9346   -1855.7156 
18363000    284.52527   -3715.1079   -3227.4413   -3715.1079            0    15980.787    16.671646    19.636996    20.339369    6658.7237    15091.327    17680.336    15170.698   -1166.6899   -998.16046   -458.81037   -1675.5366 
18364000    301.88541   -3685.7049   -3168.2837   -3685.7049            0    14427.426    16.713407    19.686186    20.390318    6708.8886    13882.571    16001.238    13398.468   -186.62663   -166.44601   -595.73134   -1756.6717 
18365000    307.19864    -3729.908     -3203.38    -3729.908            0     13552.64    16.766355    19.748551    20.454914    6772.8516    13479.195    12294.436    14884.287   -869.85464    1653.9912    2125.0437   -1864.7168 
18366000    287.42084   -3745.8432   -3253.2137   -3745.8432            0    12249.085    16.735921    19.712704    20.417784    6736.0365    12013.286    11833.113    12900.858    2252.6445    453.44004    284.56558   -2049.8858 
18367000    291.77443   -3781.6091   -3281.5177   -3781.6091            0    14536.018    16.708876    19.680849     20.38479    6703.4338    15108.386    15040.379    13459.288   -83.988815    346.02778    1464.2321   -1860.4372 
18368000    286.34518   -3752.6079    -3261.822   -3752.6079            0    15486.603    16.618076    19.573899    20.274014    6594.7426    17304.525    13443.072    15712.211    2276.1262    1355.9196    13.699334   -1772.3584 
18369000    308.63782    -3758.088   -3229.0934    -3758.088            0    14230.844    16.703072    19.674012    20.377709    6696.4502    15989.813    11802.034    14900.686     -176.058    1621.3668    930.24858   -1839.2969 
18370000    297.68194   -3728.3117   -3218.0951   -3728.3117            0     15307.96    16.636574    19.595687    20.296582    6616.7895    16201.106    16910.342    12812.432   -1111.1388   -283.09431   -626.88794   -1740.8909 
18371000    286.96427   -3718.3024   -3226.4554   -3718.3024            0    17398.162    16.625429    19.582559    20.282984    6603.4996    16550.379    16603.323    19040.784   -204.45438    200.92292    186.29364   -1550.9208 
18372000    322.60768   -3731.8286   -3178.8901   -3731.8286            0     14371.05    16.680712    19.647675    20.350429    6669.5928    13293.816    14286.332    15533.002    673.50493    1517.8678   -1938.7594     -1781.03 
18373000    286.79039   -3740.3968   -3248.8479   -3740.3968            0    12898.249    16.681079    19.648108    20.350877    6670.0333    15021.282    11009.945    12663.519    923.73772    290.42443   -740.53022   -1994.1631 
18374000    308.43516   -3745.1022   -3216.4549   -3745.1022            0     13373.55    16.723857    19.698495    20.403067    6721.4807    13715.401    13802.437    12602.811   -571.35431   -856.85118    67.522458   -1905.5006 
18375000    298.74119   -3692.5108   -3180.4786   -3692.5108            0    16542.114    16.722265    19.696619    20.401124    6719.5609    15804.412    16840.163    16981.768    782.53695    277.21905   -179.14967   -1559.3861 
18376000    303.41787    -3729.807   -3209.7591    -3729.807            0    14904.607    16.670003    19.635062    20.337365    6656.7563    16495.065    12534.434    15684.323    450.24492    248.41392   -1114.7012   -1762.7906 
18377000    302.86341   -3722.6166    -3203.519   -3722.6166            0    13622.328    16.750132    19.729443    20.435121    6753.2101    15050.689    13668.983    12147.312    1631.4894   -1446.7461    602.34391   -1861.8744 
18378000    306.08577   -3754.1138   -3229.4933   -3754.1138            0    16629.215    16.682439    19.649709    20.352536    6671.6646    17631.309    16857.823    15398.515    1200.5917   -1570.0897   -1824.5502   -1611.4808 
18379000    299.57095   -3709.6118   -3196.1575   -3709.6118            0    15128.289    16.735517    19.712229    20.417292    6735.5493    13220.289    16081.633    16082.945    130.69927    1056.6362   -52.146026   -1710.0893 
18380000    291.28957   -3749.3848   -3250.1244   -3749.3848            0    14985.646    16.707647    19.679401     20.38329    6701.9542    13635.779    16258.817    15062.341    880.22945   -112.41794     765.2229   -1785.4105 
18381000    302.28152   -3759.4623   -3241.3621   -3759.4623            0    14072.868    16.683236    19.650649     20.35351    6672.6218    12938.981    15620.421    13659.202   -621.07334   -910.41587    391.24227   -1871.8842 
18382000    303.78271   -3694.8999   -3174.2267   -3694.8999            0    15573.164    16.705557     19.67694    20.380741    6699.4397    14119.588    15389.902    17210.001   -1473.1501   -400.06378    402.09924   -1652.6592 
18383000    275.48388   -3706.0894   -3233.9195   -3706.0894            0     13462.24    16.735133    19.711776    20.416823    6735.0855    14002.145    12022.297    14362.277    485.91715    954.27798    284.52362   -1911.6003 
18384000    283.00013   -3742.2016    -3257.149   -3742.2016            0    15392.565    16.677749    19.644185    20.346815    6666.0393     14855.49    16289.808    15032.398   -49.209948    692.46049    -3553.767   -1760.7247 
18385000    280.82292   -3776.3977   -3295.0768   -3776.3977            0    13451.552    16.671184    19.636453    20.338806    6658.1708    12293.868    13304.307    14756.481   -610.66653   -201.92552    510.01392   -1988.8962 
18386000    294.28749   -3746.6871   -3242.2884   -3746.6871            0    12699.544    16.754454    19.734534    20.440395    6758.4397    12940.566    12940.121    12217.946   -52.804984   -1208.4501    225.65271   -1990.5589 
18387000    292.79795   -3756.3611   -3254.5154   -3756.3611            0    15887.831     16.73897    19.716296    20.421505    6739.7193    16661.646    15024.414    15977.435   -69.309291     1210.441    1931.2451   -1692.8704 
18388000    308.73987   -3749.2734   -3220.1038   -3749.2734            0    13386.595    16.740138    19.717671    20.422929    6741.1299    12523.633    13997.467    13638.685     598.4217    986.24564    1082.9214   -1904.0346 
18389000    278.84454   -3760.3051   -3282.3751   -3760.3051            0     16301.73    16.650953    19.612624    20.314124    6633.9608    15378.517    17473.467    16053.207   -629.35195    1037.1647   -1724.8982   -1705.1906 
18390000     286.9406   -3718.7352   -3226.9288   -3718.7352            0    11955.014     16.79878    19.786743    20.494472    6812.2219    11886.007    13700.671    10278.362    436.30319   -202.46967   -1169.8827    -2039.207 
18391000    284.63707   -3747.5274   -3259.6692   -3747.5274            0    14884.565    16.690893    19.659668    20.362851    6681.8131     14690.76    17294.967    12667.968      964.745    1917.5537    526.30212   -1809.2071 
18392000    305.14002   -3748.9821   -3225.9826   -3748.9821            0    16215.138    16.688825    19.657232    20.360328    6679.3301    14729.146    16760.629    17155.638    485.51158    -198.2641     2829.116   -1646.4469 
18393000    279.67339   -3704.8299   -3225.4792   -3704.8299            0      17017.7    16.645346    19.606019    20.307283    6627.2612    17935.171      15866.2     17251.73    192.68157    531.70666    319.96613   -1580.6878 
18394000    285.31517   -3734.6317   -3245.6113   -3734.6317            0    15467.876    16.711745    19.684228    20.388289    6706.8865    15745.429    16042.144    14616.055    1295.4796    937.32246   -357.16874    -1732.651 
18395000    305.71216   -3719.7413   -3195.7611   -3719.7413            0    12582.456    16.720314    19.694322    20.398744    6717.2096    12960.696    11503.246    13283.426    490.23343   -685.83154   -1130.6493   -1963.1383 
18396000    272.05765   -3704.1363   -3237.8388   -3704.1363            0    15922.481    16.709799    19.681935    20.385915    6704.5438    16119.435    16700.596    14947.412   -2046.6044   -33.391692    2217.4074   -1680.9562 
18397000    286.58524   -3760.4555   -3269.2582   -3760.4555            0    13289.576    16.726339    19.701418    20.406094    6724.4731    11438.443    15422.353    13007.932   -1218.8064    406.51616    1226.7906   -1965.9556 
18398000    290.55743   -3745.3056   -3247.3001   -3745.3056            0    13567.132    16.679785    19.646583    20.349299    6668.4812    13705.973    14557.872     12437.55     34.61803   -2781.7177   -1638.8272   -1927.8564 
18399000    304.51841   -3690.8438   -3168.9097   -3690.8438            0      15703.7    16.703837    19.674913    20.378642    6697.3699    14860.617    16403.535    15846.949     1354.452   -1215.0743   -604.55728   -1635.0622 
18400000     289.6329   -3739.3739    -3242.953   -3739.3739            0    16015.457    16.687166    19.655278    20.358304    6677.3382    15920.829    15352.917    16772.626   -365.49169      321.708   -619.20081   -1683.3337 
18401000    305.60753   -3749.6431   -3225.8423   -3749.6431            0    14787.541    16.722312    19.696675    20.401182    6719.6179    15621.777    14728.533    14012.314   -205.08215    -5.988433   -2273.7589   -1776.6819 
18402000    278.27426   -3758.1383   -3281.1857   -3758.1383            0    13887.666    16.741388    19.719144    20.424454    6742.6401    13889.166    14911.382     12862.45    301.43688    1239.5134   -353.41012   -1915.5492 
18403000    314.78764   -3778.0608   -3238.5255   -3778.0608            0    14420.544    16.717869    19.691442    20.395762    6714.2634    14224.566    15229.229    13807.838    1597.1291    1675.5532   -256.48437   -1826.4565 
18404000    280.25692   -3722.8441   -3242.4933   -3722.8441            0    17450.565    16.649009    19.610333    20.311752    6631.6367    18200.836    16906.259      17244.6    26.604834    672.57629    270.63701   -1554.7511 
18405000    297.44285   -3737.0714   -3227.2645   -3737.0714            0    16708.785     16.66136    19.624882    20.326821    6646.4075    19340.674    17096.339    13689.343   -65.611531    16.213095   -1147.9609   -1607.6647 
18406000    274.57398   -3751.0772   -3280.4668   -3751.0772            0    15903.964    16.738766    19.716055    20.421256    6739.4726    15399.065    16416.925    15895.902   -418.99792    409.65371   -55.536601   -1717.2933 
18407000    287.27401   -3715.9594   -3223.5815   -3715.9594            0    16708.342    16.631428    19.589625    20.290303    6610.6504     13520.38    19513.657    17090.991   -1128.6801    -960.7644    906.84899   -1612.7377 
18408000    301.88553   -3744.1999   -3226.7784   -3744.1999            0    13499.691    16.748874    19.727961    20.433587    6751.6889    13120.218     14670.88    12707.975   -341.19178    1326.2959    1148.7874   -1897.5117 
18409000    286.85487   -3734.3319   -3242.6725   -3734.3319            0    13262.836    16.759093    19.739998    20.446055    6764.0552    14841.681    13238.661    11708.167    1515.5344    1229.1062    1130.8305    -1934.336 
18410000    307.24273   -3720.8219   -3194.2184   -3720.8219            0    16270.402    16.673852    19.639595     20.34206    6661.3678    15279.923    16914.208    16617.074   -1480.9908    348.35481     506.3666   -1613.5616 
18411000    290.55098   -3754.6572   -3256.6628   -3754.6572            0    14603.037    16.711295    19.683699    20.387741    6706.3458    15725.009    12205.349    15878.752    967.24216   -795.22223   -1586.5092   -1828.4103 
18412000    295.27424   -3753.0721   -3246.9822   -3753.0721            0    14260.078    16.708594    19.680517    20.384446    6703.0943    12891.733    15161.402    14727.099   -1020.8879   -79.928262    611.90195    -1852.949 
18413000    304.66339   -3742.2738   -3220.0912   -3742.2738            0     15525.59    16.624323    19.581257    20.281636    6602.1826    14515.372    16403.135    15658.262     1077.965    1861.6185    -2884.597   -1725.1933 
18414000    295.76362   -3739.1487     -3232.22   -3739.1487            0    14449.944    16.656365    19.618998    20.320727    6640.4317    16323.616    12833.936    14192.279    1027.2085   -788.10113    2363.1255   -1832.8313 
18415000    290.46411   -3751.1677   -3253.3222   -3751.1677            0    16561.783    16.599448    19.551957    20.251288    6572.5896    14987.112    19346.004    15352.233    383.65306   -47.898199   -384.43441   -1665.8011 
18416000    290.68595   -3750.0952   -3251.8694   -3750.0952            0    12478.642    16.724384    19.699115    20.403709    6722.1153    10060.756    12020.713    15354.457   -932.22736   -1086.1069      440.987   -2028.5238 
18417000    286.35401   -3787.5476   -3296.7467   -3787.5476            0    13145.736    16.745166    19.723594    20.429064    6747.2064    14622.921    13547.724    11266.564    -3601.401   -246.85158   -475.84387   -2003.1919 
18418000    330.42961   -3737.3875   -3171.0425   -3737.3875            0    13754.725    16.703782    19.674849    20.378575    6697.3044    15339.139    14920.886    11004.149    1845.7077    329.99642   -518.51248   -1827.5729 
18419000    305.07576   -3692.6316   -3169.7421   -3692.6316            0    12138.208    16.657689    19.620558    20.322342    6642.0152     13411.36    10067.221    12936.044    1211.3873    1389.7397   -168.33082   -1993.9506 
18420000    306.00807   -3743.9946   -3219.5073   -3743.9946            0    15566.309    16.688773     19.65717    20.360264    6679.2672    13671.893    16782.717    16244.317     364.8719    535.22423    806.82637   -1703.1891 
18421000    301.88666   -3763.3725   -3245.9491   -3763.3725            0    11424.199      16.7725     19.75579    20.462411    6780.3017    9678.5521    14551.496    10042.549   -119.37753    901.78857    1189.5492   -2116.2815 
18422000    296.08465   -3726.9123   -3219.4334   -3726.9123            0    16421.197    16.697193    19.667088    20.370536    6689.3816    16009.365    17772.744    15481.482    1549.2259   -620.19182     157.5195   -1617.4181 
18423000    299.00844   -3754.8366   -3242.3464   -3754.8366            0     14630.95    16.723407    19.697964    20.402517    6720.9373    14936.914    13580.215    15375.722   -515.56614   -803.75795   -626.83007   -1808.2502 
18424000    298.80762   -3737.4838   -3225.3377   -3737.4838            0    13541.889    16.724683    19.699468    20.404074    6722.4763    13521.477    13452.696    13651.496     1051.127    1456.3851   -192.16005   -1897.6852 
18425000    300.61985   -3704.8495   -3189.5974   -3704.8495            0    14313.743    16.689478    19.658001    20.361125    6680.1141    13661.113    13234.113    16046.004    1489.8772    1751.8771   -545.98311   -1795.1151 
18426000     289.8853   -3731.3816   -3234.5281   -3731.3816            0    15595.119    16.682052    19.649253    20.352064       6671.2    15212.984    16417.493    15154.879    827.14143    648.31116    825.51241   -1717.2384 
18427000    303.05802   -3729.3859   -3209.9548   -3729.3859            0    14432.545    16.795613    19.783014    20.490609    6808.3703    13185.391    14540.688    15571.556   -1750.9329    651.45197    441.81664   -1776.9027 
18428000    307.11277   -3732.0449   -3205.6641   -3732.0449            0    13204.014    16.763165    19.744794    20.451022    6768.9868    12516.515    13750.224    13345.304   -2972.0269    163.86504    18.825442   -1902.1806 
18429000    278.79448   -3687.8319   -3209.9877   -3687.8319            0    14871.512    16.703698     19.67475    20.378473    6697.2037    15402.237    14597.473    14614.826   -605.12877    1103.1888   -92.895836   -1757.4596 
18430000    294.57042   -3749.6708   -3244.7872   -3749.6708            0    14021.587    16.707422    19.679136    20.383016    6701.6835    15994.419    12458.267    13612.076    260.47929   -1341.6789   -589.41302   -1874.3568 
18431000     313.5857   -3744.7773   -3207.3022   -3744.7773            0    17663.174    16.635959    19.594962    20.295831    6616.0551    18780.103    14632.134    19577.284    468.55905    469.26442    138.94812   -1503.0112 
18432000    311.00955   -3712.8989   -3179.8392   -3712.8989            0    16565.673    16.678785    19.645406    20.348079    6667.2821    15660.096    17542.978    16493.946    1294.0373    161.74207    1391.1264   -1569.0681 
18433000    300.39242   -3772.4669   -3257.6045   -3772.4669            0    13247.733     16.71867    19.692385    20.396739    6715.2286    13239.735     14100.05    12403.414    -688.4136   -2035.4348    164.04234   -1960.1915 
18434000    296.64069    -3754.769   -3246.3371    -3754.769            0    14018.746    16.689679    19.658237    20.361369    6680.3544    14696.874    14957.587    12401.779    515.47024   -689.13819     406.4405    -1880.545 
18435000    300.94164   -3716.8715   -3201.0678   -3716.8715            0    14822.494    16.725047    19.699896    20.404518    6722.9153    15703.902     12139.67     16623.91   -2738.1419   -747.19698   -310.00429   -1747.7694 
18436000    294.33518    -3695.664   -3191.1836    -3695.664            0    16417.418    16.709035    19.681037    20.384984    6703.6251    17974.867    14961.371    16316.016    -221.2505    1534.7528    901.07776   -1586.1266 
18437000    293.01451   -3754.5762   -3252.3594   -3754.5762            0    12153.789     16.80807    19.797687    20.505807     6823.531    13631.199    11546.541    11283.628   -1043.7494   -634.60218   -199.29418   -2042.8847 
18438000    304.21619   -3714.4655   -3193.0494   -3714.4655            0    15756.249    16.642776    19.602992    20.304148    6624.1918    16110.104    16572.269    14586.373     625.6705     1661.859   -2001.4662   -1670.8848 
18439000    278.90593   -3738.3056   -3260.2704   -3738.3056            0    13700.134    16.728252    19.703672    20.408429    6726.7812    11976.014    16404.691    12719.697    377.20496   -1533.9862    347.87077   -1916.2434 
18440000    309.15044   -3720.3333     -3190.46   -3720.3333            0    14581.644    16.707486    19.679212    20.383094    6701.7607    14227.048    14241.936    15275.949     1184.796   -1733.7863   -778.95182   -1765.2748 
18441000     302.2589     -3730.56   -3212.4986     -3730.56            0    15175.061    16.644136    19.604593    20.305807    6625.8155    15904.984    15718.939    13901.261    521.04331   -736.84797    726.37068   -1746.1215 
18442000    296.23064   -3732.6497   -3224.9205   -3732.6497            0    16054.145    16.629449    19.587294    20.287889    6608.2908    13392.733    17959.423    16810.279    2025.6179   -566.07041   -2577.1755      -1677.7 
18443000    288.22592   -3729.6625   -3235.6532   -3729.6625            0    15897.312    16.694554    19.663979    20.367317    6686.2103    16675.566    15160.034    15856.338   -772.86806   -522.62512   -497.23995   -1685.4821 
18444000    308.18934   -3746.5769   -3218.3509   -3746.5769            0    14014.635    16.731224    19.707172    20.412054    6730.3666    15380.375    15129.992    11533.537    522.38508   -27.965052    315.24734   -1842.7375 
18445000    288.84887   -3755.5375   -3260.4604   -3755.5375            0    14529.605    16.732272    19.708406    20.413333    6731.6318    15865.816    14050.518    13672.479   -378.05905    -838.3682    544.36905   -1834.0318 
18446000    302.37795   -3757.6705    -3239.405   -3757.6705            0    13663.064    16.721512    19.695733    20.400206    6718.6534    13984.158    14138.571    12866.461    1918.5674    2215.2818   -947.01326   -1900.6343 
18447000     296.9924   -3736.2534   -3227.2186   -3736.2534            0    16154.266    16.719107    19.692899    20.397271    6715.7541    16605.984    14825.048    17031.766   -243.70269    1561.7493    -836.4706   -1645.0313 
18448000      300.573   -3733.0369   -3217.8651   -3733.0369            0    14406.895    16.718675    19.692391    20.396744    6715.2339    15659.404    12900.705    14660.575    343.29468   -737.42623    257.74021   -1806.9288 
18449000    309.81531   -3732.6048    -3201.592   -3732.6048            0    18502.047    16.670206      19.6353    20.337612    6656.9984    20136.144    17214.661    18155.338    593.30686    192.94702    1544.0012   -1405.3116 
18450000    291.83469   -3741.4999   -3241.3052   -3741.4999            0    13807.972    16.723371    19.697922    20.402473     6720.894    14710.286    13547.845    13165.785    -2.352426    207.22894    668.90677   -1887.8844 
18451000     280.9261   -3717.9966   -3236.4989   -3717.9966            0    13693.373    16.740259    19.717814    20.423077    6741.2765    14750.527    15110.561    11219.032    1391.3071    953.84858   -247.41042   -1890.2404 
18452000    290.90472   -3716.9863   -3218.3856   -3716.9863            0     13177.07    16.756395     19.73682    20.442763    6760.7886    12352.927    13473.913    13704.372    265.24279    2709.7041    -1419.618   -1919.1374 
18453000    293.09072   -3746.2675   -3243.9201   -3746.2675            0    12948.014     16.69943    19.669723    20.373266    6692.0713    13502.839    13547.308    11793.894    104.11314    1060.5234    977.54785   -1980.2328 
18454000    283.40774   -3754.7591   -3269.0079   -3754.7591            0    13774.242    16.730068    19.705811    20.410644    6728.9723    12051.715    13391.199    15879.813    2397.7771   -640.52364   -443.74913   -1917.2704 
18455000    293.48181   -3767.1508    -3264.133   -3767.1508            0    14809.428    16.674552    19.640419    20.342914    6662.2066    14892.616    13112.651    16423.016    360.05809    1696.9009   -1608.3183   -1825.2275 
18456000    293.94907   -3766.3291   -3262.5104   -3766.3291            0     12326.91    16.717411    19.690902    20.395202    6713.7107    10993.092    13852.644    12134.994    870.96065    454.00065   -93.760608   -2055.5508 
18457000    283.14041   -3746.9001   -3261.6071   -3746.9001            0    12831.871    16.715718    19.688908    20.393137    6711.6717    11436.746    13216.468    13842.399    138.91445   -1003.0993    260.65022    -2005.587 
18458000    305.95908   -3762.3462   -3237.9428   -3762.3462            0    13422.658    16.680629    19.647578    20.350328    6669.4935    11076.732    12712.367    16478.876    710.22632    319.77736   -434.56054   -1932.3514 
18459000    285.63388   -3745.1939   -3255.6272   -3745.1939            0    14436.957    16.713652    19.686475    20.390617    6709.1836    14591.533    13238.552    15480.788    2006.4729    750.95556   -480.42341   -1843.0206 
18460000    301.24228    -3737.917    -3221.598    -3737.917            0    15652.966    16.688985     19.65742    20.360523    6679.5218    15917.386     15753.29    15288.221    534.12314    593.17817    173.39737   -1696.7805 
18461000    300.56521   -3764.5882   -3249.4297   -3764.5882            0    14424.951    16.705454    19.676818    20.380615    6699.3158     16061.28    15407.294    11806.278   -991.91804     231.2554   -1891.4949   -1840.0738 
18462000    303.88799   -3774.0005   -3253.1469   -3774.0005            0    14364.624    16.708199    19.680052    20.383964    6702.6191    13448.684    15177.159     14468.03   -1229.3202   -164.72002    787.02963    -1848.993 
18463000    312.79468   -3731.0306   -3194.9112   -3731.0306            0    15410.847    16.698225    19.668303    20.371796    6690.6224    16334.259    12152.651    17745.632   -1222.5216    1292.4254   -2500.1993   -1691.1845 
18464000    301.37574   -3756.1248   -3239.5771   -3756.1248            0    15443.169     16.68093    19.647932    20.350696    6669.8549    13861.091    16703.655     15764.76    1429.4925    455.68093   -248.03926   -1737.3739 
18465000    286.81952   -3768.7458    -3277.147   -3768.7458            0     15693.28    16.649871    19.611349    20.312804    6632.6678    17936.925    14774.024    14368.893   -658.89861   -401.18429    1812.7832   -1759.1257 
18466000    303.12105   -3766.9231    -3247.384   -3766.9231            0    13282.032    16.714695    19.687703    20.391889    6710.4396    13731.967    14183.873    11930.255    323.59599   -364.29985    730.77779   -1947.5395 
18467000     298.8233     -3768.19   -3256.0171     -3768.19            0     15058.27    16.669597    19.634584     20.33687    6656.2698    14272.182    15319.372    15583.257   -1056.8667    899.07214    970.73776   -1794.2375 
18468000    294.73155   -3727.8393   -3222.6795   -3727.8393            0    14106.043    16.731454    19.707442    20.412334    6730.6437    15433.592    14187.741    12696.796     925.7991   -1702.1889   -281.27441   -1838.0368 
18469000    306.22497   -3764.6422   -3239.7831   -3764.6422            0    16220.598    16.724685     19.69947    20.404077    6722.4788    19058.011    13901.462    15702.321   -183.55518   -692.73965   -972.47597   -1649.5083 
18470000    293.88066   -3766.4341   -3262.7327   -3766.4341            0     15347.57    16.676891    19.643174    20.345768    6665.0104    15427.603    16199.358    14415.749   -762.08964    -309.1586    1796.4925   -1770.9131 
18471000    307.41692      -3768.1   -3241.1979      -3768.1            0    15733.151    16.700652    19.671162    20.374756    6693.5397    16634.227    15600.958    14964.267    1646.9036   -189.43655    1171.8125   -1705.3527 
18472000    287.82502   -3745.3673   -3252.0451   -3745.3673            0    13412.046     16.68219    19.649416    20.352232    6671.3658    12566.943    13647.961    14021.232     586.3816   -1559.9819    7.8696592   -1947.1198 
18473000    294.73917   -3772.7745   -3267.6016   -3772.7745            0    13756.765     16.70312    19.674069    20.377767    6696.5077    13001.117    15235.732    13033.445    75.669207   -1666.4903     1186.495   -1924.0927 
18474000    290.57153   -3736.7561   -3238.7264   -3736.7561            0    14790.824    16.674237    19.640048     20.34253    6661.8287    13485.509    17503.637    13383.325     -872.503    1348.1601   -1281.1078   -1801.7101 
18475000    295.23108   -3770.7755   -3264.7595   -3770.7755            0    15992.607    16.657861     19.62076    20.322551    6642.2202    14998.453    17628.414    15350.954    14.720279    -1416.892    275.00485   -1715.5562 
18476000     295.3672   -3723.4499   -3217.2006   -3723.4499            0    14142.117    16.743351    19.721456    20.426849    6745.0122    14936.383    12916.427     14573.54    360.64872   -187.36134    931.59014   -1826.0535 
18477000    305.43853   -3684.1615   -3160.6504   -3684.1615            0    13004.014    16.793351    19.780349    20.487849    6805.6196    13054.162    12084.623    13873.257     80.32107    1220.9036   -737.10031   -1869.9632 
18478000     301.5272   -3746.7509   -3229.9436   -3746.7509            0    12434.784    16.776897    19.760969    20.467776    6785.6356    13743.958    13680.138    9880.2562    2818.7867    1089.2197   -216.28402   -1999.3782 
18479000    297.75405   -3730.0253    -3219.685   -3730.0253            0    13698.213     16.71225    19.684823    20.388906    6707.4953    14987.247    12376.133    13731.258    795.58437   -721.76829    355.80227   -1879.6993 
18480000    306.32533   -3712.6349   -3187.6038   -3712.6349            0    14220.058    16.738016    19.715172    20.420341    6738.5671    11969.621    15551.489    15139.065    101.54205    -914.3819    2728.2431   -1790.1263 
18481000     290.8338   -3710.6936   -3212.2144   -3710.6936            0    15580.554    16.723628    19.698225    20.402787    6721.2043    15219.071    15781.624    15740.968    714.02073    179.23639    -1541.758   -1684.9793 
18482000    296.03461   -3712.3315   -3204.9383   -3712.3315            0    16594.773    16.722751    19.697192    20.401717    6720.1466    13967.668     19556.69    16259.962    1012.7032    418.48669   -179.40674   -1578.5436 
18483000    286.62594   -3749.8029   -3258.5359   -3749.8029            0    13793.152    16.768075    19.750578    20.457012    6774.9363     12819.27    13796.435    14763.752   -2091.8284    1422.3314   -917.80432   -1895.6966 
18484000    300.42424   -3733.6604   -3218.7435   -3733.6604            0    14127.819    16.710497    19.682758    20.386767    6705.3846    13971.506    16438.895    11973.055    1893.8605   -1436.6527    -1648.587   -1837.1678 
18485000    275.61565   -3746.5304   -3274.1346   -3746.5304            0    14427.967    16.683712    19.651209     20.35409    6673.1923    14340.506    14888.203    14055.193    437.83719    985.15206   -1060.4124   -1869.9808 
18486000    286.85311   -3723.4706   -3231.8142   -3723.4706            0    14098.437    16.701901    19.672633     20.37628    6695.0415    12251.441    14734.774    15309.096    1774.6708   -1124.3224    -528.4911   -1855.2384 
18487000    303.17145   -3759.5642   -3239.9387   -3759.5642            0    15550.998    16.675352    19.641362     20.34389    6663.1658     15438.88    16017.729    15196.384   -695.47364    726.13227   -897.19252   -1728.7637 
18488000    307.93104   -3747.9222    -3220.139   -3747.9222            0    15162.457    16.681299    19.648367    20.351146    6670.2971    18156.472     14653.95    12676.949   -19.599016   -164.30775   -1034.7738   -1745.1436 
18489000    304.85514   -3746.5094   -3223.9981   -3746.5094            0    14596.285    16.685223    19.652989    20.355933    6675.0056     15699.85    13397.511    14691.495    384.95513    1844.3815    963.60705   -1803.0774 
18490000    290.52887    -3700.079   -3202.1225    -3700.079            0    14709.406    16.699635    19.669964    20.373516    6692.3172    14180.636    15035.133     14912.45   -1621.4204    724.11118    672.31954   -1766.4759 
18491000     276.5379   -3740.2626   -3266.2861   -3740.2626            0    13846.176    16.729967    19.705691     20.41052    6728.8493    13833.091    13869.585    13835.852    962.53986   -1323.8754   -711.53589   -1907.5143 
18492000    294.73576   -3697.2036   -3192.0366   -3697.2036            0     15312.95    16.719419    19.693267    20.397652      6716.13    15603.223    12224.536    18111.092    403.06778    403.97373    476.17928   -1692.1657 
18493000    302.97235   -3708.5407   -3189.2565   -3708.5407            0    14892.556    16.715909    19.689133     20.39337    6711.9021    14531.962    14466.876    15678.831    361.79153   -362.96653     244.8756   -1731.4806 
18494000    294.39675   -3731.2038   -3226.6179   -3731.2038            0    16077.297    16.702589    19.673443    20.377119    6695.8693    16173.806    17476.395    14581.691   -400.33993    559.33434    764.88128   -1656.6314 
18495000    296.67538   -3705.0152   -3196.5238   -3705.0152            0    14958.583    16.760137    19.741227    20.447328    6765.3188    14668.161    14056.129    16151.459    1736.0211    223.56176    577.68121   -1720.6317 
18496000    287.39601   -3709.5807   -3216.9937   -3709.5807            0    14139.822    16.702138    19.672913     20.37657    6695.3273    15694.479    12355.373    14369.614   -441.57155     193.5192    438.43553   -1836.3182 
18497000       314.04   -3774.7911   -3236.5373   -3774.7911            0    17721.164    16.663904    19.627878    20.329924     6649.452    16523.486    18790.473    17849.534    713.94983    -213.1874   -227.69703   -1518.0196 
18498000    299.39906   -3703.2799   -3190.1201   -3703.2799            0    14852.628     16.67576    19.641842    20.344388    6663.6543    12647.682    16977.257    14932.944    1441.5545   -563.27923    576.21362   -1746.7037 
18499000    289.15044   -3759.3409    -3263.747   -3759.3409            0    12303.635     16.69131    19.660159     20.36336    6682.3142    12817.292     12064.47    12029.143    -1724.158    1919.8945    514.97906   -2064.6999 
18500000     290.4224   -3692.0525   -3194.2784   -3692.0525            0    14175.316    16.717107    19.690544    20.394832    6713.3454     13495.14     15058.33    13972.478    18.381509    253.49172     2386.034   -1806.4122 
Loop time of 508.503 on 64 procs for 250000 steps with 864 atoms

Performance: 84.955 ns/day, 0.283 hours/ns, 491.639 timesteps/s
99.0% CPU use with 64 MPI tasks x 1 OpenMP threads

MPI task timing breakdown:
Section |  min time  |  avg time  |  max time  |%varavg| %total
---------------------------------------------------------------
Pair    | 22.858     | 28.325     | 34.291     |  47.4 |  5.57
Bond    | 0.27592    | 0.28472    | 0.30643    |   1.2 |  0.06
Kspace  | 209.7      | 223.15     | 240.52     |  42.5 | 43.88
Neigh   | 6.7713     | 8.2301     | 10.868     |  39.0 |  1.62
Comm    | 105.14     | 123.15     | 133.86     |  66.3 | 24.22
Output  | 1.355      | 1.3587     | 1.3729     |   0.5 |  0.27
Modify  | 118.16     | 119.56     | 121.66     |   8.1 | 23.51
Other   |            | 4.443      |            |       |  0.87

Nlocal:        13.5000 ave          20 max           9 min
Histogram: 4 9 9 11 12 4 11 3 0 1
Nghost:        2345.50 ave        2390 max        2312 min
Histogram: 5 9 6 10 11 9 5 4 4 1
Neighs:        4591.17 ave        7211 max        2659 min
Histogram: 2 5 11 10 16 11 4 3 1 1

Total # of neighbors = 293835
Ave neighs/atom = 340.08681
Ave special neighs/atom = 2.0000000
Neighbor list builds = 17143
Dangerous builds = 2

unfix		3
unfix		2
unfix		1

write_data	data.final.${pid}
write_data	data.final.0
System init for write_data ...
PPPM initialization ...
  extracting TIP4P info from pair style
  using 12-bit tables for long-range coulomb (../kspace.cpp:340)
  G vector (1/distance) = 0.37552017
  grid = 24 24 24
  stencil order = 5
  estimated absolute RMS force accuracy = 0.0030203367
  estimated relative force accuracy = 9.0956544e-06
  using double precision FFTW3
  3d grid and FFT values/proc = 2535 216
Last active /omp style is kspace_style pppm/tip4p/omp
WARNING: Not all mixed pair coeffs generated from mixing. Use write_data with 'pair ij' option to store all pair coeffs. (../write_data.cpp:312)

write_restart   restart.lmp.${pid}
write_restart   restart.lmp.0
System init for write_restart ...
PPPM initialization ...
  extracting TIP4P info from pair style
  using 12-bit tables for long-range coulomb (../kspace.cpp:340)
  G vector (1/distance) = 0.37552017
  grid = 24 24 24
  stencil order = 5
  estimated absolute RMS force accuracy = 0.0030203367
  estimated relative force accuracy = 9.0956544e-06
  using double precision FFTW3
  3d grid and FFT values/proc = 2535 216
Last active /omp style is kspace_style pppm/tip4p/omp
Total wall time: 0:08:31
