LAMMPS data file via write_data, version 30 Jul 2021, timestep = 2250000

864 atoms
2 atom types
576 bonds
1 bond types
288 angles
1 angle types

0.11434816457505725 18.09322423541925 xlo xhi
0.07577964818270821 23.553398151824148 ylo yhi
-0.041151059096042886 22.254346859096707 zlo zhi

Masses

1 1.00794
2 15.9994

Atoms # full

707 1 1 0.5897 3.6787707402514793 1.8835207542652952 3.62505668557811 0 0 0
706 1 2 -1.1794 3.3419997896278053 1.8650963363209863 2.7292467971883965 0 0 0
136 1 2 -1.1794 5.455860304032273 5.741062423375364 2.4144363542396943 0 0 0
846 1 1 0.5897 7.456617260450772 1.47667937096594 5.09340829179917 0 0 0
3 1 1 0.5897 1.1552365802987428 4.129033469012156 2.3786095848608078 0 0 0
708 1 1 0.5897 2.556791925868368 2.4117414706109552 2.7568056837837984 0 0 0
29 1 1 0.5897 4.916908380139252 2.618158634180432 2.0691091127151333 0 0 0
28 1 2 -1.1794 5.670433966102885 3.018063752080249 1.6350622691589134 0 0 0
1 1 2 -1.1794 1.0699553097011107 3.193333707828446 2.195682109431155 0 0 0
494 1 1 0.5897 6.806223850650698 2.2269548929452907 2.6265727057371344 0 0 0
30 1 1 0.5897 5.533207883700485 3.960073014311825 1.7354416192659277 0 0 0
493 1 2 -1.1794 7.361257597551286 1.7001474812353485 3.201542785027448 0 0 0
495 1 1 0.5897 8.239825262897405 2.0610335692597737 3.083425704988866 0 0 0
137 1 1 0.5897 5.363219195147855 5.480250137334129 3.3307556886956426 0 0 0
685 1 2 -1.1794 5.587215673117967 5.513063344167928 5.192967575548907 0 0 0
2 1 1 0.5897 0.3677406138234532 2.8984984474206565 2.77542177947215 0 0 0
20 1 1 0.5897 0.8709744027857366 2.966378981133383 0.28651470528568995 0 0 0
188 1 1 0.5897 3.0986571587193055 0.11007036184170008 2.497030969001338 0 1 0
487 1 2 -1.1794 3.24983580300939 2.14713200851547 5.508330082807352 0 0 0
785 1 1 0.5897 0.8033328840442446 3.5113009911269932 7.670023451456178 0 0 0
84 1 1 0.5897 6.03786406553124 2.7051135280689116 6.27910916672628 0 0 0
36 1 1 0.5897 1.2527952662231627 2.5850597326304556 9.595202628402753 0 0 0
83 1 1 0.5897 4.543451193098692 2.8790529000511818 6.446441872662868 0 0 0
355 1 2 -1.1794 7.312477800645352 1.5780763495451835 10.643362570770067 0 0 0
845 1 1 0.5897 7.261104318142177 0.7278589957574755 6.3945491585822545 0 0 0
674 1 1 0.5897 3.6817971794689868 2.428934794064867 9.637320180870171 0 0 0
675 1 1 0.5897 2.8605096196592 1.1573057237462783 9.620593585403745 0 0 0
356 1 1 0.5897 7.301565060302206 0.6831123002724648 10.303949056223901 0 0 0
673 1 2 -1.1794 2.877457750847589 2.04278631592279 9.983780706056594 0 0 0
274 1 2 -1.1794 5.459373165598091 3.273313198767118 9.619372840151781 0 0 0
678 1 1 0.5897 5.0268513417462195 4.977461730089174 10.260921368947118 0 0 0
419 1 1 0.5897 8.815442619993188 2.6632092267873713 6.592217769297101 0 0 0
784 1 2 -1.1794 0.9303577254983697 3.255037894920371 6.7565506780555875 0 0 0
82 1 2 -1.1794 5.382354351201482 3.278677478205286 6.675970348182446 0 0 0
676 1 2 -1.1794 5.065845932808193 5.8561458884331214 10.63870141005557 0 0 0
276 1 1 0.5897 6.190061322414261 2.715131817402198 9.88524442376559 0 0 0
488 1 1 0.5897 2.476586631588104 2.6369067213642103 5.7881904056936095 0 0 0
275 1 1 0.5897 5.523179343312409 3.3139213242157686 8.665160512715223 0 0 0
686 1 1 0.5897 5.574435838550297 4.713243033590706 5.718703220746074 0 0 0
35 1 1 0.5897 0.4867748807259767 3.859775269039093 9.87845680302645 0 0 0
34 1 2 -1.1794 0.395078056904895 2.9940467970305837 9.480458813616522 0 0 0
786 1 1 0.5897 0.29271908933833957 2.5558673378858665 6.612527217240666 0 0 0
489 1 1 0.5897 3.2274318958611508 1.3447380464973624 6.029793023927225 0 0 0
176 1 1 0.5897 8.807102204848864 2.2932382466999894 9.925640595496855 0 0 0
183 1 1 0.5897 0.3978067777958444 5.075937693179673 6.1222099867377375 0 0 0
112 1 2 -1.1794 0.3668691754831827 5.589117714678413 10.23086148105937 0 0 0
844 1 2 -1.1794 7.42956797822032 1.6017292465496893 6.042057808223883 0 0 0
166 1 2 -1.1794 3.28064171821373 1.7831073594823625 12.746260828267143 0 0 0
167 1 1 0.5897 3.104760511378831 1.8361816844381096 11.80684308864418 0 0 0
71 1 1 0.5897 5.508514551806677 3.3840284785640136 16.059575474514233 0 0 0
459 1 1 0.5897 5.0315247006382675 2.4423057440638254 13.705518068496545 0 0 0
168 1 1 0.5897 2.5809665642649944 2.2959284920219716 13.150783252044286 0 0 0
593 1 1 0.5897 8.24419719980098 0.7283300184993452 13.544859605449798 0 0 0
762 1 1 0.5897 5.30841170360007 4.526719091973947 13.635223694115002 0 0 0
592 1 2 -1.1794 8.284454899780865 1.613564270350784 13.182912850480445 0 0 0
458 1 1 0.5897 6.54284141880781 2.5279351896481232 13.705273031710512 0 0 0
365 1 1 0.5897 0.9311181260298288 4.97971674128668 13.244786461164153 0 0 0
457 1 2 -1.1794 5.762723193331017 2.918136389368018 14.099315031719 0 0 0
594 1 1 0.5897 8.967049339223205 2.050301677066537 13.692291160566294 0 0 0
113 1 1 0.5897 0.5480508781907729 5.628726048394248 11.169940262390096 0 0 0
468 1 1 0.5897 1.4499901776902855 3.0032864121184666 14.737912077706003 0 0 0
466 1 2 -1.1794 1.2916952040646432 3.2729539089652206 13.833197084810934 0 0 0
761 1 1 0.5897 4.960607575021238 5.371717260767062 12.428187356993012 0 0 0
364 1 2 -1.1794 0.883988282369478 5.873914182910916 12.906471493099238 0 0 0
737 1 1 0.5897 3.0971365204183208 0.2760137532553487 13.485572218779902 0 1 0
467 1 1 0.5897 0.40433435066222484 2.968288105961657 13.643795406235967 0 0 0
357 1 1 0.5897 7.705913957787869 1.5003364981714387 11.512483881656722 0 0 0
760 1 2 -1.1794 5.136693516624226 5.4294820794547665 13.36728176299827 0 0 0
133 1 2 -1.1794 1.1989395459295629 3.0161646103437048 16.54981416603809 0 0 0
668 1 1 0.5897 5.688436862003364 3.1246013406282933 22.126626258010525 0 0 -1
669 1 1 0.5897 4.9793349817348345 2.62922942560624 20.884198782811588 0 0 0
646 1 2 -1.1794 0.6707085825169611 5.5332478989560565 20.504838924989322 0 0 0
72 1 1 0.5897 4.7776645788122245 2.7984611933474195 17.249020477003583 0 0 0
41 1 1 0.5897 7.406506358331736 2.3273103096519137 20.779533725870344 0 0 0
569 1 1 0.5897 3.0176485011175997 2.4667944733564457 20.903748005665186 0 0 0
570 1 1 0.5897 3.182800658231191 1.8872880548417592 19.514913117559516 0 0 0
568 1 2 -1.1794 3.5533901454312358 1.8566111415907782 20.396929197151685 0 0 0
70 1 2 -1.1794 5.5250883480387305 3.3490842881571488 17.01600272356184 0 0 0
667 1 2 -1.1794 5.643752733939088 3.252018514157037 21.178993612357303 0 0 0
291 1 1 0.5897 2.424794099078992 2.145078627193113 17.368424615066253 0 0 0
756 1 1 0.5897 7.061450381330356 2.3855855499918115 17.249713484739296 0 0 0
42 1 1 0.5897 8.00087209517147 0.9418911950620096 20.918254355682635 0 0 0
278 1 1 0.5897 5.194198728260623 5.130801549589349 17.79690374880726 0 0 0
143 1 1 0.5897 5.302116914169716 5.1680534896627845 20.909953222653847 0 0 0
21 1 1 0.5897 0.9756234322149914 3.90648240700112 21.399984009616475 0 0 0
19 1 2 -1.1794 1.0828698685296412 2.988417866579946 21.64882327298919 0 0 0
290 1 1 0.5897 2.925077521109478 0.7272740025075036 17.54582447794182 0 0 0
754 1 2 -1.1794 7.767295185949448 1.787349194769021 17.494738184992954 0 0 0
40 1 2 -1.1794 8.140781082837359 1.786177172837946 20.489450444917736 0 0 0
755 1 1 0.5897 7.748931963537314 1.773631656735578 18.451669831011706 0 0 0
289 1 2 -1.1794 3.1136823893609766 1.6329128483372752 17.791818024990945 0 0 0
81 1 1 0.5897 3.146420269846428 0.22801550976007218 21.3493627693286 0 1 0
134 1 1 0.5897 1.197817147407843 3.9187285326573096 16.86863000472362 0 0 0
571 1 2 -1.1794 1.2523144375173978 5.805876867013305 17.564344510109095 0 0 0
648 1 1 0.5897 0.820508078490245 5.391138568064655 19.57017417420726 0 0 0
135 1 1 0.5897 0.4034079080385666 2.6309379501015475 16.917010180989315 0 0 0
416 1 1 0.5897 6.884330588991619 6.870237651667652 2.34260775965336 0 0 0
123 1 1 0.5897 3.4843480063317243 9.04430841886072 2.52190280993461 0 0 0
121 1 2 -1.1794 3.429178390678331 9.98696825892687 2.6788266054538 0 0 0
122 1 1 0.5897 3.253968403125381 10.064280638166702 3.616680043626965 0 0 0
138 1 1 0.5897 4.656334651921302 6.230922231843228 2.222308566859119 0 0 0
217 1 2 -1.1794 5.355087927579606 11.170753456974813 1.1980642213359844 0 0 0
253 1 2 -1.1794 3.299217273568542 7.236644348725664 2.025088515131553 0 0 0
44 1 1 0.5897 1.6779970149388745 10.381646760287317 2.3308354725393094 0 0 0
219 1 1 0.5897 4.732810912983933 10.722834398956419 1.7710420060564678 0 0 0
396 1 1 0.5897 0.5011230974107695 10.921537895138247 0.11505211704812968 0 0 0
218 1 1 0.5897 6.214770461797596 10.890865814486162 1.5122077425799292 0 0 0
254 1 1 0.5897 3.044861931499725 7.1787001007017075 1.1040861341768833 0 0 0
66 1 1 0.5897 7.1988482724226595 9.845410301927298 3.814061623071945 0 0 0
65 1 1 0.5897 7.502388852219972 9.092914339886129 2.5359335804618786 0 0 0
64 1 2 -1.1794 7.144568014987812 9.919005430509232 2.8612317678393153 0 0 0
415 1 2 -1.1794 7.725159519744834 7.304544910992317 2.1995193164747766 0 0 0
43 1 2 -1.1794 0.8216362414063574 10.571009587348415 1.947595136825735 0 0 0
255 1 1 0.5897 2.582141711172247 6.815538810101676 2.499050721956852 0 0 0
417 1 1 0.5897 8.365283101327565 6.734032742363204 2.6248680679398477 0 0 0
773 1 1 0.5897 8.786336167897892 10.768345321274687 2.3098354103413463 0 0 0
793 1 2 -1.1794 2.851578942268216 9.967198233816154 5.308934407161152 0 0 0
45 1 1 0.5897 0.625352925600193 11.464781567680598 2.2284895817290242 0 0 0
162 1 1 0.5897 7.343657057679096 7.486889876984307 0.05062441418687885 0 0 1
595 1 2 -1.1794 1.0281744594646183 6.145978069524211 2.997406291971282 0 0 0
597 1 1 0.5897 0.7825966739425487 6.093174058616254 3.921064114953327 0 0 0
596 1 1 0.5897 0.19789417161403863 6.089053266768959 2.524640164528844 1 0 0
257 1 1 0.5897 2.5029622194970726 8.699707775534208 9.674522855428075 0 0 0
146 1 1 0.5897 6.890796707118417 6.373888795164503 6.1052918556658735 0 0 0
712 1 2 -1.1794 7.613024986308872 9.676883414799336 5.621015669070763 0 0 0
577 1 2 -1.1794 5.118870583697336 10.786727954151921 6.679933600404176 0 0 0
580 1 2 -1.1794 5.096595604362314 10.430927047317578 9.631574838078329 0 0 0
578 1 1 0.5897 5.919995335555017 10.374358089090766 6.357032047206026 0 0 0
258 1 1 0.5897 3.3535847140739854 9.9304735590867 9.905833967615067 0 0 0
15 1 1 0.5897 1.0410306189657097 10.665809497107656 9.470163213108693 0 0 0
551 1 1 0.5897 0.5574026214991412 10.96004291454811 7.273488324227795 0 0 0
795 1 1 0.5897 3.626322745942789 10.19254165380626 5.823826220710736 0 0 0
794 1 1 0.5897 2.156057078559546 10.517649160218152 5.668681547319513 0 0 0
649 1 2 -1.1794 2.811756750113493 7.003237506126143 9.248983046230002 0 0 0
822 1 1 0.5897 8.191692374603756 10.136685731325036 10.451835713319337 0 0 0
820 1 2 -1.1794 7.493060589095626 9.488764456653856 10.542775142291823 0 0 0
581 1 1 0.5897 5.924281933336856 10.067319055425116 9.945966812622633 0 0 0
714 1 1 0.5897 7.628541447926087 8.818820690655379 6.044989349887031 0 0 0
147 1 1 0.5897 7.532648041068222 6.9383958198163675 7.354762836933549 0 0 0
13 1 2 -1.1794 0.344022857668724 11.152372527374572 9.030189984751422 0 0 0
677 1 1 0.5897 5.8766209700378464 6.229963306942601 10.293709712092868 0 0 0
256 1 2 -1.1794 2.473077763165186 9.581916432026148 10.04479103393856 0 0 0
650 1 1 0.5897 2.8631984041515133 6.994405114438663 8.293189163865609 0 0 0
526 1 2 -1.1794 7.277410688307947 6.902144700621443 9.344343909242747 0 0 0
582 1 1 0.5897 5.087429115575539 10.232180119981523 8.695265798609467 0 0 0
145 1 2 -1.1794 7.460285402323423 7.079931465567642 6.4108545351889985 0 0 0
651 1 1 0.5897 3.63819367240367 6.616013349780256 9.537402404139232 0 0 0
12 1 1 0.5897 2.8744580367371553 7.974050978458105 6.171067674156286 0 0 0
527 1 1 0.5897 7.386440836135419 7.830982487671611 9.548414425154505 0 0 0
550 1 2 -1.1794 0.47082338481980496 10.917122261153667 6.32117852575317 0 0 0
10 1 2 -1.1794 2.802484151502446 7.123418719999001 6.604091340702054 0 0 0
579 1 1 0.5897 5.150131765189257 11.677617677933545 6.33120255221663 0 0 0
528 1 1 0.5897 7.965510063880554 6.464016690874654 9.845044158654739 0 0 0
11 1 1 0.5897 1.9926967421849222 6.746697595197766 6.259961907172277 0 0 0
114 1 1 0.5897 1.0567283256369024 6.118467932408317 9.830814643780469 0 0 0
713 1 1 0.5897 8.362418957748936 10.141908671642474 5.992876268649517 0 0 0
181 1 2 -1.1794 0.38359947441156866 5.984960008298534 5.822639682361387 0 0 0
687 1 1 0.5897 4.949184446655539 6.08812378398992 5.6153415939142715 0 0 0
476 1 1 0.5897 7.0032709335708985 9.783545292899415 13.451872517241904 0 0 0
332 1 1 0.5897 3.171902983232618 7.796776027820938 13.619944692608888 0 0 0
797 1 1 0.5897 2.734925911785959 9.334753554038082 11.978985615517013 0 0 0
796 1 2 -1.1794 3.058596343226392 9.371431698917018 12.879042537507182 0 0 0
798 1 1 0.5897 2.417630645903975 9.910141711888414 13.342857810987608 0 0 0
723 1 1 0.5897 5.118974971750375 10.605072041155573 14.76487085974704 0 0 0
828 1 1 0.5897 7.603334761847972 6.347763879485333 14.996070624823671 0 0 0
331 1 2 -1.1794 3.0421172085139014 6.957866877608399 14.06227372061721 0 0 0
477 1 1 0.5897 7.715846145545798 8.454142735851283 13.581448888714554 0 0 0
826 1 2 -1.1794 7.502177553996738 6.650443239012772 14.09363561021377 0 0 0
225 1 1 0.5897 3.064524594884053 7.47320024667467 15.814152274339033 0 0 0
721 1 2 -1.1794 5.363490815322697 10.365166027315695 13.871064495107584 0 0 0
722 1 1 0.5897 4.531138040052537 10.182041494216454 13.435455600181205 0 0 0
333 1 1 0.5897 3.8736931109921113 6.497038072796649 13.951663749601046 0 0 0
261 1 1 0.5897 0.7842005184888133 11.124504135846028 14.86148859841356 0 0 0
259 1 2 -1.1794 1.0425619555741144 10.781508711388593 14.006013100943463 0 0 0
475 1 2 -1.1794 7.8070295848439635 9.328047568836832 13.201660106250571 0 0 0
821 1 1 0.5897 7.585576004285047 9.159926377133154 11.436951216455785 0 0 0
366 1 1 0.5897 1.6454891955252602 6.313875993430133 13.284185955972514 0 0 0
827 1 1 0.5897 6.741119994284445 6.172585018504555 13.764147748740118 0 0 0
679 1 2 -1.1794 4.590902022456567 11.060458942286239 16.414903793286975 0 0 0
260 1 1 0.5897 0.2736138259392423 10.302391190471413 13.697284496624198 0 0 0
445 1 2 -1.1794 0.23322490401904974 11.239676836689528 16.64373890082385 0 0 0
689 1 1 0.5897 3.2001221812836773 10.218818267559497 20.6222017591721 0 0 0
572 1 1 0.5897 1.9826851026843824 6.343495857427857 17.25824994210464 0 0 0
626 1 1 0.5897 2.3683517355390817 9.978497503485 18.705612884290048 0 0 0
6 1 1 0.5897 2.6777965581459604 7.926935739937498 21.18453603282824 0 0 0
361 1 2 -1.1794 4.770868585271572 11.275853844298814 20.70668318977235 0 0 0
246 1 1 0.5897 8.599026260471614 10.825302438669574 16.94144477983351 0 0 0
5 1 1 0.5897 3.6450292278873313 6.764051002600491 21.24764384761653 0 0 0
690 1 1 0.5897 1.7029938616041422 10.257828733217332 20.842473986576067 0 0 0
224 1 1 0.5897 2.972647256971986 8.352613576509286 17.043040345040048 0 0 0
688 1 2 -1.1794 2.392882735614892 9.745672876479722 20.420687150056274 0 0 0
7 1 2 -1.1794 7.2687972939688414 9.600351297392594 17.079167185527673 0 0 0
9 1 1 0.5897 6.524652138489966 10.120943265008394 16.776868277662672 0 0 0
277 1 2 -1.1794 5.20741197516095 6.004967946535095 18.18669286673601 0 0 0
140 1 1 0.5897 6.419258032183968 10.008965904895675 20.375769441537187 0 0 0
160 1 2 -1.1794 7.542725647220958 7.354450124888762 21.419226441215137 0 0 0
287 1 1 0.5897 8.54300774613374 10.232383836464695 20.879685545040623 0 0 0
394 1 2 -1.1794 0.2720928494933885 11.2165912643421 21.52923134133281 0 0 0
4 1 2 -1.1794 2.80026907805334 7.064922131049148 21.58227729296825 0 0 0
627 1 1 0.5897 1.5267212715452498 10.275459606171891 17.48281071616892 0 0 0
625 1 2 -1.1794 2.3606579459677866 9.890836254285036 17.752449274180393 0 0 0
522 1 1 0.5897 7.673602217157834 7.760891315960037 16.821463272672027 0 0 0
161 1 1 0.5897 6.733967188299949 7.001777363413433 21.04812106195498 0 0 0
141 1 1 0.5897 7.292748927689437 8.78969275637447 20.58118842517478 0 0 0
8 1 1 0.5897 7.227824836657996 9.654938633449444 18.033930995476304 0 0 0
139 1 2 -1.1794 7.218416751418634 9.588317643168766 20.058745216644255 0 0 0
680 1 1 0.5897 3.7970175805440523 10.692110440595284 16.802441750683798 0 0 0
279 1 1 0.5897 4.525700626286441 6.486842549888022 17.718493174984722 0 0 0
521 1 1 0.5897 6.812277379683912 6.571794959954692 17.190193623158052 0 0 0
462 1 1 0.5897 9.025585417895945 6.212676628350521 21.36674721274168 0 0 0
520 1 2 -1.1794 7.66612350510612 6.803700865791303 16.82514330207841 0 0 0
223 1 2 -1.1794 3.2010248607277045 7.4666844729158 16.761554324841782 0 0 0
363 1 1 0.5897 4.834424595705996 11.060905032903696 21.637281319219717 0 0 0
573 1 1 0.5897 0.48533166562916014 6.372018433851868 17.478638514725795 0 0 0
144 1 1 0.5897 5.14683144967662 6.251662582851856 19.86417785304355 0 0 0
647 1 1 0.5897 1.3872927207788595 6.105773307502571 20.77844401578681 0 0 0
142 1 2 -1.1794 5.216479388301976 6.116093887912004 20.809171618183306 0 0 0
557 1 1 0.5897 2.1182565799747164 13.941890103523548 2.25350971817061 0 0 0
373 1 2 -1.1794 0.5268469120626764 13.17163251428256 2.744144851935457 0 0 0
293 1 1 0.5897 2.5873435854819506 16.252012718351402 2.678447394939422 0 0 0
558 1 1 0.5897 2.7213354001331918 14.505579164827834 0.9844689340518697 0 0 0
556 1 2 -1.1794 2.8289631582394015 14.498656586892457 1.9355836299797868 0 0 0
200 1 1 0.5897 5.188965542253988 13.111193154948817 4.3395616048805 0 0 0
173 1 1 0.5897 4.58445870960828 13.85683951092567 2.428786637096497 0 0 0
174 1 1 0.5897 5.466473995728427 12.672981658512008 2.093593247150605 0 0 0
374 1 1 0.5897 0.6165821479592294 13.323857790139039 3.6848970250182855 0 0 0
480 1 1 0.5897 6.96838397428555 14.666982758942746 2.1716009056578525 0 0 0
172 1 2 -1.1794 5.49241768785333 13.555889371473587 2.4624623105227386 0 0 0
478 1 2 -1.1794 7.66831761074342 15.30778540082439 2.046630951621426 0 0 0
449 1 1 0.5897 7.322105034056478 16.87675503440238 2.314699399589701 0 0 0
479 1 1 0.5897 8.41727336319852 14.93936583569288 2.5150967054889106 0 0 0
655 1 2 -1.1794 0.6379083245368268 13.542099544504667 5.407023814363525 0 0 0
308 1 1 0.5897 7.500835385864762 17.36591469694376 4.679605651351718 0 0 0
294 1 1 0.5897 2.7311822769907605 17.139620615530255 3.89639049213149 0 0 0
317 1 1 0.5897 7.6652338120482515 15.023503634467351 0.29692738860145546 0 0 0
292 1 2 -1.1794 2.5865786911238033 17.169709823056408 2.9506569161556935 0 0 0
199 1 2 -1.1794 5.09303167139565 13.130406905453642 5.291823080178975 0 0 0
656 1 1 0.5897 1.2290237846829264 13.85967597683484 6.089622428679406 0 0 0
811 1 2 -1.1794 3.2782726337266124 15.061911277720737 9.306997744305757 0 0 0
812 1 1 0.5897 4.090834142044777 14.72785271948537 9.686810755442455 0 0 0
813 1 1 0.5897 2.60924944472348 14.435398231525635 9.582765277390896 0 0 0
17 1 1 0.5897 3.067653954465954 14.718574925674796 7.458892802875354 0 0 0
384 1 1 0.5897 3.129060400384294 16.604055078547276 10.284515301565676 0 0 0
59 1 1 0.5897 8.865050514339982 14.17642683565878 10.271783591766201 0 0 0
201 1 1 0.5897 5.794023521397692 13.708925880925053 5.591964887431254 0 0 0
16 1 2 -1.1794 2.9035198440726155 14.773583167924674 6.517475093375177 0 0 0
517 1 2 -1.1794 7.03635286081447 14.65830856135768 6.573364999100885 0 0 0
454 1 2 -1.1794 5.128568877830689 13.3523595962856 10.40371604970292 0 0 0
456 1 1 0.5897 5.073827754746773 12.417458148186304 10.205584289729371 0 0 0
185 1 1 0.5897 8.08684596312894 17.437140422152623 9.575057869304953 0 0 0
186 1 1 0.5897 7.088124725346526 16.349799916581695 9.909944832158574 0 0 0
552 1 1 0.5897 0.3192590496040201 11.82340132698732 6.052895816324842 0 0 0
376 1 2 -1.1794 7.266051179058507 14.682903696555755 9.358040542772093 0 0 0
378 1 1 0.5897 7.251233130588174 14.538022358286705 8.411982633799362 0 0 0
377 1 1 0.5897 6.4935655807471955 14.22102054566152 9.683685006868284 0 0 0
518 1 1 0.5897 6.906706207821102 15.536866954640436 6.216133029989639 0 0 0
18 1 1 0.5897 3.5495706114837 14.185466047658087 6.126443229307053 0 0 0
519 1 1 0.5897 7.9503387873991125 14.452216828923595 6.377802039638789 0 0 0
239 1 1 0.5897 2.8056525002593444 16.37218138985297 6.0794171131703925 0 0 0
766 1 2 -1.1794 0.8078878489362222 13.793834981682036 9.897282154055796 0 0 0
14 1 1 0.5897 0.44781770397121606 12.05245830153075 9.338961285723904 0 0 0
382 1 2 -1.1794 2.9461207608644417 17.484298282163593 10.613144038321364 0 0 0
238 1 2 -1.1794 2.760589584061362 17.236223288518232 5.6699361571180455 0 0 0
184 1 2 -1.1794 7.2888229415638 17.27080399420683 10.07671566828339 0 0 0
307 1 2 -1.1794 7.462319819743606 17.34590142244995 5.635828394346415 0 0 0
767 1 1 0.5897 0.908834162704471 13.770896652025655 10.848867553918728 0 0 0
309 1 1 0.5897 8.324873323415884 17.650824145453427 5.917164538579284 0 0 0
232 1 2 -1.1794 2.929710414953531 14.488994949230106 13.896617935775517 0 0 0
234 1 1 0.5897 3.1901889888314137 14.450345933018951 14.816882565484498 0 0 0
606 1 1 0.5897 2.877733397907138 16.203443633993928 13.476532541335079 0 0 0
297 1 1 0.5897 8.105701904163329 14.633773744694842 13.790556023300228 0 0 0
639 1 1 0.5897 1.4058241504518165 14.013999446545087 13.2990239441636 0 0 0
233 1 1 0.5897 3.643627311662353 14.058046492693832 13.426790086193462 0 0 0
427 1 2 -1.1794 5.274547177782906 13.240309448131528 13.109332594746181 0 0 0
428 1 1 0.5897 5.247827144852053 12.353783809611512 13.469363441353233 0 0 0
429 1 1 0.5897 6.088195214254761 13.61281858640619 13.448903667363759 0 0 0
637 1 2 -1.1794 0.731609716831106 13.623418795312219 12.743113626344508 0 0 0
295 1 2 -1.1794 7.220443293749178 14.964235571998394 13.942861578426378 0 0 0
270 1 1 0.5897 7.196201041823847 16.737661304826013 13.290478744689352 0 0 0
296 1 1 0.5897 7.187201516721423 15.136680033242707 14.883820761320601 0 0 0
638 1 1 0.5897 0.5280565491590483 12.788015311068522 13.163758921456727 0 0 0
269 1 1 0.5897 7.269622991902961 17.393875068134896 11.92811002650897 0 0 0
605 1 1 0.5897 2.8388630008434497 17.31602592549161 12.450536608618359 0 0 0
268 1 2 -1.1794 7.238287820219129 17.59350094520815 12.86376012239425 0 0 0
455 1 1 0.5897 5.216845343872261 13.391060082376411 11.35607289655515 0 0 0
604 1 2 -1.1794 2.907679544162541 17.15646066136547 13.391834794048968 0 0 0
823 1 2 -1.1794 3.2798002531209542 14.62965499837819 16.65626261636968 0 0 0
316 1 2 -1.1794 7.672758072513783 15.028606307489074 21.635263259111632 0 0 0
683 1 1 0.5897 6.11977723238471 14.331912833847927 21.073879369646804 0 0 0
665 1 1 0.5897 2.187007754924788 14.381245441619665 21.226651079244192 0 0 0
318 1 1 0.5897 7.773920011447382 15.951181186692308 21.400973882514222 0 0 0
664 1 2 -1.1794 2.9571663662357355 14.81766261158192 21.590684883032623 0 0 0
681 1 1 0.5897 4.755387387073292 11.858339749051192 16.917486749674815 0 0 0
666 1 1 0.5897 2.945545719400746 15.691102678631513 21.19923644407794 0 0 0
452 1 1 0.5897 0.35243228161103957 12.974127934716666 20.87089187385623 0 0 0
610 1 2 -1.1794 7.263872713977367 17.64941422452013 17.73300213548871 0 0 0
50 1 1 0.5897 7.04842242077061 15.880352334021019 17.180647249875932 0 0 0
584 1 1 0.5897 2.974057689531204 16.388173353742673 17.137818348067064 0 0 0
126 1 1 0.5897 5.915445075980653 13.665332103134212 17.40213731299164 0 0 0
446 1 1 0.5897 0.6730725715621387 11.984164733248383 17.05420804402172 0 0 0
52 1 2 -1.1794 0.932335872807562 13.7131557053905 17.69890428336339 0 0 0
53 1 1 0.5897 0.8049521761901366 13.685601841446545 18.64719990190133 0 0 0
684 1 1 0.5897 4.612079908758903 14.204947185983757 21.027592424215015 0 0 0
824 1 1 0.5897 4.052734770722259 14.236000914181124 17.060890177461225 0 0 0
124 1 2 -1.1794 5.217287693052926 13.19838111851705 17.86113297850745 0 0 0
125 1 1 0.5897 5.299287457987668 13.479570862041898 18.7724281337089 0 0 0
682 1 2 -1.1794 5.413541279913164 13.85216320580816 20.641195128002643 0 0 0
451 1 2 -1.1794 0.7074409204970971 13.788583318193517 20.51471283067643 0 0 0
117 1 1 0.5897 8.807840410607085 13.844385246311537 20.859835379710837 0 0 0
716 1 1 0.5897 3.3608591090620403 17.362461245972526 19.457527368847522 0 0 0
825 1 1 0.5897 2.542023106886377 14.271675791083204 17.149906353258608 0 0 0
51 1 1 0.5897 7.878600282486694 14.653364923377303 16.868963033620204 0 0 0
362 1 1 0.5897 5.019468317063683 12.198832252473483 20.656036784811526 0 0 0
583 1 2 -1.1794 2.7849752014925713 17.268699177191607 17.4621395984107 0 0 0
49 1 2 -1.1794 6.9942156002789835 15.009872613760802 16.786192415559952 0 0 0
715 1 2 -1.1794 3.2804533529416537 17.38166339745503 20.411164836754317 0 0 0
159 1 1 0.5897 7.485041691188729 17.651973636092116 19.484676591108666 0 0 0
696 1 1 0.5897 1.5701806248040628 21.638868868832375 2.883407452935639 0 0 0
343 1 2 -1.1794 0.8644728588735371 18.667249661102645 1.3705359965407211 0 0 0
345 1 1 0.5897 0.9276661006145297 18.65074986788556 0.415563941986802 0 0 0
249 1 1 0.5897 4.880411087600918 21.311021686823935 5.057729765367612 0 0 0
694 1 2 -1.1794 0.771033355786734 21.17702055676466 3.136712208753175 0 0 0
266 1 1 0.5897 4.240314322659972 21.51160190280556 2.856029348110226 0 0 0
226 1 2 -1.1794 4.704463837543323 18.701135257960374 2.083683436329786 0 0 0
187 1 2 -1.1794 2.9360911791482107 22.703539817343632 2.1682253169660126 0 0 0
228 1 1 0.5897 4.71877305765409 19.554569583379156 2.5169537503026116 0 0 0
818 1 1 0.5897 7.941462353913387 22.281769944778752 2.477260225875495 0 0 0
344 1 1 0.5897 1.7134494418706332 18.344859364204936 1.6728480245773987 0 0 0
817 1 2 -1.1794 7.050810442928965 22.579777960328265 2.292672247908618 0 0 0
189 1 1 0.5897 3.0036247197621377 22.78509179506578 1.2168948803506814 0 0 0
265 1 2 -1.1794 4.953866126589741 21.13274904719347 3.369306196130986 0 0 0
267 1 1 0.5897 5.749482710074263 21.4849995806822 2.9705347614906215 0 0 0
413 1 1 0.5897 0.6689197376626003 21.533451711063535 4.97534948486267 0 0 0
695 1 1 0.5897 0.6467502924291126 20.51937828234258 2.4523821689830467 0 0 0
227 1 1 0.5897 3.9401441249483677 18.257892566375105 2.451765429105293 0 0 0
321 1 1 0.5897 9.083659370640952 18.580266940018056 2.4417779819508376 0 0 0
498 1 1 0.5897 7.487170647584439 22.911414181383655 0.5215602550253425 0 0 0
450 1 1 0.5897 6.389684442337862 18.054533738916696 2.502379083162473 0 0 0
602 1 1 0.5897 5.069829409526575 18.708644911674753 0.08200611036673967 0 0 0
448 1 2 -1.1794 7.25987420062179 17.733047972906185 2.7379714679410174 0 0 0
819 1 1 0.5897 6.995495101180434 23.441394815768298 2.705988233898845 0 -1 0
700 1 2 -1.1794 2.9380459308896127 22.98614509497797 6.8030197190408375 0 0 0
553 1 2 -1.1794 5.035451960754796 21.165746804926115 10.716673861070461 0 0 0
342 1 1 0.5897 0.4709364236076443 18.640115843356746 7.494523189244765 0 0 0
385 1 2 -1.1794 5.008820619149503 18.564459746283802 6.6130612184359405 0 0 0
39 1 1 0.5897 3.322371425956244 21.918245028315546 9.865206398339893 0 0 0
555 1 1 0.5897 5.001255977793942 20.36056026757644 10.200181912161177 0 0 0
86 1 1 0.5897 7.292760604435216 22.583356996031036 8.589334901341752 0 0 0
386 1 1 0.5897 5.709448462944127 18.22890726400697 6.0539040649309985 0 0 0
405 1 1 0.5897 0.7626176105973581 19.914199576471745 9.551213175928678 0 0 0
38 1 1 0.5897 1.831619351853904 22.112387436158862 9.68801359866228 0 0 0
37 1 2 -1.1794 2.6786665005917896 22.4524838783462 9.4000115973604 0 0 0
341 1 1 0.5897 1.4077142727937828 18.297811475199836 6.355655184112656 0 0 0
414 1 1 0.5897 0.8451935409191166 20.484911057635344 6.053075531687253 0 0 0
94 1 2 -1.1794 0.3711502872057573 21.528648922711973 10.536661718927178 0 0 0
33 1 1 0.5897 6.628253447973472 21.914928477800018 6.556456976714273 0 0 0
340 1 2 -1.1794 0.5538243707056634 18.687936888646604 6.542108585779457 0 0 0
31 1 2 -1.1794 7.2938473112925175 22.5136443802469 6.89513256304412 0 0 0
32 1 1 0.5897 8.12634620282864 22.113576621636668 6.6441537313563135 0 0 0
404 1 1 0.5897 1.5161452223163767 18.60122185254871 9.536694478825742 0 0 0
701 1 1 0.5897 2.812050249099163 22.731186935265328 7.717000549737799 0 0 0
87 1 1 0.5897 7.887320937663158 21.751744210252866 9.705927293450605 0 0 0
387 1 1 0.5897 4.938362655011017 19.490215678031667 6.380053329622293 0 0 0
247 1 2 -1.1794 4.86372948921824 21.256328437052836 6.0132213333589055 0 0 0
102 1 1 0.5897 5.072128213588178 18.77381138517181 8.559312681996603 0 0 0
85 1 2 -1.1794 7.244031497302315 22.439449054462052 9.53440173523705 0 0 0
100 1 2 -1.1794 5.148519166418469 18.789057704619516 9.513349014454548 0 0 0
403 1 2 -1.1794 0.7237120531360909 19.022838818694808 9.204423203823714 0 0 0
412 1 2 -1.1794 0.7654046278581753 21.42976566609787 5.922026207257749 0 0 0
554 1 1 0.5897 5.753709824773393 21.66762339627205 10.331494066188307 0 0 0
702 1 1 0.5897 2.1401588555456215 22.696388758429563 6.360842930331722 0 0 0
248 1 1 0.5897 4.1525829398664715 21.84119644782958 6.274695080459002 0 0 0
101 1 1 0.5897 6.0028449534920645 18.39623204684694 9.69198662376452 0 0 0
383 1 1 0.5897 3.711396068368114 17.999546145975977 10.358190619236638 0 0 0
240 1 1 0.5897 3.530951539684911 17.698629962431866 5.999848370204896 0 0 0
504 1 1 0.5897 0.6211563895125211 18.81409947880062 14.85104533243246 0 0 0
381 1 1 0.5897 1.6265966779420153 21.947170787281053 13.278324925999101 0 0 0
787 1 2 -1.1794 8.1658360719065 22.35417428412339 13.871302326748596 0 0 0
765 1 1 0.5897 5.896955574464159 18.08308674992128 13.799938870246388 0 0 0
738 1 1 0.5897 3.8236968736616186 22.469601011571726 13.825030930855887 0 0 0
502 1 2 -1.1794 0.7128691409295453 18.75149121292535 13.900308694545684 0 0 0
474 1 1 0.5897 4.990145826410309 18.993551207860634 15.87434892647135 0 0 0
350 1 1 0.5897 2.6900857210772577 22.569095084807657 15.772509014402381 0 0 0
88 1 2 -1.1794 5.079587328716822 21.31199729202519 13.439487939181268 0 0 0
736 1 2 -1.1794 2.994134270537532 22.927920920661663 13.95870186591533 0 0 0
763 1 2 -1.1794 5.123384005302305 18.57087888075236 14.082368293729965 0 0 0
89 1 1 0.5897 5.2348943770844505 21.23232537575435 12.498327453158149 0 0 0
503 1 1 0.5897 1.4904905540157347 18.20897814109015 13.769444227868613 0 0 0