LAMMPS data file via write_data, version 30 Jul 2021, timestep = 6000000

972 atoms
2 atom types
648 bonds
1 bond types
324 angles
1 angle types

0.051667690458220505 19.948333309546072 xlo xhi
0.03316245384426608 19.966838546157668 ylo yhi
-0.025107382671874845 20.725105382679995 zlo zhi

Masses

1 1.008
2 15.999

Pair Coeffs # lj/cut/tip4p/long/omp

1 0 0
2 0.21084 3.1668

Bond Coeffs # harmonic/omp

1 450 0.9572

Angle Coeffs # harmonic/omp

1 55 104.52

Atoms # full

4 2 2 -1.1794 4.046872167629626 1.3160177949750735 3.173425304961272 0 0 0
17 6 1 0.5897 4.384906444779103 4.614501375448849 2.6933566351211766 0 0 0
5 2 1 0.5897 4.102005674288833 0.6875102589776533 2.4536099507868285 0 0 0
10 4 2 -1.1794 1.395381490027525 3.7031101871649397 3.786923672992717 0 0 0
11 4 1 0.5897 1.254560087941576 2.8867745095821 3.3074099320191066 0 0 0
12 4 1 0.5897 2.345242884485165 3.8224060747467714 3.7840221729261168 0 0 0
16 6 2 -1.1794 4.03984032489284 4.119996069764241 3.43675292152804 0 0 0
18 6 1 0.5897 4.169557569117553 3.202785338786216 3.195782415234384 0 0 0
23 8 1 0.5897 2.655190494188987 1.014006887689901 4.297806367088884 0 0 0
31 11 2 -1.1794 0.9580552246421132 1.834569419049714 1.7498313295695096 0 0 0
33 11 1 0.5897 1.6095089514878065 2.216603319763853 1.1616181773958203 0 0 0
20 7 1 0.5897 1.0304966026392828 4.995746886996874 2.6567246081455025 0 0 0
32 11 1 0.5897 0.11588192741179375 2.061355629020152 1.355214756797734 0 0 0
236 79 1 0.5897 0.9423771381694762 0.09474305720114143 1.6505618743980293 0 1 0
22 8 2 -1.1794 2.146230067146806 0.7209171263739791 5.053683214527818 0 0 0
6 2 1 0.5897 4.728841936168628 1.0399614905985655 3.785840154705604 0 0 0
81 27 1 0.5897 0.11405073043138714 4.1964665910460806 5.0826335654608705 1 0 0
342 114 1 0.5897 4.190591021583507 4.552254558290476 9.61360174921869 0 0 0
27 9 1 0.5897 2.5266001621188403 4.312595187590349 6.562033260297134 0 0 0
325 109 2 -1.1794 2.6561855490597712 2.4672288763230634 7.031792065452655 0 0 0
326 109 1 0.5897 2.4457586300563174 1.9381157722753075 6.262389912849089 0 0 0
327 109 1 0.5897 3.5898911614357694 2.3157921633956233 7.179215229308547 0 0 0
330 110 1 0.5897 4.336114117833891 0.6408998348648135 9.697634033305544 0 0 0
355 119 2 -1.1794 0.8124812123636432 2.0970076462564538 8.970457955583369 0 0 0
356 119 1 0.5897 1.466547515455863 2.2136248668378324 8.281306958711147 0 0 0
328 110 2 -1.1794 4.215036569017788 1.3969541297355221 10.272010127434562 0 0 0
102 34 1 0.5897 0.34702163682785386 0.6480401001599263 5.281255304134794 1 0 0
561 187 1 0.5897 1.0575067703036067 0.3369177192632571 8.823197221413102 0 1 0
341 114 1 0.5897 3.9249251994212795 3.1680821002463557 10.1660881942864 0 0 0
335 112 1 0.5897 1.0475329968336684 3.3701569106307496 10.149671944934514 0 0 0
329 110 1 0.5897 4.8589247239615325 1.2739342102781075 10.969585471207175 0 0 0
683 228 1 0.5897 4.286168239511927 2.709778416061085 14.108341867297082 0 0 0
346 116 2 -1.1794 1.9802313998942596 0.9586112679715366 11.917899708075153 0 0 0
347 116 1 0.5897 1.089562841047839 0.8912022605234498 11.573495149501934 0 0 0
348 116 1 0.5897 2.52992706735446 1.069236823826079 11.14207673729658 0 0 0
350 117 1 0.5897 2.6833967035921216 4.519585928917117 13.438504217844208 0 0 0
649 217 2 -1.1794 2.440516127304965 2.793602231142858 13.731978282186494 0 0 0
650 217 1 0.5897 2.253958350772552 2.086902779600076 13.113954126507098 0 0 0
651 217 1 0.5897 2.0159456260001756 2.519726378003732 14.544990935501618 0 0 0
334 112 2 -1.1794 1.146296789258402 4.154246333881974 10.689691649445567 0 0 0
336 112 1 0.5897 2.082366730053739 4.352098083046295 10.656649845118503 0 0 0
340 114 2 -1.1794 3.90399072686577 4.09493271277987 10.40414061082378 0 0 0
332 111 1 0.5897 4.977199294053515 4.520957503165709 11.772296563778687 0 0 0
680 227 1 0.5897 0.11763090296591017 2.168581817298118 15.213345856790074 0 0 0
652 218 2 -1.1794 4.258518104749606 1.2510947626052542 17.0134837401084 0 0 0
653 218 1 0.5897 3.389100318257531 1.098789979190273 17.38410038147307 0 0 0
654 218 1 0.5897 4.36102354537213 0.5662949054059461 16.352623555049618 0 0 0
658 220 2 -1.1794 1.3323465368129783 4.163585336849457 17.29310703353059 0 0 0
659 220 1 0.5897 0.7511484007013735 4.218489094427304 18.05172947373427 0 0 0
664 222 2 -1.1794 4.060156283718189 4.0371115028422775 17.191066588987894 0 0 0
665 222 1 0.5897 3.131087158092393 4.139338352773083 17.398019805236835 0 0 0
666 222 1 0.5897 4.161677826816294 3.105361400707113 16.996981194870912 0 0 0
670 224 2 -1.1794 1.971637830221462 0.8648781689213656 18.44774316543218 0 0 0
671 224 1 0.5897 2.2046417607530007 1.5352662148830891 19.089984660412533 0 0 0
672 224 1 0.5897 1.0145927467504952 0.844192518167636 18.458764748066855 0 0 0
681 227 1 0.5897 0.925364156264808 2.7274682874044345 16.365406262655846 0 0 0
660 220 1 0.5897 1.0262476525800521 4.854697965864742 16.705852916310363 0 0 0
884 295 1 0.5897 0.6723623344142279 0.20619665802496204 15.777103588106321 0 1 0
679 227 2 -1.1794 0.8272501777417336 1.9490212217417007 15.817155987888697 0 0 0
2 1 1 0.5897 2.515688724880134 3.5462420176186655 20.486617830863395 0 0 -1
1 1 2 -1.1794 2.6065083143598167 2.593706156842033 20.51087825222428 0 0 -1
3 1 1 0.5897 3.5344988665952894 2.4456611961901906 20.69359140690967 0 0 -1
674 225 1 0.5897 2.2924986713030537 5.50509493762931 0.604548300449754 0 0 1
141 47 1 0.5897 0.9062154535313623 7.684592182067508 2.3587352698944763 0 0 0
139 47 2 -1.1794 0.7294788481928967 8.589300794052322 2.100978298393592 0 0 0
114 38 1 0.5897 3.2562820450579677 7.819026084380651 3.6923718701330617 0 0 0
126 42 1 0.5897 4.200488752292084 9.81189501268737 3.440465125263212 0 0 0
14 5 1 0.5897 4.371165688415075 5.8325498225411065 0.7961302680365354 0 0 0
111 37 1 0.5897 3.4711750323550734 9.128739452377069 0.40071071455215035 0 0 0
19 7 2 -1.1794 0.8969991473872638 5.727831568684808 2.0547093286658242 0 0 0
140 47 1 0.5897 0.9656999666609262 9.1083287257193 2.8697589150490312 0 0 0
112 38 2 -1.1794 4.092850291042071 8.056959768440382 3.292430060096217 0 0 0
113 38 1 0.5897 4.748461328251849 7.821706620574789 3.9490638288102753 0 0 0
110 37 1 0.5897 2.0454588761849877 8.897861373785949 0.8551160328540242 0 0 0
15 5 1 0.5897 4.542451879231472 6.784887999810122 1.960406884869114 0 0 0
109 37 2 -1.1794 2.5617243745103098 9.305924816286472 0.1599582131480658 0 0 0
132 44 1 0.5897 1.075491097721687 7.583131520657466 4.9165298797816535 0 0 0
13 5 2 -1.1794 4.933041769934322 6.013545876546463 1.5496857356584073 0 0 0
130 44 2 -1.1794 2.0320807024524035 7.549480743553311 4.933426408339314 0 0 0
339 113 1 0.5897 4.107338548715541 5.870746680266734 7.602353180500187 0 0 0
464 155 1 0.5897 1.2045379438451655 8.74441588928386 8.380645165873023 0 0 0
344 115 1 0.5897 0.8218437450086272 5.361376944180545 9.407669307789787 0 0 0
437 146 1 0.5897 4.296157001161843 7.508541780476206 9.478183648038357 0 0 0
468 156 1 0.5897 4.199401835017272 9.280571639048128 7.36123057456677 0 0 0
435 145 1 0.5897 2.2580962712028922 8.731649547765134 6.376879360594583 0 0 0
433 145 2 -1.1794 2.4089516771242825 9.23006139858606 7.180024028120849 0 0 0
463 155 2 -1.1794 0.5380357965722092 8.50267425856588 9.023827723355023 0 0 0
345 115 1 0.5897 0.890360491207699 6.781130518288333 8.886822218890051 0 0 0
337 113 2 -1.1794 4.649646082597893 6.047330477443583 8.37113064613084 0 0 0
343 115 2 -1.1794 0.8529479503718571 5.869624716673266 8.597165115469096 0 0 0
26 9 1 0.5897 1.9229090359621206 5.515254701429951 7.255606712815665 0 0 0
131 44 1 0.5897 2.235487673996294 6.731980618502643 5.387856734749822 0 0 0
25 9 2 -1.1794 2.4670384544408432 5.2663954468860235 6.5084125228507155 0 0 0
438 146 1 0.5897 4.235812145093366 8.892928853175619 10.087738905223203 0 0 0
443 148 1 0.5897 1.0891738532049169 9.7924183206899 10.214556737071938 0 0 0
436 146 2 -1.1794 4.237607682906104 7.963898690057317 10.318082263914022 0 0 0
757 253 2 -1.1794 2.767696204169235 9.25950185356004 14.123970197346008 0 0 0
668 223 1 0.5897 1.4325464515761321 5.940992136550451 14.658339218586578 0 0 0
349 117 2 -1.1794 2.7594361746772336 5.473711815809938 13.441313805636202 0 0 0
792 264 1 0.5897 4.500103633998369 9.197219374409743 14.193616772967491 0 0 0
351 117 1 0.5897 3.5499254763586308 5.649970456293427 13.951664627934933 0 0 0
454 152 2 -1.1794 2.0123864986700295 7.582898375018205 11.922171428088829 0 0 0
455 152 1 0.5897 2.6600079655876505 7.683572691757528 11.224463351451885 0 0 0
456 152 1 0.5897 2.3026487948191794 6.81189801863522 12.40950402638792 0 0 0
759 253 1 0.5897 2.5671519081787553 8.698944665221763 13.37445506845598 0 0 0
533 178 1 0.5897 0.3171789524790673 7.2278508016172 11.84856906071513 1 0 0
789 263 1 0.5897 1.5122218244347725 8.9610445656411 15.367990919124551 0 0 0
661 221 2 -1.1794 4.599555173773462 6.0022605159365625 15.293217142914262 0 0 0
667 223 2 -1.1794 0.7990243241149987 6.066351770364199 15.364913783229104 0 0 0
858 286 1 0.5897 0.2262984056501288 7.261236737329689 18.89259123897329 1 0 0
788 263 1 0.5897 0.8782503418292059 9.415587375353779 16.665463847462973 0 0 0
673 225 2 -1.1794 2.8928984296824063 5.3483311139487615 20.625905441211316 0 0 0
779 260 1 0.5897 2.1898025474604492 8.284199890839679 19.50606695036798 0 0 0
780 260 1 0.5897 2.600797821819306 7.8816822864926745 18.105721745886513 0 0 0
675 225 1 0.5897 2.6730386047779127 6.02375542784575 19.984327444522698 0 0 0
760 254 2 -1.1794 4.228810984566122 8.082604155905727 17.06960653367613 0 0 0
761 254 1 0.5897 4.247027067459613 9.03023112652556 17.2030554756098 0 0 0
778 260 2 -1.1794 2.110762475165595 7.5746415626631585 18.868515979829738 0 0 0
787 263 2 -1.1794 0.7426427642197946 8.828550946810434 15.921690412875202 0 0 0
662 221 1 0.5897 4.398356815322349 5.301318525984148 15.913214785343964 0 0 0
669 223 1 0.5897 0.8254126243897807 7.005654993030615 15.54699144651564 0 0 0
663 221 1 0.5897 4.483544278485409 6.808230719859781 15.79633783423052 0 0 0
762 254 1 0.5897 4.764313731017203 7.729834373783859 17.780297579967012 0 0 0
783 261 1 0.5897 1.7505125687812744 12.281613865424076 0.6005961463376219 0 0 1
118 40 2 -1.1794 1.309721382535064 10.714794036012108 3.866559791448584 0 0 0
119 40 1 0.5897 2.2573923244767156 10.685442233733411 3.9989993394999823 0 0 0
120 40 1 0.5897 1.1761241664965405 11.431787244737075 3.246668232993404 0 0 0
222 74 1 0.5897 4.532770731652577 14.08501025788884 2.2417352351883126 0 0 0
123 41 1 0.5897 4.036700951331232 12.175104988913347 0.8191673949200592 0 0 0
124 42 2 -1.1794 4.022852554806876 10.736775469200515 3.611378285183999 0 0 0
240 80 1 0.5897 2.718570552790502 14.379053574568323 4.288200579956548 0 0 0
127 43 2 -1.1794 0.6642732478461133 12.599020783165395 1.9649205463145545 0 0 0
129 43 1 0.5897 0.849505059416967 13.51289956940772 2.1809927588543263 0 0 0
220 74 2 -1.1794 4.2968013286145315 14.492014370873818 3.0753291002972194 0 0 0
122 41 1 0.5897 4.544424346308227 11.659110224286202 2.1487820468166015 0 0 0
121 41 2 -1.1794 4.7646361065573295 12.257970537230355 1.435286775786438 0 0 0
125 42 1 0.5897 4.605355360714334 10.962969168464408 4.336529992463507 0 0 0
238 80 2 -1.1794 2.0530298359602717 14.050466307488927 4.89268932944935 0 0 0
317 106 1 0.5897 0.25497713063299443 13.820249933125874 4.964705468791305 1 0 0
188 63 1 0.5897 0.059369960068701 10.73556955710827 5.059059869853631 1 0 0
133 45 2 -1.1794 2.590735946861825 11.909787128893207 6.511761297951939 0 0 0
134 45 1 0.5897 1.8751115794757598 12.143962366848323 7.1028723212844165 0 0 0
135 45 1 0.5897 3.3853126083193033 12.073781530432253 7.019847932278645 0 0 0
445 149 2 -1.1794 4.67118901859716 12.608652136197566 8.200079897258815 0 0 0
573 191 1 0.5897 1.0988684104779662 14.645213858317058 9.852284266432997 0 0 0
446 149 1 0.5897 4.50893853074897 13.31680729185629 8.823286726828627 0 0 0
450 150 1 0.5897 4.260845482820591 11.316152237067646 9.60513236442894 0 0 0
451 151 2 -1.1794 0.7145068636218265 12.30021466143776 8.517712016241852 0 0 0
453 151 1 0.5897 0.9032287420223282 11.780237891115126 9.298881068689415 0 0 0
239 80 1 0.5897 2.413034777682582 13.2265895290298 5.221064782744348 0 0 0
544 182 2 -1.1794 4.0579774740973455 14.431565901065804 10.094712397592033 0 0 0
434 145 1 0.5897 2.498155331147084 10.136757026368649 6.886575329504823 0 0 0
449 150 1 0.5897 4.686349271359062 11.081572867387063 11.03895079591929 0 0 0
444 148 1 0.5897 2.3245620392010204 10.547845288304298 10.656601105415806 0 0 0
457 153 2 -1.1794 2.4312694180399386 11.87649521781289 13.607980252947401 0 0 0
458 153 1 0.5897 1.7843906281503399 12.095006920343097 14.278899873970536 0 0 0
459 153 1 0.5897 3.275180537097656 11.95788267256265 14.05252240840416 0 0 0
564 188 1 0.5897 2.32128668519104 14.640962500101102 12.391625396679968 0 0 0
442 148 2 -1.1794 1.3688148291405555 10.601258635998477 10.643242106318356 0 0 0
562 188 2 -1.1794 2.0251815110396336 13.993096476435475 11.75224598810049 0 0 0
563 188 1 0.5897 2.2329787659450364 13.148762119957109 12.152370454375221 0 0 0
642 214 1 0.5897 0.10258315346475635 13.912897088262167 12.019208685053032 1 0 0
769 257 2 -1.1794 4.570715862854131 12.516090038352385 15.308463234824908 0 0 0
546 182 1 0.5897 4.801782183683038 14.304618223959896 10.683794098562858 0 0 0
758 253 1 0.5897 2.570045198397938 10.14554954862575 13.820604560088936 0 0 0
545 182 1 0.5897 3.290463971050353 14.230013428290032 10.630148948152753 0 0 0
448 150 2 -1.1794 4.085440726296622 10.762169059754434 10.365747976228178 0 0 0
766 256 2 -1.1794 1.2722408486191183 10.92246560523918 17.820348507361473 0 0 0
767 256 1 0.5897 0.645307614552974 11.161127786730106 18.503225167852904 0 0 0
768 256 1 0.5897 1.0949925453084752 11.53556710517503 17.10697803210941 0 0 0
772 258 2 -1.1794 3.9918936963651523 10.907173179808304 17.635705261829713 0 0 0
773 258 1 0.5897 3.047803103730446 10.956219589321098 17.78658049689779 0 0 0
774 258 1 0.5897 4.127556646914832 11.372775798204298 16.810462625419127 0 0 0
965 322 1 0.5897 0.19110701717280087 14.162806594854207 18.83482693549152 1 0 0
887 296 1 0.5897 2.1108841189438396 14.93597072516534 19.27044560351665 0 0 0
869 290 1 0.5897 3.159924550926217 14.338435939559846 17.539324435223826 0 0 0
886 296 2 -1.1794 1.8867959656435986 14.173859385307212 18.736445369555682 0 0 0
888 296 1 0.5897 2.027058105974123 13.42513997529819 19.31603787371273 0 0 0
868 290 2 -1.1794 3.9696621559042913 14.574302707214704 17.086451029807726 0 0 0
771 257 1 0.5897 4.282839347692815 13.318203797163592 15.744267927446982 0 0 0
870 290 1 0.5897 4.663249946924106 14.375873220165746 17.71566349452332 0 0 0
782 261 1 0.5897 2.331150684709221 11.14431158757002 20.537615336072342 0 0 0
781 261 2 -1.1794 2.3046320229679993 12.09957087434759 20.59178208358569 0 0 0
777 259 1 0.5897 1.0138748369549053 13.579999466959547 15.847153522391993 0 0 0
775 259 2 -1.1794 0.8560060110599509 12.6382577335978 15.78111369461919 0 0 0
249 83 1 0.5897 1.845645959283314 15.441981657304378 1.3863218593528959 0 0 0
248 83 1 0.5897 1.3481322885485478 15.953875953133473 2.7213665831326255 0 0 0
229 77 2 -1.1794 4.616619331389671 19.12156134553937 1.455740969566946 0 0 0
247 83 2 -1.1794 1.2253088011436755 15.246264803456025 2.08860654033015 0 0 0
226 76 2 -1.1794 1.8153678012099963 17.5470418043754 3.7492643779830326 0 0 0
227 76 1 0.5897 1.5782284517021348 18.067062467133795 2.9814338004114145 0 0 0
228 76 1 0.5897 1.082381322587237 17.66374774808948 4.353804265013462 0 0 0
890 297 1 0.5897 2.0534966056094173 18.86045812412154 0.06793051084306971 0 0 1
230 77 1 0.5897 4.063637080402118 19.177532767431526 0.6763884833093268 0 0 0
232 78 2 -1.1794 4.448143088307608 17.200800722136385 3.4021256055408697 0 0 0
233 78 1 0.5897 4.561185514746449 17.782729348695124 2.650604244077791 0 0 0
234 78 1 0.5897 3.5466722496402956 17.349915505070197 3.687713985323365 0 0 0
235 79 2 -1.1794 0.8375165264547147 19.087894839240278 1.5071168002141682 0 0 0
221 74 1 0.5897 4.353822549863276 15.432655250051681 2.9077168687396253 0 0 0
219 73 1 0.5897 3.5705187630942135 15.874596242866684 0.114106475142151 0 0 0
553 185 2 -1.1794 4.797727512489617 19.091676299809997 8.671536182438313 0 0 0
576 192 1 0.5897 4.362888477191813 15.682884225024571 7.195682922625754 0 0 0
559 187 2 -1.1794 1.0910748794319494 19.335417926564514 8.622004208770155 0 0 0
241 81 2 -1.1794 3.0378157561444454 18.39728958631146 6.655082297780534 0 0 0
242 81 1 0.5897 2.8591629436277346 17.457416454708625 6.625322187541942 0 0 0
243 81 1 0.5897 2.400871128715429 18.742894174721105 7.280519901509372 0 0 0
541 181 2 -1.1794 2.6156656867587387 15.636829801445302 7.110551081031069 0 0 0
542 181 1 0.5897 2.1049293840873244 15.518695442140164 7.911483184087033 0 0 0
572 191 1 0.5897 1.0200498477597937 16.156957339840105 9.845539451440068 0 0 0
543 181 1 0.5897 2.2002214026212754 15.055930208190079 6.47320618315218 0 0 0
555 185 1 0.5897 4.39330311926973 18.752345609461884 7.873066336692442 0 0 0
558 186 1 0.5897 4.557959575310872 17.77194240168141 9.968622055226616 0 0 0
571 191 2 -1.1794 0.9060475385523818 15.390583919833022 9.28357038114896 0 0 0
551 184 1 0.5897 1.4538575697037597 18.275827966774752 10.174594348662094 0 0 0
560 187 1 0.5897 0.17894587447428875 19.09085780210329 8.46493632411231 0 0 0
24 8 1 0.5897 2.4545329744834703 19.763761303995228 5.219679690668856 0 -1 0
557 186 1 0.5897 4.196867155089035 16.341529384398346 10.30815749205056 0 0 0
885 295 1 0.5897 1.1968606313994041 18.991063879463614 14.94223785923546 0 0 0
866 289 1 0.5897 3.7591786739194237 15.863640833154975 13.749807986500109 0 0 0
879 293 1 0.5897 4.109518444398289 19.213531541589408 14.619760278626503 0 0 0
867 289 1 0.5897 2.345419566744231 15.701381500360519 14.266921111029653 0 0 0
550 184 2 -1.1794 1.559035703261454 17.64203310181059 10.884124734776737 0 0 0
552 184 1 0.5897 2.498616183366471 17.459895931271337 10.905914486249383 0 0 0
565 189 2 -1.1794 2.4994363676717053 18.8844697340014 13.757300442980709 0 0 0
566 189 1 0.5897 2.6769443439325653 18.001673595032152 13.432755876684906 0 0 0
567 189 1 0.5897 2.3552392050384365 19.405939296309835 12.967690550579947 0 0 0
865 289 2 -1.1794 2.8446156856619735 15.86595550485218 13.466910922852776 0 0 0
556 186 2 -1.1794 4.220266139787839 17.224317956815046 10.677352810663072 0 0 0
621 207 1 0.5897 0.09387312380398427 17.746694376364346 12.039933329473424 1 0 0
896 299 1 0.5897 0.25775465255330177 15.594498079361877 15.207988492468292 0 0 0
877 293 2 -1.1794 4.822875164690457 19.199515260269255 15.257957748750908 0 0 0
881 294 1 0.5897 3.1668238391892087 17.44938038423157 17.39754415472713 0 0 0
897 299 1 0.5897 1.0314902771060068 16.005160455449108 16.44277049233841 0 0 0
891 297 1 0.5897 2.4925493616688192 19.428981330944403 19.485504570175358 0 0 0
882 294 1 0.5897 4.103848349228036 16.36446026977504 16.91076469263931 0 0 0
880 294 2 -1.1794 4.065933554875727 17.301106321533865 17.10420284595139 0 0 0
874 292 2 -1.1794 1.301595957752621 17.417969073071188 17.626868537244583 0 0 0
875 292 1 0.5897 0.624900177444678 17.547137784552724 18.29151399556885 0 0 0
876 292 1 0.5897 1.098243438929933 18.062453823903887 16.94900702229141 0 0 0
878 293 1 0.5897 4.5413319319041525 18.566680266747994 15.91861382363215 0 0 0
895 299 2 -1.1794 1.1019479005038564 15.481095556796763 15.644907432940734 0 0 0
218 73 1 0.5897 2.6521906310815555 16.99849934026354 20.433622615160083 0 0 -1
889 297 2 -1.1794 2.74261470837588 18.794351238128602 20.15701400207064 0 0 0
883 295 2 -1.1794 0.5550920241504501 19.202977438925217 15.620145722534524 0 0 0
873 291 1 0.5897 4.984286755807306 17.567675790852224 18.676004570239634 0 0 0
217 73 2 -1.1794 2.6520747571011305 16.074277866770462 20.682529505373708 0 0 -1
69 23 1 0.5897 6.620439274283943 2.327844315712851 1.2232162301398541 0 0 0
273 91 1 0.5897 7.356765460474391 0.3915672981025875 1.6761597674749549 0 1 0
68 23 1 0.5897 8.122441046788023 2.4178063922433486 1.3917415414497094 0 0 0
67 23 2 -1.1794 7.321791138085108 2.173617979235709 1.8562100536937132 0 0 0
46 16 2 -1.1794 7.961679988705086 4.176756703422123 3.739489072792808 0 0 0
47 16 1 0.5897 7.657845501152137 3.4425785027458526 3.2057594535017704 0 0 0
48 16 1 0.5897 7.230253800417266 4.364541279382942 4.3278176610711245 0 0 0
37 13 2 -1.1794 9.493018170494476 2.767329056424462 0.10872878665536076 0 0 0
9 3 1 0.5897 5.0680883439902535 4.431672687895098 4.922319919618058 0 0 0
53 18 1 0.5897 9.758578950287543 4.116950592240131 3.8208854258162495 0 0 0
28 10 2 -1.1794 5.858049259358418 0.5516688475926985 5.05970875927082 0 0 0
29 10 1 0.5897 6.772758869158702 0.689201411121555 4.813025965542779 0 0 0
58 20 2 -1.1794 8.519215229586205 0.9343797724418703 4.8884136011433785 0 0 0
8 3 1 0.5897 5.735199339042986 3.956520264228193 6.195579316043767 0 0 0
391 131 2 -1.1794 7.529779944498346 2.378570024348976 8.823636655845714 0 0 0
393 131 1 0.5897 7.644913065607897 1.4471806653010555 9.011834073398415 0 0 0
59 20 1 0.5897 8.570476767295139 1.5909387438264384 5.583027022069352 0 0 0
361 121 2 -1.1794 9.238303826196718 2.8127078812081914 6.770295200066447 0 0 0
392 131 1 0.5897 8.184893759674553 2.570560835321832 8.152587705078433 0 0 0
362 121 1 0.5897 9.25593142909956 3.720425813067141 6.467139857771173 0 0 0
358 120 2 -1.1794 5.375964635375809 2.3622376160868566 7.159710580645899 0 0 0
359 120 1 0.5897 6.098970165630364 2.335467173399577 7.786533077301508 0 0 0
360 120 1 0.5897 5.5855366889299125 1.6794835610563084 6.522432926946145 0 0 0
7 3 2 -1.1794 5.721049182644798 4.68500434323779 5.574856100801964 0 0 0
60 20 1 0.5897 8.804372462286201 0.12129313813551364 5.305274908532599 0 0 0
371 124 1 0.5897 7.757448261245353 3.681191418693314 10.008963155879648 0 0 0
352 118 2 -1.1794 5.929529140686544 0.9114020126662882 12.246785208193957 0 0 0
353 118 1 0.5897 6.852908740304314 0.8854316779088796 11.995458656540599 0 0 0
354 118 1 0.5897 5.88197652659237 1.594559648925147 12.915533364193697 0 0 0
684 228 1 0.5897 5.467214463633057 3.538648160525275 13.649725957145757 0 0 0
372 124 1 0.5897 7.2349147499699695 4.421108356245336 11.221973952931462 0 0 0
685 229 2 -1.1794 9.040900571738266 2.7132192849392722 13.662795737775882 0 0 0
382 128 2 -1.1794 8.633601132907444 0.7692063345409528 11.779985518837936 0 0 0
383 128 1 0.5897 8.79274386804934 1.4927654389669174 12.38606179937191 0 0 0
384 128 1 0.5897 9.385199026952497 0.7829012578990764 11.187305746325631 0 0 0
682 228 2 -1.1794 5.238834373513568 2.7736641708935967 14.177779568095271 0 0 0
686 229 1 0.5897 8.532648297423782 2.5594967494676073 14.459254608728257 0 0 0
331 111 2 -1.1794 5.7652407086279736 4.682532215293046 12.291222812167318 0 0 0
370 124 2 -1.1794 7.958865710161172 4.410096232793046 10.595756448003597 0 0 0
386 129 1 0.5897 8.977218432822491 4.572690759275653 13.496297413421342 0 0 0
377 126 1 0.5897 9.843846206401334 4.187345152847204 10.486506796391774 0 0 0
717 239 1 0.5897 6.6429095998243435 2.3091695804362264 15.470059180611356 0 0 0
687 229 1 0.5897 9.95265628195721 2.6120649643301137 13.936516043376873 0 0 0
715 239 2 -1.1794 7.507057810743567 2.1950849270784873 15.865875582901122 0 0 0
38 13 1 0.5897 9.418457957778507 2.1260588158171645 20.152252949536873 0 0 -1
655 219 2 -1.1794 5.740603043741204 4.629193820767193 19.358508191360208 0 0 0
657 219 1 0.5897 6.562541710343313 4.37375978642396 18.939481887420293 0 0 0
676 226 2 -1.1794 6.107320346404042 0.5510288814111596 18.908493496764066 0 0 0
677 226 1 0.5897 5.516281300946858 0.6478139997452657 18.161746220818635 0 0 0
694 232 2 -1.1794 7.932071992117161 4.1425947725048 17.734561470284454 0 0 0
695 232 1 0.5897 7.6065646281531265 3.3645738617845127 17.281896930269326 0 0 0
716 239 1 0.5897 7.6271768497094214 1.2465475346348265 15.910644669823904 0 0 0
706 236 2 -1.1794 8.752396809814586 0.8519147905285267 18.853911948068173 0 0 0
708 236 1 0.5897 7.797002310319383 0.8063437218940535 18.81357979432522 0 0 0
35 12 1 0.5897 5.670642908456261 1.5959238319634634 20.122706844982588 0 0 -1
702 234 1 0.5897 9.7702647875425 4.150295712626984 17.502637915487107 0 0 0
710 237 1 0.5897 9.320556214696351 4.661115081959701 20.19832997927162 0 0 0
707 236 1 0.5897 9.009805266995953 0.06812729824551703 19.33931343713074 0 0 0
696 232 1 0.5897 7.659577411946999 4.87406758102788 17.180599237860065 0 0 0
36 12 1 0.5897 5.561401342720964 3.1022954594597696 20.225800356411263 0 0 -1
656 219 1 0.5897 5.063798099460808 4.390533461072337 18.72500365747689 0 0 0
34 12 2 -1.1794 5.409398717499977 2.296783704042997 20.719998661019947 0 0 -1
143 48 1 0.5897 6.101359883078567 9.015569847341581 1.009036795864038 0 0 0
176 59 1 0.5897 7.662231366638502 7.729533970472584 1.9208684427072251 0 0 0
166 56 2 -1.1794 8.45170557566608 7.567222358132194 4.9682505460004105 0 0 0
711 237 1 0.5897 8.677329370190174 5.739129875080338 0.29431404862399774 0 0 1
175 59 2 -1.1794 7.618529945559265 8.684892610529774 1.960065106014299 0 0 0
55 19 2 -1.1794 7.611347723904688 5.968698887088645 1.7496655520600701 0 0 0
56 19 1 0.5897 6.655344855242278 5.943637301710081 1.7061079338999037 0 0 0
177 59 1 0.5897 8.19263860963078 8.980567303313865 1.253465532448049 0 0 0
57 19 1 0.5897 7.833142901590559 5.397793531416187 2.485253103498549 0 0 0
142 48 2 -1.1794 5.345414485169324 9.041011378275329 0.4222973398763505 0 0 0
155 52 1 0.5897 7.930123671213624 9.802648276738585 3.294419111405269 0 0 0
149 50 1 0.5897 9.886193046255059 7.861387381920876 3.7697815456890034 0 0 0
138 46 1 0.5897 6.697566850520292 7.545987361372173 5.13452296915603 0 0 0
466 156 2 -1.1794 5.148645970712491 9.15642658751699 7.363521525922406 0 0 0
501 167 1 0.5897 6.704771821091255 8.765382257626404 8.414394831639509 0 0 0
380 127 1 0.5897 7.470094094575022 6.800926450588391 8.556112440038733 0 0 0
467 156 1 0.5897 5.307304021498253 8.506267218042069 6.679179372621485 0 0 0
499 167 2 -1.1794 7.566081635887927 8.574375639724755 8.786007599073109 0 0 0
61 21 2 -1.1794 9.396460141861509 5.503966824083048 6.456392929464576 0 0 0
137 46 1 0.5897 5.810957168205331 6.428452938665631 5.641525499767097 0 0 0
469 157 2 -1.1794 9.255396108879506 9.379273561240977 6.866048492832013 0 0 0
500 167 1 0.5897 7.679398628988365 9.226932622326949 9.47704003001253 0 0 0
470 157 1 0.5897 8.674355451902258 9.091544140089958 7.570258273842776 0 0 0
381 127 1 0.5897 7.548964913338133 5.406498401574086 9.140110341969004 0 0 0
62 21 1 0.5897 8.622763953597193 5.6248361829284885 7.007000537650579 0 0 0
379 127 2 -1.1794 7.413302952224953 5.875857859718201 8.317007427252783 0 0 0
168 56 1 0.5897 8.598708647020638 8.331165246205307 5.525889097724833 0 0 0
338 113 1 0.5897 5.544157797989621 5.870030530572453 8.079830899738461 0 0 0
167 56 1 0.5897 8.854696497048783 6.841345405410345 5.444610918252549 0 0 0
136 46 2 -1.1794 5.824512941369787 7.372967998295548 5.4870499525031 0 0 0
791 264 1 0.5897 5.831086098043364 9.260492099729644 14.912508095306054 0 0 0
794 265 1 0.5897 9.225105723515913 8.908263740803521 13.547385046130609 0 0 0
491 164 1 0.5897 9.443786456924206 7.91475211382021 11.443354732361408 0 0 0
462 154 1 0.5897 5.593403170845495 7.529682503991963 11.37686837858312 0 0 0
333 111 1 0.5897 5.854113585334432 5.635496021587435 12.302225907812856 0 0 0
793 265 2 -1.1794 9.452241703658045 9.46435038560351 14.292626419907984 0 0 0
790 264 2 -1.1794 5.433350960799374 9.351757085665065 14.046633351809753 0 0 0
387 129 1 0.5897 8.832664825537076 6.01743148982798 13.067861719113445 0 0 0
460 154 2 -1.1794 6.199216022754415 7.422168594086399 12.110191546253908 0 0 0
461 154 1 0.5897 5.920927335319829 8.078007608818595 12.749436177619371 0 0 0
492 164 1 0.5897 8.016995216463478 7.7137907109131785 11.908470474017408 0 0 0
490 164 2 -1.1794 8.92073408728252 7.731227292501464 12.223762762812026 0 0 0
705 235 1 0.5897 7.716170070914429 5.990158162129783 15.281946282318097 0 0 0
385 129 2 -1.1794 8.791239483234298 5.447971124837565 13.83610828942623 0 0 0
824 275 1 0.5897 8.083949143089965 9.020530215075869 15.399400470105332 0 0 0
814 272 2 -1.1794 8.634235111485623 7.736580778289279 18.675920512347105 0 0 0
786 262 1 0.5897 6.820644694409928 7.60033756481491 18.88516940834021 0 0 0
815 272 1 0.5897 8.917696194117775 6.95868662179044 19.156260663977058 0 0 0
825 275 1 0.5897 7.353416308465634 7.903144030922636 16.113330398207694 0 0 0
785 262 1 0.5897 5.905313627442805 6.412445232715246 19.092734766190816 0 0 0
703 235 2 -1.1794 7.213662375635694 6.105105599713268 16.08851357243997 0 0 0
816 272 1 0.5897 8.85289188142662 8.468014940087002 19.253317821853898 0 0 0
823 275 2 -1.1794 7.3637775187305445 8.854408688098644 16.00777657334728 0 0 0
784 262 2 -1.1794 5.901699969830449 7.3665869051314035 19.01691300928035 0 0 0
797 266 1 0.5897 9.921450333662294 7.843548230361299 17.406281867761365 0 0 0
144 48 1 0.5897 5.547347025468298 8.397815603356301 20.493003909237004 0 0 -1
704 235 1 0.5897 6.304519942742282 5.956144547263082 15.828280779807569 0 0 0
145 49 2 -1.1794 9.24327660170343 9.492749833705542 20.612182250467388 0 0 -1
709 237 2 -1.1794 9.26992842616439 5.611107020048179 20.30374617986395 0 0 0
154 52 2 -1.1794 8.02540142962932 10.508267057334681 3.9340645301454504 0 0 0
819 273 1 0.5897 8.444959326734711 12.64720150986905 0.6176711894900844 0 0 1
156 52 1 0.5897 8.970728939499864 10.592452423793118 4.059497694013049 0 0 0
163 55 2 -1.1794 7.454822345099843 12.658919335404347 2.146142622978903 0 0 0
164 55 1 0.5897 6.543096326704031 12.45542279249427 1.9368697009114262 0 0 0
165 55 1 0.5897 7.732119449109061 11.94954068174505 2.725870296117234 0 0 0
276 92 1 0.5897 9.243701197114842 14.310704316588877 4.521628574023212 0 0 0
285 95 1 0.5897 7.552708329711911 14.627851138336904 2.1188595748029075 0 0 0
275 92 1 0.5897 7.806607897413198 14.290279072925662 4.9978529301405406 0 0 0
246 82 1 0.5897 5.4036459255857485 14.006163772326241 4.393046512748796 0 0 0
244 82 2 -1.1794 5.991345225076635 13.96300032749548 5.14741470662065 0 0 0