LAMMPS data file via write_data, version 30 Jul 2021, timestep = 13500000

864 atoms
2 atom types
576 bonds
1 bond types
288 angles
1 angle types

0.05379823744774903 18.153774162556786 xlo xhi
1.1548984876912147 22.47427931230313 ylo yhi
0.06563372404194112 22.147562075955506 zlo zhi

Masses

1 1.00794
2 15.9994

Pair Coeffs # lj/cut/tip4p/long/omp

1 0 0
2 0.21084 3.1668

Bond Coeffs # harmonic/omp

1 450 0.9572

Angle Coeffs # harmonic/omp

1 55 104.52

Atoms # full

22 1 2 -1.1794 3.906524875143323 2.622581697594365 1.6623917704105393 -4 3 2
149 1 1 0.5897 3.2325796103651876 5.682961910768417 4.660409941737903 -7 1 7
814 1 2 -1.1794 2.6252339425206004 3.896693987527351 3.8050631536743795 -7 6 -2
516 1 1 0.5897 0.6865886988294325 3.928307383996717 2.944068787377741 -2 -2 2
24 1 1 0.5897 3.839277108329429 1.6758476763847918 1.7865476514316698 -4 3 2
815 1 1 0.5897 3.1223911172906793 3.4871073432860342 3.097018829039517 -7 6 -2
816 1 1 0.5897 2.3609121424726522 3.167359181311066 4.365821785916779 -7 6 -2
224 1 1 0.5897 3.556345199481911 4.582449240799454 0.28545771706348244 2 2 -7
484 1 2 -1.1794 0.8043027372818186 6.377545444946815 0.6981303056836045 -3 1 2
485 1 1 0.5897 1.6117632957404464 5.895939616378159 0.5182602204345201 -3 1 2
148 1 2 -1.1794 3.6089356178727314 6.277027002486012 5.309816850960225 -7 1 7
580 1 2 -1.1794 1.876825006087851 2.035808422020938 5.790351522896831 0 -3 1
740 1 1 0.5897 3.177572457166366 3.8956884863586834 7.9580900113964175 0 1 2
741 1 1 0.5897 1.798298462642626 3.725796867739395 8.558645256200263 0 1 2
739 1 2 -1.1794 2.554415866717751 3.2287626793938577 8.246419163719922 0 1 2
344 1 1 0.5897 3.9225328589548614 5.675866933908176 6.876993974908025 -6 -1 0
582 1 1 0.5897 2.220142867090732 2.364408202112028 6.621262880405782 0 -3 1
52 1 2 -1.1794 4.4429917689371985 2.804812529565722 10.512646009594643 -5 -2 7
343 1 2 -1.1794 4.216579763557005 5.355517697905697 7.729728890577835 -6 -1 0
99 1 1 0.5897 1.824075189390825 1.6571468234443432 8.920553441888602 1 -7 7
581 1 1 0.5897 1.0113546984880517 1.6898281419370549 6.008326200826091 0 -3 1
711 1 1 0.5897 2.9369431862570505 4.077855499749587 10.882848831637608 -4 1 -2
345 1 1 0.5897 3.7979563768397337 5.938956485208631 8.362654579346767 -6 -1 0
250 1 2 -1.1794 1.4681787910922781 3.424108343646524 15.753692764939878 2 1 0
251 1 1 0.5897 1.5223368457938085 4.355948075747182 15.541584276627663 2 1 0
709 1 2 -1.1794 2.380038608656027 4.709984733482106 11.337337999437645 -4 1 -2
628 1 2 -1.1794 1.4394759556323689 6.157404542118748 15.700682609601952 -4 -5 3
252 1 1 0.5897 1.281249491283526 2.9980441689252877 14.917167543562979 2 1 0
273 1 1 0.5897 2.8383797196482647 5.237503929027 13.062420373171296 -2 3 4
679 1 2 -1.1794 0.8003719125132145 1.7463255071190282 13.767845094963965 -6 -7 -1
681 1 1 0.5897 0.15859944124334263 1.4313166069617198 13.131327939659826 -6 -7 -1
271 1 2 -1.1794 3.3545864743141407 5.855817293394193 13.579592917142817 -2 3 4
272 1 1 0.5897 2.767840973666008 6.1265199295312796 14.285781137628934 -2 3 4
291 1 1 0.5897 3.265527007120552 3.015868021468838 16.08113957818323 -7 -4 -7
289 1 2 -1.1794 4.199991599201389 2.890474941939744 16.246363885168552 -7 -4 -7
629 1 1 0.5897 1.6960133813838891 5.988280914707405 16.60723487673786 -4 -5 3
53 1 1 0.5897 4.28124910218478 2.1047722075066435 11.145194480613004 -5 -2 7
710 1 1 0.5897 1.5294175057833466 4.276091086888863 11.403993517640066 -4 1 -2
718 1 2 -1.1794 1.8416126364126122 6.1473144991602275 18.572225534902177 5 6 1
719 1 1 0.5897 1.7647134051159605 5.198455351326615 18.67224673042091 5 6 1
862 1 2 -1.1794 0.5736169836183164 3.5922114760837114 18.322086441829278 1 2 3
199 1 2 -1.1794 1.8242686989483081 2.49399138327803 20.7814347226738 -2 -1 -3
657 1 1 0.5897 0.4747434676151915 3.6758813027263404 21.2042814075671 1 -5 3
418 1 2 -1.1794 4.412337924716007 5.8266622708948415 19.6508980093035 -5 0 5
720 1 1 0.5897 2.782523047757468 6.317760350030143 18.615775011356508 5 6 1
225 1 1 0.5897 3.568183166318147 5.437213863856983 21.117917526993644 2 2 -8
201 1 1 0.5897 2.7200321349012304 2.162317984899981 20.71925481433431 -2 -1 -3
864 1 1 0.5897 1.0241549133070642 3.045200025216717 18.96556972139055 1 2 3
863 1 1 0.5897 0.8713658514930019 3.2607945063593413 17.474874491793436 1 2 3
853 1 2 -1.1794 4.367164013658081 1.8859652887387688 21.20960242652442 -3 -1 -3
200 1 1 0.5897 1.3581623361673851 1.8320255275387853 21.292108788842175 -2 -1 -3
223 1 2 -1.1794 3.2716645210114934 5.430997841075327 22.028019487054262 2 2 -8
854 1 1 0.5897 4.177692426445107 2.110977431176673 22.120515587263267 -3 -1 -3
508 1 2 -1.1794 4.126898217373408 8.072917666483562 1.0168921900232637 3 -4 3
587 1 1 0.5897 0.8553759224380558 7.8754941455332474 5.11736297405992 -3 -1 5
369 1 1 0.5897 1.7500149244998218 11.304709081579613 3.543910451580082 3 7 0
368 1 1 0.5897 1.9137795822532735 10.172522924362001 2.5523153496319426 3 7 1
93 1 1 0.5897 0.9268423282435357 7.884438882949432 2.010920573717513 -1 -4 -1
91 1 2 -1.1794 0.7211747703144619 8.76866426486718 2.3143995519260785 -1 -4 -1
367 1 2 -1.1794 2.4131289801549722 10.761265828703188 3.1182427744572867 3 7 1
509 1 1 0.5897 3.6629398052821025 7.2497934735383724 0.8636816039379651 3 -4 3
586 1 2 -1.1794 1.6579130448133677 8.287852783251875 5.436961704252483 -3 -1 5
150 1 1 0.5897 2.958643918813832 6.97314651687681 5.403608451551685 -7 1 7
306 1 1 0.5897 0.1159613722759687 11.551454510552512 5.047643395128668 3 -3 -3
578 1 1 0.5897 4.353512869891289 10.277188893197541 3.238936884839632 2 2 -1
588 1 1 0.5897 1.7682006396750296 9.060156359393403 4.882318029141033 -3 -1 5
727 1 2 -1.1794 0.27222635772508375 11.369162761598911 0.48687136640568496 4 4 -1
611 1 1 0.5897 1.7551455574871497 10.30139195699359 8.606219290100835 3 9 2
2 1 1 0.5897 2.196940082069449 8.154857897312542 8.739267024623388 2 -2 1
177 1 1 0.5897 4.301923032573414 7.862411647549411 9.779430853047131 1 -2 7
3 1 1 0.5897 1.641489527443599 8.254115113858177 7.3344341222299425 2 -2 1
1 1 2 -1.1794 1.4069535933350492 8.389829615201355 8.25248967535313 2 -2 1
175 1 2 -1.1794 3.467637792756474 7.501724311301542 9.479221736513749 1 -2 7
176 1 1 0.5897 2.9957532619555636 7.286652925514072 10.283792331619257 1 -2 7
610 1 2 -1.1794 1.8794395416652943 11.142788865354177 9.045374207139599 3 9 2
417 1 1 0.5897 3.390908813297239 11.221483766747555 10.192741105250185 -1 -2 -2
612 1 1 0.5897 2.2664498730824496 11.707724637528173 8.3765547291382 3 9 2
415 1 2 -1.1794 3.959462569549309 11.538796910098391 10.894396988358144 -1 -2 -2
455 1 1 0.5897 0.08803003645926405 11.553757502651102 9.509544698000074 4 2 0
174 1 1 0.5897 2.672161884385383 7.2263470701312995 12.334407333706666 0 -1 -1
172 1 2 -1.1794 2.2425924618674427 8.034041700892189 12.052726347115946 0 -1 -1
257 1 1 0.5897 0.5488121071897748 8.246622935609864 12.135487245782729 -1 -2 3
173 1 1 0.5897 2.6288438065654818 8.715668622764232 12.602668129279284 0 -1 -1
844 1 2 -1.1794 0.15583323683263317 11.532154512704984 12.357265131500538 0 0 2
403 1 2 -1.1794 3.6529341738634247 10.152268924948853 13.374697766022155 7 -4 2
404 1 1 0.5897 4.089918196690978 10.557494440770618 12.625645414224492 7 -4 2
630 1 1 0.5897 1.1075450420124229 7.055180857622768 15.708707978809187 -4 -5 3
665 1 1 0.5897 3.2348594090585543 11.427361613166417 14.65251198008374 5 -2 3
405 1 1 0.5897 4.328924114660079 9.611521553416372 13.783199157035588 7 -4 2
846 1 1 0.5897 0.3555015706778164 10.611737567624097 12.528228969970943 0 0 2
186 1 1 0.5897 4.00241745983819 11.180863958659147 16.21466729056561 2 6 4
666 1 1 0.5897 1.9872847505639772 11.727303203283233 15.456020582541697 5 -2 3
785 1 1 0.5897 1.0866762042983888 7.307201122749481 19.81183072337492 7 5 3
784 1 2 -1.1794 0.8394896333656799 7.99150261480132 20.43382752221223 7 5 3
715 1 2 -1.1794 1.3665499835263544 9.75668532629964 18.178719604186487 4 -5 -6
717 1 1 0.5897 0.953455700442512 9.065811017695484 17.66071938840071 4 -5 -6
786 1 1 0.5897 0.9230384714544029 8.806833084560502 19.93935252994247 7 5 3
691 1 2 -1.1794 2.830586821393856 10.579527425905079 21.417772402223264 4 0 -1
716 1 1 0.5897 2.2270442236115504 9.404300466478224 18.40593394965812 4 -5 -6
111 1 1 0.5897 3.2904920304233243 11.607982485436262 19.961519488437318 3 -2 -8
486 1 1 0.5897 0.7188726142559061 6.985538544438192 22.045694515000005 -3 1 1
692 1 1 0.5897 2.055939160010121 10.811599504749084 21.929934595095798 4 0 -1
693 1 1 0.5897 3.257059204251144 9.890058990957938 21.926696246947163 4 0 -1
523 1 2 -1.1794 4.001054045838236 8.496961954207976 18.021460240471534 5 -1 1
387 1 1 0.5897 1.4670913358902553 11.762557504224816 18.078111742396096 -6 0 2
525 1 1 0.5897 4.3482037958254995 8.659361048848492 18.898591427964995 5 -1 1
524 1 1 0.5897 4.319766617147973 9.231806511443253 17.497362857299503 5 -1 1
283 1 2 -1.1794 3.196656577926072 15.441595291328099 3.905220030421192 3 -3 -2
603 1 1 0.5897 0.6856476182172954 13.96262154312225 2.138981201294955 1 3 -2
860 1 1 0.5897 1.5729355516312626 15.685850698528109 0.9043008438217179 -5 -2 1
728 1 1 0.5897 0.4183993030160787 11.970866322963493 1.21684163431444 4 4 -1
861 1 1 0.5897 2.566584635968291 14.545581444137477 0.9706531246801077 -5 -2 1
285 1 1 0.5897 2.48141242773237 15.491225714610222 4.539453424479944 3 -3 -2
859 1 2 -1.1794 1.9425267615398436 15.037812863153366 1.504055927920475 -5 -2 1
284 1 1 0.5897 2.7602975217308643 15.397256918975808 3.0544106753619147 3 -3 -2
304 1 2 -1.1794 0.8159968998384108 12.168556705310342 4.8346036447642655 3 -3 -3
305 1 1 0.5897 0.4465650130715586 12.722509100063496 4.146889080975345 3 -3 -3
126 1 1 0.5897 4.187802612686792 16.856091540545535 4.62869056634286 0 3 4
11 1 1 0.5897 1.0571423559560515 15.226869243765341 6.849629287817139 -1 0 5
72 1 1 0.5897 2.878824654168532 15.352893875600246 8.516343809865875 2 -1 -4
70 1 2 -1.1794 2.0186073853089006 15.002585673034732 8.284880160895037 2 -1 -4
423 1 1 0.5897 2.207308972893512 12.58867812242697 6.073059952937292 -3 1 8
422 1 1 0.5897 2.439361505500931 13.556076535181028 7.214215332282018 -3 1 8
522 1 1 0.5897 4.5660985428063 13.403155109081753 6.781508602645609 -7 0 -2
71 1 1 0.5897 1.5315147513269907 14.998551198064597 9.108896155628864 2 -1 -4
421 1 2 -1.1794 2.743314907824843 12.722630261584786 6.85473563224062 -3 1 8
496 1 2 -1.1794 4.432291476089975 16.491087988130907 9.172566398817093 1 -2 2
10 1 2 -1.1794 0.6097829379888369 15.157782535211153 6.006215512055764 -1 0 5
151 1 2 -1.1794 0.0839673373938024 14.698580041580156 10.405749476029358 -1 1 2
12 1 1 0.5897 0.3169765345851724 16.049075157826973 5.816128889150442 -1 0 5
749 1 1 0.5897 3.4795632358051436 16.63607751804507 14.994921777046894 4 10 1
449 1 1 0.5897 2.6885071810786694 12.707381766583172 11.540139539128 5 -1 -8
448 1 2 -1.1794 2.145923324172954 13.306701071687959 12.0526481302974 5 -1 -8
165 1 1 0.5897 3.0156884567961684 16.082478649359732 12.983077490267695 -2 2 -5
450 1 1 0.5897 1.5558943985397926 12.735393593126485 12.544297888033123 5 -1 -8
664 1 2 -1.1794 2.847725213591198 12.082585546750305 15.23310148604424 5 -2 3
164 1 1 0.5897 3.0928121155654718 14.571695798786799 13.042519052889284 -2 2 -5
163 1 2 -1.1794 3.490474265322795 15.364676991147874 13.402104088752868 -2 2 -5
140 1 1 0.5897 0.14182611497931924 11.854416180358937 16.462814312407293 3 2 2
153 1 1 0.5897 0.547730811279018 14.425729031903927 11.197429850853842 -1 1 2
329 1 1 0.5897 0.4308170715168339 12.887097772238166 19.524540316397676 0 6 -4
471 1 1 0.5897 0.5157098626310874 16.864888345690844 21.721297778245745 0 -4 6
351 1 1 0.5897 2.124917971377577 15.817912349989195 20.424333027015628 -8 7 -1
386 1 1 0.5897 1.866273966946719 13.210821574355645 17.890630806856148 -6 0 2
25 1 2 -1.1794 3.9090827178521823 16.493744766343767 20.708578671593273 -4 4 5
697 1 2 -1.1794 4.428749784015268 16.45544018229249 18.038156063882454 4 1 -3
764 1 1 0.5897 3.7351832267071168 13.369242432416675 18.117585927725177 -4 -1 -4
350 1 1 0.5897 0.8159286915175864 16.22814226177413 19.78387936274383 -8 7 -1
349 1 2 -1.1794 1.176675919896667 15.718888738729294 20.509665921140197 -8 7 -1
763 1 2 -1.1794 3.4009325278634055 14.007259533914976 17.487115105326133 -4 -1 -4
385 1 2 -1.1794 1.104508539200562 12.631373399297177 17.905065172989254 -6 0 2
699 1 1 0.5897 4.160442509913107 15.562162755701204 17.82293455044425 4 1 -3
254 1 1 0.5897 4.160134745066476 14.64069241522805 21.455489578132802 0 6 -6
330 1 1 0.5897 0.2775451349000465 13.776980283081079 20.7396727796275 0 6 -4
255 1 1 0.5897 3.8735485489739196 13.270190131033516 20.879718394661495 0 6 -6
253 1 2 -1.1794 3.6833140711674788 13.82982439067623 21.632625203099206 0 6 -6
109 1 2 -1.1794 3.748933600389849 12.178608999279662 19.344682230495145 3 -2 -8
27 1 1 0.5897 4.268647164490857 16.37083264943186 19.830029011950074 -4 4 5
729 1 1 0.5897 0.14996059866433598 11.938632751349484 21.809188020372794 4 4 -2
765 1 1 0.5897 3.327407632511762 13.518680277279001 16.667273990980625 -4 -1 -4
436 1 2 -1.1794 3.709770613700447 21.47544068491211 4.836469010771974 -3 1 3
842 1 1 0.5897 1.5322875199363677 19.655174166753945 2.049936583395085 -3 1 4
438 1 1 0.5897 3.1013974411037175 22.085549433790078 5.253476046303192 -3 1 3
81 1 1 0.5897 3.892650944755222 21.180598440574556 3.0548471526150798 1 2 -5
843 1 1 0.5897 1.3034226368096844 20.271332667235185 0.6861585071768799 -3 1 4
408 1 1 0.5897 2.294176901220235 19.851650868248917 4.125358566587191 -9 -3 3
80 1 1 0.5897 3.2341189624073987 20.55943897766037 1.8413686531167186 1 2 -5
406 1 2 -1.1794 1.4323801006650536 19.583088098960424 3.80684219223697 -9 -3 3
841 1 2 -1.1794 1.7670030985757594 19.559249033661764 1.1269235945668292 -3 1 4
407 1 1 0.5897 1.1031968868483826 18.986613046493957 4.479246022848929 -9 -3 3
470 1 1 0.5897 1.0379684532955462 18.030319994334988 0.4523572069550878 0 -4 7
79 1 2 -1.1794 3.7542485770097596 21.314210037140604 2.1171477258526146 1 2 -5
124 1 2 -1.1794 4.552589751762227 17.622950455188658 5.070394311515216 0 3 4
437 1 1 0.5897 4.576186109156445 21.84168189093223 5.013774698031681 -3 1 3
469 1 2 -1.1794 0.45105483572707983 17.27575649867118 0.5014890022637291 0 -4 7
98 1 1 0.5897 1.7539513640753939 22.155273091195603 10.190414784468748 1 -8 7
77 1 1 0.5897 2.89408845298297 21.05840014012238 8.660831518294703 -7 -3 -6
813 1 1 0.5897 0.383716728322001 19.299470463215584 6.801708836348257 -4 7 -4
76 1 2 -1.1794 3.7390626719531643 20.82962848643379 8.273508423227783 -7 -3 -6
762 1 1 0.5897 3.259466161889973 18.380305081994166 6.039482386938971 -2 -1 1
760 1 2 -1.1794 2.601404571663986 18.909299055334017 6.490462629978232 -2 -1 1
519 1 1 0.5897 1.6489695286956194 19.18497258991478 9.062626271348229 -1 -3 -4
517 1 2 -1.1794 2.017148299079479 18.549484589069436 9.67652095670725 -1 -3 -4
518 1 1 0.5897 2.6901029147862707 18.09144538214396 9.172940932751299 -1 -3 -4
761 1 1 0.5897 3.066925625598198 19.706227279077474 6.744340098109754 -2 -1 1
78 1 1 0.5897 4.160731023734783 20.273685887079125 8.928778308166287 -7 -3 -6
97 1 2 -1.1794 1.451421798917098 22.17252886259547 9.282438516073144 1 -8 7
744 1 1 0.5897 0.8602015152546421 19.21493399350345 10.99865923864124 -1 -1 6
465 1 1 0.5897 2.371708504147362 20.05260996786958 14.443049950217317 4 4 -2
503 1 1 0.5897 4.03488608280092 19.011391401899246 15.23009406232509 -3 -2 3
743 1 1 0.5897 0.9078977759322914 20.00589870809433 12.288643314909336 -1 -1 6
464 1 1 0.5897 0.9773580660308089 19.77421775734819 14.96287355100287 4 4 -2
463 1 2 -1.1794 1.447245097972145 20.213359736839372 14.253924054514522 4 4 -2
376 1 2 -1.1794 2.8550517648293803 22.16609677448762 11.839031637854331 4 3 2
748 1 2 -1.1794 3.2839433517943815 17.355087952390576 15.595762144410523 4 10 1
410 1 1 0.5897 1.681425020662776 17.726832920544446 16.352171896480254 0 2 -2
742 1 2 -1.1794 0.3149575603954855 19.502036834581077 11.731147509581808 -1 -1 6
378 1 1 0.5897 3.5913139765989097 21.621754023869705 12.118071463193797 4 3 2
502 1 2 -1.1794 4.185706128398401 19.881864725887922 14.861601961238302 -3 -2 3
680 1 1 0.5897 0.865942954260314 22.36040109856461 14.411671518809424 -6 -8 -1
504 1 1 0.5897 4.325129428275121 20.444180568879034 15.62357877596361 -3 -2 3
547 1 2 -1.1794 1.9654810485385916 17.265304457413635 12.11714439406391 6 -1 8
750 1 1 0.5897 3.8045021868376345 17.164180533819916 16.376027323569392 4 10 1
549 1 1 0.5897 1.6065047127102319 18.010317576366162 12.599172387617752 6 -1 8
377 1 1 0.5897 2.4082428552993944 22.400726335490493 12.65241156603692 4 3 2
548 1 1 0.5897 1.8700761062012206 17.507037758539752 11.19589026230436 6 -1 8
120 1 1 0.5897 1.8852930201816782 19.737073440653973 17.689376001858427 2 -3 -3
840 1 1 0.5897 0.718393211264891 21.586214968254048 17.510458527537413 0 0 1
411 1 1 0.5897 0.6517287794041373 17.739182639519044 17.461909682123025 0 2 -2
542 1 1 0.5897 3.3237736197954315 18.179401748407543 20.429929399160674 -8 0 0
118 1 2 -1.1794 2.2135757372525786 20.57073589906333 18.02626977531062 2 -3 -3
541 1 2 -1.1794 2.9381807018575468 19.052858708780228 20.498006539434034 -8 0 0
683 1 1 0.5897 3.8524906379887107 21.34170541922149 17.56060791333805 2 1 -3
119 1 1 0.5897 2.346982270325773 20.415874500334986 18.96140318812003 2 -3 -3
543 1 1 0.5897 2.4788268782733756 19.04762891002526 21.337789672205304 -8 0 0
409 1 2 -1.1794 1.1015686813283458 18.311439223238153 16.840284298596366 0 2 -2
532 1 2 -1.1794 0.44632012458114334 21.649060855499954 21.876816996666648 -6 -3 -3
466 1 2 -1.1794 7.589597911549247 3.9044888541918525 4.6487386635491506 2 -4 5
105 1 1 0.5897 7.239663960741897 2.4064469013106953 2.198846546022131 2 1 9
104 1 1 0.5897 6.992557524990467 3.581216102025169 3.1212399321637916 2 1 9
103 1 2 -1.1794 6.739135810174253 3.2190664354431453 2.2721975132539525 2 1 9
23 1 1 0.5897 4.756340290554189 2.854018124676445 2.0372296728667 -4 3 2
468 1 1 0.5897 7.371611100496832 4.78346975955737 4.958885616345138 2 -4 5
467 1 1 0.5897 8.428012741432864 4.009757747411697 4.199042022681798 2 -4 5
725 1 1 0.5897 6.428724744183899 2.215362312596553 4.804469663830852 2 -1 2
724 1 2 -1.1794 6.033015334004304 1.4617952788506634 5.242445155305835 2 -1 2
48 1 1 0.5897 6.595618346157978 3.596909067789875 0.3270148907457841 4 -3 -1
212 1 1 0.5897 5.320813176058412 6.224236230579391 5.278135973071367 6 2 1
211 1 2 -1.1794 6.253736900058439 6.352189555798238 5.106308877058423 6 2 1
626 1 1 0.5897 6.053456941387773 5.414160491729039 8.277005940884191 -7 -2 -1
767 1 1 0.5897 5.944160533603163 1.9127578157373581 7.402527209104495 0 2 4
625 1 2 -1.1794 6.958474750537687 5.485933976760388 8.580380339354129 -7 -2 -1
627 1 1 0.5897 6.896260367578402 5.438456370161443 9.534390420485398 -7 -2 -1
478 1 2 -1.1794 8.630973818746943 3.4091804800699217 7.3708593416752715 -2 4 -6
54 1 1 0.5897 4.782750810187324 2.355261292055382 9.738878592938002 -5 -2 7
479 1 1 0.5897 8.483562886330569 3.5094143762433343 6.430398290009717 -2 4 -6
480 1 1 0.5897 8.124478428362393 4.116616972073778 7.769907717112184 -2 4 -6
432 1 1 0.5897 8.684565709185744 1.6976415844698232 7.80440817089794 -7 -4 -1
57 1 1 0.5897 5.839186786410423 3.7857213571146824 10.978082078650845 -1 3 1
766 1 2 -1.1794 5.695462965835928 1.5748772712075085 8.26289181967667 0 2 4
55 1 2 -1.1794 6.60198049677116 4.317244982798947 11.205844301686257 -1 3 1
714 1 1 0.5897 8.431362025856812 2.758744331308826 13.03832662044728 -9 3 2
713 1 1 0.5897 8.931842296778335 2.0068144553323712 11.823381117076277 -9 3 2
56 1 1 0.5897 7.2463980290849666 3.686757707930422 11.527523869607144 -1 3 1
316 1 2 -1.1794 7.561382544333446 2.434562813443773 14.680952588633982 -5 -4 3
317 1 1 0.5897 8.005918446238226 2.784389853925841 15.453133065640051 -5 -4 2
800 1 1 0.5897 7.0055997734810065 5.9698113816437886 11.820429288531644 0 3 -3
318 1 1 0.5897 6.780914258572173 2.9804943302787272 14.585467358479436 -5 -4 3
265 1 2 -1.1794 5.463767905196734 4.064603702146924 13.992511115702253 -2 -3 1
712 1 2 -1.1794 8.821207973733419 2.890569395871027 12.174092117953228 -9 3 2
266 1 1 0.5897 4.754793260445817 4.663805229980385 14.226080114736664 -2 -3 1
267 1 1 0.5897 5.667777513967553 4.2775787973465444 13.081870533872356 -2 -3 1
290 1 1 0.5897 4.623119004088025 3.1225583265174164 15.419715758079723 -7 -4 -7
116 1 1 0.5897 8.835991677352354 4.227597905443089 16.833352271888188 -3 -8 0
46 1 2 -1.1794 6.415402026085178 3.7654793470264702 21.484092606155063 4 -3 -2
615 1 1 0.5897 5.720858006546497 5.130411015093683 17.1865736752953 -4 1 6
47 1 1 0.5897 6.997429270296886 3.168769795651286 21.013534501070296 4 -3 -2
613 1 2 -1.1794 5.8103675290552514 4.397894686070172 17.79624417492644 -4 1 6
855 1 1 0.5897 5.182226300483807 2.3477404859352142 21.012903782293048 -3 -1 -3
302 1 1 0.5897 8.580270372109975 1.8041894786545005 19.658140965703225 1 6 4
117 1 1 0.5897 7.4948975643964015 3.8331381782689653 17.414643345665674 -3 -8 0
206 1 1 0.5897 7.050219357985183 5.624803688600437 21.178221648399855 -3 5 0
301 1 2 -1.1794 8.218509492015194 2.1840988082532746 20.458794988070764 1 6 4
115 1 2 -1.1794 8.340333301804396 3.471725726109038 17.148399671217994 -3 -8 0
205 1 2 -1.1794 7.440098453692071 6.4839344896287825 21.01645854890601 -3 5 0
207 1 1 0.5897 8.219643168185602 6.298966886213944 20.49266057146859 -3 5 0
614 1 1 0.5897 5.110338817854507 3.7934350950441766 17.549587137860197 -4 1 5
420 1 1 0.5897 5.044386119406933 5.370613038945205 19.095175638569337 -5 0 5
303 1 1 0.5897 8.88754355630918 2.0234261096706767 21.12424329688048 1 6 4
577 1 2 -1.1794 5.30493140199258 10.197299294834984 3.170605240192289 2 2 -1
820 1 2 -1.1794 8.768424753574305 6.976518368209387 1.259209310710236 3 3 4
348 1 1 0.5897 5.935840834335693 8.444208929504232 2.788895860096143 -7 5 0
346 1 2 -1.1794 6.248682236098957 7.557226022234045 2.610973537731872 -7 5 0
571 1 2 -1.1794 5.549407196976854 11.329946626873166 0.4674288739781108 5 -1 -4
347 1 1 0.5897 7.140053503489935 7.678258780692989 2.283789594526707 -7 5 0
821 1 1 0.5897 8.37087584323724 6.734058638321043 0.42288765149745533 3 3 4
579 1 1 0.5897 5.625628754402209 10.386882315188547 4.052342686244486 2 2 -1
707 1 1 0.5897 7.170263428006624 11.315731519808361 5.1135614162435195 0 -4 -8
573 1 1 0.5897 5.514678256902058 10.913652236662578 1.3286766976662447 5 -1 -4
213 1 1 0.5897 6.284103390266748 6.77097730520041 4.246112387877537 6 2 1
510 1 1 0.5897 4.84625983966389 7.837436983104824 1.6028379494236231 3 -4 3
572 1 1 0.5897 4.65564884487398 11.635647390810306 0.3124091078035438 5 -1 -4
481 1 2 -1.1794 5.972846124549248 8.378613550768694 9.859679235162828 -2 3 -3
483 1 1 0.5897 6.3784787890581045 9.10413386426633 10.334362347229456 -2 3 -3
706 1 2 -1.1794 7.067570012265276 10.551328984616513 5.680468995265021 0 -4 -8
708 1 1 0.5897 7.83208229697617 10.574935309325541 6.2559939115186785 0 -4 -8
557 1 1 0.5897 6.358659085638396 7.436129127541687 6.469540339279436 0 1 3
482 1 1 0.5897 6.21489255257662 8.524981333819255 8.945172819935253 -2 3 -3
558 1 1 0.5897 6.735305140396429 8.902187815707528 6.496790965467343 0 1 3
556 1 2 -1.1794 6.43958587322137 8.186043704371853 7.058882414380607 0 1 3
809 1 1 0.5897 8.42764215975007 7.047412989798817 7.552888998192853 5 -1 -2
759 1 1 0.5897 8.281783428248056 10.011722876835458 10.93902479662538 -3 4 0
757 1 2 -1.1794 7.400708968217993 10.348838709962433 11.10124529049659 -3 4 0
825 1 1 0.5897 8.83454861215567 6.5362939419193555 11.044295491060945 -4 5 0
121 1 2 -1.1794 5.824538544180268 8.486001225074805 14.055484279955973 1 0 5
189 1 1 0.5897 7.902988509994882 10.130010293575994 15.866542531896421 -3 7 3
188 1 1 0.5897 7.24821489766874 9.645987715489591 14.59023909738007 -3 7 3
309 1 1 0.5897 8.224399102426293 6.96108903038608 16.121610022718027 1 4 -1
123 1 1 0.5897 6.06519506111574 7.808930312316142 13.423106251009374 1 0 5
187 1 2 -1.1794 7.923434043357507 10.241136210280079 14.916024160910023 -3 7 3
122 1 1 0.5897 5.706372171361377 8.01359753029799 14.879570958094137 1 0 5
43 1 2 -1.1794 8.844091776060868 7.012859897205543 14.202386644490755 0 4 -1
45 1 1 0.5897 8.311657230252624 7.026829461847064 13.407047194841349 0 4 -1
758 1 1 0.5897 7.529751189766454 11.072401603149395 11.714493554917361 -3 4 0
801 1 1 0.5897 6.660476153543659 7.301168277412588 11.187674300967094 0 3 -3
511 1 2 -1.1794 5.239370079303622 6.639876367983945 16.353240429414694 3 1 -8
799 1 2 -1.1794 7.2002308835284055 6.90560197763005 11.872125785470837 0 3 -3
184 1 2 -1.1794 4.730616211881883 10.690050128021152 16.595556498611828 2 6 4
307 1 2 -1.1794 7.763873378577378 6.877473477963332 16.95657762742593 1 4 -1
171 1 1 0.5897 4.9115908718914305 8.308203439061181 21.406346208823187 0 4 1
169 1 2 -1.1794 5.47920272252649 8.324662818152301 20.63574867387416 0 4 1
419 1 1 0.5897 4.913906942957582 6.53625463296983 20.052350084022663 -5 0 5
308 1 1 0.5897 7.8876121857250485 7.724586660413855 17.384769204032384 1 4 -1
526 1 2 -1.1794 6.35114666658784 10.872847880222588 19.564602192082393 -2 -4 1
527 1 1 0.5897 7.180763137180943 11.240559137521934 19.869270706269305 -2 -4 1
528 1 1 0.5897 6.201233222353605 10.11647115200481 20.131757462984744 -2 -4 1
170 1 1 0.5897 6.286067049684972 7.897078762270339 20.92282520438313 0 4 1
646 1 2 -1.1794 8.840856108040144 11.31335309526735 20.755448423835617 -2 2 1
383 1 1 0.5897 7.541100226900612 10.026077658767584 18.41896557102768 -8 -3 -2
382 1 2 -1.1794 7.995328410527675 9.605458047183118 17.688893844523157 -8 -3 -2
384 1 1 0.5897 8.814551084704984 10.09305251863309 17.60301496597929 -8 -3 -2
513 1 1 0.5897 4.646938102612321 7.225963389418628 16.824252214453168 3 1 -8
185 1 1 0.5897 5.243406719260775 11.347623220006797 17.06559309258344 2 6 4
512 1 1 0.5897 6.1035785346064815 6.826851835164319 16.719907926293306 3 1 -8
168 1 1 0.5897 5.114625653110537 13.904446353541973 2.107417293071543 -2 1 0
113 1 1 0.5897 7.9703445031485805 16.091035950150875 2.461117864491416 -7 1 4
392 1 1 0.5897 6.812750305669099 13.190913852725144 3.7368677911102672 8 -2 2
393 1 1 0.5897 8.174189067091547 12.538451987712842 3.6241807180219965 8 -2 2
112 1 2 -1.1794 7.145479220572567 16.389071736649164 2.8445541641449106 -7 1 4
166 1 2 -1.1794 5.489230729065661 14.073783094163131 2.971852880583141 -2 1 0
114 1 1 0.5897 6.601224079252364 15.602639836312228 2.8841146186956923 -7 1 4
167 1 1 0.5897 4.730426417011396 14.184215969626084 3.5447978069569155 -2 1 0
391 1 2 -1.1794 7.518115227191823 12.815372851069075 4.263813583708666 8 -2 2
771 1 1 0.5897 8.82288272283443 14.561042411937827 0.9801932109970594 5 2 1
215 1 1 0.5897 6.82636800247176 12.701103296250682 0.457744811461702 1 2 0
413 1 1 0.5897 8.75921600476567 14.253909368633671 5.209087988707417 0 -4 1
335 1 1 0.5897 6.301661366331976 16.84413602669305 1.1798165745694706 0 1 5
214 1 2 -1.1794 7.488634910449138 13.367338697025973 0.2739673440774754 1 2 0
521 1 1 0.5897 5.922237726942756 12.895702474292522 6.339576638591514 -7 0 -2
520 1 2 -1.1794 5.48544837304921 13.660912328605683 6.713622320523374 -7 0 -2
774 1 1 0.5897 8.499233155021743 13.675576085820124 10.420116191129113 5 -2 3
561 1 1 0.5897 6.2917940361866815 15.476734738133835 6.7075863447004105 5 3 1
650 1 1 0.5897 5.530703934563953 13.258759515855319 8.591948851306318 1 -2 2
649 1 2 -1.1794 5.7343586165091045 13.114048847339326 9.51598652456822 1 -2 2
293 1 1 0.5897 5.5119124703414615 14.496848370792705 10.611514072258684 0 -3 0
559 1 2 -1.1794 6.180067138871002 16.402436384811335 6.923999952913859 5 3 1
560 1 1 0.5897 5.807830170097781 16.79076523334235 6.132240991060346 5 3 1
651 1 1 0.5897 6.659850215955054 12.869712135658073 9.522350382234766 1 -2 2
772 1 2 -1.1794 8.43546166942285 13.149117783431992 9.623236502890784 5 -2 3
440 1 1 0.5897 9.008752871287937 14.353348740415868 8.487925136419005 -2 4 -6
498 1 1 0.5897 4.965218318084394 16.404743407515788 8.382128841072209 1 -2 1
497 1 1 0.5897 5.0175526953716565 16.235751961378064 9.885675889931974 1 -2 2
416 1 1 0.5897 4.691084900368407 11.956565764984127 10.440015635724503 -1 -2 -2
849 1 1 0.5897 5.947092372582646 13.330098290949442 16.526996716175212 4 -2 5
564 1 1 0.5897 6.799890268210841 12.979909055501777 13.561230073160033 3 2 1
850 1 2 -1.1794 7.776595217825466 16.14936512956371 14.325770777879386 -5 0 -3
782 1 1 0.5897 8.945404192473042 15.691918312921864 11.443017013811968 0 -2 -2
852 1 1 0.5897 7.611687739007256 15.79845923891911 13.450604635927824 -5 0 -3
536 1 1 0.5897 5.001909412103465 14.483258718866868 14.309045458728159 6 3 3
294 1 1 0.5897 4.859669457294961 15.21953918947399 11.770968998131046 0 -3 0
537 1 1 0.5897 6.480373989258595 14.782587988082508 14.437350227840478 6 3 3
851 1 1 0.5897 8.568583992116787 16.67782866404727 14.227129275778639 -5 0 -3
535 1 2 -1.1794 5.809180530974684 14.154715128882712 14.704811482854621 6 3 3
562 1 2 -1.1794 7.466264811746551 12.425175465538265 13.15567107653918 3 2 1
300 1 1 0.5897 6.978336619683388 16.44298947153039 15.96781737003999 -2 2 -1
783 1 1 0.5897 7.516514321783896 15.197852868640853 11.36496696595672 0 -2 -2
781 1 2 -1.1794 8.34843214440735 15.040750509205541 11.81159084513031 0 -2 -2
292 1 2 -1.1794 5.636866755319596 15.231487545430438 11.212312968614524 0 -3 0
563 1 1 0.5897 7.760070734201053 11.848447594837587 13.860871343316505 3 2 1
16 1 2 -1.1794 6.741099133960711 14.487591877239781 19.992308991213765 -2 2 0
648 1 1 0.5897 8.536921200102833 11.976198286907982 21.37554808619604 -2 2 1
848 1 1 0.5897 7.230857284646044 13.049093442668912 17.278602107629233 4 -2 5
18 1 1 0.5897 6.306508019791592 14.078997772588128 19.243671107963088 -2 2 0
17 1 1 0.5897 7.295713692820711 15.165942144800038 19.606953961013147 -2 2 0
698 1 1 0.5897 5.359686428548103 16.486135825162446 17.817557888422737 4 1 -3
847 1 2 -1.1794 6.278685869723813 12.993588163759567 17.359493182583243 4 -2 5
216 1 1 0.5897 7.1513771242897075 13.83695348331224 21.593027910246484 1 2 -1
637 1 2 -1.1794 9.055230459571536 13.61656901158894 16.701532844748154 -6 -3 8
313 1 2 -1.1794 8.355870638037448 16.499517491957235 19.04336445357411 1 -1 0