LAMMPS data file via write_data, version 30 Jul 2021, timestep = 26750000

972 atoms
2 atom types
648 bonds
1 bond types
324 angles
1 angle types

0.16043162287319745 19.839569377123052 xlo xhi
0.17842175134365412 19.82157924865355 ylo yhi
0.07870965287755993 20.621288347133635 zlo zhi

Masses

1 1.008
2 15.999

Pair Coeffs # lj/cut/tip4p/long/omp

1 0 0
2 0.21084 3.1668

Bond Coeffs # harmonic/omp

1 450 0.9572

Angle Coeffs # harmonic/omp

1 55 104.52

Atoms # full

4 2 2 -1.1794 4.150352821204466 1.3143873996705622 3.3438174041572992 0 0 0
5 2 1 0.5897 4.352792419091099 0.8917522137072295 2.509192060907339 0 0 0
3 1 1 0.5897 3.834372131932919 2.488144741180793 0.30136793397586104 0 0 0
10 4 2 -1.1794 1.5613753197531657 3.9291656779061666 4.13279783026553 0 0 0
11 4 1 0.5897 1.2838080889006063 3.3008696739822883 3.466178560256533 0 0 0
12 4 1 0.5897 2.507501168564077 4.0066182303390265 4.01041026009414 0 0 0
16 6 2 -1.1794 4.256562366800181 4.027526521350422 3.5825809871507626 0 0 0
18 6 1 0.5897 4.232347917318735 3.092077089846249 3.3811838526261226 0 0 0
23 8 1 0.5897 2.7867139370729275 0.9655977582243948 4.202794355556683 0 0 0
31 11 2 -1.1794 1.2375866464081238 2.170165505279636 2.072660704061685 0 0 0
33 11 1 0.5897 1.9294248745221212 2.3018980814202132 1.4244451945688035 0 0 0
17 6 1 0.5897 4.539235181350186 4.441344373049079 2.767075826952299 0 0 0
6 2 1 0.5897 4.873280405644045 1.0663073016241744 3.9200188796136426 0 0 0
32 11 1 0.5897 0.4266829958747851 2.355832395921027 1.5992514185860025 0 0 0
236 79 1 0.5897 1.1537539218659283 0.2709041445229222 2.0128571383336458 0 1 0
20 7 1 0.5897 1.3835331779191036 5.02218117305702 2.7375123268246564 0 0 0
22 8 2 -1.1794 2.1164526921165034 0.8112514997223004 4.868447697846802 0 0 0
356 119 1 0.5897 1.6394937783759669 2.36828204454333 8.319865265254405 0 0 0
27 9 1 0.5897 2.5503945395532717 4.683856494084796 6.756090450445312 0 0 0
325 109 2 -1.1794 2.7429069931935657 2.745535868520699 6.883655917517216 0 0 0
326 109 1 0.5897 2.519610040874872 2.1840023498689987 6.141346599601699 0 0 0
327 109 1 0.5897 3.648196082013678 2.516631340978279 7.093926545940327 0 0 0
328 110 2 -1.1794 4.007407575484669 1.6152659551301825 10.054833687974925 0 0 0
355 119 2 -1.1794 1.0009443116029577 2.1771052759636547 9.006806228759073 0 0 0
561 187 1 0.5897 0.9193954876982412 0.4898987121042094 8.747777908844599 0 1 0
330 110 1 0.5897 4.1411677007723195 0.8707574655316724 9.46829490038535 0 0 0
342 114 1 0.5897 4.264287089714955 5.031078081748053 9.99074197002806 0 0 0
335 112 1 0.5897 1.1137443634977615 3.4433189014131886 10.085692446901675 0 0 0
81 27 1 0.5897 0.22747067496182072 4.428374809830665 5.356109221132359 1 0 0
341 114 1 0.5897 4.118319189892116 3.5524262323511695 10.280797624483878 0 0 0
336 112 1 0.5897 2.05567922308291 4.259749440167879 10.944753069836356 0 0 0
350 117 1 0.5897 2.7687796424434357 4.42642205336309 13.471008527362503 0 0 0
346 116 2 -1.1794 2.126710423557035 0.9597192006749615 12.026609892059783 0 0 0
347 116 1 0.5897 1.1888299537686071 1.0233484363951812 11.846372487410793 0 0 0
348 116 1 0.5897 2.5467310581006726 1.2105396188669066 11.203890407255345 0 0 0
334 112 2 -1.1794 1.1300428833874345 4.156215789559831 10.724222594223074 0 0 0
649 217 2 -1.1794 2.770888334594432 2.7228256916121754 13.91843814460664 0 0 0
650 217 1 0.5897 2.662869600169606 2.0890360716225693 13.209317188842522 0 0 0
651 217 1 0.5897 2.057558288126397 2.527144594547293 14.525931955162195 0 0 0
683 228 1 0.5897 4.501075341771532 2.9361741103385306 14.524634058581109 0 0 0
329 110 1 0.5897 4.472413987691962 1.3758042624222375 10.85647104754066 0 0 0
340 114 2 -1.1794 3.915291738043695 4.417334385326747 10.637058873306355 0 0 0
652 218 2 -1.1794 4.436761709483312 1.3634573564552757 16.854410573728348 0 0 0
653 218 1 0.5897 3.5599039913041 1.255357144291904 17.222643629876917 0 0 0
679 227 2 -1.1794 0.6687404026227142 2.2102313668884945 15.766189704600174 0 0 0
658 220 2 -1.1794 1.4578105107935702 4.323460107981718 17.418484500481295 0 0 0
659 220 1 0.5897 0.9732052503077676 4.534564306889965 18.21647248764325 0 0 0
664 222 2 -1.1794 4.1128971176824844 3.9928877096738433 17.021552058003532 0 0 0
665 222 1 0.5897 3.196139443700388 4.077361661200876 17.283430156199117 0 0 0
666 222 1 0.5897 4.23450977587635 3.055219333415173 16.87258603317009 0 0 0
670 224 2 -1.1794 2.1153666945618563 1.103073691908422 18.37061800892383 0 0 0
671 224 1 0.5897 2.3255341649355215 1.7126617130758734 19.078019341065502 0 0 0
672 224 1 0.5897 1.172677086632511 0.9580432819336497 18.450951895228734 0 0 0
681 227 1 0.5897 0.7431194737699106 2.845406597113391 16.478387939691203 0 0 0
654 218 1 0.5897 4.493827985028551 0.6961181474173276 16.17059315458426 0 0 0
2 1 1 0.5897 2.9114673384909526 3.5981208123490904 20.38788717027951 0 0 -1
884 295 1 0.5897 1.0508001646603664 0.5122746286619524 15.6327072052672 0 1 0
660 220 1 0.5897 1.1592944696154386 4.969530458830137 16.77841735792633 0 0 0
1 1 2 -1.1794 2.9624024232724917 2.6469873476897607 20.48256168931798 0 0 -1
656 219 1 0.5897 4.989339371421662 4.155820818116938 18.643469045698186 0 0 0
110 37 1 0.5897 1.8708675803173405 8.922769837080777 1.1361896033953982 0 0 0
141 47 1 0.5897 1.0124196509714405 7.633800431019961 2.52425063464884 0 0 0
139 47 2 -1.1794 0.7130896642113451 8.50770446456726 2.2734958532461134 0 0 0
114 38 1 0.5897 3.4512013826759937 7.783136316233925 3.6464542943452316 0 0 0
15 5 1 0.5897 4.565427924277268 6.667601179487806 2.1554835766484683 0 0 0
14 5 1 0.5897 4.1984202363454255 6.0409958197096945 0.8271414817290769 0 0 0
113 38 1 0.5897 4.9558580349836 7.799830796463024 3.8120831749074426 0 0 0
19 7 2 -1.1794 1.1439729826135006 5.635780053357383 2.0430290143894645 0 0 0
126 42 1 0.5897 4.386615680266611 9.756272116524478 3.487115036763453 0 0 0
112 38 2 -1.1794 4.25827812513703 8.049093985652867 3.205925199466179 0 0 0
13 5 2 -1.1794 4.867863296114704 6.027641975920122 1.5111310255546815 0 0 0
140 47 1 0.5897 0.9723871812194352 9.06903631009991 3.0041462771571332 0 0 0
674 225 1 0.5897 2.0685581593038114 5.4164377291587416 0.48974063397829415 0 0 1
132 44 1 0.5897 1.0415072045271094 7.340250805297495 4.920001767200659 0 0 0
111 37 1 0.5897 3.252027671385536 8.966934410866605 0.5180230302127662 0 0 0
130 44 2 -1.1794 1.9743956467985262 7.33081707166598 4.706027903492853 0 0 0
21 7 1 0.5897 0.19089816237175938 5.57057783110676 1.983446001308714 0 0 0
109 37 2 -1.1794 2.344598234399872 9.228923938667046 0.36287934342353984 0 0 0
339 113 1 0.5897 4.125822046478899 5.803678504180745 7.859774812369452 0 0 0
464 155 1 0.5897 1.5730066769726414 9.010518381499493 8.388867465994696 0 0 0
25 9 2 -1.1794 2.6026350531959492 5.638886887700026 6.7192371724060616 0 0 0
437 146 1 0.5897 4.510435712600017 7.650237484266434 9.482907175967732 0 0 0
344 115 1 0.5897 0.9777603634105897 5.432988106827502 9.46585600942536 0 0 0
435 145 1 0.5897 2.348941461670392 8.414566402666535 6.129324193028334 0 0 0
433 145 2 -1.1794 2.5335639177137947 9.012874902809548 6.853297755349845 0 0 0
463 155 2 -1.1794 0.8933829036364554 8.952196958905542 9.06035137010343 0 0 0
345 115 1 0.5897 0.9998268874266185 6.939432783235765 9.317542669177278 0 0 0
26 9 1 0.5897 2.0157027267023193 5.938312425266758 7.413531241330122 0 0 0
343 115 2 -1.1794 0.8580584926977637 6.132150934170631 8.823164622210886 0 0 0
468 156 1 0.5897 4.258882076219862 9.051925649194466 7.240128289220009 0 0 0
438 146 1 0.5897 4.328150637441731 9.071665476194063 9.97093325827841 0 0 0
436 146 2 -1.1794 4.307480284653707 8.161420641872773 10.2663010244348 0 0 0
337 113 2 -1.1794 4.690036402844435 5.988173575377506 8.610647322588433 0 0 0
434 145 1 0.5897 2.3268717500327565 9.880617971673447 6.506166747489944 0 0 0
131 44 1 0.5897 2.3576726876344636 6.715170112961764 5.330745877790449 0 0 0
757 253 2 -1.1794 2.4966341313990488 9.2130762582617 13.738694151664099 0 0 0
792 264 1 0.5897 4.537314105400786 9.134519516998342 14.229206218774655 0 0 0
351 117 1 0.5897 3.386556048910963 5.736892744624684 13.910138248280672 0 0 0
759 253 1 0.5897 2.3916193213972474 8.659824079996074 12.964690435663915 0 0 0
349 117 2 -1.1794 2.677784255291401 5.37477191109332 13.378471368187114 0 0 0
454 152 2 -1.1794 1.9212941834926192 7.424412998343704 11.486030459046942 0 0 0
455 152 1 0.5897 2.6528918928667515 7.573173540056916 10.887020268788302 0 0 0
456 152 1 0.5897 2.1415919594932067 6.608838059019648 11.936047169661993 0 0 0
668 223 1 0.5897 1.4645850743166848 5.734278627807005 14.614198484733828 0 0 0
789 263 1 0.5897 1.5221310875416898 9.053340724972344 15.203160564919267 0 0 0
661 221 2 -1.1794 4.67871072518972 6.0716269020305935 15.062681151501133 0 0 0
667 223 2 -1.1794 0.94343265892139 5.938485396566157 15.390658521820702 0 0 0
788 263 1 0.5897 1.0448172288184088 9.497440742297988 16.569456051759484 0 0 0
673 225 2 -1.1794 2.800091761647883 5.382511073373906 20.41597148865657 0 0 0
787 263 2 -1.1794 0.8872167143491477 8.843869267133615 15.888129900508577 0 0 0
779 260 1 0.5897 2.337711892606929 8.08696293349103 19.474112824066303 0 0 0
780 260 1 0.5897 3.0126389248995524 7.680941291905411 18.18128719241836 0 0 0
675 225 1 0.5897 2.6208230812878557 6.085696741575563 19.791789448473075 0 0 0
760 254 2 -1.1794 4.273167633612538 7.982085584725227 16.94884049394799 0 0 0
761 254 1 0.5897 4.37318121434392 8.932887384368872 16.995639557677745 0 0 0
778 260 2 -1.1794 2.3064633060553903 7.431454779439824 18.777313707897665 0 0 0
669 223 1 0.5897 1.0694944514475977 6.877914177432294 15.524048787307262 0 0 0
858 286 1 0.5897 0.5864704743166389 7.611030302342593 18.911124577726593 1 0 0
663 221 1 0.5897 4.375280459082093 6.777156297287333 15.633962480660925 0 0 0
762 254 1 0.5897 4.839020917459421 7.646735283061526 17.644211061429445 0 0 0
662 221 1 0.5897 4.616167717493211 5.28292136653783 15.601403963438248 0 0 0
125 42 1 0.5897 4.942670141364568 10.805998056286978 4.4255657222812275 0 0 0
118 40 2 -1.1794 1.553432111607904 10.653669910926785 3.6803731408094 0 0 0
119 40 1 0.5897 2.4669238966989395 10.701087176681183 3.9622339344030935 0 0 0
120 40 1 0.5897 1.4580166755495267 11.371103808755079 3.0539596440073744 0 0 0
123 41 1 0.5897 4.277362354786818 12.13873569829142 0.9451769145089586 0 0 0
783 261 1 0.5897 1.9635473930744614 12.264037202980669 0.735940537642768 0 0 1
124 42 2 -1.1794 4.28718087138312 10.673883201924275 3.7406979457440728 0 0 0
240 80 1 0.5897 2.3432978337710133 14.056422791705845 4.177082224478462 0 0 0
127 43 2 -1.1794 0.7960157936150881 12.709107289203978 2.0583835521408234 0 0 0
129 43 1 0.5897 0.8978070935127009 13.649801274068391 2.203063399874572 0 0 0
222 74 1 0.5897 4.194941688390589 13.770571854619764 2.535147235805948 0 0 0
220 74 2 -1.1794 3.8173989072121888 14.291650432693475 3.2437618370051795 0 0 0
122 41 1 0.5897 4.593630056557305 11.680845191457326 2.353062186753195 0 0 0
121 41 2 -1.1794 4.87108840679061 12.300488777282927 1.6783289000595605 0 0 0
238 80 2 -1.1794 1.7036403399018596 13.892929210529278 4.870113417639914 0 0 0
133 45 2 -1.1794 2.464392111198708 11.669295943826505 6.589075784622175 0 0 0
134 45 1 0.5897 1.8865721360937486 12.074062162036904 7.235969734412836 0 0 0
135 45 1 0.5897 3.3427055887236 11.955925224134498 6.83921113520618 0 0 0
239 80 1 0.5897 1.9754390758979081 13.060226310668954 5.256011093981447 0 0 0
446 149 1 0.5897 4.505770592460624 13.262538407450872 8.67408669270994 0 0 0
448 150 2 -1.1794 4.117105694926568 10.78682200284016 9.908419537669992 0 0 0
450 150 1 0.5897 4.2357219253223715 11.374254797816223 9.162056391622759 0 0 0
451 151 2 -1.1794 0.7976099494059237 12.709203497223108 8.494620981371362 0 0 0
453 151 1 0.5897 0.937887577929854 12.141899394029663 9.252705089543378 0 0 0
544 182 2 -1.1794 4.370378474004189 14.408673358899952 10.063587573563218 0 0 0
573 191 1 0.5897 0.9124242466969664 14.51815630339642 9.093787079139913 0 0 0
445 149 2 -1.1794 4.777416580035937 12.626427761193078 8.01244060635863 0 0 0
443 148 1 0.5897 1.2320204277818976 10.255079892649942 10.113509106152547 0 0 0
188 63 1 0.5897 0.2781210149418496 11.115186323919493 5.291153945872639 1 0 0
512 171 1 0.5897 0.18555591192181833 10.99275657394889 12.052960717373697 1 0 0
449 150 1 0.5897 4.706649780111132 11.129905907120987 10.579917987984587 0 0 0
457 153 2 -1.1794 2.3385978993199483 11.91439078502048 13.481670839661177 0 0 0
458 153 1 0.5897 1.629658973369611 12.09099138903696 14.100051280034817 0 0 0
459 153 1 0.5897 3.1255775040518334 12.237790496173195 13.920113281577269 0 0 0
442 148 2 -1.1794 1.556903132106168 11.011506735151666 10.601841677887567 0 0 0
444 148 1 0.5897 2.4958361355236445 11.031205845000587 10.417016491304874 0 0 0
562 188 2 -1.1794 2.1080667792423133 14.04883482171283 11.677630424307639 0 0 0
563 188 1 0.5897 2.238758756384777 13.21688382829862 12.132541082301449 0 0 0
545 182 1 0.5897 3.6024466475759906 14.265739084657337 10.616783534776989 0 0 0
758 253 1 0.5897 2.392009491888533 10.10637757770394 13.411162090109654 0 0 0
769 257 2 -1.1794 4.5752199175914 12.537897433361492 14.988812846087102 0 0 0
564 188 1 0.5897 2.3575694398498093 14.714587160783157 12.318513300701458 0 0 0
642 214 1 0.5897 0.4168718378597207 13.95202586028862 12.225687162448143 1 0 0
766 256 2 -1.1794 1.7941572475733234 10.954761698346072 17.376902905319586 0 0 0
767 256 1 0.5897 1.094707259198195 10.987298571694996 18.029487803090852 0 0 0
768 256 1 0.5897 1.4695078924034521 11.486717532062459 16.65040127254668 0 0 0
772 258 2 -1.1794 4.4500760454101345 10.889365813625252 17.203975391842132 0 0 0
773 258 1 0.5897 3.4935522403054056 10.90940358785974 17.175440066775902 0 0 0
774 258 1 0.5897 4.723632611497219 11.394245001112981 16.43817247151193 0 0 0
870 290 1 0.5897 4.730975054078258 14.14883616846683 17.571105025511947 0 0 0
869 290 1 0.5897 3.235499534943146 14.234047742203852 17.352015375197592 0 0 0
868 290 2 -1.1794 4.073864218560346 14.352890321822102 16.905710373683544 0 0 0
886 296 2 -1.1794 2.10714187200783 14.06287698926621 18.714321644184867 0 0 0
888 296 1 0.5897 2.2751697331139655 13.207162875659401 19.10893129216738 0 0 0
782 261 1 0.5897 2.4763931688804965 11.023447410911924 20.578689081141107 0 0 0
771 257 1 0.5897 4.3278066578063745 13.190723917777419 15.643649910845236 0 0 0
965 322 1 0.5897 0.3572348797690872 14.012908018262456 18.73848912878314 1 0 0
887 296 1 0.5897 2.3857622712818176 14.692618997840382 19.379144748666324 0 0 0
775 259 2 -1.1794 0.7127783184961146 12.630386085811038 15.577747797741422 0 0 0
777 259 1 0.5897 0.9404414894685488 13.54679271649542 15.734523605510974 0 0 0
781 261 2 -1.1794 2.5704148043573585 11.975840053201486 20.596725926624327 0 0 0
249 83 1 0.5897 1.529562040489403 15.727594787796392 1.5595223713718716 0 0 0
248 83 1 0.5897 0.9972652377453267 16.207290676091723 2.8930776106075737 0 0 0
890 297 1 0.5897 2.2098099969017215 18.83027358316567 0.21764050601273618 0 0 1
235 79 2 -1.1794 1.103596038998475 19.04842824329917 1.6074214962942874 0 0 0
226 76 2 -1.1794 1.867253886981695 17.52805947065483 3.712680155536223 0 0 0
227 76 1 0.5897 1.6041806922843977 18.018309815536206 2.9338033887859387 0 0 0
221 74 1 0.5897 4.13722900829878 15.17979166919412 3.0852543545652136 0 0 0
247 83 2 -1.1794 0.9023079191661995 15.506596531704517 2.247924634080083 0 0 0
230 77 1 0.5897 4.297127190803131 18.73033648692443 0.6538879529514794 0 0 0
232 78 2 -1.1794 4.480275943894194 16.979897827223944 3.3577649318102747 0 0 0
228 76 1 0.5897 1.2083059531232963 17.75059236880881 4.370247786964814 0 0 0
234 78 1 0.5897 3.5748376058850737 17.23392622893806 3.5361269811668663 0 0 0
233 78 1 0.5897 4.772976872990324 17.592623926523736 2.683167824672207 0 0 0
229 77 2 -1.1794 4.761041784559188 18.956062046715516 1.460129851502 0 0 0
219 73 1 0.5897 3.4242814226056306 15.795539228865978 0.5170751517923846 0 0 0
217 73 2 -1.1794 2.5368802097773866 15.958443012699943 0.19749447270956305 0 0 0
237 79 1 0.5897 0.16977970991049382 18.912023598292556 1.4476097497003568 0 0 0
571 191 2 -1.1794 0.9187658261262659 15.457607054323974 8.910461851790478 0 0 0
559 187 2 -1.1794 0.9145089454670063 19.17962476988604 8.663156860318455 0 0 0
558 186 1 0.5897 4.179728008519667 17.603017187446866 10.10470189849253 0 0 0
241 81 2 -1.1794 2.8967058422592395 18.578259545789763 6.728634737041575 0 0 0
242 81 1 0.5897 2.7142859824784207 17.6548902114139 6.554525270801777 0 0 0
243 81 1 0.5897 2.2255272098333294 18.84086730537357 7.358498934085691 0 0 0
541 181 2 -1.1794 2.3905366353047244 15.91739311009999 6.6527675100181085 0 0 0
542 181 1 0.5897 1.85700715801551 15.681453018564461 7.4116290235009155 0 0 0
572 191 1 0.5897 0.9612898957048746 15.87017800879514 9.773118678372398 0 0 0
555 185 1 0.5897 4.146807806990843 18.759315263022195 8.085508418145047 0 0 0
576 192 1 0.5897 4.190647482849873 15.89350342835666 7.27777288131125 0 0 0
543 181 1 0.5897 2.0576023793342473 15.366178545488143 5.944599258647785 0 0 0
553 185 2 -1.1794 4.567687372480801 18.787993550475868 8.94471367524977 0 0 0
551 184 1 0.5897 1.2201700615375228 18.14837887597615 10.052464189397114 0 0 0
24 8 1 0.5897 2.3750196195562894 19.631338787793716 5.283048061381201 0 -1 0
885 295 1 0.5897 1.6569518316957643 19.114413908780307 14.715817306048898 0 0 0
866 289 1 0.5897 3.833371601697435 15.749200432969241 13.85598587752016 0 0 0
879 293 1 0.5897 4.2807950977547 18.79798870774337 14.727310084063514 0 0 0
867 289 1 0.5897 2.3915625816416997 15.629489136027663 14.301541965417785 0 0 0
550 184 2 -1.1794 1.3330687601761695 17.46819507811813 10.7163958451 0 0 0
552 184 1 0.5897 2.277957857361871 17.43227315090072 10.864886879364816 0 0 0
565 189 2 -1.1794 2.9589788303823448 18.477924876433548 13.530306214931551 0 0 0
566 189 1 0.5897 2.8564386262794628 17.583985836972857 13.203858349225175 0 0 0
567 189 1 0.5897 2.7474181068194 19.03320171934508 12.779896905930908 0 0 0
865 289 2 -1.1794 2.934870619529896 15.77501572651841 13.52707214335306 0 0 0
556 186 2 -1.1794 4.0716513417845 17.00322811895647 10.842795261226792 0 0 0
877 293 2 -1.1794 5.021746383293732 18.79959818015449 15.33324519838573 0 0 0
896 299 1 0.5897 0.26690697847450806 15.71071882647429 15.22651263113014 0 0 0
883 295 2 -1.1794 1.0797767159317648 19.212088776470566 15.473118373249665 0 0 0
557 186 1 0.5897 4.19915213708417 16.132860957869298 10.465414274054329 0 0 0
621 207 1 0.5897 0.30857929894292724 17.78129574930889 12.178030692348436 1 0 0
881 294 1 0.5897 3.4009861419826932 17.145242886847207 17.564714706264045 0 0 0
897 299 1 0.5897 1.2755449408925963 15.984962623562133 16.32158983818421 0 0 0
895 299 2 -1.1794 1.12235122860029 15.433482624005038 15.554394510246558 0 0 0
882 294 1 0.5897 4.360439016102773 16.106170643389227 17.024753200684817 0 0 0
880 294 2 -1.1794 4.31354032691946 17.02043371688041 17.30428067631112 0 0 0
874 292 2 -1.1794 1.5987408071246676 17.290696004885802 17.47035636272761 0 0 0
875 292 1 0.5897 1.0683460663522766 17.445072269437148 18.25204390443667 0 0 0
876 292 1 0.5897 1.3453708407685034 17.988950859828748 16.86666110245873 0 0 0
891 297 1 0.5897 2.694603192758412 19.359221470128254 19.42717957584565 0 0 0
878 293 1 0.5897 4.846151045840549 18.071289089167337 15.92900823481308 0 0 0
889 297 2 -1.1794 2.8028164134648414 18.628889402037437 20.03637338822487 0 0 0
218 73 1 0.5897 2.558381806459268 16.860817253836444 20.42154977538184 0 0 -1
69 23 1 0.5897 6.878056469484625 2.133221339801949 1.6961472979327659 0 0 0
9 3 1 0.5897 5.2378781989113055 4.2090871505376075 5.102247204156756 0 0 0
68 23 1 0.5897 8.391542294903987 2.1080926518092484 1.6758047641911924 0 0 0
67 23 2 -1.1794 7.642442874525426 2.1071366199476533 2.271639632413888 0 0 0
46 16 2 -1.1794 8.052467089533625 4.262776096106793 3.984602190538946 0 0 0
47 16 1 0.5897 7.798414022604812 3.4929078345119327 3.475734491693165 0 0 0
48 16 1 0.5897 7.383048229271645 4.332244819639733 4.665193748873925 0 0 0
34 12 2 -1.1794 5.543761836421506 2.3349658103012616 0.586367201724147 0 0 0
29 10 1 0.5897 7.000447888055496 0.9620701171670294 5.000420938875709 0 0 0
37 13 2 -1.1794 9.339869319613788 2.503632504831171 0.12932228775957222 0 0 0
58 20 2 -1.1794 8.725606812171081 0.853834838597047 5.02717805234459 0 0 0
273 91 1 0.5897 7.704610518636091 0.2005342361504773 2.0045179280146312 0 1 0
53 18 1 0.5897 9.941052031761329 4.071412464107505 3.995712216594502 0 0 0
28 10 2 -1.1794 6.073121948940138 0.8579892174647629 5.213460274208963 0 0 0
8 3 1 0.5897 5.74000010408494 3.6400503074580968 6.41216636074935 0 0 0
391 131 2 -1.1794 7.597214646353368 2.413476090698524 9.115895600734442 0 0 0
393 131 1 0.5897 7.5435768422273926 1.482661421025843 9.332503402303892 0 0 0
358 120 2 -1.1794 5.4340423316568796 2.25630848367544 7.442252270902218 0 0 0
361 121 2 -1.1794 9.217655895404507 2.735294567057369 6.935675097194566 0 0 0
392 131 1 0.5897 8.170624859001185 2.449071097835601 8.350322089144234 0 0 0
362 121 1 0.5897 9.182314461582617 3.671036515160412 6.737296516119235 0 0 0
7 3 2 -1.1794 5.84652034832866 4.384406368062101 5.819885796731199 0 0 0
359 120 1 0.5897 6.222656995166954 2.31503658409803 7.9815162341967145 0 0 0
360 120 1 0.5897 5.694991329500145 1.7208887339182444 6.69296311346698 0 0 0
59 20 1 0.5897 8.83647075842436 1.6123528034555752 5.600390087432679 0 0 0
352 118 2 -1.1794 5.478752417520572 0.9566170735054932 12.428495650458332 0 0 0
353 118 1 0.5897 6.365234967252964 1.0697260544262783 12.085695685788764 0 0 0
684 228 1 0.5897 5.595603181520396 3.69365315693986 13.803570018119162 0 0 0
331 111 2 -1.1794 6.20847518886104 4.8532948534303975 12.511990037010799 0 0 0
372 124 1 0.5897 7.699371459981202 4.504619793314829 11.547381580237296 0 0 0
685 229 2 -1.1794 8.752334528492414 2.879234625606842 13.859668361466035 0 0 0
382 128 2 -1.1794 8.137827241576607 1.0347672228343525 11.920256791775392 0 0 0
383 128 1 0.5897 8.314149906832249 1.6013660294801833 12.67129017469116 0 0 0
384 128 1 0.5897 8.95070764961685 1.0460519078854855 11.415035950345185 0 0 0
682 228 2 -1.1794 5.447488290538465 2.9454906730101666 14.381913441492564 0 0 0
686 229 1 0.5897 8.289847614520053 2.592086552606344 14.64696497554277 0 0 0
332 111 1 0.5897 5.490220920985386 4.621685519090212 11.923240570119562 0 0 0
370 124 2 -1.1794 8.358762917460682 4.386776628985645 10.863691641062578 0 0 0
354 118 1 0.5897 5.409820078502725 1.6009864743564906 13.132943393735133 0 0 0
386 129 1 0.5897 8.892563901885133 4.822075369262431 13.668238023888064 0 0 0
371 124 1 0.5897 8.068665016725069 3.612625400421987 10.381282281288572 0 0 0
687 229 1 0.5897 9.677586868137105 2.858421043540382 14.103858879714288 0 0 0
657 219 1 0.5897 6.48238379702378 4.135867565161938 18.89266825200694 0 0 0
716 239 1 0.5897 7.492376418676979 1.2485878727276594 15.993020170088963 0 0 0
676 226 2 -1.1794 5.997051825816506 0.39606482795660775 19.06609703003575 0 0 0
677 226 1 0.5897 5.561890915291377 0.668901856856317 18.25839457701763 0 0 0
715 239 2 -1.1794 7.365275135494441 2.186323476553213 16.13694206706295 0 0 0
38 13 1 0.5897 9.194497847288787 2.041032424201661 19.846628881980624 0 0 -1
694 232 2 -1.1794 7.927834133675621 4.159601636302131 17.904770329365704 0 0 0
695 232 1 0.5897 7.6553260661969285 3.4430400761855076 17.331634402969545 0 0 0
717 239 1 0.5897 6.596351381062982 2.407683271141617 15.611653125595968 0 0 0
706 236 2 -1.1794 8.804292928509051 0.7870429773046713 18.649031191787785 0 0 0
708 236 1 0.5897 7.8479769563650414 0.7651668858299713 18.682639586854535 0 0 0
702 234 1 0.5897 9.677358225959331 4.061270361845494 17.84438313154759 0 0 0
655 219 2 -1.1794 5.6468554249733165 4.332223790977915 19.31632069821645 0 0 0
710 237 1 0.5897 9.34214633782734 4.525795499466607 20.47357744808129 0 0 0
696 232 1 0.5897 7.807966203746989 4.948552544691483 17.37618941600463 0 0 0
35 12 1 0.5897 5.6810995687233445 1.6220061648797734 20.505218554943234 0 0 -1
36 12 1 0.5897 5.549635193068308 3.127649152508198 20.592447091818222 0 0 -1
143 48 1 0.5897 5.9538317100054625 9.02715942103039 1.1437364490758315 0 0 0
176 59 1 0.5897 7.536779408096161 7.965949084165758 2.352368150969893 0 0 0
166 56 2 -1.1794 8.552426920003615 7.3887843004936915 4.9426050669495325 0 0 0
711 237 1 0.5897 8.796812071892942 5.701769403908481 0.7129997449406755 0 0 1
175 59 2 -1.1794 7.4715184856319645 8.895659627575764 2.1342072980055167 0 0 0
55 19 2 -1.1794 7.626192947486233 6.138724229202338 2.08078450030037 0 0 0
56 19 1 0.5897 6.732613482137443 5.902513797724796 1.8320238590546378 0 0 0
177 59 1 0.5897 8.167278165881031 9.041155801779734 1.4931697469599157 0 0 0
57 19 1 0.5897 7.828749241637696 5.565933933263296 2.820438129175447 0 0 0
142 48 2 -1.1794 5.270589643010298 9.048673176408647 0.473742233971075 0 0 0
155 52 1 0.5897 8.081128861198845 9.921062103165605 3.4141783328501862 0 0 0
145 49 2 -1.1794 9.352298711915367 9.366177930414855 0.17933465931204975 0 0 0
149 50 1 0.5897 9.94799064645473 7.97577806151196 3.6884941424562143 0 0 0
138 46 1 0.5897 6.7700192796106675 7.12659156946414 5.111630585897713 0 0 0
469 157 2 -1.1794 9.09611964507535 9.153922741964532 6.939180188139613 0 0 0
501 167 1 0.5897 6.4579124508496895 9.068355927122559 8.533454036025887 0 0 0
380 127 1 0.5897 7.626418860720163 6.870546023362119 8.951450388692427 0 0 0
168 56 1 0.5897 8.639092476471362 8.078205911550498 5.600934500496134 0 0 0
499 167 2 -1.1794 7.185181389892015 8.709376798088325 9.041773290942913 0 0 0
467 156 1 0.5897 5.443972420331573 8.32894408851092 6.636293365669736 0 0 0
61 21 2 -1.1794 9.406240264076382 5.386230902902846 6.508562265617134 0 0 0
338 113 1 0.5897 5.579494263923518 5.936039659813377 8.260978606134447 0 0 0
500 167 1 0.5897 7.481448073162284 9.439413904265294 9.58534120107847 0 0 0
470 157 1 0.5897 8.501259735096603 9.17074397095575 7.688876430948179 0 0 0
379 127 2 -1.1794 7.752637839064334 5.984877312196612 8.611057448272648 0 0 0
137 46 1 0.5897 5.634935228287621 6.305500100209856 5.685352805279329 0 0 0
466 156 2 -1.1794 5.214353064829325 9.07616210631862 7.18869458490785 0 0 0
62 21 1 0.5897 8.704112561884672 5.639831032891309 7.107611015221266 0 0 0
381 127 1 0.5897 7.973094566058268 5.460947578416516 9.381183717624873 0 0 0
167 56 1 0.5897 8.928662515739058 6.612409849688113 5.357168063456535 0 0 0
136 46 2 -1.1794 5.830797200665625 7.156598448363333 5.29358933341056 0 0 0
471 157 1 0.5897 9.968148635812245 9.078092557359613 7.326443514415032 0 0 0
385 129 2 -1.1794 9.02778832097019 5.715675477326143 13.983519363681639 0 0 0
794 265 1 0.5897 8.877558624598121 8.763457043627614 13.394444298248393 0 0 0
790 264 2 -1.1794 5.464593902069854 9.339874312337784 14.110323603029007 0 0 0
491 164 1 0.5897 9.516132355779538 7.684910711018055 11.140661856934784 0 0 0
791 264 1 0.5897 5.866832241687742 9.130019790190442 14.953143010025444 0 0 0
793 265 2 -1.1794 8.969255596315817 9.306210306576197 14.177526238382914 0 0 0
333 111 1 0.5897 6.185814214150498 5.809304030689787 12.553733023810393 0 0 0
387 129 1 0.5897 9.060852884137965 6.248140034703266 13.188790112220452 0 0 0
460 154 2 -1.1794 6.183755272789629 7.519067098185424 12.175746641582021 0 0 0
461 154 1 0.5897 6.000698275007046 8.125190994892579 12.89359853126235 0 0 0
492 164 1 0.5897 8.106665714108354 7.906648357893068 11.646559280661437 0 0 0
490 164 2 -1.1794 8.972051135995507 7.606433717384508 11.924241348935007 0 0 0
705 235 1 0.5897 7.897908986795362 5.966772551334327 15.385703487744129 0 0 0
462 154 1 0.5897 5.593800648718245 7.793343275928776 11.473703551707157 0 0 0
814 272 2 -1.1794 8.696774450405549 7.489464025837609 18.77029597013103 0 0 0
786 262 1 0.5897 6.831076692966711 7.158103657496646 19.012680710145045 0 0 0
815 272 1 0.5897 9.02210161221695 6.737307193578295 19.26489467946998 0 0 0
825 275 1 0.5897 7.171407437082343 8.078767187555957 16.22553752948121 0 0 0
785 262 1 0.5897 5.757388945745833 6.150308708243673 19.363859982493835 0 0 0
823 275 2 -1.1794 7.131872649986723 9.033628604251076 16.17181582911806 0 0 0
816 272 1 0.5897 8.746075227324294 8.220895015855026 19.385740028567433 0 0 0
784 262 2 -1.1794 5.890275915373174 7.078135446409059 19.169709475819186 0 0 0
703 235 2 -1.1794 7.326080603493968 6.230009508502737 16.10674953796384 0 0 0
144 48 1 0.5897 5.491639764274875 8.329226707473214 20.42493582905445 0 0 -1
704 235 1 0.5897 6.441201216098198 6.16256480810122 15.748149622092402 0 0 0
709 237 2 -1.1794 9.418596779320636 5.475644522527343 20.563886260585146 0 0 0
824 275 1 0.5897 7.85698867488263 9.271720499273039 15.594158339003632 0 0 0
154 52 2 -1.1794 8.266598941647063 10.622471117693847 4.038545773068863 0 0 0
819 273 1 0.5897 8.584763293752786 12.335119003790712 0.5224919390262281 0 0 1
156 52 1 0.5897 9.1889403527354 10.83406113737158 3.8947570680550023 0 0 0
163 55 2 -1.1794 7.555850312469039 12.519797830088242 2.130733444404325 0 0 0
164 55 1 0.5897 6.679628602988441 12.367763513198328 1.776797553850448 0 0 0
165 55 1 0.5897 7.678006923479418 11.823714356570019 2.7762560697406293 0 0 0
276 92 1 0.5897 9.03627296323808 14.0493308210077 4.477824755259326 0 0 0
285 95 1 0.5897 7.512233827099459 14.31317240929026 2.3070625439695203 0 0 0
275 92 1 0.5897 7.589157741098859 13.822920592414363 4.860272659467246 0 0 0
246 82 1 0.5897 5.142810445027533 14.12602197097842 4.419931601073566 0 0 0
244 82 2 -1.1794 5.817337150546769 14.037798129747621 5.09328259141725 0 0 0
274 92 2 -1.1794 8.481019736094767 13.760895793577282 5.202166439990548 0 0 0
115 39 2 -1.1794 6.13219565513356 11.244127757663371 5.718577484826368 0 0 0
170 57 1 0.5897 9.016739212328622 12.329303578394704 6.202234364806688 0 0 0
171 57 1 0.5897 9.388978535915008 10.946968895438689 6.694606334952613 0 0 0
169 57 2 -1.1794 9.422331662049132 11.87189373238904 6.9387602198263885 0 0 0
488 163 1 0.5897 8.086661793407423 12.495479187766188 8.15906087252143 0 0 0
487 163 2 -1.1794 7.4028684168943855 12.745062078381139 8.780599696059069 0 0 0
489 163 1 0.5897 7.523393854649268 13.686481398022279 8.904751631247803 0 0 0