LAMMPS (30 Jul 2021)
  using 1 OpenMP thread(s) per MPI task
package omp 0
using multi-threaded neighbor list subroutines
echo both

include		in.partitions
variable        pid world 0
include		in.temp
variable        temperature equal 275
variable	tempDamp equal 100.0
include		in.pressure
variable        pressure equal 6000
variable        pressureDamp equal 1000.0 # This is 1 ps
include		in.seed
variable        seed world 745823

units		real
atom_style	full
include		in.box
read_data       iceIII.data
Reading data file ...
  orthogonal box = (0.0071020000 0.0044740000 -0.050387000) to (46.652896 19.995527 20.750385)
  8 by 2 by 2 MPI processor grid
  reading atoms ...
  2268 atoms
  scanning bonds ...
  2 = max bonds/atom
  scanning angles ...
  1 = max angles/atom
  reading bonds ...
  1512 bonds
  reading angles ...
  756 angles
Finding 1-2 1-3 1-4 neighbors ...
  special bond factors lj:    0        0        0       
  special bond factors coul:  0        0        0       
     2 = max # of 1-2 neighbors
     1 = max # of 1-3 neighbors
     1 = max # of 1-4 neighbors
     2 = max # of special neighbors
  special bonds CPU = 0.007 seconds
  read_data CPU = 0.039 seconds
include 	in.setup
variable	out_freq equal 500
variable	out_freq2 equal 500

timestep	2.0

neigh_modify    delay 7 every 1

include		in.tip4p
# This is TIP4P/Ice

# create groups ###
group ox type 2
756 atoms in group ox
group hy type 1
1512 atoms in group hy

# set charges - beside manually ###
set group ox charge -1.1794
Setting atom values ...
  756 settings made for charge
set group hy charge 0.5897
Setting atom values ...
  1512 settings made for charge

# ### TIP3P Potential Parameters ###
pair_style lj/cut/tip4p/long 2 1 1 1 0.1577 8.5
pair_coeff 1 1*2 0.000 0.000
pair_coeff 2 2 0.21084 3.1668
bond_style  harmonic
bond_coeff  1 450 0.9572
angle_style harmonic
angle_coeff 1 55 104.52
kspace_style pppm/tip4p 1.0e-5
pair_modify tail yes

thermo          ${out_freq}
thermo          500
thermo_style 	custom step temp pe etotal epair emol press lx ly lz xy xz yz vol pxx pyy pzz pxy pxz pyz cella cellb cellc cellalpha cellbeta cellgamma

restart 	${out_freq} restart.lmp.${pid} restart2.lmp.${pid}
restart 	500 restart.lmp.${pid} restart2.lmp.${pid}
restart 	500 restart.lmp.0 restart2.lmp.${pid}
restart 	500 restart.lmp.0 restart2.lmp.0


include         in.dump
dump            myDump all atom ${out_freq2} dump.water.${pid}
dump            myDump all atom 500 dump.water.${pid}
dump            myDump all atom 500 dump.water.0
dump            myDump2 all dcd ${out_freq2} dump.dcd
dump            myDump2 all dcd 500 dump.dcd
dump_modify     myDump append yes
dump_modify     myDump2 append yes


timer           timeout 04:55:00 every 1000
New timer settings: style=normal  mode=nosync  timeout=04:55:00

fix 		1 all shake 1e-6 200 0 b 1 a 1
       0 = # of size 2 clusters
       0 = # of size 3 clusters
       0 = # of size 4 clusters
     756 = # of frozen angles
  find clusters CPU = 0.005 seconds
fix             2 all nph aniso ${pressure} ${pressure} ${pressureDamp}
fix             2 all nph aniso 6000 ${pressure} ${pressureDamp}
fix             2 all nph aniso 6000 6000 ${pressureDamp}
fix             2 all nph aniso 6000 6000 1000
fix             3 all temp/csvr ${temperature} ${temperature} ${tempDamp} ${seed}
fix             3 all temp/csvr 275 ${temperature} ${tempDamp} ${seed}
fix             3 all temp/csvr 275 275 ${tempDamp} ${seed}
fix             3 all temp/csvr 275 275 100 ${seed}
fix             3 all temp/csvr 275 275 100 745823
velocity 	all create ${temperature} ${seed} dist gaussian
velocity 	all create 275 ${seed} dist gaussian
velocity 	all create 275 745823 dist gaussian

run             500000
PPPM initialization ...
  extracting TIP4P info from pair style
  using 12-bit tables for long-range coulomb (../kspace.cpp:340)
  G vector (1/distance) = 0.3731327
  grid = 48 27 27
  stencil order = 5
  estimated absolute RMS force accuracy = 0.0032773105
  estimated relative force accuracy = 9.8695233e-06
  using double precision FFTW3
  3d grid and FFT values/proc = 6292 1344
Last active /omp style is kspace_style pppm/tip4p/omp
Neighbor list info ...
  update every 1 steps, delay 7 steps, check yes
  max neighbors/atom: 2000, page size: 100000
  master list distance cutoff = 10.8154
  ghost atom cutoff = 10.8154
  binsize = 5.4077, bins = 9 4 4
  1 neighbor lists, perpetual/occasional/extra = 1 0 0
  (1) pair lj/cut/tip4p/long/omp, perpetual
      attributes: half, newton on, omp
      pair build: half/bin/newton/omp
      stencil: half/bin/3d
      bin: standard
Per MPI rank memory allocation (min/avg/max) = 9.589 | 9.604 | 9.621 Mbytes
Step Temp PotEng TotEng E_pair E_mol Press Lx Ly Lz Xy Xz Yz Volume Pxx Pyy Pzz Pxy Pxz Pyz Cella Cellb Cellc CellAlpha CellBeta CellGamma 
       0          275   -11706.567   -10467.966   -11706.567            0    2410.9519    46.645794    19.991053    20.800772            0            0            0     19396.69    5386.8508    3367.9474   -1521.9423    1665.1526   -1536.6327   -189.44748    46.645794    19.991053    20.800772           90           90           90 
     500    279.71408    -10877.78   -9617.9466    -10877.78            0    5060.4931    46.877866    19.923485    20.693821            0            0            0    19327.418    4546.6056    6111.6794    4523.1944    -148.7654    655.60474   -37.070979    46.877866    19.923485    20.693821           90           90           90 
    1000    277.14075   -10887.431   -9639.1878   -10887.431            0    5370.3021    46.430763    20.067242    20.711659            0            0            0    19297.826    4941.8514     5459.726    5709.3289     163.8558     977.8064    645.11902    46.430763    20.067242    20.711659           90           90           90 
    1500    279.13215   -10847.866   -9590.6541   -10847.866            0     6911.684    46.279071    20.055019     20.67867            0            0            0    19192.446    6443.3033    7750.9026    6540.8462   -435.55016    51.744962    274.35402    46.279071    20.055019     20.67867           90           90           90 
    2000    272.04853    -10848.83   -9623.5224    -10848.83            0    6207.4427    46.812964    19.962803    20.646865            0            0            0    19294.866    5604.2536    6826.4071    6191.6676    523.18342   -264.27584   -516.72297    46.812964    19.962803    20.646865           90           90           90 
    2500    283.08634    -10864.79   -9589.7675    -10864.79            0    5638.2847    46.751528    19.927212     20.73319            0            0            0    19315.613    4616.0969    6950.3011     5348.456   -55.234113   -609.86079   -408.71963    46.751528    19.927212     20.73319           90           90           90 
    3000    273.50985   -10891.255   -9659.3655   -10891.255            0    4914.2846    46.835534    20.070357    20.662495            0            0            0    19422.867     5335.803    4221.3565    5185.6944    254.84539    964.25222    1120.3304    46.835534    20.070357    20.662495           90           90           90 
    3500    270.54936   -10868.701   -9650.1457   -10868.701            0    6488.8063    46.516557    19.975929    20.670461            0            0            0    19207.229    6732.9874    6570.4358    6162.9956   -78.659979   -40.615305   -290.67004    46.516557    19.975929    20.670461           90           90           90 
    4000    271.30257   -10889.557   -9667.6091   -10889.557            0    5865.2156    46.265071    19.906925     20.79479            0            0            0    19151.904    7060.6727    4305.3567    6229.6176   -184.01222    307.72556   -216.48975    46.265071    19.906925     20.79479           90           90           90 
    4500    271.13022   -10864.534   -9643.3625   -10864.534            0    5315.7927    46.725823    20.073172    20.583744            0            0            0    19306.223    5146.2378    5226.9691    5574.1713    168.92535   -606.93427    -325.7839    46.725823    20.073172    20.583744           90           90           90 
    5000     272.9597   -10816.652   -9587.2409   -10816.652            0    5319.6574    46.718679     19.91233    20.794755            0            0            0    19344.897    4756.7179    6045.0824    5157.1718   -449.63107   -1093.3617   -79.319673    46.718679     19.91233    20.794755           90           90           90 
    5500     271.5793   -10922.472   -9699.2777   -10922.472            0    6123.1892    46.709651    19.941058     20.66845            0            0            0    19251.418    6587.0839    5679.7187     6102.765    271.35224   -265.72995   -108.38217    46.709651    19.941058     20.66845           90           90           90 
    6000    278.81374   -10821.903   -9566.1249   -10821.903            0     5509.329    46.617585    20.094346    20.639187            0            0            0    19333.756    6200.4055    4823.9637    5503.6179   -28.216958   -360.64013   -787.61756    46.617585    20.094346    20.639187           90           90           90 
    6500    269.61527   -10853.395   -9639.0465   -10853.395            0    6331.8595    46.359481     19.92513    20.800917            0            0            0    19214.196    5340.1368    8029.2099    5626.2319   -127.61742   -1043.6989    397.91736    46.359481     19.92513    20.800917           90           90           90 
    7000    268.21627   -10829.047   -9620.9999   -10829.047            0    7135.9356    47.006054    19.865642    20.557349            0            0            0    19196.565    7114.8339    7423.5394    6869.4336    100.93323    735.54396    324.15119    47.006054    19.865642    20.557349           90           90           90 
    7500     282.0739   -10868.706   -9598.2444   -10868.706            0    7902.2657    46.703967    19.831914    20.676331            0            0            0    19151.018    7136.8136    8938.4956    7631.4879   -292.55208    -130.0498   -250.22983    46.703967    19.831914    20.676331           90           90           90 
    8000    276.54475   -10878.592   -9633.0337   -10878.592            0    5770.2993    46.577116    20.014239    20.716509            0            0            0    19312.044     5518.166    6256.1816    5536.5503   -443.40412    668.25525   -149.14378    46.577116    20.014239    20.716509           90           90           90 
    8500    272.51168    -10866.57   -9639.1765    -10866.57            0    5761.5402    46.473282    19.916828    20.710516            0            0            0    19169.662     5055.257    5567.8446     6661.519    390.21656   -110.37588   -847.82165    46.473282    19.916828    20.710516           90           90           90 
    9000    281.05262   -10835.416   -9569.5535   -10835.416            0    5481.0868    46.694309    20.024318    20.775622            0            0            0    19425.657    5395.4665    5195.7194    5852.0746   -322.95834   -111.86873   -988.87659    46.694309    20.024318    20.775622           90           90           90 
    9500    279.47563    -10840.43   -9581.6707    -10840.43            0    6286.0066    46.415106    20.085721    20.618743            0            0            0    19222.459    5647.5432    6318.9812    6891.4952   -275.98566   -514.72021   -49.760715    46.415106    20.085721    20.618743           90           90           90 
   10000    286.07225   -10887.336   -9598.8656   -10887.336            0     5354.796    46.581059    19.928015    20.802232            0            0            0    19310.047    5700.0401    5357.7949     5006.553   -54.985546    1679.4277    -724.5304    46.581059    19.928015    20.802232           90           90           90 
   10500    281.00082   -10850.712   -9585.0828   -10850.712            0    5612.7328    46.507175    20.040212    20.620106            0            0            0     19218.22    5179.9639    5575.4196    6082.8149   -359.39461    930.96402    118.99341    46.507175    20.040212    20.620106           90           90           90 
   11000    268.93389   -10811.807   -9600.5276   -10811.807            0    6550.0152    46.590107    19.924264    20.661341            0            0            0    19179.376     6058.539    6367.8585    7223.6482   -245.75384    352.03627   -686.03185    46.590107    19.924264    20.661341           90           90           90 
   11500    276.73224    -10865.72   -9619.3172    -10865.72            0    6732.8519    46.835304    19.814428    20.736141            0            0            0    19243.444    5925.3525     7557.165     6716.038   -316.32934   -159.61213   -1003.2972    46.835304    19.814428    20.736141           90           90           90 
   12000    281.73252   -10840.587    -9571.663   -10840.587            0    5035.2079    46.968003      19.9844    20.610133            0            0            0    19345.235    3124.3822    6457.2097    5524.0319    85.859705   -293.80019   -486.58989    46.968003      19.9844    20.610133           90           90           90 
   12500    281.29308   -10860.376   -9593.4306   -10860.376            0    6402.6647    46.165633    20.031716    20.787825            0            0            0      19224.1    7803.3655     5575.768    5828.8605   -240.71848    10.303423   -89.512168    46.165633    20.031716    20.787825           90           90           90 
   13000    271.16489   -10808.172   -9586.8447   -10808.172            0    6102.6844    46.671915    20.023369    20.652625            0            0            0    19300.476    6165.2367    5853.7632    6289.0535    20.469235    534.69196    1647.6475    46.671915    20.023369    20.652625           90           90           90 
   13500    274.18879   -10919.461   -9684.5134   -10919.461            0    5444.4649    46.837549    19.989827    20.603285            0            0            0    19290.331    5285.0702    5021.8575     6026.467   -133.93603    808.66627    913.40827    46.837549    19.989827    20.603285           90           90           90 
   14000    276.18824    -10931.99   -9688.0366    -10931.99            0     5202.667    46.538059    19.962103    20.775509            0            0            0    19300.396    4788.1892    5668.8453    5150.9665    166.31031    -650.0956   -565.09432    46.538059    19.962103    20.775509           90           90           90 
   14500    276.68048   -10912.383   -9666.2135   -10912.383            0    5952.5144    46.627095    20.148761    20.552896            0            0            0    19308.997    6282.2206    5285.7983    6289.5242   -442.19365    291.36769    576.65809    46.627095    20.148761    20.552896           90           90           90 
   15000    276.01808   -10856.446    -9613.259   -10856.446            0     5999.251    46.543643    19.939444    20.785143            0            0            0    19289.743     6580.113    5967.0267    5450.6132    154.15578    549.29427    163.93258    46.543643    19.939444    20.785143           90           90           90 
   15500    280.62696   -10891.852   -9627.9074   -10891.852            0    4960.1365     46.71629    20.063912    20.670819            0            0            0    19374.998    6064.6866    4060.4385    4755.2844    410.30176   -517.88157   -791.59329     46.71629    20.063912    20.670819           90           90           90 
   16000    293.68454   -10915.618   -9592.8621   -10915.618            0    7402.0903    46.527069     19.92992    20.640166            0            0            0    19139.229    6933.4312    8069.7216    7203.1182   -591.42899    914.46272    543.88092    46.527069     19.92992    20.640166           90           90           90 
   16500    281.51614   -10844.084   -9576.1338   -10844.084            0    6004.7177    46.885558    19.789126    20.770533            0            0            0    19271.404    4920.0477    7610.5796    5483.5258    335.79365     741.1232    1304.4992    46.885558    19.789126    20.770533           90           90           90 
   17000    280.24922   -10857.821   -9595.5772   -10857.821            0    7286.6845    46.498804    19.989978    20.599951            0            0            0    19147.862    6748.9377    6893.9783    8217.1376   -126.34045    66.416135     1057.106    46.498804    19.989978    20.599951           90           90           90 
   17500    277.69625   -10902.617   -9651.8719   -10902.617            0    6439.7298    46.533906    19.906524    20.754197            0            0            0    19225.201    6026.9652    6772.3871    6519.8371   -524.19904   -1561.2419    233.99009    46.533906    19.906524    20.754197           90           90           90 
   18000    274.23876   -10895.388   -9660.2152   -10895.388            0    6057.0148    46.705073     19.95361    20.641352            0            0            0    19236.394    5981.9582    5549.4819    6639.6044   -441.76582   -525.56086    1270.1924    46.705073     19.95361    20.641352           90           90           90 
   18500    273.69249   -10877.394   -9644.6821   -10877.394            0    6910.2324    46.644177    19.915922    20.706446            0            0            0    19235.498    7414.1773    7505.5354    5810.9845    413.11716    308.22434   -246.98036    46.644177    19.915922    20.706446           90           90           90 
   19000    272.59936   -10879.228   -9651.4391   -10879.228            0    5375.7336    46.513457    20.037327    20.828843            0            0            0    19412.594    5689.3825    4362.3736    6075.4446    281.47767   -1594.8682   -61.393401    46.513457    20.037327    20.828843           90           90           90 
   19500    276.67572   -10868.336   -9622.1878   -10868.336            0    6767.9953    46.448183    20.129611    20.600142            0            0            0      19260.8     7361.637    6766.1109     6176.238    443.55728    1106.2967   -256.05505    46.448183    20.129611    20.600142           90           90           90 
   20000    268.86584   -10868.945   -9657.9727   -10868.945            0    5074.5686    46.734672    19.803244    20.866252            0            0            0    19311.677    5258.4599    4824.4822    5140.7636   -376.85462   -401.69084   -260.32139    46.734672    19.803244    20.866252           90           90           90 
   20500     267.4619   -10824.703   -9620.0535   -10824.703            0    6709.1013    46.602812    20.143414    20.552226            0            0            0    19293.191    8043.9908    4719.7374    7363.5757   -137.28691    565.48442   -345.59085    46.602812    20.143414    20.552226           90           90           90 
   21000    281.48233   -10919.072   -9651.2742   -10919.072            0    6517.6274    46.417837    19.993104    20.783935            0            0            0    19288.254      6746.44    6890.3878    5916.0543   -440.06369   -618.10837   -146.56842    46.417837    19.993104    20.783935           90           90           90 
   21500    279.02328   -10935.266   -9678.5441   -10935.266            0    7458.9473    46.619285    19.907322    20.625286            0            0            0    19141.609    7898.0374    7618.3074     6860.497    187.82344   -129.79092   -316.16423    46.619285    19.907322    20.625286           90           90           90 
   22000    274.60746   -10832.573     -9595.74   -10832.573            0    5434.4888     46.93664    19.817647    20.774409            0            0            0    19323.809    5032.4083    6065.4495    5205.6087    551.86072    154.36071    74.793066     46.93664    19.817647    20.774409           90           90           90 
   22500    278.23663   -10862.013   -9608.8343   -10862.013            0    6016.5115    46.835893    19.942739    20.616198            0            0            0    19256.271    5505.7004    6812.0094    5731.8245    128.57909   -1245.0268   -309.97745    46.835893    19.942739    20.616198           90           90           90 
   23000    272.14469   -10905.695   -9679.9547   -10905.695            0    7059.2562    46.344746    20.078874    20.656028            0            0            0    19221.474    7034.1067     6700.315    7443.3469    202.21844    307.52351     333.2102    46.344746    20.078874    20.656028           90           90           90 
   23500    277.13417   -10874.089   -9625.8761   -10874.089            0    5934.9879    46.614289    19.970125    20.744556            0            0            0    19310.965    5810.3313    6068.2658    5926.3667    86.491649    209.47432    1334.0508    46.614289    19.970125    20.744556           90           90           90 
   24000    289.35245   -10853.793   -9550.5484   -10853.793            0    4947.5327    47.135189    19.938294    20.609303            0            0            0    19368.525    3028.2477    5892.9522    5921.3982   -183.86328      210.246    -88.27598    47.135189    19.938294    20.609303           90           90           90 
   24500    273.65452   -10870.417   -9637.8762   -10870.417            0    6703.1818    46.231841    19.975203     20.85499            0            0            0    19259.383    8398.8716    6239.4972    5471.1765   -373.59708     71.21033    38.386505    46.231841    19.975203     20.85499           90           90           90 
   25000    274.71104   -10829.766   -9592.4661   -10829.766            0    5873.5189     46.39403    20.113068    20.627254            0            0            0    19247.833    5369.8159    6114.0712    6136.6697    168.31547    106.45895    70.002976     46.39403    20.113068    20.627254           90           90           90 
   25500    266.27233    -10877.55   -9678.2582    -10877.55            0    6094.7061    46.849161    19.917066    20.703718            0            0            0    19318.595    6421.1659    6323.3922    5539.5602    134.22202     46.17632   -183.73407    46.849161    19.917066    20.703718           90           90           90 
   26000    273.00088   -10796.357   -9566.7603   -10796.357            0     5210.633    46.445858    20.035676    20.748926            0            0            0    19308.414    5856.7816    4830.8306    4944.2867    465.24888    188.96962   -152.67603    46.445858    20.035676    20.748926           90           90           90 
   26500    272.52708   -10913.531    -9686.068   -10913.531            0    6103.1078    46.700703    19.922205    20.669713            0            0            0    19230.708    7451.6269    5229.2225    5628.4741    286.49712   -233.58141   -722.33302    46.700703    19.922205    20.669713           90           90           90 
   27000     272.5787   -10859.478   -9631.7823   -10859.478            0    5742.7013    46.555334    19.953437    20.725538            0            0            0    19252.759    6458.4784    6006.6122    4763.0134    -683.1909   -678.34468    339.55993    46.555334    19.953437    20.725538           90           90           90 
   27500    283.10397   -10888.984   -9613.8827   -10888.984            0    5416.3182    46.666628    19.952707    20.757774            0            0            0    19328.094     5710.615    4944.5436    5593.7961   -134.41437    416.88668    83.109846    46.666628    19.952707    20.757774           90           90           90 
   28000    271.17385   -10868.996   -9647.6274   -10868.996            0    5296.4949    46.578616     20.00167    20.625802            0            0            0     19216.03    6073.3351    4230.5495    5585.6002    62.292511   -333.54557    97.672948    46.578616     20.00167    20.625802           90           90           90 
   28500    266.00104   -10829.751   -9631.6812   -10829.751            0    5602.9491    46.430322    19.954229    20.805749            0            0            0    19276.137    6369.5466    4946.3831    5492.9177    -602.9769   -1102.6698    241.18331    46.430322    19.954229    20.805749           90           90           90 
   29000    271.33875    -10874.43   -9652.3197    -10874.43            0    5988.1991    46.693277    20.050419    20.532234            0            0            0    19222.683    7116.3636     4854.224    5994.0096     217.2713    136.97114   -23.795804    46.693277    20.050419    20.532234           90           90           90 
   29500    273.55916    -10823.08   -9590.9683    -10823.08            0    7070.0853    46.675645    19.880305    20.685706            0            0            0    19194.805    7576.9754    7560.5482    6072.7323    -266.9214    77.382354    198.81043    46.675645    19.880305    20.685706           90           90           90 
   30000    279.03244   -10843.072   -9586.3084   -10843.072            0    5612.4417    46.533675    20.054831     20.68564            0            0            0    19304.356    4520.4179    6548.2739    5768.6332   -93.012433   -221.03646    91.296626    46.533675    20.054831     20.68564           90           90           90 
   30500    271.16525   -10902.305   -9680.9757   -10902.305            0    5524.7925    46.597903    20.065142    20.665917            0            0            0    19322.499     5662.244    5217.4466    5694.6869    -399.3549    499.77049   -763.09357    46.597903    20.065142    20.665917           90           90           90 
   31000    274.87127   -10815.121   -9577.0999   -10815.121            0    5705.2299    46.585366    19.972542    20.803646            0            0            0    19356.298    5617.4353    6055.8029    5442.4514   -139.25126   -276.54379    -559.0119    46.585366    19.972542    20.803646           90           90           90 
   31500    274.96689    -10861.32   -9622.8676    -10861.32            0    6740.6597    46.820467    19.907028    20.589815            0            0            0    19190.868    6123.9006    7336.4619    6761.6166   -153.33411    647.40287    654.04291    46.820467    19.907028    20.589815           90           90           90 
   32000    283.70917    -10845.35   -9567.5231    -10845.35            0    6457.3247    46.197811    20.058501     20.72977            0            0            0    19209.424     7771.376    5317.2933    6283.3047    518.38971    294.56848    193.01856    46.197811    20.058501     20.72977           90           90           90 
   32500    281.92843   -10846.047   -9576.2398   -10846.047            0    6416.8764    46.501254    20.000064    20.667464            0            0            0    19221.321    6190.9138    6723.7398    6335.9756   -190.36864    58.093937   -196.90759    46.501254    20.000064    20.667464           90           90           90 
   33000    284.33997   -10872.325   -9591.6562   -10872.325            0    5910.7983    46.774925      19.9572    20.632167            0            0            0    19260.056    6812.3445    5342.5406    5577.5099   -356.04109    242.60657   -524.63104    46.774925      19.9572    20.632167           90           90           90 
   33500    274.74922   -10910.654   -9673.1825   -10910.654            0    6083.4114    46.489337     19.92827    20.720102            0            0            0    19196.182     6662.454    6365.0893    5222.6908    94.830798    145.40709   -171.20062    46.489337     19.92827    20.720102           90           90           90 
   34000    271.04449   -10880.235   -9659.4492   -10880.235            0    5824.0447    46.744747    19.900818    20.645716            0            0            0    19205.856    5489.1197    5161.9394    6821.0751   -474.51494   -370.47493    165.35034    46.744747    19.900818    20.645716           90           90           90 
   34500    272.94663   -10915.463   -9686.1104   -10915.463            0    5542.9345    46.234745     20.21041    20.563715            0            0            0    19215.211    5765.5577    4090.4879    6772.7579    275.46352    -147.3647   -75.982362    46.234745     20.21041    20.563715           90           90           90 
   35000    275.30068   -10933.321   -9693.3655   -10933.321            0     5656.594    46.536133    19.991483    20.728504            0            0            0    19284.273    5266.5524    6041.0609    5662.1688    146.76944    294.33419    113.00941    46.536133    19.991483    20.728504           90           90           90 
   35500     278.7351   -10848.075   -9592.6506   -10848.075            0    5481.6207    47.017545    19.800589    20.657077            0            0            0    19231.224    4638.4102    6257.1435    5549.3083    275.86082    635.31393   -140.13929    47.017545    19.800589    20.657077           90           90           90 
   36000    270.82555    -10870.77   -9650.9705    -10870.77            0    6092.3378     46.81069    19.926149    20.699481            0            0            0    19307.582    5846.2975    5723.8324    6706.8835   -247.46091    304.00829    189.57279     46.81069    19.926149    20.699481           90           90           90 
   36500    277.79903   -10833.651   -9582.4428   -10833.651            0    6985.1537    46.513426    19.955957    20.682375            0            0            0    19197.793    7042.8889    7083.2496    6829.3226    -58.49762    671.58619    -125.1193    46.513426    19.955957    20.682375           90           90           90 
   37000    270.19072    -10845.44   -9628.5003    -10845.44            0    6488.9457    46.768269    19.886611    20.623507            0            0            0    19181.147    5553.8219     7155.925    6757.0903   -373.56684   -1233.0277   -108.43129    46.768269    19.886611    20.623507           90           90           90 
   37500    271.67102    -10880.22   -9656.6127    -10880.22            0     5073.575    46.752549     19.95726    20.682649            0            0            0    19298.003    3708.6868     5767.586    5744.4522    264.70992    580.24711    273.57082    46.752549     19.95726    20.682649           90           90           90 
   38000    275.25614   -10823.587   -9583.8322   -10823.587            0    7148.4926    46.875216    19.921782    20.700208            0            0            0    19330.638    7772.2556    6392.4989    7280.7234     -173.345    736.92907    965.05996    46.875216    19.921782    20.700208           90           90           90 
   38500    281.21142   -10888.849   -9622.2719   -10888.849            0    6976.0576    46.326949    20.001534     20.67444            0            0            0    19157.144    7669.0749    6173.8583    7085.2397    196.86731    315.08883    659.88302    46.326949    20.001534     20.67444           90           90           90 
   39000    273.38138   -10889.696   -9658.3855   -10889.696            0    6793.0364    46.496706    20.096055    20.575138            0            0            0    19225.416    7158.4989    6124.7893    7095.8211   -209.59248   -270.61573    804.16875    46.496706    20.096055    20.575138           90           90           90 
   39500    285.22553   -10870.571   -9585.9137   -10870.571            0    5495.7471    46.510784    19.932994    20.879139            0            0            0    19357.033    7919.6191    4694.8924    3872.7298   -293.41961   -541.27422   -166.93112    46.510784    19.932994    20.879139           90           90           90 
   40000    278.81178   -10876.584   -9620.8143   -10876.584            0    7348.2089    46.649029      20.0151    20.484605            0            0            0    19126.168    7906.1278     6748.277    7390.2219    42.160673    107.52418     296.8358    46.649029      20.0151    20.484605           90           90           90 
   40500    278.69257   -10927.692   -9672.4599   -10927.692            0    5782.0565    46.599424    19.919348    20.730557            0            0            0    19242.728    5621.7508    6269.0289    5455.3897    388.30605   -801.47724    834.72152    46.599424    19.919348    20.730557           90           90           90 
   41000    269.56204   -10907.229   -9693.1208   -10907.229            0    6612.1706    46.685772    19.958596    20.686667            0            0            0    19275.473    6283.9904    6787.4911    6765.0303   -175.00938    -315.2978   -517.16157    46.685772    19.958596    20.686667           90           90           90 
   41500    289.01722   -10863.334   -9561.5996   -10863.334            0     6018.902    46.494961    20.134941    20.597753            0            0            0    19283.066    6240.4323    5381.0349    6435.2387    466.88156   -357.84219   -491.45824    46.494961    20.134941    20.597753           90           90           90 
   42000    267.11978   -10830.948   -9627.8399   -10830.948            0    8235.2058    46.481337    19.777769     20.73251            0            0            0    19059.337    8877.0886    7970.3367    7858.1922    601.54788   -334.87658    642.19418    46.481337    19.777769     20.73251           90           90           90 
   42500    271.69631   -10867.696    -9643.975   -10867.696            0    5485.5477    46.769237    19.977876    20.655115            0            0            0    19299.106    6389.1247    5525.5664    4541.9518    220.18584    395.09154   -246.65075    46.769237    19.977876    20.655115           90           90           90 
   43000    271.41837    -10837.42   -9614.9507    -10837.42            0    6023.5298     46.47097    20.101842     20.64197            0            0            0    19282.739    7258.0015    4507.5703    6305.0175   -330.52884   -179.72124    566.06761     46.47097    20.101842     20.64197           90           90           90 
   43500    278.81958   -10847.699   -9591.8944   -10847.699            0    5357.1083    46.763562    19.900786    20.783099            0            0            0    19341.409    5740.9319    5377.6485    4952.7445    344.94498    158.27889    862.58367    46.763562    19.900786    20.783099           90           90           90 
   44000    269.93476   -10846.207   -9630.4195   -10846.207            0    6802.4314    46.797006    19.979753    20.465419            0            0            0    19135.016    4687.3832    8340.9932    7378.9178    80.730846    -164.3558    788.28532    46.797006    19.979753    20.465419           90           90           90 
   44500    270.30083   -10867.037   -9649.6006   -10867.037            0    5557.9699    46.664998    19.971322    20.746869            0            0            0    19335.287    5468.9555    6233.7188    4971.2353   -151.71342    530.21499    829.49954    46.664998    19.971322    20.746869           90           90           90 
   45000    275.26484   -10921.186   -9681.3924   -10921.186            0    6192.5817     46.57698    19.948691    20.676391            0            0            0    19211.465    6461.4513    5939.8558    6176.4379    196.50602   -756.35659   -150.68911     46.57698    19.948691    20.676391           90           90           90 
   45500    276.88269   -10868.252    -9621.171   -10868.252            0    6992.0816    46.731099    20.092048    20.462346            0            0            0    19212.577    6946.5748    5790.3805    8239.2894   -118.67074    116.02809    1008.0707    46.731099    20.092048    20.462346           90           90           90 
   46000    279.23611   -10846.804    -9589.123   -10846.804            0    6392.3875    46.636618    19.804189    20.794896            0            0            0    19206.175    6521.1937    6835.8418     5820.127    426.72282    273.83864    458.74139    46.636618    19.804189    20.794896           90           90           90 
   46500    273.87764   -10866.147   -9632.6006   -10866.147            0     5312.993    47.008342    19.926839    20.599373            0            0            0    19296.002    4613.2187    5900.7212    5425.0391   -183.03436   -485.00037   -455.76933    47.008342    19.926839    20.599373           90           90           90 
   47000    267.14061   -10872.139   -9668.9364   -10872.139            0    5649.3609     46.63261    19.977798    20.683218            0            0            0    19268.835    5747.8895     5560.363    5639.8302   -187.69183    372.65943    1042.9338     46.63261    19.977798    20.683218           90           90           90 
   47500    276.00383   -10843.094   -9599.9714   -10843.094            0    6539.3565    46.367575    20.014395     20.78497            0            0            0    19288.847    5705.3503    7963.5162    5949.2029    135.34423   -176.21547   -526.68768    46.367575    20.014395     20.78497           90           90           90 
   48000     273.7042   -10866.095   -9633.3303   -10866.095            0    6761.6839    46.985391    20.076073    20.354322            0            0            0    19199.868    6849.4883    5740.7851    7694.7784   -87.692068   -86.290697     130.1384    46.985391    20.076073    20.354322           90           90           90 
   48500    270.35777   -10826.122   -9608.4297   -10826.122            0    6372.0627    46.403857     19.92705    20.818926            0            0            0    19251.094    7182.7451    6030.7217    5902.7212    90.216385    562.22363   -222.78404    46.403857     19.92705    20.818926           90           90           90 
   49000    284.51493   -10892.437   -9610.9809   -10892.437            0    5181.0413    46.726964    20.041523     20.65762            0            0            0    19345.438    5949.8784    4441.9536     5151.292    22.974385   -738.72624   -114.23112    46.726964    20.041523     20.65762           90           90           90 
   49500    272.32517   -10802.387   -9575.8334   -10802.387            0    5056.2636    46.833648    19.944836    20.690875            0            0            0    19327.128    5577.8637    4325.4625    5265.4647    358.35664   -755.82121   -148.04281    46.833648    19.944836    20.690875           90           90           90 
   50000    270.81195   -10802.771   -9583.0326   -10802.771            0    6028.9372     46.24379    19.981279    20.812826            0            0            0     19231.26    6807.8335    5674.0752    5604.9028   -513.10594   -136.07959    224.59229     46.24379    19.981279    20.812826           90           90           90 
   50500    268.95396    -10864.73     -9653.36    -10864.73            0    6620.9504    46.880856    20.013523    20.509304            0            0            0    19242.877    6273.3288    6119.9619    7469.5606     297.4949   -850.36101    566.66849    46.880856    20.013523    20.509304           90           90           90 
   51000    276.67734   -10842.944   -9596.7884   -10842.944            0    7436.4581    46.516153    19.918403    20.698924            0            0            0    19178.123    6908.6317    8690.9485     6709.794    277.15253    106.37485    80.163309    46.516153    19.918403    20.698924           90           90           90 
   51500    264.19886   -10810.028   -9620.0756   -10810.028            0    5746.1086     46.47329    19.983764    20.720967            0            0            0    19243.795    7888.4313    4446.8924    4903.0019   -52.767006    151.94007    87.317836     46.47329    19.983764    20.720967           90           90           90 
   52000    274.94039   -10884.837   -9646.5042   -10884.837            0    7040.5105    46.426591    20.056297    20.611426            0            0            0    19192.236    7443.8489    6595.5228    7082.1596    96.923663    1069.9068    365.19925    46.426591    20.056297    20.611426           90           90           90 
   52500    281.14466   -10832.487     -9566.21   -10832.487            0    6359.8215    46.725898    19.915428    20.751712            0            0            0    19310.842    6055.8447    6812.4873    6211.1324    57.777565   -264.91117    858.56505    46.725898    19.915428    20.751712           90           90           90 
   53000    282.80545   -10911.318   -9637.5608   -10911.318            0     5960.793    46.839582    19.887947    20.662415            0            0            0    19247.931    5739.1837    5924.3258    6218.8696    418.82627    609.19963    1005.1349    46.839582    19.887947    20.662415           90           90           90 
   53500    269.54278    -10820.27   -9606.2484    -10820.27            0    5688.2073    46.531934    20.044106    20.644247            0            0            0    19254.703    5479.8492    5472.8097    6111.9631    59.449614    640.43519   -1477.1993    46.531934    20.044106    20.644247           90           90           90 
   54000    285.81595   -10857.966   -9570.6499   -10857.966            0    6745.2246    46.741599    19.825851    20.825912            0            0            0    19299.206    6967.8992    6856.2633    6411.5112   -191.22315    336.20845    545.91401    46.741599    19.825851    20.825912           90           90           90 
   54500    270.07603   -10875.974   -9659.5508   -10875.974            0    5812.1158    47.114695    19.949587    20.546258            0            0            0    19311.812    4053.4266    6929.6672    6453.2536    66.271875    141.27692    674.30937    47.114695    19.949587    20.546258           90           90           90 
   55000    282.01723   -10858.221   -9588.0142   -10858.221            0    5499.5171    46.381137    19.987711    20.781786            0            0            0    19265.812    5535.8641    5716.3561    5246.3312   -185.76777    543.45984   -50.969505    46.381137    19.987711    20.781786           90           90           90 
   55500    273.42004   -10883.954   -9652.4693   -10883.954            0    6817.2575    46.545242    19.920862     20.68252            0            0            0    19177.273    6437.2072    7472.6827    6541.8826   -146.10571    509.39261    101.25569    46.545242    19.920862     20.68252           90           90           90 
   56000    285.58758   -10842.188   -9555.8999   -10842.188            0    5404.0708    46.630182    20.166973    20.554056            0            0            0     19328.82    6237.2461    3713.4015    6261.5648   -16.669966   -166.50405   -403.96684    46.630182    20.166973    20.554056           90           90           90 
   56500     265.8876   -10856.907   -9659.3483   -10856.907            0    5915.0749    46.611688    19.849872    20.878871            0            0            0    19317.885    6250.7015    6279.9776    5214.5457   -401.89441    342.92584    130.87947    46.611688    19.849872    20.878871           90           90           90 
   57000    269.79872   -10850.674   -9635.4994   -10850.674            0    7200.1349    46.809835     19.88797     20.53101            0            0            0    19113.397    8365.0816    5937.5498    7297.7731    70.378955    980.41363    80.068209    46.809835     19.88797     20.53101           90           90           90 
   57500    273.15585   -10856.636   -9626.3409   -10856.636            0    6190.4566    46.654732    19.882926     20.76201            0            0            0    19259.517     5872.152    6878.7934    5820.4243    -301.7903   -250.01374    706.14756    46.654732    19.882926     20.76201           90           90           90 
   58000    268.09553   -10831.685    -9624.182   -10831.685            0    6144.8894     46.65227    19.946199    20.699802            0            0            0      19261.9    6820.2121    6558.1169    5056.3391    160.77358    1257.0766    1064.0398     46.65227    19.946199    20.699802           90           90           90 
   58500    275.54196    -10805.14   -9564.0976    -10805.14            0    7284.6407    46.822036    20.003316    20.468465            0            0            0    19170.682    8068.4508    5826.3561    7959.1151    120.75971    400.39725    1116.7309    46.822036    20.003316    20.468465           90           90           90 
   59000    278.17967   -10874.189   -9621.2662   -10874.189            0    6270.6569    46.605189    19.904748    20.761642            0            0            0    19259.839    7037.6707    5101.3055    6672.9945    247.10515   -335.80254    12.177727    46.605189    19.904748    20.761642           90           90           90 
   59500    279.20766   -10847.871   -9590.3184   -10847.871            0    5591.7678    46.859813     19.99101    20.604588            0            0            0    19301.863     6039.337    4342.3928    6393.5736  -0.99909315    1757.2286   -303.79845    46.859813     19.99101    20.604588           90           90           90 
   60000    265.44784   -10885.525   -9689.9465   -10885.525            0     5198.457    46.300343    20.125193    20.719293            0            0            0    19306.306    5933.8024    4555.4921    5106.0765   -84.473806    66.338874    34.401163    46.300343    20.125193    20.719293           90           90           90 
   60500    271.87053   -10915.494   -9690.9878   -10915.494            0    5380.6799    46.539104    19.981423    20.793597            0            0            0     19336.33    4976.2347    5897.4623    5268.3428   -572.84738    54.223089   -487.44514    46.539104    19.981423    20.793597           90           90           90 
   61000    273.97215   -10897.461   -9663.4895   -10897.461            0    6103.8545    46.684795    19.969409    20.623956            0            0            0    19227.049    5860.3422    5848.0329    6603.1883   -167.80934    612.40959   -122.51426    46.684795    19.969409    20.623956           90           90           90 
   61500    282.39531   -10832.009   -9560.0995   -10832.009            0       7013.4    46.573712    19.888891    20.849642            0            0            0    19313.012    6740.1554     7423.868    6876.1767   -286.21708    301.64236   -140.11727    46.573712    19.888891    20.849642           90           90           90 
   62000    281.85707   -10880.883   -9611.3978   -10880.883            0    5590.2641     47.01515    20.082823    20.548259            0            0            0    19401.603    5873.4434    4876.5569    6020.7919    -11.26218    334.68075   -1081.2679     47.01515    20.082823    20.548259           90           90           90 
   62500    273.21153   -10888.798   -9658.2521   -10888.798            0    5855.5567    46.367471    19.983078    20.679958            0            0            0    19161.321    5626.0356    6396.9812    5543.6534   -457.20968    75.940266   -27.974646    46.367471    19.983078    20.679958           90           90           90 
   63000    284.50212   -10828.513   -9547.1145   -10828.513            0    5020.0457    46.674191    19.941125    20.738241            0            0            0    19301.825    5396.7184    4576.4191    5086.9995    264.73929    346.24178    163.26586    46.674191    19.941125    20.738241           90           90           90 
   63500    271.13619   -10900.088   -9678.8896   -10900.088            0    5429.1592    46.681671     19.99081    20.541453            0            0            0    19169.375    5863.2597    5625.2296    4798.9884   -44.095007     1378.188   -193.87501    46.681671     19.99081    20.541453           90           90           90 
   64000    283.97288   -10884.073   -9605.0576   -10884.073            0    5491.4394    46.515381    20.038053    20.786376            0            0            0    19374.517    5843.6346    5268.8045    5361.8792    62.078564   -706.74221    9.2336469    46.515381    20.038053    20.786376           90           90           90 
   64500    274.58829    -10914.62   -9677.8729    -10914.62            0    6425.5438    46.722143    19.933574    20.595576            0            0            0    19181.469     6703.331    6298.6497    6274.6506    303.20134   -821.52969    -146.5556    46.722143    19.933574    20.595576           90           90           90 
   65000     273.4113   -10929.299   -9697.8539   -10929.299            0    5519.4104    46.715793    19.913721    20.812413            0            0            0    19361.481    6032.9734    5922.9484    4602.3093    96.391246   -297.14991    395.41778    46.715793    19.913721    20.812413           90           90           90 
   65500     279.1719   -10893.504   -9636.1131   -10893.504            0    6172.5221      46.7555    20.008649    20.615823            0            0            0    19286.398    6461.6376    5216.8326    6839.0961   -582.91887   -501.43061   -355.39705      46.7555    20.008649    20.615823           90           90           90 
   66000    281.26235   -10824.908   -9558.1011   -10824.908            0    6399.9394    46.268776    20.106393     20.66144            0            0            0    19221.301    6869.3821    5547.9436    6782.4924   -386.53489    35.039207    675.03324    46.268776    20.106393     20.66144           90           90           90 
   66500    281.53437   -10850.242   -9582.2096   -10850.242            0    7011.7164    46.669639    19.901173    20.720699            0            0            0    19244.983    8298.7142    6152.7589    6583.6762   -296.66859    834.70218    356.95215    46.669639    19.901173    20.720699           90           90           90 
   67000    275.12439   -10904.568   -9665.4071   -10904.568            0    5564.0167    46.711664    20.008954    20.568162            0            0            0    19224.065    5654.3321    5512.5914    5525.1266    126.61278    396.12102    78.585219    46.711664    20.008954    20.568162           90           90           90 
   67500    269.27787    -10844.42   -9631.5909    -10844.42            0    6217.8642    46.343222    19.885355    20.865304            0            0            0    19228.451    6221.0977    6688.0083    5744.4866   -202.50921   -127.02366   -798.81166    46.343222    19.885355    20.865304           90           90           90 
   68000    273.54793   -10891.218   -9659.1566   -10891.218            0    6281.9667    46.634297     20.01532    20.610104            0            0            0    19237.479    6769.5532    5836.0896    6240.2573   -163.57547   -784.35438    127.29855    46.634297     20.01532    20.610104           90           90           90 
   68500    280.33617    -10852.86   -9590.2248    -10852.86            0    6293.8847    46.783159    19.922216    20.646681            0            0            0    19243.206    6600.0782    6979.9903    5301.5857   -940.01114       136.18   -598.17348    46.783159    19.922216    20.646681           90           90           90 
   69000    270.75026   -10871.802   -9652.3418   -10871.802            0    7377.5765    46.346984    19.890144    20.702077            0            0            0    19084.172    8075.0729    7730.6961    6326.9605   -267.49521    225.87973    -680.9946    46.346984    19.890144    20.702077           90           90           90 
   69500    269.51411   -10866.834   -9652.9417   -10866.834            0    5582.6463    46.911256    19.990142    20.578654            0            0            0    19297.894    5513.7192     6078.122    5156.0976   -277.05776   -730.95444     814.1461    46.911256    19.990142    20.578654           90           90           90 
   70000    272.75382   -10874.938   -9646.4541   -10874.938            0    6165.8627    46.695104    19.848189    20.871167            0            0            0    19343.674    6410.2478    6003.2797    6084.0607    51.477662   -316.59149   -1011.7569    46.695104    19.848189    20.871167           90           90           90 
   70500    262.60587   -10816.249   -9633.4707   -10816.249            0    5238.6339     46.49159    20.115378    20.595386            0            0            0    19260.721    4344.4546    5613.7242    5757.7229    -250.0209    691.66424   -57.377947     46.49159    20.115378    20.595386           90           90           90 
   71000    274.35543   -10885.696   -9649.9981   -10885.696            0    5293.8402     46.40812    20.058581    20.756959            0            0            0    19322.259    6265.9245    4331.2518    5284.3443    271.31077   -216.19923   -17.085018     46.40812    20.058581    20.756959           90           90           90 
   71500    269.77636    -10865.44   -9650.3663    -10865.44            0    5175.3453    46.944122    19.870129    20.699586            0            0            0    19308.279    4538.7274    5866.9735    5120.3349   -234.00832   -639.89804    118.90414    46.944122    19.870129    20.699586           90           90           90 
   72000    281.08142   -10821.385   -9555.3927   -10821.385            0    6372.8349    46.851942    19.951648    20.598406            0            0            0    19254.844    6235.0755    6826.6185    6056.8107    4.9175339    231.45613    362.51171    46.851942    19.951648    20.598406           90           90           90 
   72500    263.58172   -10889.725   -9702.5521   -10889.725            0    5220.1847    46.278026    20.080761    20.740792            0            0            0    19274.376    6053.6029    4819.2117    4787.7395   -342.61164   -287.62807    99.288922    46.278026    20.080761    20.740792           90           90           90 
   73000    269.55276   -10878.809   -9664.7424   -10878.809            0     6372.057    46.567741    20.002419    20.549583            0            0            0    19141.268    7264.4046    6068.4665    5783.2997    -82.03327   -354.39162    231.05501    46.567741    20.002419    20.549583           90           90           90 
   73500    281.75345   -10830.111    -9561.092   -10830.111            0    5073.5436    46.828861    19.859453    20.873478            0            0            0    19412.242    4724.4499    5785.4765    4710.7043    442.60571    646.70864    1462.2384    46.828861    19.859453    20.873478           90           90           90 
   74000    277.10484   -10860.321   -9612.2397   -10860.321            0    5435.9469    46.809991    19.885297    20.723596            0            0            0    19290.157    5779.8386      4953.55     5574.452   -200.90859   -124.09915    204.86636    46.809991    19.885297    20.723596           90           90           90 
   74500    276.90296   -10827.134    -9579.962   -10827.134            0    7465.4079    46.809769    19.957824    20.645578            0            0            0    19287.535    7935.0052    7355.2546    7105.9638    450.98953    425.84063    48.027127    46.809769    19.957824    20.645578           90           90           90 
   75000    278.94424   -10822.379   -9566.0128   -10822.379            0    6416.1035    46.305403    20.020006    20.724646            0            0            0     19212.46    5759.7283    6951.7815    6536.8008     400.6159   -697.20484    326.31667    46.305403    20.020006    20.724646           90           90           90 
   75500    282.55188   -10868.934   -9596.3192   -10868.934            0    5543.3011    46.723756     20.01467    20.629753            0            0            0     19292.13    5037.5376    5272.5652    6319.8004    384.14276   -79.398878    297.50204    46.723756     20.01467    20.629753           90           90           90 
   76000    267.38426   -10858.254   -9653.9543   -10858.254            0    6024.6334    46.616867      19.9729    20.763387            0            0            0     19332.25    7282.5334    4406.1665    6385.2002    274.89278    -51.90108    328.53078    46.616867      19.9729    20.763387           90           90           90 
   76500    271.46261    -10913.47   -9690.8014    -10913.47            0    7175.5987    46.567456    19.813922    20.775803            0            0            0      19169.5    8364.3988    6838.1352    6324.2621    501.63647   -123.34685   -560.22054    46.567456    19.813922    20.775803           90           90           90 
   77000    261.04844   -10859.235   -9683.4718   -10859.235            0    4971.3326    46.739431     20.09498    20.604175            0            0            0    19352.017    4774.6057    5032.0482    5107.3438   -118.26404   -78.488596    20.535123    46.739431     20.09498    20.604175           90           90           90 
   77500      268.981   -10827.416   -9615.9241   -10827.416            0     6665.614    46.430508    19.980617     20.72161            0            0            0    19223.649    6605.3633    6175.3066    7216.1721   -285.64819   -869.93369   -67.286761    46.430508    19.980617     20.72161           90           90           90 
   78000    286.08767   -10854.353   -9565.8129   -10854.353            0     5186.108    46.742685    19.957839    20.663685            0            0            0      19276.8    5556.0558    5495.1571    4507.1112   -833.85417   -732.91266   -588.36925    46.742685    19.957839    20.663685           90           90           90 
   78500    280.34859   -10927.044   -9664.3525   -10927.044            0    5805.9764    46.529378    19.948366    20.701216            0            0            0    19214.559    5430.8314    6757.7755    5229.3222    233.80094   -282.38133    692.84392    46.529378    19.948366    20.701216           90           90           90 
   79000    268.69856    -10878.63   -9668.4107    -10878.63            0    6109.9317    47.027978     19.89251    20.586057            0            0            0     19258.35    5111.6778    7174.2191    6043.8982    -664.2193    253.34485   -818.55874    47.027978     19.89251    20.586057           90           90           90 
   79500    272.66921   -10834.517    -9606.414   -10834.517            0    6028.0639    46.686816    19.944513    20.639019            0            0            0    19217.937    5417.4489    6503.7049    6163.0379     -284.091    72.312937    27.323243    46.686816    19.944513    20.639019           90           90           90 
   80000    281.10866   -10889.329   -9623.2146   -10889.329            0    5464.5855    46.567383    19.979117    20.742777            0            0            0    19298.565    5382.7245    6088.8698    4922.1622    95.239637     718.0513   -702.92382    46.567383    19.979117    20.742777           90           90           90 
   80500    273.87327   -10854.719   -9621.1929   -10854.719            0    6957.1165    46.372917    20.093726    20.578363            0            0            0    19175.015    6703.0433    6388.7728    7779.5332   -262.13975   -253.75131   -132.62849    46.372917    20.093726    20.578363           90           90           90 
   81000    277.72312    -10874.86   -9623.9941    -10874.86            0     5321.679    46.955369     19.90859    20.731252            0            0            0     19379.89    5138.4836    5647.7419    5178.8116    -8.429851   -783.87757    71.506412    46.955369     19.90859    20.731252           90           90           90 
   81500     268.5674    -10845.46   -9635.8318    -10845.46            0    5283.3843    46.706473    19.972822    20.593785            0            0            0     19211.12    4745.6266    5527.1622    5577.3642    149.42409   -92.855524    71.414041    46.706473    19.972822    20.593785           90           90           90 
   82000    271.11569   -10844.703    -9623.597   -10844.703            0    5634.8468    46.531509    20.053397    20.695502            0            0            0     19311.28    6188.5066    5022.4119    5693.6218    277.78707    719.17811   -352.37147    46.531509    20.053397    20.695502           90           90           90 
   82500    278.58777   -10797.914   -9543.1532   -10797.914            0    6003.8465     46.73774    19.970073    20.626922            0            0            0    19252.263    6955.2958    5280.3155    5775.9282   -427.88016    360.59469   -363.43708     46.73774    19.970073    20.626922           90           90           90 
   83000    274.94661   -10896.401     -9658.04   -10896.401            0    7368.4243    46.709749    19.804096    20.821868            0            0            0    19261.152    6772.1056    7270.5738    8062.5935    86.675035    272.09063    571.23189    46.709749    19.804096    20.821868           90           90           90 
   83500    278.34582   -10851.474   -9597.8033   -10851.474            0    7100.7815    46.487368    20.090559    20.571461            0            0            0    19212.864     8302.844    5623.0895    7376.4108   -693.90293    104.86757   -715.69915    46.487368    20.090559    20.571461           90           90           90 
   84000    273.59696   -10797.171   -9564.8894   -10797.171            0    5131.1032    46.586522    20.015613    20.736068            0            0            0    19335.509    5781.1917    4208.0846    5404.0333    138.42366    1011.1892    -187.5468    46.586522    20.015613    20.736068           90           90           90 
   84500     275.8108   -10886.841    -9644.588   -10886.841            0    6226.6725    46.444563    19.976027    20.688222            0            0            0    19194.074    5627.1915    7471.4901    5581.3359     522.4412    868.59785   -543.82445    46.444563    19.976027    20.688222           90           90           90 
   85000    276.96415   -10880.778   -9633.3306   -10880.778            0    6425.2584    46.773481    19.963216    20.626408            0            0            0     19259.89    5499.0851    5774.6014    8002.0888    539.55344    416.01245    1030.7119    46.773481    19.963216    20.626408           90           90           90 
   85500    279.56723   -10830.956   -9571.7846   -10830.956            0    5400.4932    46.702085    19.913813    20.748404            0            0            0    19296.359    5732.3336    5314.3403    5154.8055   -102.56921    482.68555    113.17485    46.702085    19.913813    20.748404           90           90           90 
   86000    280.21542   -10830.985   -9568.8933   -10830.985            0    7624.8057    46.287636    19.952839    20.644762            0            0            0    19066.878    7510.7072    7912.7632    7450.9467   -384.91595   -175.39939   -376.66308    46.287636    19.952839    20.644762           90           90           90 
   86500    269.47192   -10873.142   -9659.4393   -10873.142            0    7059.1462    46.669715    19.969855    20.633614            0            0            0    19230.269    6658.4498    7598.5133    6920.4754    167.51073     165.9061    214.00562    46.669715    19.969855    20.633614           90           90           90 
   87000    278.67508   -10865.473   -9610.3195   -10865.473            0    6398.8654     46.36588    19.835437    20.777903            0            0            0    19109.178     6824.569    6527.3388    5844.6885    414.16173    221.79639    172.98904     46.36588    19.835437    20.777903           90           90           90 
   87500    275.23333    -10858.95   -9619.2978    -10858.95            0    5412.5345    46.765929    19.980082    20.661241            0            0            0    19305.597    4250.9313    6532.8885    5453.7837   -272.68077   -358.68334   -481.68381    46.765929    19.980082    20.661241           90           90           90 
   88000    280.23844   -10828.073   -9565.8776   -10828.073            0    6090.0186    46.584865    19.957244    20.591155            0            0            0     19143.71    6868.6177    4674.5331     6726.905   -343.61904   -412.29025   -397.65944    46.584865    19.957244    20.591155           90           90           90 
   88500    271.00155   -10857.822   -9637.2297   -10857.822            0    5515.8115    46.474168    19.994001    20.776386            0            0            0    19305.512    6846.3969    4743.1458    4957.8917    395.63002     521.4894    366.31468    46.474168    19.994001    20.776386           90           90           90 
   89000    264.58797    -10899.42   -9707.7144    -10899.42            0    5813.3296    47.099159    19.886037    20.615705            0            0            0    19308.991    5864.4234    5683.6605    5891.9049    76.255138   -653.02448   -437.78891    47.099159    19.886037    20.615705           90           90           90 
   89500    272.77253   -10883.032   -9654.4632   -10883.032            0      6683.96    46.851028    19.884748     20.65246            0            0            0    19240.263    7454.5005    5902.0918    6695.2877     332.4965    1592.9604   -5.6991688    46.851028    19.884748     20.65246           90           90           90 
   90000    271.14871   -10867.782   -9646.5268   -10867.782            0    6158.2379    46.449748    20.014415    20.755101            0            0            0    19295.281    6372.2145    6218.5988    5883.9003    364.94025    211.53468   -663.74266    46.449748    20.014415    20.755101           90           90           90 
   90500    279.65126   -10841.039    -9581.489   -10841.039            0      7654.97    46.331212    20.136675    20.544134            0            0            0    19166.784    7450.1129    6767.2866    8747.5104   -443.60563   -373.78071   -644.63417    46.331212    20.136675    20.544134           90           90           90 
   91000    265.12616    -10848.73   -9654.6003    -10848.73            0    5165.9457    46.803585    19.858073    20.777485            0            0            0    19311.198    5045.2496    6230.6545    4221.9329   -167.16139     196.0961    533.23542    46.803585    19.858073    20.777485           90           90           90 
   91500    276.16877   -10867.201   -9623.3358   -10867.201            0    7211.8346    46.424725    19.973945    20.647271            0            0            0    19145.902    7340.6987    6999.6855    7295.1196     657.2339    1831.8626    637.56528    46.424725    19.973945    20.647271           90           90           90 
   92000    267.08801   -10865.598   -9662.6321   -10865.598            0    5881.7208    46.678796    20.055812    20.587482            0            0            0    19273.613     6729.888    4533.6685    6381.6059   -517.88008    543.47734    405.26107    46.678796    20.055812    20.587482           90           90           90 
   92500     271.0168   -10860.176   -9639.5155   -10860.176            0    6895.5632    46.625358    19.777791    20.798171            0            0            0    19178.963    5454.5184     8357.422    6874.7491    -286.8024     135.0969    -108.6943    46.625358    19.777791    20.798171           90           90           90 
   93000    275.62764   -10886.534   -9645.1065   -10886.534            0     6106.653    46.559816     20.10858    20.537027            0            0            0    19227.828    5866.1272    6735.1075    5718.7242    162.65657   -1117.3056    352.23754    46.559816     20.10858    20.537027           90           90           90 
   93500    273.34442   -10885.047   -9653.9026   -10885.047            0    5729.2181    46.701826    19.909019    20.745035            0            0            0    19288.474    5726.1813    5738.4581     5723.015   -115.41388   -552.47346   -844.95347    46.701826    19.909019    20.745035           90           90           90 
   94000    268.79523   -10868.464   -9657.8088   -10868.464            0     5288.532    46.378617    20.011991    20.841524            0            0            0    19343.612    4803.5807    6567.3419    4494.6736   -370.39962   -144.28953    1223.7736    46.378617    20.011991    20.841524           90           90           90 
   94500    274.37083   -10853.175   -9617.4072   -10853.175            0    5000.1768     47.04163    20.072983    20.467788            0            0            0    19327.033    4562.7585    4560.1468     5877.625    108.44841   -41.644175    691.67946     47.04163    20.072983    20.467788           90           90           90 
   95000    271.59397   -10880.315   -9657.0542   -10880.315            0    6757.6567    46.445374    19.893456    20.773107            0            0            0    19193.499    6896.6793     7265.436    6110.8548   -91.511193    55.000173    426.93174    46.445374    19.893456    20.773107           90           90           90 
   95500    274.17789   -10885.922   -9651.0239   -10885.922            0    6157.2411    46.646139    20.047407    20.647845            0            0            0    19308.505    7468.0412    4879.4321      6124.25   -742.24075    709.29834   -343.17325    46.646139    20.047407    20.647845           90           90           90 
   96000    274.78735   -10858.334   -9620.6907   -10858.334            0    7470.7545    46.449329    20.012993    20.569505            0            0            0    19121.208    7611.5255     7041.449    7759.2889    375.28355   -931.44868    222.32067    46.449329    20.012993    20.569505           90           90           90 
   96500     270.9148   -10870.671   -9650.4699   -10870.671            0    5881.1454    46.774266    19.917889    20.758974            0            0            0    19339.987    5499.8612    6523.6075    5619.9676    386.75741    633.90533   -76.361732    46.774266    19.917889    20.758974           90           90           90 
   97000    279.01144   -10875.622   -9618.9529   -10875.622            0    6295.7226    46.931435    19.824633     20.62683            0            0            0    19191.171     5172.372    7608.2827    6106.5131   -340.57284   -767.10718   -307.92698    46.931435    19.824633     20.62683           90           90           90 
   97500    270.55002   -10864.004   -9645.4456   -10864.004            0      5847.24    46.767118     19.94164    20.676576            0            0            0    19283.244    5453.2955    6262.3989    5826.0257    -527.4657    131.61534      459.931    46.767118     19.94164    20.676576           90           90           90 
   98000    274.52638   -10904.554   -9668.0864   -10904.554            0    5521.9835    46.352814    19.886013    20.889245            0            0            0    19255.135    6259.2452    5773.4395    4533.2658   -252.31773    161.23549    -415.2267    46.352814    19.886013    20.889245           90           90           90 
   98500    272.32517   -10916.042    -9689.488   -10916.042            0     5977.464    46.907776    20.105038    20.443181            0            0            0     19279.61    5047.2585    6632.0053    6253.1282   -260.81919   -512.00068    455.29291    46.907776    20.105038    20.443181           90           90           90 
   99000    275.01323   -10811.304    -9572.643   -10811.304            0    5681.9407    46.690116    19.906691     20.82305            0            0            0    19353.895    6629.8686    5545.9095    4870.0439   -216.31771   -928.87975    800.95663    46.690116    19.906691     20.82305           90           90           90 
   99500    281.49759   -10835.271    -9567.405   -10835.271            0    6204.2715    46.372272    20.130378    20.616479            0            0            0    19245.305    6843.5328    4976.6286    6792.6531   -502.62668    923.30774    591.61297    46.372272    20.130378    20.616479           90           90           90 
  100000    276.39895   -10916.242   -9671.3404   -10916.242            0    5451.8005     46.68923    20.020395    20.666311            0            0            0    19317.562    6316.6587     4575.496    5463.2468   -20.295725   -11.996252    166.58088     46.68923    20.020395    20.666311           90           90           90 
  100500    272.33244   -10896.477   -9669.8901   -10896.477            0    5951.5926    46.880528    19.837975    20.727592            0            0            0    19276.967    5814.2847    6094.9136    5945.5796   -129.70972   -25.923931    1107.0633    46.880528    19.837975    20.727592           90           90           90 
  101000    278.00877   -10876.982   -9624.8292   -10876.982            0     5914.484    46.548536    19.918207    20.655417            0            0            0    19150.946    6237.5243    5203.0696     6302.858    108.18609    340.20356    401.26845    46.548536    19.918207    20.655417           90           90           90 
  101500    266.76307   -10865.119    -9663.617   -10865.119            0    5030.9582    46.608297    20.102577    20.636398            0            0            0    19335.208    5943.0038    4870.2105    4279.6602   -517.98108    410.93667   -69.448613    46.608297    20.102577    20.636398           90           90           90 
  102000    282.09952   -10848.357   -9577.7793   -10848.357            0    5618.2303    46.593633    19.927116    20.799607            0            0            0    19311.951    5555.0612    5780.7397      5518.89   -232.12537   -1032.8768    372.56935    46.593633    19.927116    20.799607           90           90           90 
  102500    271.58161   -10901.533   -9678.3279   -10901.533            0     5676.718    46.960195    19.945391     20.59129            0            0            0    19286.614    4697.5835    6014.6885    6317.8821   -34.099531   -463.86627    58.650649    46.960195    19.945391     20.59129           90           90           90 
  103000    274.00022   -10894.989   -9660.8908   -10894.989            0    4508.3516    46.923687    19.936805    20.696695            0            0            0    19361.932    2970.1038    4932.5776    5622.3735   -355.71521     578.2581     266.7591    46.923687    19.936805    20.696695           90           90           90 
  103500    270.13383   -10859.381   -9642.6975   -10859.381            0    5627.3942    46.626452    19.955584    20.734284            0            0            0    19292.382     5552.122    5529.3932    5800.6673   -314.55147    608.72598   -680.38563    46.626452    19.955584    20.734284           90           90           90 
  104000    271.64438   -10852.936   -9629.4487   -10852.936            0    5794.4404    46.438718    20.093397    20.667819            0            0            0    19285.382    6082.7933    5488.4286    5812.0994   -175.49679    459.37544    324.16687    46.438718    20.093397    20.667819           90           90           90 
  104500    271.38921   -10891.858   -9669.5201   -10891.858            0    5896.0305    46.193968    19.953769     20.74586            0            0            0    19122.368    6878.6465    5719.1745    5090.2707   -71.697526    260.65606     350.6573    46.193968    19.953769     20.74586           90           90           90 
  105000    277.81991   -10872.181   -9620.8795   -10872.181            0    5943.3955    46.901991    20.000645    20.654814            0            0            0    19375.663    5430.0795    6448.3746    5951.7325   -5.7632461   -1003.8453   -47.874673    46.901991    20.000645    20.654814           90           90           90 
  105500    289.75231   -10845.281   -9540.2359   -10845.281            0    4936.2109    46.735156    20.026612    20.651966            0            0            0    19329.142    5689.9493    4141.5729    4977.1104   -725.00336   -13.525514    150.22585    46.735156    20.026612    20.651966           90           90           90 
  106000    276.61529   -10877.907   -9632.0302   -10877.907            0    6588.9154    46.298549     19.99156    20.745086            0            0            0    19201.242    6737.5789    6461.5906    6567.5767   -395.21934   -227.45036   -224.38044    46.298549     19.99156    20.745086           90           90           90 
  106500    274.34383   -10859.112    -9623.466   -10859.112            0    5226.4358    46.755164    19.963281    20.714904            0            0            0    19335.011      4880.81    5787.4171    5011.0802    354.78445   -155.73769    17.643761    46.755164    19.963281    20.714904           90           90           90 
  107000    278.22587   -10897.355    -9644.225   -10897.355            0    5406.8304    46.618849    20.058982    20.583716            0            0            0    19248.381    6704.3592    4103.4661    5412.6659   -100.31846   -802.59841    170.97626    46.618849    20.058982    20.583716           90           90           90 
  107500    276.13365   -10821.583   -9577.8759   -10821.583            0    6968.1842    46.659865    19.670699    20.943749            0            0            0    19222.847    7279.4418    7026.6554    6598.4553   -360.18619    311.54177   -319.32562    46.659865    19.670699    20.943749           90           90           90 
  108000    277.79874   -10863.051   -9611.8447   -10863.051            0    6248.6908    46.738419    19.999227    20.563008            0            0            0    19220.907    4893.1818    7594.3647    6258.5257   -1105.9799   -209.78549    492.94264    46.738419    19.999227    20.563008           90           90           90 
  108500      278.983   -10866.845    -9610.304   -10866.845            0    6796.0785    46.493434     19.95935    20.692941            0            0            0    19202.609    6653.4771    6826.4476    6908.3109    156.64141    764.58978   -385.60947    46.493434     19.95935    20.692941           90           90           90 
  109000    270.15438   -10905.916   -9689.1399   -10905.916            0      5164.58    46.786088    19.912383    20.863119            0            0            0    19436.552    3834.9418    6462.8381      5195.96    1.3031698   -388.24668    -1041.541    46.786088    19.912383    20.863119           90           90           90 
  109500    269.70871   -10898.353   -9683.5838   -10898.353            0    5191.1273    46.798966    20.036071    20.539889            0            0            0    19259.585    5038.6007    4517.4099    6017.3712   -418.89655    1427.6899    267.02259    46.798966    20.036071    20.539889           90           90           90 
  110000    273.70731   -10858.022   -9625.2432   -10858.022            0    6325.7537    46.453456    19.926805    20.730344            0            0            0    19189.436    5431.9152    6364.2392    7181.1067   -368.47617    37.677843    25.516858    46.453456    19.926805    20.730344           90           90           90 
  110500    275.74185   -10898.463    -9656.521   -10898.463            0     6826.817    46.294713    20.072353    20.672664            0            0            0    19209.945    7549.8168    6137.1639    6793.4704   -160.98654    302.40735     373.2336    46.294713    20.072353    20.672664           90           90           90 
  111000    273.78962   -10866.408   -9633.2582   -10866.408            0    5492.8234    46.581995    19.998507    20.706699            0            0            0    19289.747    6001.1052    4776.5732    5700.7919   -141.58545    221.47651   -96.829979    46.581995    19.998507    20.706699           90           90           90 
  111500    279.69157   -10899.063   -9639.3313   -10899.063            0    5119.2094    46.624473    19.985653     20.79048            0            0            0    19372.995    4743.5776     5835.086    4778.9646    1045.5643   -421.28281   -290.89043    46.624473    19.985653     20.79048           90           90           90 
[...]
  474500    270.25904   -10821.212   -9603.9642   -10821.212            0    5295.6306    46.795574     20.08309    20.608187            0            0            0    19367.569    6661.3013    4092.4429    5133.1475    502.45699    111.45833    26.601419    46.795574     20.08309    20.608187           90           90           90 
  475000    274.99599    -10910.04   -9671.4566    -10910.04            0     6458.187    46.526121    19.995514    20.689513            0            0            0    19247.738    6469.1465    5871.9617    7033.4527   -365.31347   -44.557226    581.66866    46.526121    19.995514    20.689513           90           90           90 
  475500    268.93908   -10878.566   -9667.2635   -10878.566            0    6483.6185    46.446526    19.987622    20.758771            0            0            0    19271.521    6534.6208    6481.9231    6434.3115    232.62185    671.91239   -252.71495    46.446526    19.987622    20.758771           90           90           90 
  476000    281.45434   -10800.453   -9532.7817   -10800.453            0    6220.4182      46.7022    20.103177    20.571893            0            0            0    19314.181     7178.702    5249.0536    6233.4989    265.74567    725.83705   -115.40325      46.7022    20.103177    20.571893           90           90           90 
  476500    272.59148   -10841.188    -9613.435   -10841.188            0    4636.6173        47.06    19.778813    20.836211            0            0            0    19394.156    3689.4096     6133.987    4086.4554   -62.857972    73.180164    1065.4639        47.06    19.778813    20.836211           90           90           90 
  477000    285.73942   -10875.393   -9588.4218   -10875.393            0    5892.7647    46.648665    20.053022    20.647603            0            0            0    19314.731    6228.0561     5806.036    5644.2018   -155.64726    508.35878    1267.9856    46.648665    20.053022    20.647603           90           90           90 
  477500    281.01872   -10795.568   -9529.8582   -10795.568            0    6280.3292    46.854414    20.024552     20.58235            0            0            0    19311.157    6108.3084     5377.121    7355.5582   -137.06838    995.52163   -537.38647    46.854414    20.024552     20.58235           90           90           90 
  478000    276.64331   -10873.105   -9627.1022   -10873.105            0    6677.4516    46.425826    19.896656    20.830963            0            0            0     19241.95    7759.1472    6468.5412    5804.6665   -241.80876   -431.37967   -133.26177    46.425826    19.896656    20.830963           90           90           90 
  478500    272.46434   -10890.773   -9663.5922   -10890.773            0    5243.3536    46.818181    20.056855    20.605148            0            0            0    19348.759    5321.8433    4203.7021    6204.5153    29.794398    591.49607   -151.87061    46.818181    20.056855    20.605148           90           90           90 
  479000     275.3021   -10875.781   -9635.8194   -10875.781            0    6700.0215    46.976722    19.907213    20.614264            0            0            0    19277.958    5673.6953     7072.894    7353.4753    504.18659    569.16917    576.46505    46.976722    19.907213    20.614264           90           90           90 
  479500    271.58295   -10871.833   -9648.6219   -10871.833            0    6355.3082    46.309032    19.970223    20.790448            0            0            0    19227.042    6983.7459    6232.5708    5849.6077   -35.235328    15.816439    642.18862    46.309032    19.970223    20.790448           90           90           90 
  480000     274.9992   -10849.496   -9610.8988   -10849.496            0    6845.5865    46.796701    20.075192    20.439945            0            0            0    19202.363    6341.3203     7273.641    6921.7983    77.918912    364.88901    -979.1136    46.796701    20.075192    20.439945           90           90           90 
  480500    281.79106   -10824.843    -9555.655   -10824.843            0    5637.5491    46.756504    19.854664    20.801339            0            0            0    19310.604    4940.7605    6252.8625    5719.0243   -493.48361   -717.69561    1025.4125    46.756504    19.854664    20.801339           90           90           90 
  481000    269.23284    -10949.78   -9737.1546    -10949.78            0    5692.7225    46.552584    20.081269    20.558289            0            0            0    19218.608    5528.8713    5169.0291     6380.267   -351.53836    -118.5786    472.31309    46.552584    20.081269    20.558289           90           90           90 
  481500    286.64041   -10869.315   -9578.2857   -10869.315            0    6562.2213    46.486505    20.002857    20.667897            0            0            0    19218.311     6688.194     5703.119    7295.3508    358.90033    192.79892   -481.46672    46.486505    20.002857    20.667897           90           90           90 
  482000    267.51768   -10919.469   -9714.5683   -10919.469            0    6453.7766      46.4181    20.011669    20.699526            0            0            0    19227.866    6376.6346    6742.0327    6242.6623    314.06286    701.68178    1142.3405      46.4181    20.011669    20.699526           90           90           90 
  482500    272.83472   -10823.811   -9594.9627   -10823.811            0    4935.8766    46.861867     20.04917     20.63767            0            0            0    19389.948    3531.3917    6248.1218    5028.1163   -410.21392    410.83284   -405.51339    46.861867     20.04917     20.63767           90           90           90 
  483000    266.68295   -10907.095   -9705.9537   -10907.095            0    6693.8638     46.66678    19.869056    20.693374            0            0            0    19187.411    7012.1135    7254.1281    5815.3498   -525.46518    567.14571   -232.80284     46.66678    19.869056    20.693374           90           90           90 
  483500    274.41657   -10849.246   -9613.2729   -10849.246            0    5713.8445    46.392113    20.072658    20.704321            0            0            0    19280.133    6947.0039    4133.1225    6061.4071   -212.59265   -319.05021    738.13336    46.392113    20.072658    20.704321           90           90           90 
  484000    275.96121   -10841.331   -9598.4005   -10841.331            0    4882.8644    46.590643    20.091759    20.639776            0            0            0    19320.646    4881.9153    4908.6856    4857.9922   -44.941145    389.65563    1040.0572    46.590643    20.091759    20.639776           90           90           90 
  484500    270.99002   -10860.232   -9639.6917   -10860.232            0    5155.9682    46.636037    19.913834    20.894879            0            0            0    19405.123    5115.5341    5790.5018    4561.8687   -48.006232   -133.14642   -64.148498    46.636037    19.913834    20.894879           90           90           90 
  485000    280.88116    -10852.36   -9587.2704    -10852.36            0      6739.92    46.787046    19.973356    20.572843            0            0            0    19225.205    6802.5857    6223.9149    7193.2594    16.114851   -299.11318   -412.67708    46.787046    19.973356    20.572843           90           90           90 
  485500    282.75893   -10900.508   -9626.9608   -10900.508            0    6570.7062     46.72608    19.890092    20.654066            0            0            0      19195.6    5658.2533    7470.8252    6583.0401   -174.87589    36.905073   -546.78764     46.72608    19.890092    20.654066           90           90           90 
  486000    259.42681   -10910.542   -9742.0828   -10910.542            0    6253.8119    46.462884    19.982404    20.801656            0            0            0    19313.092    7412.6009    5708.2274    5640.6073    57.518775     90.79162     308.9847    46.462884    19.982404    20.801656           90           90           90 
  486500    281.00937   -10890.641   -9624.9737   -10890.641            0    6667.4366      46.7298    20.165416    20.504953            0            0            0    19322.347    6751.2284    5856.9969    7394.0844    230.60238     14.20869   -630.21808      46.7298    20.165416    20.504953           90           90           90 
  487000    264.45673   -10871.386   -9680.2721   -10871.386            0    5527.1677    46.489188    19.993426    20.794177            0            0            0    19327.734    6038.1565    5688.9831    4854.3636     -109.781    314.31383    435.74105    46.489188    19.993426    20.794177           90           90           90 
  487500    281.56367   -10928.388    -9660.224   -10928.388            0    5440.1354     46.68448    20.015587    20.771775            0            0            0    19409.505    5979.3101    4623.8008    5717.2954   -85.779038   -172.01204    666.80792     46.68448    20.015587    20.771775           90           90           90 
  488000    280.09072   -10875.951   -9614.4208   -10875.951            0    4667.7424    46.866076    20.052198    20.706382            0            0            0    19459.192    5390.2566    3851.8876    4761.0829   -356.89191    147.46125    1494.9435    46.866076    20.052198    20.706382           90           90           90 
  488500    273.41192   -10825.099   -9593.6503   -10825.099            0    5297.0972    46.696007      20.0192    20.651368            0            0            0    19305.243    4566.4861    6450.1522    4874.6534    83.509882   -594.73185    88.238737    46.696007      20.0192    20.651368           90           90           90 
  489000    270.26911   -10875.856   -9658.5628   -10875.856            0    5411.2928    46.857991     19.89906    20.751103            0            0            0    19348.951    6987.5403    4695.6326    4550.7054    215.17129   -242.04515    202.67552    46.857991     19.89906    20.751103           90           90           90 
  489500    265.37366   -10832.412   -9637.1677   -10832.412            0    4658.8509    46.388971    20.144995     20.72345            0            0            0     19366.18    4904.1772    4835.4359    4236.9397   -191.88778    45.709259    299.36076    46.388971    20.144995     20.72345           90           90           90 
  490000    282.94326   -10900.532   -9626.1545   -10900.532            0    5261.2438    46.762373    19.903137    20.709853            0            0            0    19275.032    5109.7058    5704.0374    4969.9881     460.6652   -296.28164   -10.611633    46.762373    19.903137    20.709853           90           90           90 
  490500    286.23569   -10873.653   -9584.4461   -10873.653            0    4832.5318    46.905192    20.007847    20.603044            0            0            0    19335.377    4537.0828    5332.1329    4628.3796    44.059914   -215.55309    449.01678    46.905192    20.007847    20.603044           90           90           90 
  491000    273.80265   -10823.633   -9590.4249   -10823.633            0    5776.9811    46.776569    19.958441    20.738562            0            0            0    19361.259    5268.8014    6880.9427    5181.1991    -577.0053    342.20396     225.3684    46.776569    19.958441    20.738562           90           90           90 
  491500    269.23089   -10861.261   -9648.6439   -10861.261            0    7281.1811    46.387225    19.995048    20.694734            0            0            0    19194.672    8178.4984    6676.7726    6988.2722   -359.93251    702.83891    703.74329    46.387225    19.995048    20.694734           90           90           90 
  492000    266.61708   -10839.874     -9639.03   -10839.874            0     7348.335    46.459388    20.119876    20.540997            0            0            0    19200.843    7637.4863    7218.6395    7188.8792    138.06383   -271.71591   -65.193031    46.459388    20.119876    20.540997           90           90           90 
  492500    268.96093   -10914.737   -9703.3354   -10914.737            0    6403.8711    46.486108    19.904587    20.749136            0            0            0    19198.901    6024.5883     6804.498     6382.527    450.15737   -3.6265801   -636.59883    46.486108    19.904587    20.749136           90           90           90 
  493000    272.65023   -10914.856    -9686.838   -10914.856            0    4310.6604    46.974896    19.992256    20.618547            0            0            0    19363.582    3762.5216    4071.6848    5097.7746   -172.43842   -116.16748   -38.650777    46.974896    19.992256    20.618547           90           90           90 
  493500    281.12017    -10834.53   -9568.3633    -10834.53            0    6038.6883     46.55134    20.066011    20.652626            0            0            0    19291.612    5429.9785    7366.3259    5319.7605   -770.93498    442.36092    179.25359     46.55134    20.066011    20.652626           90           90           90 
  494000    283.93809    -10822.53   -9543.6714    -10822.53            0    5866.5054    46.448866    20.006622    20.755842            0            0            0    19288.091     7395.165    4089.5516    6114.7997     319.8203   -1138.6798   -124.13442    46.448866    20.006622    20.755842           90           90           90 
  494500    271.94572    -10855.07   -9630.2256    -10855.07            0    6363.7427    46.643476    20.032574    20.589532            0            0            0     19238.63      6232.84     6402.394    6455.9941   -119.51882    314.50017   -222.96755    46.643476    20.032574    20.589532           90           90           90 
  495000    284.18994   -10864.677   -9584.6843   -10864.677            0    6527.6456    46.552044    19.789483     20.78095            0            0            0    19144.261    6339.3634    6791.0626     6452.511    310.02616     1005.879   -59.076875    46.552044    19.789483     20.78095           90           90           90 
  495500    275.09659   -10868.138   -9629.1017   -10868.138            0    6007.1784     46.71097    20.067436    20.614133            0            0            0    19323.057    5566.2114    6618.4813    5836.8425    320.60685   -175.66734    242.50994     46.71097    20.067436    20.614133           90           90           90 
  496000    275.31434   -10884.904   -9644.8875   -10884.904            0    5873.5321    46.659719      20.0498    20.751213            0            0            0    19413.133    6107.8926    5277.1198    6235.5839   -430.45538   -605.35963     883.3302    46.659719      20.0498    20.751213           90           90           90 
  496500    279.13468   -10888.703   -9631.4792   -10888.703            0    6845.1208    46.471854    19.932908    20.731032            0            0            0    19203.552    7918.8868    6360.0742    6256.4013    60.200911    293.13429    470.59888    46.471854    19.932908    20.731032           90           90           90 
  497000    274.17297    -10889.43   -9654.5539    -10889.43            0    6548.5071    46.742231    20.019009    20.470252            0            0            0    19154.693    6146.9595    6168.2926    7330.2692    -349.0228    -347.5951    514.08287    46.742231    20.019009    20.470252           90           90           90 
  497500    267.97019   -10891.218   -9684.2793   -10891.218            0    5563.1531    46.469134    19.964099    20.768035            0            0            0    19266.804    5823.2955    5340.6816    5525.4821    112.72128      241.282   -218.80511    46.469134    19.964099    20.768035           90           90           90 
  498000    278.45147   -10882.419   -9628.2726   -10882.419            0    5768.7227    46.561261    20.018409    20.727842            0            0            0    19320.056    5384.5694    6604.5022    5317.0964   -406.98396    444.24167     346.4771    46.561261    20.018409    20.727842           90           90           90 
  498500     264.1318   -10861.539   -9671.8888   -10861.539            0    6090.1277    46.447554    20.112525    20.533894            0            0            0    19182.303    7930.3701    4635.1325    5704.8807   -418.47019    499.13376    552.03713    46.447554    20.112525    20.533894           90           90           90 
  499000    277.24499   -10824.247   -9575.5341   -10824.247            0    6104.0207    46.596585    20.099358    20.682437            0            0            0    19370.373     5465.789    6205.7129    6640.5603   -352.82876   -1102.9362    1219.3365    46.596585    20.099358    20.682437           90           90           90 
  499500    275.64046   -10895.242   -9653.7565   -10895.242            0    6109.7382    47.077085    19.941169    20.556575            0            0            0     19297.94    3411.9386     8361.973     6555.303   -54.959834   -739.65132     923.1456    47.077085    19.941169    20.556575           90           90           90 
  500000    282.86331   -10867.395   -9593.3774   -10867.395            0    5405.8799    46.719211    19.889964    20.800187            0            0            0    19328.437    5042.6531    6138.1234     5036.863    366.24219    189.17043   -130.79892    46.719211    19.889964    20.800187           90           90           90 
Loop time of 1456.08 on 32 procs for 500000 steps with 2268 atoms

Performance: 59.337 ns/day, 0.404 hours/ns, 343.387 timesteps/s
99.1% CPU use with 32 MPI tasks x 1 OpenMP threads

MPI task timing breakdown:
Section |  min time  |  avg time  |  max time  |%varavg| %total
---------------------------------------------------------------
Pair    | 249.06     | 287.09     | 338.49     | 158.2 | 19.72
Bond    | 0.59744    | 0.61582    | 0.63749    |   1.3 |  0.04
Kspace  | 640.62     | 692.21     | 730.72     | 102.7 | 47.54
Neigh   | 22.249     | 22.546     | 22.923     |   4.6 |  1.55
Comm    | 160.13     | 171.47     | 179.5      |  42.7 | 11.78
Output  | 3.5845     | 3.5884     | 3.6133     |   0.2 |  0.25
Modify  | 219.66     | 245.34     | 272.27     | 100.3 | 16.85
Other   |            | 33.22      |            |       |  2.28

Nlocal:        70.8750 ave          80 max          63 min
Histogram: 1 2 7 2 6 6 3 4 0 1
Nghost:        3170.56 ave        3208 max        3125 min
Histogram: 3 4 1 0 5 4 4 3 5 3
Neighs:        22159.6 ave       27646 max       18193 min
Histogram: 2 3 4 8 4 3 4 3 0 1

Total # of neighbors = 709108
Ave neighs/atom = 312.65785
Ave special neighs/atom = 2.0000000
Neighbor list builds = 25437
Dangerous builds = 2

unfix		3
unfix		2
unfix		1

write_data	data.final.${pid}
write_data	data.final.0
System init for write_data ...
PPPM initialization ...
  extracting TIP4P info from pair style
  using 12-bit tables for long-range coulomb (../kspace.cpp:340)
  G vector (1/distance) = 0.37126075
  grid = 48 25 27
  stencil order = 5
  estimated absolute RMS force accuracy = 0.0036318233
  estimated relative force accuracy = 1.0937128e-05
  using double precision FFTW3
  3d grid and FFT values/proc = 5720 1344
Last active /omp style is kspace_style pppm/tip4p/omp
WARNING: Not all mixed pair coeffs generated from mixing. Use write_data with 'pair ij' option to store all pair coeffs. (../write_data.cpp:312)

write_restart   restart.lmp.${pid}
write_restart   restart.lmp.0
System init for write_restart ...
PPPM initialization ...
  extracting TIP4P info from pair style
  using 12-bit tables for long-range coulomb (../kspace.cpp:340)
  G vector (1/distance) = 0.37126075
  grid = 48 25 27
  stencil order = 5
  estimated absolute RMS force accuracy = 0.0036318233
  estimated relative force accuracy = 1.0937128e-05
  using double precision FFTW3
  3d grid and FFT values/proc = 5720 1344
Last active /omp style is kspace_style pppm/tip4p/omp
Total wall time: 0:24:16
