LAMMPS data file via write_data, version 30 Jul 2021, timestep = 34750000

972 atoms
2 atom types
648 bonds
1 bond types
324 angles
1 angle types

0.18521107604647646 19.814789923943465 xlo xhi
0.3224805713940775 19.677520428608442 ylo yhi
0.025372350235741692 20.67462564977805 zlo zhi

Masses

1 1.008
2 15.999

Pair Coeffs # lj/cut/tip4p/long/omp

1 0 0
2 0.21084 3.1668

Bond Coeffs # harmonic/omp

1 450 0.9572

Angle Coeffs # harmonic/omp

1 55 104.52

Atoms # full

4 2 2 -1.1794 4.589149009811158 1.8246862343552803 3.2948020572526446 0 0 0
102 34 1 0.5897 0.5886036689764627 1.5408089525185371 5.088951072569753 1 0 0
5 2 1 0.5897 4.693226881385467 1.2445667680878754 2.5404859873589385 0 0 0
10 4 2 -1.1794 1.2953434242048307 4.170124206940418 3.9741643088261864 0 0 0
11 4 1 0.5897 1.1685972555341655 3.403062655818392 3.415698119179867 0 0 0
12 4 1 0.5897 2.245665599418067 4.261161555885046 4.044889928943155 0 0 0
16 6 2 -1.1794 4.056826408601131 4.459931835866422 3.633325711992745 0 0 0
18 6 1 0.5897 4.319646732242416 3.5918333334168318 3.327249081557909 0 0 0
23 8 1 0.5897 3.0719390688035704 1.0766393607354776 4.46596327241593 0 0 0
31 11 2 -1.1794 1.035802123874889 2.2229537622119344 2.1364528509762444 0 0 0
33 11 1 0.5897 1.7876043628177618 2.268695860078008 1.545604320109504 0 0 0
3 1 1 0.5897 3.8873670437806807 2.6345616510826555 0.5117036265522454 0 0 0
17 6 1 0.5897 4.295103968766469 5.0491168812746565 2.917469409327944 0 0 0
1 1 2 -1.1794 2.9404642513868358 2.6944284572800585 0.38437974231582556 0 0 0
32 11 1 0.5897 0.294085294885837 2.5102931274597795 1.603828733241107 0 0 0
22 8 2 -1.1794 2.4185587812181244 1.0224370689670188 5.163490537162961 0 0 0
236 79 1 0.5897 1.0887480689477917 0.4337828448437868 2.21805031653888 0 1 0
2 1 1 0.5897 2.786564445396051 3.611075451205286 0.1554158330269395 0 0 0
356 119 1 0.5897 1.725412319158068 2.2282496767931814 8.696214909185263 0 0 0
330 110 1 0.5897 4.321602406875021 1.0733640550304608 9.449080163796623 0 0 0
325 109 2 -1.1794 2.8543638031032925 2.7086469173148617 7.253794436102107 0 0 0
326 109 1 0.5897 2.6855458686332003 2.140529197301094 6.502066123509916 0 0 0
327 109 1 0.5897 3.8056263863262267 2.6904934716700724 7.359523552329061 0 0 0
27 9 1 0.5897 2.5153106956646583 4.358527053441611 6.531311662345677 0 0 0
355 119 2 -1.1794 1.0482784387451243 1.9529273382385963 9.314316864399322 0 0 0
328 110 2 -1.1794 4.292483561668076 1.7297741321326923 10.145231002029005 0 0 0
341 114 1 0.5897 3.938384172038202 3.6378682198128103 10.221679705878039 0 0 0
342 114 1 0.5897 3.975994480695704 5.076862992002076 9.752602495601366 0 0 0
357 119 1 0.5897 0.2235695723520692 2.133882327957565 8.863196144711043 0 0 0
683 228 1 0.5897 4.576703312965742 2.70525805162905 14.250142545767908 0 0 0
336 112 1 0.5897 1.9964579576229236 4.406966913268645 10.894728706668216 0 0 0
346 116 2 -1.1794 2.2703003108259145 0.577632935721384 11.8323003465704 0 0 0
347 116 1 0.5897 1.426740701475273 0.9691991349837301 11.605479824520234 0 0 0
348 116 1 0.5897 2.825096896643453 0.7445978695222617 11.070272336513924 0 0 0
350 117 1 0.5897 2.709102611616149 4.33626980380006 13.431573144628421 0 0 0
649 217 2 -1.1794 2.795679954698873 2.3980931319429466 13.871701582867281 0 0 0
650 217 1 0.5897 2.5287147179658325 1.749155289227645 13.220582901370785 0 0 0
651 217 1 0.5897 2.154844547040341 2.307974940302681 14.577102721086579 0 0 0
340 114 2 -1.1794 3.7010225928580516 4.526717065753231 10.486146595132006 0 0 0
334 112 2 -1.1794 1.0624781315029688 4.220616539550948 10.797916567184316 0 0 0
329 110 1 0.5897 4.990868149357889 1.4723510342026789 10.747212101510712 0 0 0
335 112 1 0.5897 1.0290643665289885 3.3142208098658896 10.491857000863392 0 0 0
332 111 1 0.5897 4.880607080807699 4.6881779597825295 11.790225894334805 0 0 0
652 218 2 -1.1794 4.310590875761898 1.750079036562361 17.042235223747163 0 0 0
653 218 1 0.5897 3.6430957658876792 1.4490881536302396 17.65885861303049 0 0 0
679 227 2 -1.1794 0.9860103754630539 2.2712207842637686 16.114378454497718 0 0 0
658 220 2 -1.1794 1.172686116669774 4.581087589520322 17.692572087257588 0 0 0
654 218 1 0.5897 4.255251733901889 1.1360119990479602 16.30997421954106 0 0 0
664 222 2 -1.1794 3.9774362317111858 4.347928582360159 17.55428644854378 0 0 0
665 222 1 0.5897 3.0381544088144334 4.496349752139942 17.66441362663395 0 0 0
666 222 1 0.5897 4.0430309076502855 3.444223289043501 17.24550414005374 0 0 0
670 224 2 -1.1794 2.4695026939299343 0.9764882680774485 18.92028089762259 0 0 0
671 224 1 0.5897 2.7948217130816264 1.5761289690315787 19.591813962278316 0 0 0
672 224 1 0.5897 1.5357043326311375 1.176025971876312 18.852317378077636 0 0 0
681 227 1 0.5897 1.1119749958347964 2.896998937366351 16.82774941270301 0 0 0
659 220 1 0.5897 0.6172440173576311 4.879040347904506 18.41304629432744 0 0 0
884 295 1 0.5897 0.7131093162139842 0.5359693999431299 15.842221472944376 0 1 0
680 227 1 0.5897 0.3208928155731892 2.674255971887276 15.55619644819876 0 0 0
110 37 1 0.5897 2.5513956630400876 9.219910649195311 0.7796613935770612 0 0 0
141 47 1 0.5897 1.135371447326006 7.629335539369375 2.0174674914750277 0 0 0
139 47 2 -1.1794 1.3118390296290352 8.564373993611508 1.9129827003907083 0 0 0
114 38 1 0.5897 3.5979366845728804 8.07684013682767 4.060740562555214 0 0 0
15 5 1 0.5897 4.4769519316843684 7.03336689366095 2.102558023760706 0 0 0
14 5 1 0.5897 4.324605455395993 6.054143653657686 0.957950334573358 0 0 0
111 37 1 0.5897 3.944498208491706 9.510648629384304 0.2628942422697187 0 0 0
19 7 2 -1.1794 0.9619737335159089 5.811326519772982 1.8547008500966407 0 0 0
13 5 2 -1.1794 4.811889726948336 6.201064922292387 1.7687140555413834 0 0 0
112 38 2 -1.1794 4.168108744080844 8.431410951068665 3.378427041249338 0 0 0
140 47 1 0.5897 1.288015990650004 8.914113317334563 2.8037567929950264 0 0 0
674 225 1 0.5897 2.1779397333655193 5.63624569962722 0.5941288686618984 0 0 1
113 38 1 0.5897 5.055432999329641 8.25755719170284 3.6928085870660423 0 0 0
132 44 1 0.5897 1.361937693844518 7.703847362167329 5.095442063806906 0 0 0
130 44 2 -1.1794 2.299513211553141 7.5107749405989495 5.087078122058408 0 0 0
20 7 1 0.5897 1.144312311624458 5.290253194757273 2.636750604278523 0 0 0
468 156 1 0.5897 4.819674248354768 8.80923584171571 7.0753156395062975 0 0 0
464 155 1 0.5897 1.6844480362880974 8.753173272347407 8.296690510785847 0 0 0
337 113 2 -1.1794 4.322681558019704 6.111667131809869 8.299537795225406 0 0 0
437 146 1 0.5897 4.093942849034662 7.543804150075936 9.562329465185508 0 0 0
465 155 1 0.5897 0.2058871072607323 8.913363461680106 8.580507722123963 0 0 0
435 145 1 0.5897 2.7547494324682935 8.843851102491804 6.3194329570393135 0 0 0
433 145 2 -1.1794 3.0157934616667252 9.301853691397824 7.118460176296216 0 0 0
463 155 2 -1.1794 1.0062690937939514 8.523111441234981 8.931914222784615 0 0 0
345 115 1 0.5897 1.0294590451952996 6.735850211690573 8.782735577672204 0 0 0
339 113 1 0.5897 3.767667308983376 5.919368911822447 7.543659978110359 0 0 0
343 115 2 -1.1794 0.8344526514929592 5.81157599913635 8.627734497415474 0 0 0
438 146 1 0.5897 3.884105681667384 8.902923819658895 10.195542763365314 0 0 0
131 44 1 0.5897 2.3697873759554744 6.6446503348093975 5.488622936632486 0 0 0
26 9 1 0.5897 1.7757850443559533 5.4628111244001385 7.256476623157731 0 0 0
344 115 1 0.5897 0.989304800090411 5.388672080855205 9.472441190986945 0 0 0
25 9 2 -1.1794 2.3444861335436302 5.300018286468169 6.5038565741589816 0 0 0
443 148 1 0.5897 1.1886186760996063 9.67595017314323 10.261308101361768 0 0 0
757 253 2 -1.1794 3.059584153257241 9.040150682202272 14.200424342255108 0 0 0
789 263 1 0.5897 1.740049706014332 8.744022945771222 15.400966437364739 0 0 0
792 264 1 0.5897 4.832615183201883 8.802216520962851 14.37328614028539 0 0 0
759 253 1 0.5897 2.68796430540055 8.531796893780328 13.479430372460145 0 0 0
661 221 2 -1.1794 4.395959140921294 6.022397933779441 15.483811315140365 0 0 0
454 152 2 -1.1794 1.9551827772536 7.575349218196109 12.125711466561404 0 0 0
455 152 1 0.5897 2.512424073101222 7.710728301018218 11.359203980675888 0 0 0
456 152 1 0.5897 2.2746432154905762 6.760673957846809 12.513787947338589 0 0 0
533 178 1 0.5897 0.23324437133087086 7.935033266410349 12.10204830581953 1 0 0
351 117 1 0.5897 3.260220152663563 5.547704247736239 14.153326336098102 0 0 0
668 223 1 0.5897 1.1988759718580237 5.706330377482909 14.70466594569281 0 0 0
349 117 2 -1.1794 2.556914552544646 5.271835927313785 13.56540350097962 0 0 0
758 253 1 0.5897 2.9058376437050537 9.952556097250067 13.955015426268107 0 0 0
667 223 2 -1.1794 0.5862633654481353 5.949075952548344 15.399051147174315 0 0 0
436 146 2 -1.1794 3.9898524397768416 7.9760280511819595 10.410097771281686 0 0 0
787 263 2 -1.1794 0.905353125914102 8.5608305788765 15.832391562468258 0 0 0
858 286 1 0.5897 0.74351582435861 7.994695011287503 18.60840925875632 1 0 0
669 223 1 0.5897 0.7215596349205291 6.888886404711515 15.52072883296778 0 0 0
779 260 1 0.5897 2.6169608475142274 8.265554251376372 19.555004876130624 0 0 0
780 260 1 0.5897 3.2459284941403626 7.848610356732308 18.242456464492804 0 0 0
675 225 1 0.5897 2.704360532776352 6.074826167073826 19.8932815247729 0 0 0
760 254 2 -1.1794 4.377992043828445 8.309870485398571 17.01082519511189 0 0 0
761 254 1 0.5897 4.274976755020833 9.257471721857371 17.098983288634077 0 0 0
778 260 2 -1.1794 2.566413365078071 7.599722594502333 18.869108344812883 0 0 0
788 263 1 0.5897 0.9243201753357683 9.093239684940446 16.627711353806063 0 0 0
662 221 1 0.5897 4.203655823130952 5.327049935134816 16.112989082939666 0 0 0
663 221 1 0.5897 4.268669783947428 6.833443095350296 15.976091405345645 0 0 0
673 225 2 -1.1794 2.929347336826749 5.544029083824343 20.657480665212212 0 0 0
109 37 2 -1.1794 3.0239831228744896 9.511964660210905 20.649345796277224 0 0 -1
660 220 1 0.5897 1.002951982318569 5.203552404220538 16.985402751458544 0 0 0
124 42 2 -1.1794 3.7311909391096356 11.117972151348374 3.684339007182114 0 0 0
118 40 2 -1.1794 0.9867551525644117 10.459812377200826 3.682372539368184 0 0 0
119 40 1 0.5897 1.8290007584019052 10.855954762730958 3.9061875401788795 0 0 0
120 40 1 0.5897 0.6427859421819733 11.009138142365956 2.977893144786079 0 0 0
123 41 1 0.5897 3.6840082298136414 12.388921150343643 0.735414212748398 0 0 0
220 74 2 -1.1794 4.691164574628346 14.62611029962088 3.393578232162446 0 0 0
222 74 1 0.5897 4.378043861436939 14.266321602038945 2.5635929664882715 0 0 0
240 80 1 0.5897 3.3353266210883024 14.21445989681588 4.4588752846586095 0 0 0
125 42 1 0.5897 4.2703150504620755 11.261529522333607 4.462226223695391 0 0 0
129 43 1 0.5897 0.9064032163122098 13.064804911341568 1.9325984522076811 0 0 0
127 43 2 -1.1794 0.5400991561669364 12.246460648035281 1.5972071438308308 0 0 0
783 261 1 0.5897 1.6316967415862036 12.142465670067963 0.18514712750676143 0 0 1
122 41 1 0.5897 3.9596940607823767 12.054682376155586 2.186108399849244 0 0 0
121 41 2 -1.1794 4.26195486424211 12.608578866722002 1.4662452325951156 0 0 0
126 42 1 0.5897 3.860332392925363 10.19400356208817 3.470028627911669 0 0 0
238 80 2 -1.1794 2.5422679039554525 14.186735779235013 4.994300020629767 0 0 0
317 106 1 0.5897 0.6339924974690299 14.182889239881632 4.837730292574214 1 0 0
133 45 2 -1.1794 2.344985225720594 11.79005723286124 6.45500604036872 0 0 0
134 45 1 0.5897 1.5590855657635765 11.968942970022562 6.971492833424844 0 0 0
135 45 1 0.5897 3.070527011381594 11.950867108583925 7.058430039950606 0 0 0
453 151 1 0.5897 0.683846686231315 11.660523756258875 9.392708055188493 0 0 0
446 149 1 0.5897 4.127785530709659 13.219727549049429 8.680952277399438 0 0 0
573 191 1 0.5897 1.0184358569024146 14.089557771541514 9.270793550077721 0 0 0
445 149 2 -1.1794 4.2486869221904415 12.396144750586505 8.208243941682985 0 0 0
451 151 2 -1.1794 0.554858053938475 12.277003260039287 8.6718364171678 0 0 0
450 150 1 0.5897 4.279713061582589 11.22605410913555 9.625995827675634 0 0 0
239 80 1 0.5897 2.5885177181530685 13.345267193881218 5.4483216518020985 0 0 0
448 150 2 -1.1794 3.989916776481502 10.626001481730803 10.31325349095808 0 0 0
434 145 1 0.5897 2.7899861343860426 10.217596583833245 6.954846548791855 0 0 0
544 182 2 -1.1794 4.544253857458855 14.340717795296696 10.092147988336205 0 0 0
769 257 2 -1.1794 4.6388297235712495 12.512102854940075 15.0901245273768 0 0 0
442 148 2 -1.1794 1.2328485795482964 10.482311518059982 10.77529270047369 0 0 0
457 153 2 -1.1794 2.6656189801108883 11.582062034297305 13.485759397385563 0 0 0
458 153 1 0.5897 1.9051409184861914 11.766529929926145 14.03716143527201 0 0 0
459 153 1 0.5897 3.41199225603308 11.906261582519221 13.989957427810728 0 0 0
449 150 1 0.5897 4.695004589749071 10.643913904212194 10.960494012627535 0 0 0
564 188 1 0.5897 2.626039229911559 14.60745334724453 12.594305396015422 0 0 0
562 188 2 -1.1794 2.484964668330124 13.897915550549879 11.967397192053925 0 0 0
563 188 1 0.5897 2.593066394628651 13.097986999125776 12.481968496109149 0 0 0
545 182 1 0.5897 3.7883141820262454 14.11747013451977 10.635390441501771 0 0 0
444 148 1 0.5897 2.1693260034433046 10.634790281430714 10.902490342189548 0 0 0
642 214 1 0.5897 0.6904901663660489 14.121698659017383 11.993349285963864 1 0 0
775 259 2 -1.1794 0.8698032457953062 12.449155093485954 15.383236929031915 0 0 0
766 256 2 -1.1794 1.262127927326803 10.641498900486798 17.572738361600283 0 0 0
782 261 1 0.5897 2.7164728594733347 11.181853216265322 20.395372023300045 0 0 0
768 256 1 0.5897 1.1530643547547195 11.33901917191332 16.926268906906113 0 0 0
772 258 2 -1.1794 4.0130809469251485 11.036881349902757 17.39074341688222 0 0 0
773 258 1 0.5897 3.0606979526267066 10.95873509745831 17.447877823543724 0 0 0
774 258 1 0.5897 4.169573724478142 11.447949845417606 16.54052317331867 0 0 0
868 290 2 -1.1794 4.553835967760702 14.611429040321285 16.93837978787649 0 0 0
965 322 1 0.5897 0.6380139949591251 14.306575610117855 18.66234660822695 1 0 0
869 290 1 0.5897 3.7896851374348097 14.539851809007855 17.510524201652295 0 0 0
886 296 2 -1.1794 2.5321284147753134 14.35830993001104 18.75803641782511 0 0 0
888 296 1 0.5897 2.5521259541678187 13.477506286800235 19.132390250289703 0 0 0
767 256 1 0.5897 0.701076288219044 10.901625876995512 18.303450575434994 0 0 0
781 261 2 -1.1794 2.4244260582265174 12.0885116166313 20.300479263214427 0 0 0
777 259 1 0.5897 1.1046334398104884 13.332673529445817 15.667103312920863 0 0 0
771 257 1 0.5897 4.544633801651065 13.334829625881854 15.570329606494301 0 0 0
230 77 1 0.5897 4.063875284716925 18.7946353893505 0.7466680129667228 0 0 0
248 83 1 0.5897 1.3115527907116404 15.545356491144041 2.9600748019700953 0 0 0
234 78 1 0.5897 3.2339710119064864 17.259353445100114 3.7148308463090687 0 0 0
235 79 2 -1.1794 0.9842464927773366 18.87738896006536 1.9447218136710696 0 0 0
226 76 2 -1.1794 1.3272261861852734 17.082418436494955 3.837760296424228 0 0 0
227 76 1 0.5897 1.154860119104428 17.739691000618603 3.1634916066958443 0 0 0
221 74 1 0.5897 4.609480952722276 15.574260730260372 3.290187593240818 0 0 0
229 77 2 -1.1794 4.624342490443286 19.153128942963814 1.4349529135819599 0 0 0
228 76 1 0.5897 0.753891478972499 17.32761950708344 4.5640734977516715 0 0 0
232 78 2 -1.1794 4.147622826585867 17.212881494900692 3.4328776996865678 0 0 0
890 297 1 0.5897 2.023691581749863 18.334898729361804 0.6626689926611079 0 0 1
233 78 1 0.5897 4.201586162667503 17.818050787025747 2.6931330956295305 0 0 0
219 73 1 0.5897 4.25018939073856 15.535532402098845 0.511892081981145 0 0 0
224 75 1 0.5897 5.00896977555278 17.811793978890222 5.102381600883428 0 0 0
217 73 2 -1.1794 3.2953849043199264 15.591321352638364 0.4714051063515782 0 0 0
249 83 1 0.5897 1.8818406173645021 15.30730917033289 1.5779252004765927 0 0 0
247 83 2 -1.1794 1.2515606877468404 14.956868056737186 2.2074607163128537 0 0 0
218 73 1 0.5897 3.1206012977335367 16.46571654202287 0.12321215494293786 0 0 0
24 8 1 0.5897 2.4601458697747822 19.46863465567932 5.461197683448164 0 -1 0
559 187 2 -1.1794 0.6230533284246449 18.54164105764457 8.999338853152315 0 0 0
555 185 1 0.5897 3.9186435546899037 18.60242240155992 7.819544291093587 0 0 0
241 81 2 -1.1794 2.44868428053776 18.085317213074347 6.827505666798445 0 0 0
242 81 1 0.5897 2.779740906428131 17.192090095506813 6.92187321389374 0 0 0
243 81 1 0.5897 1.7856881845509682 18.169215809299327 7.51289648221964 0 0 0
541 181 2 -1.1794 3.1757599629090847 15.549723705985135 7.255505503282272 0 0 0
553 185 2 -1.1794 4.360541161719391 18.814257020641435 8.641873067482885 0 0 0
542 181 1 0.5897 2.445315640135482 15.333353674328476 7.8351882055785085 0 0 0
576 192 1 0.5897 4.974896054738724 15.63444305522325 7.531078627795198 0 0 0
561 187 1 0.5897 0.8991568663141123 19.441867548280786 9.17167542009799 0 0 0
572 191 1 0.5897 1.1386039270677806 15.415186934092093 9.992215814869306 0 0 0
558 186 1 0.5897 4.110755941925233 17.486775657666644 9.915846377371263 0 0 0
543 181 1 0.5897 2.960982688922201 15.119296658182474 6.42788402568883 0 0 0
571 191 2 -1.1794 1.1284487622060422 15.027923335013385 9.116836462893724 0 0 0
557 186 1 0.5897 4.125270383615067 16.01702091460168 10.278897761399723 0 0 0
551 184 1 0.5897 0.8973395124325672 17.376545355895676 10.303463558820974 0 0 0
885 295 1 0.5897 1.194147763161717 18.8429344725361 14.861231733012952 0 0 0
866 289 1 0.5897 4.018894851682818 15.426043466079074 14.294128072857577 0 0 0
879 293 1 0.5897 3.944338735816478 18.75787179332667 14.762412844197433 0 0 0
867 289 1 0.5897 2.5860390798297463 15.3912357883652 14.782050367728774 0 0 0
552 184 1 0.5897 2.172507718124846 16.956188591627175 11.003157467770986 0 0 0
548 183 1 0.5897 5.003454231047063 17.331020318081702 11.872247155495554 0 0 0
565 189 2 -1.1794 2.5741483008108412 18.234485309669328 13.908724305235552 0 0 0
566 189 1 0.5897 2.8522996166447494 17.33077353453861 13.759417230357172 0 0 0
567 189 1 0.5897 2.543806865541691 18.623768446912788 13.034710050672881 0 0 0
865 289 2 -1.1794 3.118197381327142 15.581001425189518 14.009282930445506 0 0 0
550 184 2 -1.1794 1.220502114534303 16.864855586849604 11.045156530549948 0 0 0
877 293 2 -1.1794 4.590565799667162 18.994232379047332 15.427931072599252 0 0 0
556 186 2 -1.1794 3.9485432482863767 16.884823038500866 10.642271747916276 0 0 0
881 294 1 0.5897 3.306736587780953 17.361431457855844 17.696243272694847 0 0 0
897 299 1 0.5897 1.4911735395503638 15.86312693774351 16.630378721515513 0 0 0
878 293 1 0.5897 4.457574976435519 18.356057161436294 16.12893656490353 0 0 0
882 294 1 0.5897 4.349382135576871 16.436565007396535 17.104812358692502 0 0 0
880 294 2 -1.1794 4.245169237041596 17.292764121971114 17.520045112330894 0 0 0
874 292 2 -1.1794 1.5165790995980823 17.374615094528423 17.561441394349266 0 0 0
891 297 1 0.5897 2.3902687210153086 18.813555697761185 19.92312747546071 0 0 0
876 292 1 0.5897 1.2386630393946183 17.978140049098936 16.87234806248982 0 0 0
875 292 1 0.5897 0.7951935124350934 17.380217169045228 18.19069792580437 0 0 0
889 297 2 -1.1794 2.6003575870679088 18.142324322275453 20.572493043338703 0 0 0
895 299 2 -1.1794 1.348198085386427 15.121012500684984 16.042869548015386 0 0 0
883 295 2 -1.1794 0.6046189745143151 18.97006946630377 15.604651155594889 0 0 0
896 299 1 0.5897 0.5600008232365974 15.352400868052722 15.551332491892348 0 0 0
887 296 1 0.5897 2.7629136705180777 14.934216073228072 19.487030049540813 0 0 0
69 23 1 0.5897 6.740164132058415 2.380780672353592 1.7026219431792162 0 0 0
36 12 1 0.5897 5.587632605469848 3.860198079942979 0.026856277976431257 0 0 0
68 23 1 0.5897 8.231250992905194 2.1779860170261687 1.535594823734154 0 0 0
67 23 2 -1.1794 7.496492382601539 1.9562443191381724 2.107745619578019 0 0 0
46 16 2 -1.1794 7.893589478121841 4.089394869159677 3.819108680658943 0 0 0
47 16 1 0.5897 7.612106168470438 3.232208711092578 3.4991734740979794 0 0 0
48 16 1 0.5897 7.2240385096103985 4.339601298692604 4.455888489402343 0 0 0
53 18 1 0.5897 9.667581437243697 4.247424899953268 3.500595236264962 0 0 0
34 12 2 -1.1794 5.528428049810371 3.0525398660914163 0.537282640437789 0 0 0
37 13 2 -1.1794 9.35269193137463 2.5020024080973227 0.35144413669479524 0 0 0
58 20 2 -1.1794 9.04307882955059 0.48555378549297723 4.864951451343932 0 0 0
6 2 1 0.5897 5.355466189598003 1.6483263411178062 3.840744021928289 0 0 0
29 10 1 0.5897 7.351603171244396 0.9550701313948898 4.855295213055545 0 0 0
9 3 1 0.5897 5.3306430239876486 4.662769223455472 4.854376642648892 0 0 0
28 10 2 -1.1794 6.42939593084485 1.1298330929719445 5.0434577984280455 0 0 0
8 3 1 0.5897 5.860341928993938 4.088726186875707 6.15133855584549 0 0 0
391 131 2 -1.1794 7.471211073299668 1.7628676337102662 8.790075855598134 0 0 0
393 131 1 0.5897 7.488051082879588 0.809763926110856 8.877378749669372 0 0 0
360 120 1 0.5897 5.750496828040966 2.088139431452026 6.400329886488972 0 0 0
361 121 2 -1.1794 9.308199509851352 2.54687290099566 6.776835583405863 0 0 0
392 131 1 0.5897 8.149468771538945 1.9565992436568138 8.142917555744736 0 0 0
362 121 1 0.5897 9.129399127262909 3.4677243775928983 6.585998902775004 0 0 0
358 120 2 -1.1794 5.524950396652522 2.638559405530251 7.150352074765916 0 0 0
359 120 1 0.5897 6.204491687309931 2.4516564235969587 7.798182642918717 0 0 0
59 20 1 0.5897 9.032604590301009 1.1193848870381102 5.582243920163624 0 0 0
7 3 2 -1.1794 6.01512719618164 4.78455384902159 5.512427059744611 0 0 0
377 126 1 0.5897 9.460959294696728 4.157189443029865 10.158032412400905 0 0 0
381 127 1 0.5897 7.350545346490988 4.9205082896501855 9.001452377678776 0 0 0
371 124 1 0.5897 7.608289706378194 3.128420121701648 10.139760433019958 0 0 0
352 118 2 -1.1794 5.794394183085173 1.0112271282332406 12.195200330587458 0 0 0
353 118 1 0.5897 6.714590778016869 0.9972637644126243 11.931665936461211 0 0 0
684 228 1 0.5897 5.542850129461582 3.7063177540629084 13.6528927610407 0 0 0
354 118 1 0.5897 5.753500718848245 1.6691188763004077 12.889363763533778 0 0 0
372 124 1 0.5897 6.97606635453585 4.234909141434899 10.957195939746985 0 0 0
685 229 2 -1.1794 9.267957207463382 2.6801275150745765 13.445550109655867 0 0 0
382 128 2 -1.1794 8.533631706197356 0.9452488716089837 11.621876566751874 0 0 0
383 128 1 0.5897 8.84122160554292 1.5932167945199711 12.25582498122055 0 0 0
384 128 1 0.5897 9.169949865923185 0.9871446963192694 10.907922654876542 0 0 0
370 124 2 -1.1794 7.729596850220613 4.041820474676233 10.399248936191698 0 0 0
686 229 1 0.5897 8.88397240981698 2.6174918553687903 14.320195669013506 0 0 0
682 228 2 -1.1794 5.494760603195962 2.9758223781320012 14.269666842256676 0 0 0
386 129 1 0.5897 8.848041256997888 4.537031404106877 13.427836847781235 0 0 0
331 111 2 -1.1794 5.686673930535082 4.784422243762045 12.297566566620482 0 0 0
717 239 1 0.5897 6.921994002023617 2.6317673996003297 15.279650702517365 0 0 0
657 219 1 0.5897 6.611675264004088 4.7858411789836435 19.204319058754315 0 0 0
38 13 1 0.5897 9.255957722967617 2.028130004336945 20.17459086340595 0 0 -1
656 219 1 0.5897 5.131302319304847 4.967191037563596 18.943639200024773 0 0 0
702 234 1 0.5897 9.553850001280999 4.44624370213418 17.729019254415515 0 0 0
716 239 1 0.5897 7.5674816908670826 1.410637448931028 15.899637074076594 0 0 0
676 226 2 -1.1794 6.362150775517247 1.178982655910458 18.993152100632994 0 0 0
694 232 2 -1.1794 7.781094063343412 4.097778064318023 17.812251996753442 0 0 0
695 232 1 0.5897 7.718186526786096 3.2997304189169716 17.28736152016253 0 0 0
715 239 2 -1.1794 7.717993233867011 2.339506896571204 15.723895608480598 0 0 0
706 236 2 -1.1794 9.041007792577288 0.9364368720539219 18.743620088818766 0 0 0
708 236 1 0.5897 8.111464971176787 1.1651261896681155 18.736512356598112 0 0 0
677 226 1 0.5897 5.771376918527437 1.3658730864091315 18.26347206533375 0 0 0
696 232 1 0.5897 7.582581394863968 4.805014294801497 17.198448281129625 0 0 0
35 12 1 0.5897 5.916241563860379 2.383265153571844 20.622596981546348 0 0 -1
710 237 1 0.5897 9.218328627897863 4.458431966669817 20.19366878780091 0 0 0
143 48 1 0.5897 6.460454226320792 9.112007571650835 0.8336399164933156 0 0 0
176 59 1 0.5897 7.903497823577343 7.716468540613741 2.1653266313392345 0 0 0
145 49 2 -1.1794 9.696453612827636 9.110140969836088 0.13543362529566863 0 0 0
166 56 2 -1.1794 8.902499301801143 7.366675191453676 4.809886671833207 0 0 0
175 59 2 -1.1794 7.930319175146571 8.668517540487924 2.069280362488966 0 0 0
55 19 2 -1.1794 7.521739690311208 5.951702195302125 1.8363488296459136 0 0 0
56 19 1 0.5897 6.570041411202526 6.054964222957358 1.8345780826159777 0 0 0
177 59 1 0.5897 8.62377520164953 8.82563659611904 1.4283248474539263 0 0 0
142 48 2 -1.1794 5.758526733959652 9.349388359540434 0.22755909102353708 0 0 0
138 46 1 0.5897 7.044474657748795 7.566147706396518 4.696581048087422 0 0 0
711 237 1 0.5897 8.4268157334249 5.522397448673788 0.2749665149452125 0 0 1
57 19 1 0.5897 7.69123079647092 5.300559566163878 2.517250156033661 0 0 0
136 46 2 -1.1794 6.116535044759899 7.400905079763923 4.863997055716286 0 0 0
137 46 1 0.5897 6.0781293274830395 6.476996464390957 5.111526310334209 0 0 0
467 156 1 0.5897 6.010545245027045 8.183477392242585 6.380656275145583 0 0 0
501 167 1 0.5897 6.702237326369469 8.443052390875055 8.441741915244071 0 0 0
380 127 1 0.5897 7.14804219521273 6.387045709166051 8.684510248510964 0 0 0
168 56 1 0.5897 9.03740413651524 8.036267894493935 5.480561488695403 0 0 0
499 167 2 -1.1794 7.36209883879792 8.22974496793779 9.101636552466983 0 0 0
338 113 1 0.5897 5.190176456317325 5.7952779987388245 8.047040019221269 0 0 0
466 156 2 -1.1794 5.776907804885829 8.798398957192983 7.07610036996361 0 0 0
469 157 2 -1.1794 9.133339829190472 9.023434116090922 6.951546392579739 0 0 0
500 167 1 0.5897 7.501248581757614 9.04965387583119 9.57570140628934 0 0 0
470 157 1 0.5897 8.619405741988485 8.680931937885001 7.682938081992588 0 0 0
379 127 2 -1.1794 7.102786629869902 5.5146842616232306 8.292982684232825 0 0 0
62 21 1 0.5897 8.350623472806609 5.272497965765078 7.070182213597613 0 0 0
63 21 1 0.5897 9.82042579775702 5.635723228884256 7.080403065945008 0 0 0
167 56 1 0.5897 9.143359934451773 6.545493389585542 5.238769790359908 0 0 0
61 21 2 -1.1794 9.136351013576094 5.263971500910089 6.523435946826913 0 0 0
491 164 1 0.5897 9.527356510267312 7.829052987732533 11.104318013692733 0 0 0
794 265 1 0.5897 9.322224084571268 8.312883367865684 13.208843160955102 0 0 0
462 154 1 0.5897 5.591450139199017 7.69501479802797 11.332364461269604 0 0 0
461 154 1 0.5897 5.996614718773304 7.772608564554575 12.789088379042303 0 0 0
333 111 1 0.5897 5.8233538934173215 5.730198470478909 12.35384310746631 0 0 0
793 265 2 -1.1794 9.399214169084042 8.866412127126484 13.986033876491193 0 0 0
790 264 2 -1.1794 5.755478576060342 8.914004238924955 14.144718724300821 0 0 0
387 129 1 0.5897 8.985077549782991 6.016946888821404 13.139297640350627 0 0 0
460 154 2 -1.1794 6.260033207357388 7.396640991700838 11.949083631393515 0 0 0
490 164 2 -1.1794 9.072249185692888 7.321143189325285 11.776087058388704 0 0 0
492 164 1 0.5897 8.155621292234706 7.585656003857387 11.697134907955421 0 0 0
791 264 1 0.5897 6.219697754887956 8.842623444682198 14.978856971308346 0 0 0
705 235 1 0.5897 7.625105362239224 5.851779920244703 15.247438700583174 0 0 0
824 275 1 0.5897 8.362349977011755 8.70306676455834 15.328900488112751 0 0 0
795 265 1 0.5897 9.317533308315186 9.760205523317387 13.653164329422758 0 0 0
385 129 2 -1.1794 8.736397906718214 5.399705856182395 13.827433046126222 0 0 0
814 272 2 -1.1794 9.06543128881817 7.577619829241939 18.712240396434808 0 0 0
786 262 1 0.5897 7.345620772229021 7.761738765032099 18.569937378648877 0 0 0
815 272 1 0.5897 8.932139459610086 6.7086474759026595 19.091001544179974 0 0 0
825 275 1 0.5897 7.552224858049263 7.8226183975861225 16.25664106826561 0 0 0
785 262 1 0.5897 6.19066130733137 6.945747722509392 19.110787640998335 0 0 0
703 235 2 -1.1794 7.06414715260184 6.029407160646832 16.002528993315597 0 0 0
816 272 1 0.5897 9.181835384579944 8.153544209329553 19.46796808429656 0 0 0
784 262 2 -1.1794 6.398291143181119 7.787641319215857 18.70524988131006 0 0 0
823 275 2 -1.1794 7.790510420457861 8.735701767853003 16.095914087336496 0 0 0
704 235 1 0.5897 6.172767119064033 5.970936049400325 15.658382900254058 0 0 0
144 48 1 0.5897 5.931239121377288 8.827338990056997 20.09323503856744 0 0 -1
762 254 1 0.5897 5.1215048598258806 8.095782497720224 17.574509611763176 0 0 0
709 237 2 -1.1794 9.105340209638284 5.4067525961427405 20.258920879934937 0 0 0
655 219 2 -1.1794 5.843787089290611 5.271371576336234 19.505977672302663 0 0 0
154 52 2 -1.1794 7.783239091165561 10.876669831989327 3.7157862391372527 0 0 0
819 273 1 0.5897 8.067733594243602 11.9433723648438 0.47623207659129224 0 0 1
156 52 1 0.5897 8.7094815869041 10.96211386937996 3.9420412050573654 0 0 0
163 55 2 -1.1794 7.038131979640864 12.511341432693811 1.7919336780214938 0 0 0
164 55 1 0.5897 6.0828606070744105 12.508120874814729 1.729743444531997 0 0 0
165 55 1 0.5897 7.228433055880074 12.01640114510789 2.5889083737730902 0 0 0
285 95 1 0.5897 7.806766679719705 14.173898086177083 2.1666014900969977 0 0 0
246 82 1 0.5897 5.784680216673329 14.125271651901414 4.683433126914155 0 0 0
275 92 1 0.5897 8.453957705339374 14.111505994038033 4.880013310798545 0 0 0
274 92 2 -1.1794 9.320742944966735 13.779167268966644 5.1137722261986704 0 0 0
276 92 1 0.5897 9.872127640657553 13.997246190592161 4.362238948949683 0 0 0
116 39 1 0.5897 6.599648687528062 11.129581831484723 5.161150184704057 0 0 0
155 52 1 0.5897 7.735035226799871 10.07029542906029 3.202182014945687 0 0 0
146 49 1 0.5897 9.454429050791179 10.03346516183928 0.06296226713253006 0 0 0
447 149 1 0.5897 5.195811818062831 12.256986544430807 8.206897799068644 0 0 0
170 57 1 0.5897 9.188737799234968 12.128101947890435 5.965695153901552 0 0 0
171 57 1 0.5897 9.079902605844756 10.78626161693698 6.658383232641171 0 0 0
169 57 2 -1.1794 8.887777400142268 11.71665066408789 6.775939198391207 0 0 0
488 163 1 0.5897 7.306663528749625 11.921875233706809 7.812389123704381 0 0 0