LAMMPS (30 Jul 2021)
  using 1 OpenMP thread(s) per MPI task
package omp 0
using multi-threaded neighbor list subroutines
echo both

include		in.partitions
variable        pid world 0
include		in.temp
variable        temperature equal 254.99
variable	tempDamp equal 100.0
include		in.pressure
variable        pressure equal 6250.0
variable        pressureDamp equal 1000.0 # This is 1 ps
include		in.seed
variable        seed world 745823

units		real
atom_style	full
read_restart	restart.lmp.${pid}
read_restart	restart.lmp.0
Reading restart file ...
  restart file = 30 Jul 2021, LAMMPS = 30 Jul 2021
  restoring atom style full from restart
  orthogonal box = (0.50076774 1.6813695 0.61093547) to (17.706805 21.947808 21.602260)
  4 by 4 by 4 MPI processor grid
  restoring pair style lj/cut/tip4p/long/omp from restart
  restoring bond style harmonic/omp from restart
  restoring angle style harmonic/omp from restart
  864 atoms
  576 bonds
  288 angles
Finding 1-2 1-3 1-4 neighbors ...
  special bond factors lj:    0        0        0       
  special bond factors coul:  0        0        0       
     2 = max # of 1-2 neighbors
     1 = max # of 1-3 neighbors
     1 = max # of 1-4 neighbors
     2 = max # of special neighbors
  special bonds CPU = 1.887 seconds
  read_restart CPU = 2.313 seconds
include 	in.setup
variable	out_freq equal 1000
variable	out_freq2 equal 10000
variable	out_freq3 equal 1000

timestep	2.0

neigh_modify    delay 7 every 1

include		in.tip4p
# This is TIP4P/Ice

# create groups ###
group ox type 2
288 atoms in group ox
group hy type 1
576 atoms in group hy

# set charges - beside manually ###
set group ox charge -1.1794
Setting atom values ...
  288 settings made for charge
set group hy charge 0.5897
Setting atom values ...
  576 settings made for charge

# ### TIP3P Potential Parameters ###
pair_style lj/cut/tip4p/long/omp 2 1 1 1 0.1577 8.5
pair_coeff 1 1*2 0.000 0.000
pair_coeff 2 2 0.21084 3.1668
bond_style  harmonic
bond_coeff  1 450 0.9572
angle_style harmonic
angle_coeff 1 55 104.52
kspace_style pppm/tip4p/omp 1.0e-5
pair_modify tail yes

thermo          ${out_freq}
thermo          1000
thermo_style    custom step temp pe etotal epair emol press lx ly lz vol pxx pyy pzz pxy pxz pyz enthalpy

restart 	${out_freq3} restart.lmp.${pid} restart2.lmp.${pid}
restart 	1000 restart.lmp.${pid} restart2.lmp.${pid}
restart 	1000 restart.lmp.0 restart2.lmp.${pid}
restart 	1000 restart.lmp.0 restart2.lmp.0


include         in.dump
dump            myDump all atom ${out_freq2} dump.water.${pid}
dump            myDump all atom 10000 dump.water.${pid}
dump            myDump all atom 10000 dump.water.0
dump            myDump2 all dcd ${out_freq2} dump.dcd
dump            myDump2 all dcd 10000 dump.dcd
dump_modify     myDump append yes
dump_modify     myDump2 append yes


variable natoms 	equal  "count(all)"                        # NUMBER ATOMS
variable H      	equal  "enthalpy/v_natoms"                 # ENTHALPY-per-atom
variable Vol      	equal  "vol/v_natoms"                 # volume-per-atom
fix AVG all 		ave/time ${out_freq} 1 ${out_freq} v_Vol v_H file vol_enthalpy.dat
fix AVG all 		ave/time 1000 1 ${out_freq} v_Vol v_H file vol_enthalpy.dat
fix AVG all 		ave/time 1000 1 1000 v_Vol v_H file vol_enthalpy.dat


timer           timeout 23:50:00 every 1000
New timer settings: style=normal  mode=nosync  timeout=23:50:00

fix 		1 all shake 1e-6 200 0 b 1 a 1
       0 = # of size 2 clusters
       0 = # of size 3 clusters
       0 = # of size 4 clusters
     288 = # of frozen angles
  find clusters CPU = 0.325 seconds
fix             2 all nph iso ${pressure} ${pressure} ${pressureDamp}
fix             2 all nph iso 6250 ${pressure} ${pressureDamp}
fix             2 all nph iso 6250 6250 ${pressureDamp}
fix             2 all nph iso 6250 6250 1000
fix             3 all temp/csvr ${temperature} ${temperature} ${tempDamp} ${seed}
fix             3 all temp/csvr 254.99 ${temperature} ${tempDamp} ${seed}
fix             3 all temp/csvr 254.99 254.99 ${tempDamp} ${seed}
fix             3 all temp/csvr 254.99 254.99 100 ${seed}
fix             3 all temp/csvr 254.99 254.99 100 745823

run             250000
PPPM initialization ...
  extracting TIP4P info from pair style
  using 12-bit tables for long-range coulomb (../kspace.cpp:340)
  G vector (1/distance) = 0.37470714
  grid = 24 24 25
  stencil order = 5
  estimated absolute RMS force accuracy = 0.0030228346
  estimated relative force accuracy = 9.1031767e-06
  using double precision FFTW3
  3d grid and FFT values/proc = 2730 288
Last active /omp style is kspace_style pppm/tip4p/omp
Neighbor list info ...
  update every 1 steps, delay 7 steps, check yes
  max neighbors/atom: 2000, page size: 100000
  master list distance cutoff = 10.8154
  ghost atom cutoff = 10.8154
  binsize = 5.4077, bins = 4 4 4
  1 neighbor lists, perpetual/occasional/extra = 1 0 0
  (1) pair lj/cut/tip4p/long/omp, perpetual
      attributes: half, newton on, omp
      pair build: half/bin/newton/omp
      stencil: half/bin/3d
      bin: standard
Per MPI rank memory allocation (min/avg/max) = 9.240 | 9.244 | 9.252 Mbytes
Step Temp PotEng TotEng E_pair E_mol Press Lx Ly Lz Volume Pxx Pyy Pzz Pxy Pxz Pyz Enthalpy 
 3250000    265.05341   -3898.5542   -3444.2618   -3898.5542            0    5553.7981    17.206037    20.266439    20.991325    7319.7819    4216.8751    7002.8747    5441.6444    231.74741   -244.67168    687.05587   -2851.3854 
 3251000    255.57304   -3918.3761   -3480.3327   -3918.3761            0    6177.6391    17.184805     20.24143    20.965422     7292.718    6105.6283    6200.2709     6227.018    642.94403   -1067.5276    34.005255   -2823.2987 
 3252000     248.9457   -3901.8703   -3475.1859   -3901.8703            0    6396.2986    17.166125    20.219428    20.942632    7268.9619    6420.1105    7231.9433    5536.8419   -532.90253    948.93715    -351.9273    -2797.112 
 3253000    260.67649   -3921.8372   -3475.0466   -3921.8372            0    6899.4216    17.133109    20.180539    20.902353    7227.1009    8443.8897    5453.6898    6800.6852    1197.1464    -317.6094    100.38853   -2747.8486 
 3254000    238.48462   -3906.3226   -3497.5682   -3906.3226            0    6660.5633    17.139052     20.18754    20.909604    7234.6246    6665.8022    6330.5501    6985.3376    -203.0329   -2062.5891   -557.46345   -2794.8149 
 3255000    248.04161   -3876.8099    -3451.675   -3876.8099            0    5407.2096    17.166176    20.219488    20.942695    7269.0268    6444.2364    6125.7312    3651.6611    563.98564   -855.68036    301.92267   -2878.4497 
 3256000    258.48615   -3873.6273   -3430.5908   -3873.6273            0    6396.3821    17.139363    20.187905    20.909982    7235.0175    5099.8977    6557.5014    7531.7474   -1966.3688    383.89283   -330.04144   -2755.6746 
 3257000    254.43335   -3885.1447   -3449.0547   -3885.1447            0    6917.6487    17.064583    20.099825    20.818751    7140.7302    5064.3099    7731.1838    7957.4524   -362.45446   -373.75895    -1009.604   -2728.6492 
 3258000    259.96957   -3893.0508   -3447.4719   -3893.0508            0    4594.5698    17.205667    20.266003    20.990874    7319.3099    3097.0655    5706.1373    4980.5065    681.97293    432.29386   -384.96319   -2957.0262 
 3259000    260.29433   -3858.4205   -3412.2849   -3858.4205            0    7079.0856    17.096756    20.137721    20.858003    7181.1958    6033.6911    7664.8221    7538.7437   -17.381668    123.76234    83.334797   -2670.8896 
 3260000    263.01878   -3882.5341   -3431.7289   -3882.5341            0    6032.8196     17.13188    20.179091    20.900853    7225.5452    3593.1913     6679.476    7825.7915    1377.2539    645.35183    247.83885   -2796.0075 
 3261000    264.89219   -3904.7998   -3450.7836   -3904.7998            0    6326.2572    17.149603    20.199967    20.922476    7247.9938    6833.8758    5448.3182    6696.5777   -1272.2943    156.50557    -388.5009   -2782.0694 
 3262000    252.75097   -3837.3237   -3404.1172   -3837.3237            0    6907.2725    17.142869    20.192035     20.91426    7239.4591    6329.7079    6646.1447    7745.9649    551.79214   -1264.0992   -594.55793   -2674.8468 
 3263000    254.26362   -3829.8455   -3394.0463   -3829.8455            0     9929.735    17.039085    20.069792    20.787644     7108.769    10767.541    10311.979    8709.6844   -1740.5988    675.86076    66.091877     -2364.59 
 3264000    258.27274   -3900.9208   -3458.2502   -3900.9208            0    7509.3508      17.0759    20.113155    20.832558    7154.9468    6651.0862    7769.8484    8107.1179     1283.072    471.77422   -354.41387   -2674.6678 
 3265000    258.91885   -3897.4525   -3453.6744   -3897.4525            0    6375.9902    17.067776    20.103586    20.822647    7144.7395    5899.8672    7305.4465    5922.6569    708.68653   -2635.0628   -133.62403   -2789.3045 
 3266000    245.68555   -3865.2233   -3444.1266   -3865.2233            0    6245.8585     17.16957    20.223486    20.946836    7273.3398    8078.8949    6301.4886    4357.1919    -15.61754   -1718.8514    113.21196   -2781.6022 
 3267000    251.13022   -3875.2975   -3444.8689   -3875.2975            0    5051.0595    17.228503    20.292901    21.018734    7348.4922    5584.4638    5432.9691    4135.7456   -585.30354    155.96999    96.865465   -2903.5458 
 3268000    252.38277   -3913.8785   -3481.3031   -3913.8785            0    5870.0783    17.080615    20.118709    20.838311    7160.8758    4234.7789    6597.1297    6778.3262   -1223.2719   -191.80324   -192.69072   -2868.2671 
 3269000    259.13872   -3895.5701   -3451.4153   -3895.5701            0    5816.2965    17.110554    20.153973    20.874836    7198.5965    6040.6172     5188.525    6219.7474   -1067.1559   -560.05405   -217.03704   -2840.7963 
 3270000    260.67321    -3915.206    -3468.421    -3915.206            0    4451.6475    17.127209    20.173589    20.895154    7219.6367    4945.5313      6595.18     1814.231    -1782.352     596.4162   -744.21769   -2999.7026 
 3271000    246.43251   -3902.6983   -3480.3214   -3902.6983            0    6670.0259    17.052925    20.086093    20.804529    7126.1056    7397.4485    5198.2809    7414.3481   -666.49396   -476.14597   -1385.8767   -2787.1261 
 3272000    269.94327   -3911.8292   -3449.1557   -3911.8292            0    4068.7036    17.081207    20.119406    20.839033    7161.6202    2952.6231    5326.4238    3927.0639   -891.58319   -294.24575    655.08054   -3024.2004 
 3273000    242.86809   -3895.8855   -3479.6179   -3895.8855            0    6937.8841     17.05617    20.089916    20.808488    7130.1746    6652.6652       5875.2    8285.7871   -2230.9748    -1356.546    1207.6725   -2758.1732 
 3274000    271.67567   -3882.6819   -3417.0391   -3882.6819            0    6285.8277    17.072156    20.108745     20.82799    7150.2413     6152.356    7819.4628    4885.6642   -732.35526   -286.72115    457.86118   -2761.5596 
 3275000    256.63846   -3897.2876   -3457.4181   -3897.2876            0    5314.6247    17.111245    20.154787    20.875679    7199.4686    7224.9897    4908.3812    3810.5031    813.26729    2105.8395    559.39526   -2899.3992 
 3276000    274.05396   -3885.4784   -3415.7593   -3885.4784            0    6725.1008    17.110277    20.153646    20.874498    7198.2465    7656.3481    6639.2122     5879.742   -1383.8065    743.38852    86.097665   -2709.7647 
 3277000    259.87756   -3880.5713   -3435.1501   -3880.5713            0    7607.5394    17.120503    20.165691    20.886973    7211.1599     8694.473    6124.9868    8003.1585   -617.89458   -283.46512   -1243.4014   -2635.0851 
 3278000    255.44406   -3922.3227   -3484.5003   -3922.3227            0    6246.9594    17.107327    20.150171    20.870899    7194.5235    6691.5981    6932.2586    5117.0216    1259.4536    367.28583   -1357.2407   -2829.0397 
 3279000    242.84071    -3910.658   -3494.4373    -3910.658            0    6087.4049    17.105714    20.148272    20.868931     7192.489    7505.0319    5308.8954    5448.2872   -347.01205    603.93477    340.82177   -2855.8985 
 3280000    261.19649    -3891.839   -3444.1571    -3891.839            0    8694.9122    17.090178    20.129972    20.849977    7172.9092     8564.893    10038.698     7481.146   -760.23683   -2877.9746   -611.35896   -2534.5865 
 3281000    271.89252   -3918.8156   -3452.8011   -3918.8156            0    6116.0222     17.18454    20.241118    20.965098    7292.3804    6141.9314    5868.5032     6337.632   -1886.5941     848.0378   -772.13438   -2802.3506 
 3282000    251.65244    -3888.438   -3457.1144    -3888.438            0    4912.7246     17.19892    20.258056    20.982643    7310.7029     5381.696    5194.7082    4161.7696   -625.11716   -24.689693   -1528.4179   -2933.3241 
 3283000    255.64296   -3876.2506   -3438.0873   -3876.2506            0    6986.2539    17.130898    20.177935    20.899656    7224.3038    5872.8733    6704.9493    8380.9392    243.77093   -1340.5657   -524.28127   -2702.0222 
 3284000    244.36506   -3883.8631   -3465.0297   -3883.8631            0     6029.523    17.109231    20.152414    20.873222    7196.9263     5286.872    6515.9991    6285.6977    1633.9505   -37.827273    242.05481   -2832.1723 
 3285000    245.53117   -3909.3216   -3488.4896   -3909.3216            0    6622.0638    17.085989    20.125038    20.844867    7167.6366    5676.2864    7286.1669    6903.7381   -44.638915   -520.35141    258.66344   -2796.2679 
 3286000    256.91944   -3913.9616   -3473.6105   -3913.9616            0    6266.3418     17.12863    20.175264    20.896889    7221.4346    7172.7153    3637.7674    7988.5428   -256.20961     207.1682    2300.9005   -2813.6568 
 3287000    269.30679   -3880.8683   -3419.2856   -3880.8683            0    7175.6879    17.061394    20.096068    20.814861    7136.7276    7314.2317    7592.0784    6620.7538   -16.681809   -91.746086    336.03697   -2672.4267 
 3288000    261.23189   -3864.1935   -3416.4509   -3864.1935            0    5094.6975    17.083038    20.121562    20.841266     7163.923    5895.9594    5250.1778    4137.9551   -397.11683    1540.3545   -1720.1372   -2884.1648 
 3289000    253.12807   -3871.0308   -3437.1779   -3871.0308            0    6169.0343    17.185205    20.241901     20.96591    7293.2269    7109.9055    5556.9981    5840.1993    694.31015   -234.92105   -447.88937   -2781.0133 
 3290000    257.71199   -3896.7347   -3455.0252   -3896.7347            0     8334.267    17.049798    20.082409    20.800713    7122.1853    9119.1512    7945.2503    7938.3997   -596.56812    1341.1771   -198.66647   -2589.3468 
 3291000    253.88428   -3883.2442   -3448.0952   -3883.2442            0    4406.6229    17.209677    20.270726    20.995765    7324.4282    6012.2997    2867.4822    4340.0867    115.40742    1192.6332   -1474.6042    -2977.383 
 3292000    251.05472   -3898.1906   -3467.8914   -3898.1906            0    6130.1818    17.143269    20.192507    20.914748    7239.9659    6757.3611    5083.6518    6549.5327    666.38777   -466.67005    262.01267    -2820.621 
 3293000    245.62094   -3867.4116   -3446.4257   -3867.4116            0    5619.3174     17.14309    20.192296     20.91453    7239.7395    5635.4778    6506.4635    4716.0111    574.46757   -866.63621    -973.0035   -2853.1147 
 3294000    254.74243   -3900.9505   -3464.3307   -3900.9505            0    8079.1388    17.039306    20.070052    20.787913    7109.0453    9088.3542    7539.4656    7609.5966    1867.4918   -739.54234    521.17477   -2626.7007 
 3295000    248.25585   -3939.0629   -3513.5609   -3939.0629            0      5481.42    17.093281    20.133627    20.853763    7176.8172    7353.4326    4225.6797    4865.1477     242.0225    617.80785    1672.3796   -2939.8397 
 3296000    270.45794   -3908.3072   -3444.7515   -3908.3072            0    5799.3331    17.134733    20.182452    20.904334    7229.1559    4708.6431     5747.692    6941.6641    176.10124   -1090.5206    696.26389   -2833.3289 
 3297000    253.86448   -3923.5634   -3488.4484   -3923.5634            0    5841.9665    17.094554    20.135126    20.855315    7178.4203    6523.6189    4662.5396    6339.7411    1345.9848   -287.80471   -1028.1896   -2876.8535 
 3298000    254.29819   -3881.2879   -3445.4296   -3881.2879            0    6541.9736    17.159625    20.211772    20.934702     7260.708    6170.6715    5475.9733    7979.2758    231.03244   -104.87685    1142.2467   -2752.7001 
 3299000     247.9591   -3844.1857   -3419.1922   -3844.1857            0    6702.8943     17.11866    20.163521    20.884726    7208.8321    7196.6796    7025.7503    5886.2529      2294.67   -311.40845     849.7774    -2714.494 
 3300000    242.38287   -3845.1517   -3429.7158   -3845.1517            0    8224.9527    17.064626    20.099876    20.818804    7140.7846    8414.3594    8606.7769    7653.7218    627.76381   -929.05161     116.8293   -2573.1609 
 3301000    253.89016   -3856.3532   -3421.1942   -3856.3532            0    5402.6876    17.132114    20.179367    20.901139    7225.8421    7016.8714    6260.1611    2931.0302   -650.25228    627.24361    227.91256   -2851.8509 
 3302000    247.14621   -3871.8429   -3448.2427   -3871.8429            0    8365.8943    17.048267    20.080607    20.798846    7120.2677    9178.4365    6985.6095    8933.6369   -1982.2834   -980.94287   -463.12831   -2579.5132 
 3303000    246.06109   -3881.4452   -3459.7049   -3881.4452            0    7492.8425     17.00376    20.028183    20.744547    7064.6469    8089.5015    7460.9131     6928.113    37.230072    507.39657   -981.87113   -2687.7127 
 3304000    265.61658   -3870.9308   -3415.6731   -3870.9308            0    7352.0321     17.08434    20.123095    20.842855    7165.5608    6151.9961    7438.6034    8465.4967   -1342.6705   -3358.2018    255.15449   -2647.3684 
 3305000    252.35996   -3885.9339   -3453.3976   -3885.9339            0    6756.8708    17.127258    20.173648    20.895215    7219.6998    6330.3117    7061.2283    6879.0726    1288.4878   -90.169875    1163.7601   -2741.9537 
 3306000    266.08374    -3885.684   -3429.6255    -3885.684            0    6305.6195    17.060691    20.095241    20.814003    7135.8456    4743.9011    6893.8028    7279.1545   -127.74181   -668.59249    552.00262   -2773.4061 
 3307000    255.76337   -3903.4468   -3465.0771   -3903.4468            0    5946.4836    17.164806    20.217875    20.941024    7267.2872    4437.6897    5388.3829    8013.3781    1683.4313    1070.5149    159.30713   -2834.8335 
 3308000     264.9486   -3932.6798    -3478.567   -3932.6798            0    7113.2519    17.078787    20.116555     20.83608     7158.576    7313.0118    6980.2704    7046.4735    965.71709   -263.79562    361.32259     -2735.94 
 3309000    259.75438   -3896.2804   -3451.0703   -3896.2804            0    6881.6681    17.099801    20.141307    20.861718    7185.0334    5857.6524    7341.7899    7445.5621   -368.28757   -1738.8287    1062.4498   -2729.9655 
 3310000    240.60702   -3933.7552    -3521.363   -3933.7552            0    5217.5005    17.094832    20.135454    20.855655    7178.7708    5106.5282    4982.7187    5563.2544    702.69341    -117.3471    158.14205   -2975.1168 
 3311000    265.43595   -3931.6683   -3476.7202   -3931.6683            0    8339.5841    17.037997     20.06851    20.786316    7107.4071    8306.5496    9753.9272    6958.2755    729.76446   -719.92317    2113.7547   -2612.2869 
 3312000    258.29971   -3882.4263   -3439.7094   -3882.4263            0    8016.9207    17.094103    20.134595    20.854766    7177.8524     7821.582    8430.4032     7798.777    -359.3103    475.02983    -465.1076   -2600.4852 
 3313000    267.94662   -3902.6571   -3443.4058   -3902.6571            0    6310.1794     17.19415    20.252438    20.976823    7304.6217    5365.0461    8014.4773    5551.0147   -1185.3702   -1719.4204   -307.22018   -2771.1798 
 3314000    246.62258    -3883.753   -3461.0503    -3883.753            0    7976.5058     17.09876     20.14008    20.860447    7183.7203    7301.0109    8060.8702    8567.6364    1504.3515    452.57143     188.6777   -2625.3742 
 3315000     253.4901   -3922.4652   -3487.9919   -3922.4652            0    5617.1096    17.088349    20.127818    20.847746    7170.6071    4592.7293    4635.8752    7622.7243   -569.08571   -614.41895    1651.5112   -2900.5773 
 3316000    272.27153   -3882.3833   -3415.7192   -3882.3833            0    5004.8646    17.177054    20.232301    20.955966    7282.8546    4700.9314    7763.5569    2550.1055   -765.42403    1046.0224    102.71576   -2884.1377 
 3317000    242.66734   -3905.0033   -3489.0797   -3905.0033            0    5435.3489    17.154846    20.206143    20.928873    7254.6437    5322.5042    3672.7329    7310.8096   -489.49664      1511.75    622.19394   -2914.0115 
 3318000    257.88901    -3902.721   -3460.7081    -3902.721            0    3309.6757    17.235071    20.300637    21.026746    7356.8989    2473.8897    4407.5571    3047.5803   -496.83079   -1197.3804    1323.7309   -3105.6036 
 3319000    242.56841   -3887.6486   -3471.8947   -3887.6486            0    5470.9633    17.139204    20.187718    20.909788    7234.8163    4503.3999    5257.8447    6651.6452    392.58298   -1201.2198    -423.1059   -2894.6403 
 3320000    247.70245   -3874.6365   -3450.0829   -3874.6365            0    5266.1349     17.17119    20.225393    20.948811    7275.3977    5260.1436    5032.4235    5505.8375     21.66665   -549.06284   -592.45128   -2891.3238 
 3321000    256.49183   -3909.9732    -3470.355   -3909.9732            0    5802.4383      17.1061    20.148726    20.869401    7192.9754    4980.1534    6541.1958    5885.9659   -353.12047    263.70961   -809.82944   -2861.6666 
 3322000    273.67567   -3875.5128   -3406.4421   -3875.5128            0    6374.7167    17.122555    20.168109    20.889478    7213.7541     7454.437    5024.5535    6645.1595   -478.22155    1446.7792    1287.2954   -2735.7887 
 3323000     255.6266    -3950.237   -3512.1017    -3950.237            0     5181.376    17.117646    20.162326    20.883488    7207.5504     6480.342    3211.2812    5852.5047    384.66264   -176.68553   -466.77296   -2967.4628 
 3324000    247.03783   -3898.9163   -3475.5019   -3898.9163            0    5491.1641     17.16879    20.222566    20.945883    7272.3476    4311.6539    5885.2467    6276.5917    1480.2297   -376.10367   -880.84039   -2893.1106 
 3325000    251.12338   -3899.3508   -3468.9339   -3899.3508            0    6806.8979    17.168038    20.221681    20.944966    7271.3921    7091.6489    6040.9359    7288.1088   -1530.3561    109.67899    1579.3188    -2747.091 
 3326000    243.86757   -3883.4211   -3465.4405   -3883.4211            0     6647.384     17.13857    20.186971    20.909015    7234.0136    6388.8797    6047.2632    7506.0091   -1450.8695    1264.0357    1172.9263    -2764.137 
 3327000    250.99072   -3921.5007   -3491.3112   -3921.5007            0     5402.422    17.133623    20.181145     20.90298    7227.7515    6000.0618    5978.4957    4228.7085   -395.14058   -299.74968     294.1452   -2921.8454 
 3328000    264.61202    -3867.319   -3413.7831    -3867.319            0    4733.9608    17.261139    20.331342    21.058549    7390.3319     4914.717    6259.9275     3027.238   -246.42733    -145.8344   -1216.0985   -2903.5548 
 3329000    258.23746   -3916.9466   -3474.3364   -3916.9466            0    7666.5175    17.173196    20.227756    20.951259    7277.9482    8951.3988    5846.2384    8201.9154    25.782419    96.629854   -285.93015   -2660.6014 
 3330000    269.62954   -3904.7778    -3442.642   -3904.7778            0    6980.8227    17.235378    20.300999    21.027121    7357.2928    6535.5688    5570.2877    8836.6117    390.42502    1503.6988   -276.23657   -2693.6097 
 3331000     256.3093   -3922.5845   -3483.2792   -3922.5845            0    7693.1148    17.214725    20.276672    21.001924    7330.8757    7441.4775    8112.5916    7525.2754    773.37333   -235.34162    -435.5867   -2660.7829 
 3332000    251.22675   -3940.3175   -3509.7235   -3940.3175            0    6374.0663     17.20996    20.271059    20.996111    7324.7895    5986.1124    6932.2889    6203.7978   -844.08204    121.95263   -848.24109   -2828.8168 
 3333000    245.54972   -3907.8073   -3486.9435   -3907.8073            0    7931.5395     17.19115    20.248904    20.973163    7300.7989    7347.2195    7715.8445    8731.5544    223.74559    264.54119    850.82415   -2642.4355 
 3334000    272.38268   -3909.5775   -3442.7229   -3909.5775            0    5889.0118    17.211786     20.27321    20.998338    7327.1213    5877.8882    7190.0232     4599.124   -1337.7384    354.64928    862.07967   -2813.4317 
 3335000    250.78488   -3900.1359   -3470.2992   -3900.1359            0    6231.0513    17.218147    20.280702    21.006099    7335.2478    6556.2169    7268.7094    4868.2276   -2623.9225   -571.03205    108.42497   -2803.7196 
 3336000    250.13861   -3878.2718   -3449.5428   -3878.2718            0    7947.0347     17.15491    20.206218     20.92895    7254.7243    7581.1946     7624.204    8635.7054   -1141.2831    1284.2653    1046.1058    -2608.725 
 3337000    251.00845   -3932.8933   -3502.6734   -3932.8933            0    4233.0717    17.249634     20.31779    21.044513    7375.5638    4597.4073    5501.2355    2600.5722   -1851.0066    64.537702    2585.5657   -3047.3429 
 3338000    270.17677    -3902.155   -3439.0813    -3902.155            0    7878.0208    17.113474    20.157412    20.878398     7202.282    8804.3817    8176.1584    6653.5223    199.59727    239.64603    -422.3253   -2611.5906 
 3339000    252.30472   -3943.5736   -3511.1319   -3943.5736            0    5212.5139    17.150315    20.200806    20.923344    7248.8966    6073.3252    5383.0856    4181.1308   -311.17902   -639.29148    1945.1748   -2960.0768 
 3340000    260.57528   -3924.2687   -3477.6516   -3924.2687            0    7371.0184    17.151307    20.201974    20.924555    7250.1546    5616.9948    8602.2416    7893.8188   -353.74755   -1593.0484   -449.29984   -2698.2691 
 3341000    251.32538   -3915.0374   -3484.2743   -3915.0374            0    6793.9274    17.163294    20.216093    20.939178    7265.3659    6489.7991     7828.461    6063.5221    1000.2145    536.51064   -366.44528    -2764.404 
 3342000    267.53386   -3905.0141   -3446.4703   -3905.0141            0    6019.4522    17.101283    20.143052    20.863525    7186.9009    5427.1436    6628.9637    6002.2493    685.80985   -342.45008    1788.9487   -2815.5499 
 3343000    258.31803   -3930.6827   -3487.9345   -3930.6827            0    6883.4285    17.154987    20.206308    20.929044    7254.8217    8616.5396      3705.84     8327.906   -124.06561    599.79926    877.51272   -2759.6393 
 3344000    258.96906   -3912.4615   -3468.5974   -3912.4615            0    8001.4198    17.120101    20.165217    20.886483    7210.6519    6087.5642    10621.145      7295.55   -96.440652    1214.9821     608.2488   -2627.1684 
 3345000    253.88578   -3927.0221   -3491.8705   -3927.0221            0    5462.7126    17.154158    20.205332    20.928033    7253.7705    5880.6201    4336.9321    6170.5856   -876.76328    -411.3765    689.58868   -2913.9767 
 3346000    259.30987   -3889.4054   -3444.9572   -3889.4054            0    4413.9062    17.165906     20.21917    20.942365    7268.6839     2878.689     3178.321    7184.7086    976.00953     712.1784    1035.3842   -2977.0553 
 3347000    262.69885    -3894.301   -3444.0441    -3894.301            0    7324.1953    17.103338    20.145473    20.866032    7189.4919    7650.4123    6816.9429    7505.2306     -36.5527    102.61512   -976.79075   -2676.0923 
 3348000    257.48242   -3930.3209   -3489.0049   -3930.3209            0    6431.7536    17.064528     20.09976    20.818684    7140.6609    5813.6866    4731.5859    8749.9883    325.07637     1366.468    106.93857   -2819.2071 
 3349000     260.6283   -3892.6773   -3445.9693   -3892.6773            0    4701.7952    17.159903    20.212099    20.935042    7261.0609    5687.7045    4127.8419    4289.8391   -418.73297   -218.95339    1198.3971   -2948.0721 
 3350000    250.75786   -3882.4478   -3452.6574   -3882.4478            0    7120.0358    17.105314      20.1478    20.868443    7191.9842    7283.2377     7893.047    6183.8226   -455.69639   -31.822846   -1238.1107   -2705.8532 
 3351000    253.55313   -3923.9443   -3489.3629   -3923.9443            0    5877.1035    17.185348     20.24207    20.966084    7293.4091    6283.0991    5803.2155    5544.9958     57.63259    -1495.691   -721.01068   -2864.2337 
 3352000    262.52113   -3891.9067   -3441.9545   -3891.9067            0    4500.7196    17.150383    20.200886    20.923427    7248.9827    5688.9537    5246.6913    2566.5136    514.36128   -517.66249   -546.81909    -2966.143 
 3353000    254.29331   -3898.0442   -3462.1942   -3898.0442            0    6435.4858     17.16145    20.213922    20.936929    7263.0252    6068.1702    7117.3986    6120.8887    198.71761   -46.716368     449.0829   -2780.5233 
 3354000    258.68456   -3922.7433   -3479.3668   -3922.7433            0    5687.9285    17.189472    20.246928    20.971116    7298.6615    6048.5357    7266.5753    3748.6745    237.71123   -377.33693   -327.01767   -2873.9238 
 3355000    269.67488   -3896.1182   -3433.9047   -3896.1182            0    6839.0416     17.11709    20.161672     20.88281    7206.8491    8351.0831    7163.3832    5002.6584    -3191.453    948.77428    531.97604   -2715.0907 
 3356000    240.73172   -3908.4624   -3495.8564   -3908.4624            0    4756.7402    17.190126    20.247698    20.971914    7299.4947    4943.9867    4911.3012    4414.9328    17.454797    704.72265   -414.09056   -2989.4746 
 3357000    252.31227   -3930.6663   -3498.2117   -3930.6663            0    3734.2131     17.20623    20.266666     20.99156    7320.0279    2720.2525    4442.6784    4039.7084     421.4622   -679.31321    745.82833   -3099.5654 
 3358000    250.04434   -3912.2601   -3483.6927   -3912.2601            0     5233.598    17.203841    20.263852    20.988646    7316.9798    4749.1213    4460.9795    6490.6932    -166.0798   -116.68475   -507.07815   -2925.2121 
 3359000     244.7244   -3892.5836   -3473.1343   -3892.5836            0    6412.3871     17.17898    20.234569    20.958315    7285.3041    4076.9192    7649.8313    7510.4109   -1460.3465    894.40485   -602.83511   -2791.8266 
 3360000    249.94211   -3880.2443   -3451.8521   -3880.2443            0    7348.5083    17.147617    20.197627    20.920052    7245.4755    6771.2211    7004.9297    8269.3742   -886.69166   -502.26328   -852.89437   -2675.3512 
 3361000    262.32335   -3893.4964   -3443.8832   -3893.4964            0    6495.6034     17.08824    20.127689    20.847612    7170.4689    5445.4884    8526.6035    5514.7183   -629.83231    148.17288   -339.26973   -2764.6124 
 3362000    254.79751   -3884.4996   -3447.7854   -3884.4996            0    6914.6677    17.083236    20.121795    20.841508    7164.1719    7523.9931    7506.2791     5713.731    848.87989   -2154.0303     2348.188   -2725.3264 
 3363000    246.25983   -3898.1839    -3476.103   -3898.1839            0    6854.2173    17.096055    20.136895    20.857147    7180.3121    6858.1596    7539.0927    6165.3997    636.80003   -457.22449   -743.62227   -2758.3466 
 3364000    269.00653   -3873.0499   -3411.9819   -3873.0499            0    6540.0226    17.156236     20.20778    20.930568     7256.407    6355.0197     4960.142    8304.9061    1173.9096    107.38446    332.28298   -2719.8693 
 3365000    255.80239   -3870.7878   -3432.3512   -3870.7878            0    5118.6284    17.191349    20.249139    20.973406    7301.0527    5450.4454      5935.52    3969.9198    854.76949   -1051.5716   -965.68346   -2887.3281 
 3366000    246.95715    -3904.905   -3481.6289    -3904.905            0    6794.9835     17.12281    20.168409    20.889788    7214.0759    9298.5246    6301.7233    4784.7027    155.22985   -901.41885    295.80544   -2766.7294 
 3367000    238.68673   -3921.5765   -3512.4756   -3921.5765            0    6398.6806    17.101878    20.143753    20.864251    7187.6508    8554.0171    5593.9894    5048.0353   -1119.8685   -2.1926542    1199.4971    -2841.737 
 3368000    252.16013   -3914.5691   -3482.3752   -3914.5691            0    4822.3106     17.14524    20.194828    20.917153    7242.4635    5310.2102    4313.0447     4843.677    2037.1175     -992.829   -588.21625    -2973.024 
 3369000     234.6042   -3843.1008   -3440.9972   -3843.1008            0    6381.8199    17.100131    20.141696     20.86212    7185.4489    7010.9617    5568.9762    6565.5217    218.88162   -1725.9207   -335.91327    -2772.231 
 3370000     257.1069    -3896.421   -3455.7486    -3896.421            0    5215.7795     17.19829    20.257313    20.981873    7309.8988    5210.6935    4163.8359    6272.8091   -2069.8588   -1252.1303   -607.22742    -2899.708 
 3371000    244.14912   -3875.1222    -3456.659   -3875.1222            0    5818.7429    17.187591    20.244711     20.96882    7296.2649    6187.8997    5554.5304    5713.7985   -643.82207    17.914408   -1483.0139   -2837.4951 
 3372000    275.42248   -3885.5865   -3413.5218   -3885.5865            0    5325.7195    17.095256    20.135954    20.856173    7179.3054    6101.0537    5453.4374    4422.6673   -1182.1679    436.55202     438.1126    -2855.904 
 3373000    236.18919   -3898.4578   -3493.6376   -3898.4578            0    7357.5717    17.106345    20.149015    20.869701    7193.2855    6527.5761     5718.935    9826.2039     431.7096   -187.59525    981.68574   -2721.7791 
 3374000    259.24075   -3870.0635   -3425.7338   -3870.0635            0    6503.6223    17.078945    20.116741    20.836272    7158.7744    5902.2709    7342.0326    6266.5634    -928.6669   -133.25508    26.213833   -2746.7336 
 3375000     270.3761   -3854.4885   -3391.0732   -3854.4885            0    7906.5077     17.10254    20.144533    20.865059    7188.4861    6925.1175    8951.6134    7842.7922    343.85276     2131.817   -353.16749    -2562.181 
 3376000    258.57994    -3888.449   -3445.2518    -3888.449            0    6363.4317    17.183641    20.240059    20.964001    7291.2356    4617.8033    7209.5919    7262.8998   -960.12826    816.39634    68.904097   -2768.5951 
 3377000    252.45367   -3874.4509    -3441.754   -3874.4509            0    5279.4422    17.185323    20.242041    20.966054    7293.3778    3873.0705    6240.7349    5724.5213   -1340.3307   -804.87158   -1076.5711   -2880.1985 
 3378000     276.8646   -3927.5754   -3453.0389   -3927.5754            0    7462.5955     17.17602    20.231083    20.954705      7281.54    6555.7892    9357.1322    6474.8651   -367.45375    909.24954    968.07256   -2660.5576 
 3379000    258.01773   -3862.8266   -3420.5931   -3862.8266            0    6310.4543     17.19873    20.257832     20.98241    7310.4598    6373.6212     7084.907    5472.8348   -1165.2782    1066.1362    418.15942   -2747.8005 
 3380000    244.34268   -3893.0317   -3474.2367   -3893.0317            0    4447.5086    17.227787    20.292058    21.017861    7347.5764    4438.4207    4330.8776    4573.2276   -235.30519   -63.889046    507.30038   -2997.6556 
 3381000    246.01772   -3919.1622   -3497.4962   -3919.1622            0    6546.0488    17.100517     20.14215     20.86259    7185.9348    6693.3527    7772.7816    5172.0121   -774.05045   -655.72029   -75.596632   -2811.4736 
 3382000    248.32496   -3842.4596   -3416.8391   -3842.4596            0    4385.5049    17.178329    20.233803    20.957521    7284.4765    3426.8105    4937.1225    4792.5816   -129.76023   -1072.7883   -1521.6871   -2950.9379 
 3383000    257.61441    -3906.285   -3464.7427    -3906.285            0    6297.1393    17.176778    20.231976    20.955629    7282.5038    7394.9868    5658.3438    5838.0871   -274.60177   -421.86777    8.6680148   -2795.9371 
 3384000    243.96887   -3922.9782   -3504.8239   -3922.9782            0    4575.6314    17.182679    20.238926    20.962828    7290.0111    6208.4721    2894.3482    4624.0738   -2537.4827    534.98425    985.52661    -3018.355 
 3385000    238.76772    -3900.789   -3491.5493    -3900.789            0     6414.729    17.134406    20.182067    20.903935    7228.7419     6107.307    6215.2949    6921.5853   -1361.8198   -158.46287   -282.10451   -2815.2842 
 3386000    261.10142   -3882.0137   -3434.4948   -3882.0137            0    5896.7017    17.078278    20.115956     20.83546    7157.9367     5360.185    5670.6987    6659.2213    26.861888   -185.59743   -1515.4809   -2818.9312 
 3387000       251.41   -3907.7134   -3476.8052   -3907.7134            0    6930.6132     17.08858     20.12809    20.848027    7170.8973    5452.2022    8557.8874      6781.75   -208.66154   -33.059719   -1625.8423   -2752.0005 
 3388000     265.6534   -3905.8533   -3450.5324   -3905.8533            0    6568.9213    17.032559    20.062105    20.779682    7100.6041    7966.6719    6798.8595    4941.2324    197.27232    812.06413   -571.09514   -2770.2876 
 3389000    230.67923    -3904.622   -3509.2457    -3904.622            0    6172.5536    17.047207    20.079359    20.797553    7118.9398    5610.3611    6133.1651    6774.1347    2060.9578   -539.94053   -398.59719   -2868.3961 
 3390000    268.95735   -3919.8119   -3458.8282   -3919.8119            0    5299.1321    17.142422    20.191509    20.913715    7238.8929    5915.1635    6918.8205    3063.4122    1874.5337    -336.2132   -404.18615   -2899.3892 
 3391000    241.06684   -3906.6801   -3493.4997   -3906.6801            0    4503.0625    17.117954    20.162688    20.883863    7207.9393    5695.5022    2676.4969    5137.1883   -178.44052   -734.39642   -802.57438    -3020.136 
 3392000     245.8679   -3915.8665   -3494.4574   -3915.8665            0    4823.8864    17.083005    20.121524    20.841227    7163.8818    5221.5266    4331.8561    4918.2766    971.19071   -168.14588   -292.17132    -2990.468 
 3393000    236.62485   -3888.1605   -3482.5936   -3888.1605            0    6594.4156    17.091278    20.131268    20.851319    7174.2943    8556.1691    6623.9077    4603.1701   -1303.5582    1900.3554    588.96365   -2792.6217 
 3394000    265.08571   -3932.7426   -3478.3948   -3932.7426            0    7862.4517    17.068884     20.10489    20.823998    7146.1306    7735.0978    9379.0617    6473.1957   -1208.5611   -1812.3445    676.92974    -2658.978 
 3395000    257.65841   -3896.2276   -3454.6099   -3896.2276            0    5664.4862     17.11341    20.157336     20.87832    7202.2008     4880.611     6074.784    6038.0635   -869.93227    2672.7751   -759.17863   -2859.6309 
 3396000    255.85806   -3928.7274   -3490.1954   -3928.7274            0    5262.5911    17.098882    20.140224    20.860596    7183.8741    6094.2339    3526.2215    6167.3178    846.05369      177.119    763.33565   -2938.8368 
 3397000    245.86223   -3940.9507   -3519.5513   -3940.9507            0    6388.3967     17.14207    20.191094    20.913285    7238.4468    7877.4502    6974.5182    4313.2217    719.09357    385.70442   -505.30106   -2845.1581 
 3398000    233.96295   -3919.6168   -3518.6123   -3919.6168            0    5350.9715    17.150314    20.200805    20.923343    7248.8955    5297.9374     6318.523    4436.4541    140.22101   -1040.8933     920.2303   -2952.9199 
 3399000    275.54189   -3927.2219   -3454.9525   -3927.2219            0    6671.9651    17.169748    20.223695    20.947052    7273.5653    4346.0933    8199.7827    7470.0194   -174.49956    1036.0666    304.67906   -2747.2072 
 3400000    252.82531   -3924.2365   -3490.9025   -3924.2365            0    4950.5183    17.187387    20.244472    20.968572     7296.006    4445.5093    5414.3904    4991.6553    1639.1302   -1009.5763    646.64305   -2964.1438 
 3401000    263.55609   -3914.7424   -3463.0163   -3914.7424            0    4907.9225    17.229783    20.294408    21.020295    7350.1296    3374.5629    5671.9026    5677.3022    864.99258   -588.15441   -333.22881    -2936.916 
 3402000    236.48186   -3936.4444   -3531.1226   -3936.4444            0    3133.3895    17.210064    20.271183    20.996238    7324.9231    3557.4164    2870.2115    2972.5406      -893.27    34.864267    32.576675   -3196.3936 
 3403000    259.66084    -3913.815   -3468.7652    -3913.815            0    4587.4627    17.221638    20.284815    21.010358    7339.7109    3006.7961    5876.1365    4879.4556   -213.01943    1677.0903   -872.51751   -2977.7133 
 3404000    240.66721   -3932.3709   -3519.8755   -3932.3709            0       6556.1    17.195587    20.254131    20.978577    7306.4538    8253.7066    5974.3408    5440.2526   -583.62379   -1088.1592   -1502.3401   -2821.2763 
 3405000    241.35344    -3893.975   -3480.3035    -3893.975            0    5884.0001    17.159618    20.211763    20.934693    7260.6986    6407.5582    5006.0724    6238.3699    133.11006    807.24846   -535.17539   -2857.2476 
 3406000     231.7215   -3924.9409   -3527.7781   -3924.9409            0    6449.6746    17.163562    20.216409    20.939506    7265.7072    5949.4427    5586.7859    7812.7953    15.332468    1559.1264   -1200.2396    -2844.352 
 3407000    236.53877   -3884.4745   -3479.0551   -3884.4745            0    5003.6005    17.137715    20.185964    20.907972    7232.9308    5841.1157    3881.9606    5287.7252    37.447479    67.459122   -341.33701   -2951.2509 
 3408000    254.26687   -3895.4294   -3459.6247   -3895.4294            0    6938.3246    17.124839    20.170799    20.892264     7216.641    6550.5976    6545.7375    7718.6389     830.0327   -210.95114   -424.47995   -2729.3847 
 3409000    246.57178   -3900.7472   -3478.1316   -3900.7472            0    5540.0706    17.188853    20.246198    20.970361    7297.8728    7071.3666    2818.0807    6730.7646    442.32356   -961.94091   -1254.2193   -2888.4909 
 3410000    266.64366    -3878.366   -3421.3479    -3878.366            0    5567.1043    17.204129    20.264192    20.988997    7317.3474    5477.4227    6738.2629    4485.6273   -20.524519     1499.791   -804.27899   -2827.2488 
 3411000    245.52954    -3911.361   -3490.5317    -3911.361            0    5729.8141    17.163676    20.216544    20.939645    7265.8519     5866.804    5637.7895    5684.8489    1372.9146   -1955.8538     -697.077    -2883.372 
 3412000    242.33061   -3908.1843   -3492.8379   -3908.1843            0    3821.0224    17.245067    20.312411    21.038941     7369.707    3879.0343    4565.7446    3018.2882    1658.0622    1415.3306   -226.39689   -3082.1559 
 3413000     245.6341   -3887.2616   -3466.2532   -3887.2616            0    7607.6113    17.164985    20.218085    20.941241    7267.5135    7397.3097    6317.6078    9107.9165    1152.9991    1200.8715   -77.259205   -2659.9283 
 3414000    259.28169   -3927.2942   -3482.8943   -3927.2942            0    5580.9291    17.109029    20.152176    20.872976    7196.6716    5788.4886    6043.4221    4910.8765   -341.62526   -869.94511    127.53293   -2897.1419 
 3415000    253.00508    -3898.794   -3465.1519    -3898.794            0    5653.1537    17.195971    20.254582    20.979044    7306.9424    5831.9766    6774.6418    4352.8428    -962.2721    1122.2226    1142.6156   -2862.7278 
 3416000    263.48545   -3905.9001    -3454.295   -3905.9001            0    6926.5062    17.139257     20.18778    20.909853    7234.8835    6919.1751    6933.5098    6926.8337   -85.303704    604.00723    948.30887   -2723.4561 
 3417000    251.08765   -3954.6338   -3524.2782   -3954.6338            0    4547.1387    17.168289    20.221977    20.945272    7271.7113    4430.5264     4511.151    4699.7386    1438.2379   -610.06988   -349.16967   -3042.0521 
 3418000    264.22904   -3912.6884   -3459.8089   -3912.6884            0    5264.6466    17.173319    20.227901    20.951409    7278.1043     4111.502    3940.4796    7741.9583    828.38328   -535.85994   -779.59371   -2900.9999 
 3419000    268.35697   -3899.4734   -3439.5187   -3899.4734            0    6261.5158    17.176969      20.2322    20.955862     7282.746    6900.9243    6294.4059    5589.2172    1276.6159   -359.69492    1308.5817   -2774.4745 
 3420000    259.64231    -3897.251    -3452.233    -3897.251            0    6295.0132    17.149319    20.199632    20.922129    7247.6331    6599.8595    5920.3666    6364.8135   -319.93857   -700.80399    -1348.085   -2786.8546 
 3421000    252.05491   -3901.1402   -3469.1267   -3901.1402            0    4989.3417    17.219472    20.282263    21.007715    7336.9418    6788.6251    4771.0155    3408.3845    635.47263   -461.88564    1223.9335   -2935.2583 
 3422000    251.53756   -3896.0085   -3464.8817   -3896.0085            0    6329.3737    17.198814    20.257931    20.982513    7310.5674    6896.6788    6488.9945    5602.4478   -41.800256    101.11256    5.7547995   -2790.0621 
 3423000    258.83327   -3920.0654   -3476.4341   -3920.0654            0    4471.5075    17.187573    20.244691    20.968799    7296.2424    5281.4719    5410.7808    2722.2698    245.23408    821.90063    1231.3413   -3000.6289 
 3424000    251.11331   -3909.7952   -3479.3956   -3909.7952            0    5342.6102    17.196721    20.255466     20.97996    7307.8993    5789.1933    4088.1116    6150.5258   -1073.5942   -551.63492   -546.26854   -2909.9897 
 3425000    271.35763   -3911.3362   -3446.2385   -3911.3362            0    7901.4543    17.065422    20.100814    20.819776    7141.7842    7023.3192    8561.1479    8119.8958   -1264.3543    -1332.248   -203.31267   -2623.2578 
 3426000    253.31444   -3920.7418   -3486.5695   -3920.7418            0    8183.1329    17.032416    20.061937    20.779508    7100.4257    6538.8386    8779.7631     9230.797    229.50922    272.58372   -1514.5855   -2639.1863 
 3427000    270.49586   -3892.4174   -3428.7968   -3892.4174            0    7116.7625    17.079489    20.117382    20.836936    7159.4586    7071.5854    6590.8374    7687.8646   -423.98016   -645.65858   -488.69364   -2685.7117 
 3428000    259.66448   -3890.7534   -3445.6974   -3890.7534            0    3743.0599    17.162814    20.215528    20.938593    7264.7566    4488.7427    3308.8052    3431.6318    55.378709   -774.82703   -443.37585   -3049.1238 
 3429000     260.5246   -3909.8274   -3463.2972   -3909.8274            0    3931.9447    17.128897    20.175578    20.897214    7221.7717    1832.6632    5286.4184    4676.7525     234.3886   -568.40813     666.1958   -3049.1764 
 3430000    258.20037   -3921.5198   -3478.9732   -3921.5198            0     6186.346    17.162003    20.214573    20.937604    7263.7271    4796.4199     6906.344    6856.2739   -1352.5154   -1494.1671    599.08937   -2823.6287 
 3431000    262.33118   -3904.2734   -3454.6467   -3904.2734            0    7119.5127    17.112875    20.156707    20.877668    7201.5262    7421.2563    6742.6576    7194.6241    312.99489   -884.97069    -1352.004   -2706.9065 
 3432000    278.27985   -3918.8851    -3441.923   -3918.8851            0    7259.0581    17.085846     20.12487    20.844693    7167.4568    7972.2434    5161.2965    8643.6344   -149.17972   -827.40776   -153.17985   -2683.1336 
 3433000    248.51811   -3908.7638   -3482.8123   -3908.7638            0    5773.1289    17.113949    20.157972    20.878978    7202.8821    6341.7695      6023.01    4954.6073   -1291.9574    501.50409   -633.91601   -2876.3645 
 3434000    254.19254   -3914.5846   -3478.9073   -3914.5846            0    5376.8666    17.107153    20.149967    20.870687    7194.3049    5184.7868    5560.0562    5385.7568    -522.4348    102.34583    732.10352    -2914.758 
 3435000    265.64905   -3883.1811   -3427.8677   -3883.1811            0    5104.0671    17.126415    20.172655    20.894186    7218.6333    5361.9004    5437.5389    4512.7618    74.532071    254.34606    2791.1008   -2890.5301 
 3436000    264.15857   -3874.3854   -3421.6266   -3874.3854            0    6036.4189    17.158378    20.210303    20.933181     7259.125    6530.9531    5536.0146    6042.2892   -165.47712   -588.69595   -299.95641   -2782.5697 
 3437000    251.93959   -3893.2974   -3461.4816   -3893.2974            0    5812.9736    17.171016    20.225188    20.948599    7275.1767    4262.3094    6271.2022    6905.4092   -424.99275    418.99166   -186.88315   -2844.7193 
 3438000    265.68153   -3889.6822   -3434.3132   -3889.6822            0    6992.8113    17.118872     20.16377    20.884984    7209.0999    7219.5376    7371.5874     6387.309   -784.28797   -386.65823   -890.52747   -2699.1077 
 3439000    255.53943   -3923.8607   -3485.8749   -3923.8607            0    5851.7678    17.076761    20.114168    20.833608    7156.0285    5614.6565     5951.714     5988.933   -90.116399   -1140.8239   -1535.3674   -2875.1649 
 3440000    269.83757   -3886.7152   -3424.2228   -3886.7152            0     6707.683    17.174108    20.228831    20.952372    7279.1084    4482.0316    7459.2238    8181.7936    586.53639   -53.110613     299.7082   -2712.1464 
 3441000    263.93275   -3898.0634   -3445.6917   -3898.0634            0    7484.2106     17.10962    20.152872    20.873696    7197.4171    8234.3229    6772.4302    7445.8787    334.08963   -1445.5318   -492.86886    -2660.097 
 3442000    246.74111   -3862.6083   -3439.7024   -3862.6083            0    5383.5162    17.196951    20.255737    20.980241    7308.1926    5699.4803    4721.4667    5729.6016    316.99904   -500.20801    24.969034   -2865.9138 
 3443000    250.37738   -3879.6737   -3450.5355   -3879.6737            0    7036.9353    17.189782    20.247293    20.971494    7299.0563    7103.0094    7307.8887    6699.9079   -473.40971    771.76318    1830.6022    -2701.459 
 3444000    273.12362    -3922.448   -3454.3235    -3922.448            0    7199.8405    17.135544    20.183407    20.905324    7230.1829    6411.8617    8058.2546    7129.4052    86.068384     74.38846    22.454626   -2695.1377 
 3445000    254.44351   -3894.3424   -3458.2349   -3894.3424            0    8430.8849    17.117246    20.161855       20.883    7207.0453    9650.7997     9185.873    6455.9819     675.8347    1135.8651   -1813.8306   -2572.0868 
 3446000    251.30459   -3867.0183   -3436.2908   -3867.0183            0    6113.8737    17.135034    20.182807    20.904702    7229.5373    6028.2581    5648.8329    6664.5301    279.54525    778.83871   -404.91822   -2791.6722 
 3447000    251.40009   -3880.9335   -3450.0424   -3880.9335            0    5723.7935    17.193667    20.251869    20.976234    7304.0066    6006.7883    5395.2529    5769.3392   -755.10736   -1134.0575   -479.70451   -2840.3356 
 3448000    246.91053   -3871.3671   -3448.1709   -3871.3671            0    7124.4176    17.134243    20.181875    20.903736    7228.5356    6755.1561    7985.4329    6632.6637    203.23098    1279.8325    2012.3344   -2697.1092 
 3449000    270.38548   -3907.0617   -3443.6303   -3907.0617            0    5300.4204    17.210592    20.271804    20.996882    7325.5964    5186.4932    4444.6671    6270.1009   -343.18645    55.612772   -1389.9906   -2877.3529 
 3450000    249.06325   -3912.2927   -3485.4068   -3912.2927            0    5361.2543    17.218699    20.281353    21.006773    7335.9544    5668.7254    4996.2668    5418.7705   -199.12931    -699.0293   -1624.7426   -2911.8204 
 3451000    247.48304   -3901.0346   -3476.8571   -3901.0346            0    7054.2436    17.124002    20.169812    20.891242    7215.5819     5261.428    8068.3731    7832.9297   -1104.4634   -154.79404    122.08197   -2734.5259 
 3452000    254.40092   -3906.3518   -3470.3173   -3906.3518            0    6237.9134    17.193337     20.25148    20.975831     7303.586      5639.88     6075.147    6998.7133   -190.34882   -577.32036   -311.99138    -2805.884 
 3453000    251.37878   -3932.1458   -3501.2911   -3932.1458            0    5461.5231    17.155286    20.206661    20.929409    7255.2019    6161.5242    6723.8988    3499.1463   -665.66449   -78.459935    1305.6938   -2923.4091 
 3454000    238.08695   -3913.3861   -3505.3133   -3913.3861            0    6696.3894    17.175028    20.229915    20.953494    7280.2781     6142.903    5798.4464    8147.8187    234.08163    1173.3148   -253.21095   -2794.3215 
 3455000    240.01375   -3934.1605   -3522.7851   -3934.1605            0    5618.8976    17.177841    20.233228    20.956926     7283.856     5346.271    7115.4228     4394.999   -1217.3592    318.20639     189.6062   -2925.9033 
 3456000    255.69386   -3943.3799   -3505.1293   -3943.3799            0    3922.9897    17.224619    20.288326    21.013995    7343.5229    3220.8384    3933.3966    4614.7342    226.93285   -1682.8129    591.10907    -3084.986 
 3457000    261.51067   -3932.9997   -3484.7794   -3932.9997            0    5753.7543    17.212991     20.27463    20.999809    7328.6608    4389.5752    6879.2725    5992.4153    683.14912   -37.874066   -21.058375   -2869.8124 
 3458000    258.36933   -3915.3011   -3472.4649   -3915.3011            0    8997.5804    17.121698    20.167099    20.888432    7212.6709    9547.7631    9676.4748    7768.5031   -1192.4697    938.23519    1549.5898   -2526.0147 
 3459000    243.31795   -3889.2074   -3472.1687   -3889.2074            0    4290.6347    17.175779    20.230799    20.954411    7281.2334    4203.3423     3932.489    4736.0727   -395.19582    1114.9576   -857.26152   -3016.5491 
 3460000    272.64846   -3903.4132   -3436.1031   -3903.4132            0     6406.823    17.113277     20.15718    20.878158    7202.0332    7516.6897    4946.2376    6757.5416   -570.69032    690.00052   -1847.1272   -2763.1672 
 3461000    246.45622   -3893.0883   -3470.6707   -3893.0883            0    5989.9972    17.102399    20.144367    20.864887    7188.3083     5578.745    6646.9649    5744.2816   -2321.5589   -166.22208    1855.5832   -2842.7147 
 3462000     252.5371   -3901.3022   -3468.4622   -3901.3022            0    5294.9476    17.191797    20.249666    20.973953    7301.6234    5423.2011    5038.8184    5422.8235   -65.112907    18.609165   -1090.4287   -2904.6208 
 3463000    267.04394   -3906.4759   -3448.7717   -3906.4759            0     3617.733    17.183694    20.240122    20.964066    7291.3035    5153.9384    2766.0084    2933.2521    1390.6545    1317.3755    312.15088   -3064.0758 
 3464000    245.14313   -3904.1418   -3483.9748   -3904.1418            0    7831.3116    17.116068    20.160467    20.881563    7205.5572    7845.0955    9450.1438    6198.6954   -760.90478    765.02255   -158.15841   -2661.0163 
 3465000    245.31522   -3936.1956   -3515.7337   -3936.1956            0      7233.03    17.079847    20.117804    20.837374    7159.9096    6030.7439    10293.134    5375.2125   -1016.1173    398.78235   -1251.3581   -2760.4611 
 3466000    255.47558   -3930.3423   -3492.4659   -3930.3423            0    4743.6556     17.12134    20.166677    20.887994    7212.2176    4546.7044    5665.5646    4018.6978    1051.9296    1631.9077     422.7715    -2993.515 
 3467000    253.35577    -3937.089   -3502.8458    -3937.089            0    4974.8757    17.143647    20.192952    20.915209    7240.4448    6205.3237    3253.4332    5465.8702   -808.51205    284.44143    1092.2412   -2977.5265 
 3468000    260.73299   -3904.7701   -3457.8826   -3904.7701            0    7632.0024    17.094055    20.134539    20.854708    7177.7926    8426.9921    8837.7111    5631.3039     1908.193   -440.81991    57.098097    -2658.959 
 3469000    260.92911   -3902.6862   -3455.4626   -3902.6862            0    5245.2773    17.119337    20.164318    20.885551    7209.6872    5595.6677    4931.7016    5208.4627    825.29759   -58.459032    907.64803   -2903.9432 
 3470000    254.82967   -3914.9842   -3478.2148   -3914.9842            0    7853.4626    17.016526     20.04322    20.760122     7080.571     10748.57    4703.0543    8108.7636   -242.14836    2033.4743   -1449.4376   -2667.2438 
 3471000    248.05857     -3893.98   -3468.8161     -3893.98            0    6136.6881    17.080993    20.119154    20.838772     7161.351    5406.6074    5788.0099    7215.4469    1870.3671   -814.37171    187.05558   -2827.8945 
 3472000    245.30223   -3907.5602   -3487.1206   -3907.5602            0    4994.3569     17.03683    20.067135    20.784893    7105.9467    3291.3775    5580.7821    6110.9111    1727.6596    170.41779     652.2693   -2969.5407 
 3473000    246.71894    -3890.619   -3467.7512    -3890.619            0    7128.2649    17.031165    20.060463    20.777982    7098.8609    7457.1439    7242.3487    6685.3022    267.70104    279.80534   -564.90795   -2729.7647 
 3474000    254.48675   -3883.8904   -3447.7088   -3883.8904            0    6267.8741    17.087952     20.12735    20.847262    7170.1072    6401.7518    5241.4265    7160.4439   -673.94514   -346.05264    135.09589   -2792.2857 
 3475000    255.99107   -3917.6861   -3478.9262   -3917.6861            0    6492.6232    17.087084    20.126327    20.846202    7169.0139    6413.3157    5181.4583    7883.0956    13.220399    1159.8533   -641.01043   -2800.1048 
 3476000    257.32527   -3925.0199   -3483.9731   -3925.0199            0    6376.3553    17.133649    20.181176    20.903012    7227.7846    6073.7848    8325.2328    4730.0482     -243.114    1165.5075   -1140.0048   -2811.8427 
 3477000    272.13108   -3883.4254    -3417.002   -3883.4254            0    6748.3667    17.161899     20.21445    20.937476    7263.5946    6080.1593    6628.6174    7536.3235    1345.1809   -2452.8408     490.5425   -2702.1335 
 3478000      249.686   -3882.4967   -3454.5434   -3882.4967            0    8025.5792    17.064717    20.099982    20.818915    7140.8983    8724.2734    8477.2027    6875.2614    882.66212   -431.13092   -1074.6068   -2618.7381 
 3479000    261.07451   -3924.4377   -3476.9649   -3924.4377            0    5116.3765    17.126452    20.172699    20.894232    7218.6807    5390.4004    3566.0142     6392.715    1130.1215    1516.3039   -74.954538   -2938.3278 
 3480000    267.78208   -3887.6513    -3428.682   -3887.6513            0    5946.5401    17.117747    20.162445    20.883612    7207.6787    6949.2063    6773.4949    4116.9192   -150.07321     1232.025    1044.9013   -2803.6019 
 3481000    255.11192    -3896.218   -3458.9649    -3896.218            0    5259.0774    17.124917     20.17089    20.892358    7216.7387    6277.1389    5754.3947    3745.6986   -495.82129    910.22309    612.59696   -2905.4537 
 3482000    262.54423   -3915.0939   -3465.1021   -3915.0939            0    7277.9024    17.105028    20.147464    20.868095    7191.6243    5777.1286    8237.0156    7819.5628    419.35443    574.41781    342.48029   -2701.7778 
 3483000     259.2443   -3931.6167   -3487.2809   -3931.6167            0    5857.4428    17.148806    20.199029    20.921504    7246.9834    6772.7874    5913.0916    4886.4494   -77.365007   -1096.6077   -123.80905   -2868.2088 
 3484000    257.21453   -3899.4852   -3458.6283   -3899.4852            0    5638.9556    17.196081    20.254712    20.979179    7307.0829    6337.2648    5703.6485    4875.9534    273.42256    97.296181   -183.54593   -2857.7056 
 3485000     255.4446   -3914.1981   -3476.3748   -3914.1981            0    5937.4684    17.062739    20.097653    20.816501    7138.4154    6558.7026    6384.3831    4869.3195   -79.318748    939.42454   -2043.5128   -2858.2459 
 3486000    253.33073    -3896.648   -3462.4478    -3896.648            0    6423.2689    17.083592    20.122215    20.841942      7164.62    7915.7181    6854.3196    4499.7691   -177.48093    1381.9947   -208.96083   -2791.2892 
 3487000    246.04408   -3877.6649   -3455.9537   -3877.6649            0    3745.6627    17.210871    20.272133    20.997223    7325.9534    1960.7907    4272.8548    5003.3427    689.77412   -430.30064   -347.29319   -3055.7614 
 3488000    248.23161   -3861.1132   -3435.6527   -3861.1132            0    6942.7351    17.094324    20.134856    20.855035     7178.131    5812.7534    8159.7085    6855.7434   -684.26627   -270.20602    2128.3381   -2708.8478 
 3489000    253.04788   -3869.2878   -3435.5724   -3869.2878            0     4780.783    17.162225    20.214834    20.937874    7264.0086    5834.7818    6067.9131    2439.6542   -1285.9806   -861.25267   -514.99145   -2929.1053 
 3490000    259.00918   -3872.4955   -3428.5627   -3872.4955            0    6589.7866    17.131003    20.178058    20.899783    7224.4359    6855.8709    6496.5572    6416.9316    866.66848      869.178    -607.5313   -2734.2563 
 3491000    238.16385   -3889.1078   -3480.9031   -3889.1078            0    5122.3411    17.154148     20.20532     20.92802    7253.7574    3869.6431    4684.3619    6813.0183   -1649.9778     830.6018    1495.9228   -2939.0178 
 3492000    251.32859   -3868.8524   -3438.0838   -3868.8524            0    4956.4225     17.17967    20.235382    20.959158    7286.1829    4634.4851    4484.5826    5750.1997    567.95725     1235.383    193.21788   -2911.4069 
 3493000    254.50847   -3844.5918    -3408.373   -3844.5918            0    5287.2863    17.176166    20.231255    20.954882     7281.725    4712.3623    4598.7679    6550.7287    926.85054    2134.6167    1473.6695   -2846.8817 
 3494000    260.58077   -3875.5234   -3428.8969   -3875.5234            0    6350.1109    17.129257    20.176003    20.897654    7222.2281    6118.8617    7488.9673    5442.5037    -25.30771     547.2909   -12.869353   -2760.0474 
 3495000    267.27065   -3877.5191   -3419.4263   -3877.5191            0    2911.4657    17.242551    20.309447    21.035872     7366.482    2028.5254    2829.9772    3875.8945   -479.08622   -533.51026   -267.67815   -3106.6401 
 3496000    246.36506   -3854.7506   -3432.4893   -3854.7506            0    6006.1821    17.192543    20.250545    20.974862    7302.5738    6669.2187     5638.597    5710.7304    298.72502    1304.5483    809.83901   -2792.8276 
 3497000    261.95726   -3901.8059   -3452.8201   -3901.8059            0    4840.9622    17.141019    20.189857    20.912004     7237.116    4893.9479    6001.7441    3627.1945    530.10593   -838.59614    18.114926   -2941.8764 
 3498000    265.55972   -3874.8506   -3419.6903   -3874.8506            0    7100.2308    17.102866    20.144917    20.865456    7188.8967    8642.9292    6433.0194    6224.7437    -1580.246    237.38191    609.43942   -2675.2831 
 3499000    241.86076   -3887.8976   -3473.3565   -3887.8976            0    6790.4777    17.110125    20.153467    20.874312    7198.0543    6927.1361    6398.3024    7045.9947   -572.75793    198.36656   -964.82229   -2760.5177 
 3500000     268.1777    -3894.743   -3435.0956    -3894.743            0    4187.9909    17.162012    20.214583    20.937614    7263.7378    3584.2536    2832.3286    6147.3903    359.68416     66.16953   -602.04955   -2991.4443 
Loop time of 517.598 on 64 procs for 250000 steps with 864 atoms

Performance: 83.463 ns/day, 0.288 hours/ns, 483.001 timesteps/s
99.1% CPU use with 64 MPI tasks x 1 OpenMP threads

MPI task timing breakdown:
Section |  min time  |  avg time  |  max time  |%varavg| %total
---------------------------------------------------------------
Pair    | 21.302     | 26.177     | 31.162     |  46.3 |  5.06
Bond    | 0.28702    | 0.29582    | 0.31325    |   0.9 |  0.06
Kspace  | 226.24     | 237.71     | 254.14     |  49.4 | 45.93
Neigh   | 5.0131     | 6.0422     | 8.0638     |  40.2 |  1.17
Comm    | 105.4      | 123.13     | 133.01     |  73.0 | 23.79
Output  | 1.623      | 1.6242     | 1.6357     |   0.1 |  0.31
Modify  | 113.68     | 116.4      | 120.78     |  13.4 | 22.49
Other   |            | 6.226      |            |       |  1.20

Nlocal:        13.5000 ave          18 max           7 min
Histogram: 3 2 4 5 8 6 13 6 8 9
Nghost:        2206.28 ave        2237 max        2163 min
Histogram: 2 0 5 7 9 11 9 9 5 7
Neighs:        4249.08 ave        5869 max        2024 min
Histogram: 3 2 4 7 6 11 9 9 9 4

Total # of neighbors = 271941
Ave neighs/atom = 314.74653
Ave special neighs/atom = 2.0000000
Neighbor list builds = 13335
Dangerous builds = 0

unfix		3
unfix		2
unfix		1

write_data	data.final.${pid}
write_data	data.final.0
System init for write_data ...
PPPM initialization ...
  extracting TIP4P info from pair style
  using 12-bit tables for long-range coulomb (../kspace.cpp:340)
  G vector (1/distance) = 0.37335592
  grid = 24 24 24
  stencil order = 5
  estimated absolute RMS force accuracy = 0.0032658935
  estimated relative force accuracy = 9.8351412e-06
  using double precision FFTW3
  3d grid and FFT values/proc = 2535 216
Last active /omp style is kspace_style pppm/tip4p/omp
WARNING: Not all mixed pair coeffs generated from mixing. Use write_data with 'pair ij' option to store all pair coeffs. (../write_data.cpp:312)

write_restart   restart.lmp.${pid}
write_restart   restart.lmp.0
System init for write_restart ...
PPPM initialization ...
  extracting TIP4P info from pair style
  using 12-bit tables for long-range coulomb (../kspace.cpp:340)
  G vector (1/distance) = 0.37335592
  grid = 24 24 24
  stencil order = 5
  estimated absolute RMS force accuracy = 0.0032658935
  estimated relative force accuracy = 9.8351412e-06
  using double precision FFTW3
  3d grid and FFT values/proc = 2535 216
Last active /omp style is kspace_style pppm/tip4p/omp
Total wall time: 0:08:41
