LAMMPS data file via write_data, version 30 Jul 2021, timestep = 10750000

864 atoms
2 atom types
576 bonds
1 bond types
288 angles
1 angle types

0.5461574705076497 17.66141492948434 xlo xhi
1.734832628793086 21.894345171201635 ylo yhi
0.666310838342902 21.546884961651813 zlo zhi

Masses

1 1.00794
2 15.9994

Pair Coeffs # lj/cut/tip4p/long/omp

1 0 0
2 0.21084 3.1668

Bond Coeffs # harmonic/omp

1 450 0.9572

Angle Coeffs # harmonic/omp

1 55 104.52

Atoms # full

717 1 1 0.5897 2.1549613886006895 5.402342302381286 3.4669750659296104 4 -7 -1
745 1 2 -1.1794 2.599203785040094 3.6981809569715844 3.6827058267874113 5 4 -6
279 1 1 0.5897 3.610553707224366 3.159995661963663 2.0662044745333823 0 -1 1
277 1 2 -1.1794 4.213133811474588 2.7098192136550754 1.4741201233917938 0 -1 1
746 1 1 0.5897 2.0369610826788636 3.100721704392328 4.1759093868860155 5 4 -6
747 1 1 0.5897 3.3055594440990284 3.9191457535645506 4.289805299339584 5 4 -6
716 1 1 0.5897 1.2143753636508328 6.581364730521014 3.3351461428916225 4 -7 -1
817 1 2 -1.1794 0.9361505079665026 1.7893366633181 5.22942349464146 6 -1 0
715 1 2 -1.1794 1.9641772382159781 6.263735240787694 3.8383879338936193 4 -7 -1
863 1 1 0.5897 3.6257893396741454 5.663700791987264 1.2593533067953762 2 -4 3
542 1 1 0.5897 1.0264270618321556 5.40468154534449 5.150079713711333 0 0 3
376 1 2 -1.1794 4.7095086543414855 3.9322545781815754 5.63851565503152 2 5 2
662 1 1 0.5897 0.666397627832051 2.4818776863797853 1.4262990560257827 -2 -4 1
552 1 1 0.5897 4.728432057836175 2.3975003334005427 6.554309467853634 0 11 -4
73 1 2 -1.1794 3.4089625810961754 2.8546068051536615 8.961209619768015 1 4 2
851 1 1 0.5897 1.0193171069530629 5.872806961455845 9.867120253969974 -9 0 -3
34 1 2 -1.1794 1.6470915421537662 4.925013845581457 8.400450445051376 -5 2 0
74 1 1 0.5897 2.8739025469704647 2.2300739752215804 9.451111894628518 1 4 2
75 1 1 0.5897 3.8632761759733736 2.321448475022613 8.308771799930756 1 4 2
35 1 1 0.5897 2.3602524866534704 4.303644798362529 8.547547567363925 -5 2 0
850 1 2 -1.1794 1.1054352192649226 6.372234587015043 10.67921985475964 -9 0 -3
228 1 1 0.5897 3.0471779059606416 5.75388655800222 7.50399372735541 3 -2 5
227 1 1 0.5897 4.343976175869433 6.454540530126251 7.849722458730226 3 -2 5
226 1 2 -1.1794 3.91373592464265 5.959013852108826 7.15281907101799 3 -2 5
36 1 1 0.5897 1.229921716794719 4.624807045618954 7.5928487580596355 -5 2 0
377 1 1 0.5897 4.436849171116666 4.675126621130591 6.177145722466093 2 5 2
818 1 1 0.5897 0.6305398767389216 1.857707002189515 6.134000869568744 6 -1 0
476 1 1 0.5897 4.627600950265496 3.770223448889399 9.675263025758229 1 -1 -3
10 1 2 -1.1794 0.6454398754181879 2.080528154321373 7.968872989258464 -3 0 2
852 1 1 0.5897 1.9899749455553162 6.7365351599211225 10.644282697335894 -9 0 -3
172 1 2 -1.1794 2.38161409381285 5.924821628396273 15.726879433513 3 0 -2
517 1 2 -1.1794 1.4830067186074307 4.057236701975508 12.00162929685631 1 0 -5
174 1 1 0.5897 2.1360672281527577 6.446525005286427 14.962716400526082 3 0 -2
467 1 1 0.5897 3.053925039549697 4.565137102136337 12.624797364937367 3 -1 3
687 1 1 0.5897 4.3423124952365875 3.2001850713390105 13.923300948839413 6 -5 -4
518 1 1 0.5897 1.4707679259903803 4.745551464636991 11.336501935512022 1 0 -5
466 1 2 -1.1794 3.967870538259029 4.644986085573338 12.898039801153937 3 -1 3
685 1 2 -1.1794 4.718673168103641 2.869826775715577 14.739112642385198 6 -5 -4
173 1 1 0.5897 3.3182701959695318 5.761845343760489 15.6152434183306 3 0 -2
102 1 1 0.5897 1.9470424208959414 4.098870247057877 15.90601095102994 8 -6 -3
468 1 1 0.5897 4.078847515156382 5.574993855416292 13.095828587280677 3 -1 3
644 1 1 0.5897 1.8606008544766528 2.4498605537628193 11.228018130593002 2 -1 0
519 1 1 0.5897 0.6151475679222456 4.096499778124798 12.403635656528444 1 0 -5
100 1 2 -1.1794 1.5709552241915765 3.258615994194377 16.16841670627293 8 -6 -3
686 1 1 0.5897 4.533706439307078 3.553630523010279 15.382971417607111 6 -5 -4
202 1 2 -1.1794 4.579583808797699 4.403318481185551 19.506338531178855 -8 1 1
864 1 1 0.5897 2.7963155586199795 6.601646028742501 21.288804132200216 2 -4 2
262 1 2 -1.1794 1.6930444998718448 3.2457711836075687 20.90431367401293 5 -1 5
101 1 1 0.5897 2.2736257719794635 2.8207413838043154 16.648881721558077 8 -6 -3
862 1 2 -1.1794 2.907710572491922 5.67627947377267 21.507034138363373 2 -4 2
113 1 1 0.5897 4.117955458765763 3.186201055718742 18.499764976561547 -2 -3 0
112 1 2 -1.1794 3.762203743097088 2.542052332928641 17.88752508639613 -2 -3 0
204 1 1 0.5897 3.947527212309777 5.079613387109271 19.75017337099346 -8 1 1
264 1 1 0.5897 2.3548168585836446 2.6734134291347393 20.515969565142765 5 -1 5
408 1 1 0.5897 1.5973692641546935 6.318979236334667 19.05022838011679 -4 -2 2
263 1 1 0.5897 2.144293420837522 4.0796809778418135 21.035824920344307 5 -1 5
406 1 2 -1.1794 2.3549098534697395 6.6053953628320015 18.53990044253845 -4 -2 2
407 1 1 0.5897 2.1091587385308976 6.4366398851673265 17.630244420699917 -4 -2 2
114 1 1 0.5897 3.4870380176769005 1.8111962266240544 18.44111526546992 -2 -3 0
203 1 1 0.5897 4.602960274289747 3.8137045853790346 20.260086726849774 -8 1 1
792 1 1 0.5897 1.5705727269820484 10.461612104263136 5.249037199946095 3 4 -3
195 1 1 0.5897 2.6764272239213773 9.11411719345075 1.9823655184279005 2 -3 1
368 1 1 0.5897 0.9198222532442732 10.620509922298446 1.9985966990381825 6 4 -1
840 1 1 0.5897 4.250948701237604 7.351446709521393 5.836204397161653 -2 -3 -4
194 1 1 0.5897 3.2298903675523314 10.369649773809607 2.6223705600823353 2 -3 1
193 1 2 -1.1794 2.5300760991867723 9.722022323191531 2.7072123350136406 2 -3 1
839 1 1 0.5897 3.743277677791127 7.550361737814897 4.423788548830109 -2 -3 -4
838 1 2 -1.1794 4.480272143828248 7.755456102172689 4.999232704445073 -2 -3 -4
144 1 1 0.5897 4.7051005554908 9.638527696707044 4.940087294271115 -2 2 0
142 1 2 -1.1794 4.744077802286961 10.506938803197697 5.340918411114616 -2 2 0
223 1 2 -1.1794 4.549652461346283 11.664660748439003 2.572998016103207 3 -2 -7
2 1 1 0.5897 0.9800027407573648 8.332385511429557 4.276729543561396 2 -3 2
143 1 1 0.5897 3.875503557210043 10.880042543201874 5.1902047598604675 -2 2 0
790 1 2 -1.1794 1.9439291416865276 11.334903900909282 5.36869496574141 3 4 -3
791 1 1 0.5897 1.7874322993392204 11.779074157721364 4.535285430431511 3 4 -3
480 1 1 0.5897 1.836733541556623 10.487682255968705 10.631799645820543 -3 3 -3
241 1 2 -1.1794 3.5795037823814004 9.483524337859414 7.779358319008279 4 -4 3
403 1 2 -1.1794 3.560399253859539 7.692652021631814 11.062272964422753 3 -3 -2
182 1 1 0.5897 2.16170547523559 8.275760250983158 7.581284364792424 -4 1 -1
183 1 1 0.5897 0.7959973968527614 8.207326165576909 8.231153701069125 -5 1 -1
242 1 1 0.5897 3.21698466419119 10.292995333240452 8.13944457411158 4 -4 3
181 1 2 -1.1794 1.272543911679997 7.9496891365647375 7.441933040157297 -5 1 -1
243 1 1 0.5897 3.945995128468617 9.740299509217593 6.933124427374047 4 -4 3
272 1 1 0.5897 4.689843516224865 7.4102597653884015 9.813574921195672 -1 3 2
673 1 2 -1.1794 2.782905287447855 11.74736729309246 9.332492163071068 -3 1 -4
287 1 1 0.5897 2.808650093511614 9.894320267817712 12.841497491764853 2 2 0
288 1 1 0.5897 4.090833894207137 10.637905008496958 12.53288987871951 2 2 0
381 1 1 0.5897 3.1813687743756365 8.98602137604609 16.06237311361813 8 3 -1
22 1 2 -1.1794 1.282102286278457 10.514717910570747 16.121781362494062 -5 1 1
23 1 1 0.5897 1.4069257165792024 10.92168000724716 15.264368207007498 -5 1 1
404 1 1 0.5897 3.9825919559855034 7.556008835056465 11.910461718212469 3 -3 -2
286 1 2 -1.1794 3.554328181439376 10.32382636311914 13.260800689705954 2 2 0
346 1 2 -1.1794 1.5921936040797764 7.360521598973024 13.581349468507758 -3 2 -3
348 1 1 0.5897 1.7647578058705553 7.015063184098911 12.705448080105779 -3 2 -3
379 1 2 -1.1794 3.948451336968277 8.658653004098607 15.592535310509513 8 3 -1
347 1 1 0.5897 0.6579572292897051 7.205290533272195 13.720805415171519 -3 2 -3
380 1 1 0.5897 4.079400924301505 9.285211773472536 14.880772482948956 8 3 -1
20 1 1 0.5897 4.368307658782735 7.588130519773294 14.190453390931806 -4 -3 1
479 1 1 0.5897 0.6574964174575768 9.672298044096236 11.118383135924445 -3 3 -3
19 1 2 -1.1794 4.790193903230365 7.195782823985259 13.425992800157834 -4 -3 2
478 1 2 -1.1794 1.6098809873631714 9.740964935366101 11.186145024810234 -3 3 -3
405 1 1 0.5897 2.862768711140753 8.32348593659593 11.240289291854493 3 -3 -2
160 1 2 -1.1794 2.5657195587271215 10.581303104501503 19.891570427769018 6 6 0
161 1 1 0.5897 2.3343700596896086 11.363728923236183 20.39217888064255 6 6 0
270 1 1 0.5897 0.96759900595378 9.956460721478845 19.216989927595748 2 3 5
285 1 1 0.5897 3.9369740819996575 7.518652621314098 18.386277902825892 7 -2 -6
24 1 1 0.5897 0.8623202687099416 11.193233102586557 16.65067478421136 -5 1 1
162 1 1 0.5897 3.103477829232145 10.908196842904097 19.17025174163014 6 6 0
454 1 2 -1.1794 3.17549532740905 8.271890089289915 21.429454996442725 -2 1 -1
584 1 1 0.5897 2.72939322763267 11.045943009638309 16.81244408400212 0 -6 1
283 1 2 -1.1794 4.770477305611525 7.973422299831528 18.264696830470193 7 -2 -6
456 1 1 0.5897 2.993937268802938 8.894917313187019 20.725751711953595 -2 1 -1
583 1 2 -1.1794 3.45608656798526 11.359254648160968 17.351032017587784 0 -6 1
284 1 1 0.5897 4.823988101263288 8.128387564538102 17.321591760689866 7 -2 -6
455 1 1 0.5897 4.128405532348973 8.283046809137346 21.519937624630035 -2 1 -1
722 1 1 0.5897 3.386067035015447 13.99569721125865 5.856841169559184 2 -2 1
750 1 1 0.5897 1.216496476735703 16.35835332639584 4.124608253095689 1 5 0
342 1 1 0.5897 3.630459145622665 14.95448799244195 1.9925802890141737 5 3 2
340 1 2 -1.1794 2.68089290377067 15.008750227832664 1.8841168570434175 5 3 2
671 1 1 0.5897 1.6605934531669688 13.841074598968314 4.709982568944064 10 2 1
341 1 1 0.5897 2.3254812050382743 14.606440463629093 2.676712860595916 5 3 2
670 1 2 -1.1794 1.366220355592653 13.662449173170883 3.8167752209829495 10 2 1
786 1 1 0.5897 2.223370551211003 13.790890210492252 0.755357316392739 6 8 4
785 1 1 0.5897 1.1803658546571596 12.72729828924587 1.0256037445166584 6 8 4
672 1 1 0.5897 0.614044135765452 14.241203319766008 3.691736037809891 10 2 1
675 1 1 0.5897 2.181277366496298 12.192988122893448 8.73600712660354 -3 1 -4
771 1 1 0.5897 1.5852751305275417 13.679979884865206 7.2258012384791686 1 0 -1
723 1 1 0.5897 2.9192565150398386 15.230391288852589 6.59830047915271 2 -2 1
428 1 1 0.5897 3.9713586009495794 16.140476478863818 8.577524658582552 -1 -1 -2
769 1 2 -1.1794 1.085754899533065 13.240237611375806 7.913863591553826 1 0 -1
53 1 1 0.5897 0.6232439795012107 14.98257205334026 8.508700609032044 -6 0 2
52 1 2 -1.1794 0.7629464436812952 15.906865229291563 8.7148611760289 -6 0 2
721 1 2 -1.1794 2.5996048509254006 14.496812544842461 6.072925506512643 2 -2 1
669 1 1 0.5897 2.0810052878403233 12.716518335617776 10.790495210993594 -7 -1 1
674 1 1 0.5897 3.6433429611172405 12.109085365434646 9.12002857778144 -3 1 -4
427 1 2 -1.1794 3.4259018399487564 16.46841429670218 7.862500258396912 -1 -1 -2
429 1 1 0.5897 2.5356207021551667 16.45451009572252 8.213972320282934 -1 -1 -2
118 1 2 -1.1794 1.3134856033768871 14.779175735179404 14.556801846552833 5 -4 -1
59 1 1 0.5897 2.4448200015051027 13.210362481613538 14.418138119042586 5 -3 -2
667 1 2 -1.1794 1.5462885811117173 13.029233266877508 11.520304077756409 -7 -1 1
664 1 2 -1.1794 3.5616750810856255 14.862719085954652 12.384306025804525 5 3 0
120 1 1 0.5897 1.8748376834611744 15.289130674122152 13.97270853935621 5 -4 -1
665 1 1 0.5897 4.318058201346998 14.767294625430171 12.963248378435221 5 3 0
254 1 1 0.5897 0.5955394904833473 12.24192249770259 12.804432279385885 7 6 -6
58 1 2 -1.1794 3.037445504030687 12.572509107945171 14.81596861350534 5 -3 -2
60 1 1 0.5897 3.33375945451718 12.03120245721476 14.084169643194523 5 -3 -2
668 1 1 0.5897 2.0832263644645765 13.701063802413705 11.940623377024648 -7 -1 0
666 1 1 0.5897 3.9342004390046297 15.135477015508808 11.545722547355847 5 3 0
654 1 1 0.5897 4.796267816172528 13.306587860050342 15.363671338880616 -5 -2 -1
393 1 1 0.5897 1.355800748804863 15.423747872055513 17.890712199208917 3 -1 -3
784 1 2 -1.1794 1.8408161248257866 12.994751675755627 21.266963116873146 6 8 3
833 1 1 0.5897 1.1060214537279132 15.825850164866067 19.78464766330705 4 -3 1
521 1 1 0.5897 4.152969271905583 12.602145702825439 20.581010425867532 -2 0 -4
280 1 2 -1.1794 4.3589921393710185 14.401959265997595 18.033386758393434 -2 -4 0
281 1 1 0.5897 3.4038725656556914 14.367033189963365 18.086828624299322 -2 -4 0
282 1 1 0.5897 4.660068522376802 13.967885060507623 18.83167607060115 -2 -4 0
834 1 1 0.5897 0.7427318070158224 14.425686366239107 20.23150996920974 4 -3 1
585 1 1 0.5897 3.603339556023465 12.257954312620635 17.056109629103673 0 -6 1
391 1 2 -1.1794 1.6086527983890186 14.606128782475768 17.461772829064703 3 -1 -3
122 1 1 0.5897 3.5408045149802962 16.59151625767535 20.14648265443989 3 -2 1
121 1 2 -1.1794 2.6591169165822905 16.7108045154027 19.793326825681987 3 -2 1
392 1 1 0.5897 1.5489972287219707 14.797777864879272 16.525782596703657 3 -1 -3
822 1 1 0.5897 4.473748681137875 16.166138014282115 17.407922343521502 2 2 7
425 1 1 0.5897 3.0668379525076284 19.744317006151196 2.073463782582275 9 -4 1
148 1 2 -1.1794 2.9434183442422768 18.00366515956598 1.5936676195256978 -2 -3 0
168 1 1 0.5897 2.36682838955102 20.79885460610788 5.2216447376988615 -1 0 7
299 1 1 0.5897 3.5489835559859637 17.836551377808714 4.155790126065291 -2 -2 2
748 1 2 -1.1794 1.8169003111812596 17.09409921919115 4.245092622889756 1 5 0
166 1 2 -1.1794 3.1665140889679355 20.315247603334942 5.01437087751606 -1 0 7
167 1 1 0.5897 3.251827930878924 20.388699538446268 4.063755799864234 -1 0 7
426 1 1 0.5897 3.334254530541088 21.233493858917758 2.019047774995819 9 -5 1
424 1 2 -1.1794 2.708937493344096 20.58825522105494 2.349167785581133 9 -4 1
749 1 1 0.5897 1.4572852480199474 17.578062779725066 4.988583609714526 1 5 0
298 1 2 -1.1794 4.4921469532985565 17.67621775054922 4.188946561863784 -2 -2 2
663 1 1 0.5897 1.1334159806349633 21.640038447134852 2.4613417733995773 -2 -5 1
149 1 1 0.5897 2.9094476796751714 17.161099785125728 2.0467233477835345 -2 -3 0
314 1 1 0.5897 0.8855499268566017 18.009839544841938 2.296320835818118 2 -2 -2
150 1 1 0.5897 3.0933136767885414 17.77677283890139 0.6758578197589777 -2 -3 0
355 1 2 -1.1794 1.7219292675477489 19.82057438552301 8.435448811811904 0 -1 5
357 1 1 0.5897 1.5691549579927764 20.75886025441691 8.323107435309945 0 -1 5
814 1 2 -1.1794 4.469258715840324 18.87043346578581 8.424422505574519 -3 7 -5
551 1 1 0.5897 4.267624402941903 21.12115447560423 6.419794177281889 0 10 -4
816 1 1 0.5897 4.466688817243433 18.730339908194516 9.3713657533757 -3 7 -5
815 1 1 0.5897 4.046365516338302 18.090372318421217 8.065256376342134 -3 7 -5
356 1 1 0.5897 2.660088266447707 19.749600183829298 8.611932346788063 0 -1 5
27 1 1 0.5897 1.2065117492061532 18.79453753269551 7.063824212505395 1 7 8
550 1 2 -1.1794 4.74982722436254 21.71020563407387 7.00016354091875 0 10 -4
25 1 2 -1.1794 0.5798151017714552 18.228077585357916 6.613562033315262 1 7 8
643 1 2 -1.1794 2.0848507501688007 21.735491007849063 10.908041705538563 2 -2 0
811 1 2 -1.1794 1.1815080875565647 17.91525357440584 14.3008303986059 -3 2 -3
595 1 2 -1.1794 4.175573906944226 20.855939001387373 12.519582422135853 2 -4 3
540 1 1 0.5897 1.5284957700689379 17.6298127112996 12.67200803476788 1 -3 1
93 1 1 0.5897 3.9073730797842376 20.498022923134435 15.900850356274713 -1 -8 3
718 1 2 -1.1794 3.9386625730190636 17.228528298249415 14.64435238944816 2 3 0
92 1 1 0.5897 3.716725333589503 21.740084537128723 15.056408327555202 -1 -8 3
538 1 2 -1.1794 1.74406713563877 17.538009186580688 11.743876966296375 1 -3 1
719 1 1 0.5897 3.020482781087979 17.49785781593488 14.616156861851413 2 3 0
91 1 2 -1.1794 3.4343018361044657 20.829027365107397 15.137330319849747 -1 -8 3
38 1 1 0.5897 3.4567695659587327 18.190291336457385 11.424739018988896 1 1 -3
720 1 1 0.5897 4.132943859943713 17.13548774621702 15.57708740031981 2 3 0
797 1 1 0.5897 1.6769155342851783 20.845862306234956 14.832304491241844 0 -4 -1
539 1 1 0.5897 1.1522912215341323 18.144733547521035 11.298887710908938 1 -3 1
597 1 1 0.5897 3.917237960551392 20.69223918342918 13.426676457441435 2 -4 3
39 1 1 0.5897 4.44828557914244 19.290239657897597 11.739605509923864 1 1 -3
813 1 1 0.5897 0.7608962355719516 17.420361716397203 15.00405630424124 -3 2 -3
812 1 1 0.5897 1.001459169030242 18.831565977856663 14.511301224693149 -3 2 -3
645 1 1 0.5897 2.86194683797471 21.48842008469082 11.409439255632744 2 -2 0
87 1 1 0.5897 0.8119660638649957 21.24204898648099 11.825828123997177 -1 4 2
796 1 2 -1.1794 0.7769497478247481 20.51972025708395 14.825853006979314 0 -4 -1
37 1 2 -1.1794 4.312757960096661 18.5338921806999 11.168720585845367 1 1 -3
596 1 1 0.5897 4.805847090700744 21.574259296781772 12.575417805365673 3 -4 3
123 1 1 0.5897 2.7483897416405165 17.423640507212276 19.16069975585975 3 -2 1
413 1 1 0.5897 1.8055699393777696 20.55857538987923 19.940729201912344 5 -2 2
77 1 1 0.5897 1.113357698889161 17.760693528689952 17.323156645288588 -7 -6 -1
806 1 1 0.5897 3.565342528650518 18.716902110226666 17.656758679505987 2 -1 -3
412 1 2 -1.1794 2.6055877991453675 20.939347332531487 19.57836340090438 5 -2 2
414 1 1 0.5897 3.285814677348376 20.719283239968437 20.21490514650911 5 -2 2
805 1 2 -1.1794 2.6828509737255746 18.55551344741872 17.990656188251744 2 -1 -3
807 1 1 0.5897 2.4976460804828307 19.307824584883384 18.552838414922583 2 -1 -3
847 1 2 -1.1794 0.6103353761667789 19.36813734187034 20.527482184744464 7 -2 5
309 1 1 0.5897 8.085931475820834 1.986906674844639 1.6405077500940033 -2 7 -3
741 1 1 0.5897 6.907239455711837 3.295745865638284 3.314065917267536 -1 1 7
561 1 1 0.5897 7.825926285569061 4.649885851458105 0.6708499753217386 4 2 2
237 1 1 0.5897 5.780719555361503 5.432066423553021 1.6854004520364023 -1 -3 -3
230 1 1 0.5897 7.6234228144933756 5.490029690516112 4.44560226806526 1 5 2
278 1 1 0.5897 5.02215379217403 2.6198991734162256 1.9778326812890157 0 -1 1
229 1 2 -1.1794 6.925734062183473 4.903410782107 4.153289601923145 1 5 2
378 1 1 0.5897 5.584972727311423 4.167350791305117 5.3309141334803725 2 5 2
231 1 1 0.5897 6.377484595875069 5.446204796955183 3.586601849508151 1 5 2
739 1 2 -1.1794 6.631328832600614 2.548748039087118 2.7828491310404693 -1 1 7
740 1 1 0.5897 6.7244459832262935 1.7936677491588267 3.3638122751665493 -1 1 7
235 1 2 -1.1794 5.242094481796969 5.974247724335124 2.2618245386179536 -1 -3 -3
29 1 1 0.5897 8.47697837320448 3.490838585303002 5.551061009027352 -7 1 5
570 1 1 0.5897 9.065954104339307 6.299598900817102 5.783400892560639 2 -1 -1
28 1 2 -1.1794 8.187785052304946 2.766178925083254 6.105662629639436 -7 1 5
475 1 2 -1.1794 5.270343041652032 4.344019317790378 10.092382777013915 1 -1 -3
431 1 1 0.5897 8.362569282990265 3.4509240196216715 9.58331342207114 -7 0 1
430 1 2 -1.1794 7.637836839858581 3.405222958392774 8.95960779191386 -7 0 1
477 1 1 0.5897 4.976811632695597 4.412704431188077 11.000936115475033 1 -1 -3
432 1 1 0.5897 6.896922453152419 3.795202223188417 9.423611385153238 -7 0 1
30 1 1 0.5897 8.072930530597574 3.1577098748612427 6.971604702997391 -7 1 5
569 1 1 0.5897 8.931030124228341 5.958957255247776 7.2523754808594125 2 -1 -1
273 1 1 0.5897 5.307880503978875 6.098018401545374 9.379786747489673 -1 3 2
568 1 2 -1.1794 8.46967619137439 5.89856642362705 6.415817337049887 2 -1 -1
693 1 1 0.5897 6.27839933090922 1.9236645061711515 10.975626184238793 -2 -1 3
691 1 2 -1.1794 6.451756112493886 2.1659872053867373 11.885336083068072 -2 -1 3
125 1 1 0.5897 6.974151429899414 3.8466266520880383 12.695303990525968 0 3 5
218 1 1 0.5897 8.56691156645068 4.118425286453242 11.391268462358324 1 -1 -3
444 1 1 0.5897 5.687091553280924 6.03080933700323 15.984959009308096 3 4 -4
126 1 1 0.5897 7.326298140261471 4.812679210775965 13.80655714408222 0 3 5
767 1 1 0.5897 6.587568995304872 2.117078456214226 15.500183575615324 -2 -1 -2
124 1 2 -1.1794 7.4208975120520035 4.676315725967013 12.86379977253242 0 3 5
651 1 1 0.5897 7.544456651693968 5.81955862753664 15.946720559394944 0 -1 -1
649 1 2 -1.1794 7.76718262257202 4.951018676857736 15.611495006943992 0 -1 -1
89 1 1 0.5897 7.589733804472869 6.573744126243313 11.356941114444664 8 -1 2
559 1 2 -1.1794 7.011346223852559 4.63380067562481 21.04889575033988 4 2 1
854 1 1 0.5897 8.801463064549546 3.36387397878374 18.002683371816506 -3 0 2
198 1 1 0.5897 6.728425729709197 2.403061993310877 19.018589053033335 -1 -3 -2
318 1 1 0.5897 6.437696086488829 5.717791071884103 19.389814040753727 -6 -3 0
196 1 2 -1.1794 6.486071920142938 2.1625957938144853 19.91288733135685 -1 -3 -2
853 1 2 -1.1794 7.865973377271202 3.386273778312204 17.80099084303319 -3 0 2
560 1 1 0.5897 6.9594489920712235 3.7421864614996387 20.704382630498475 4 2 1
855 1 1 0.5897 7.560112740582376 4.2138091965926385 18.1725090717369 -3 0 2
316 1 2 -1.1794 6.723725475011788 6.119772231648774 18.569491358728918 -6 -3 0
442 1 2 -1.1794 4.960764290531562 5.526717674913915 16.351926680117312 3 4 -4
105 1 1 0.5897 8.663371067960888 6.503383637195574 18.8576999177446 5 -1 6
443 1 1 0.5897 5.246773263070177 5.303817887338379 17.237846909629262 3 4 -4
650 1 1 0.5897 7.871532322389579 4.410899101378018 16.394888332717716 0 -1 -1
317 1 1 0.5897 6.0475903738928345 6.767781445633675 18.371199826883323 -6 -3 -1
69 1 1 0.5897 6.056472389304793 8.784322261166569 2.036676393031369 5 0 -6
225 1 1 0.5897 4.859037980640905 11.407115578708959 3.4414884893525195 3 -2 -7
618 1 1 0.5897 8.155394871019396 8.058762248398935 3.6117956132462576 -3 2 3
589 1 2 -1.1794 6.805701424620761 9.502509711711538 3.553831829277903 1 7 -1
68 1 1 0.5897 6.57941799544895 8.278122781120313 0.7091170624575364 5 0 -6
590 1 1 0.5897 6.496118611696646 9.37304788780396 4.450336532024638 1 7 -1
67 1 2 -1.1794 5.794992832389657 8.631778394189425 1.1285530773854413 5 0 -6
591 1 1 0.5897 7.008327496722352 10.43666758596605 3.502438858995289 1 7 -1
616 1 2 -1.1794 8.646212143608622 7.240907978119099 3.692905187933617 -3 2 3
236 1 1 0.5897 5.330727811402883 6.860083600744623 1.9100006111010697 -1 -3 -3
617 1 1 0.5897 8.60036290861799 6.8461493141611856 2.822046100562117 -3 2 3
498 1 1 0.5897 6.003453324453531 7.683806152000128 5.826866624485958 1 5 1
338 1 1 0.5897 8.67050744862765 8.839352571493109 0.7398448129005545 -6 1 4
587 1 1 0.5897 8.380428564348515 11.480492122987448 7.692356145367026 -1 -1 3
782 1 1 0.5897 5.29495154410475 9.680633272441517 8.421868687665206 -7 -3 2
727 1 2 -1.1794 9.03981252899089 9.512922942131357 6.901862515711185 0 0 2
271 1 2 -1.1794 5.367284810185707 7.043879556453821 9.245101318082865 -1 3 2
535 1 2 -1.1794 7.646359128406266 9.924562281628013 10.6410906284328 5 4 3
537 1 1 0.5897 7.150026711517402 9.862071193451133 9.824941625910588 5 4 3
781 1 2 -1.1794 6.196942042052881 9.996230114175683 8.365624165332402 -7 -3 2
783 1 1 0.5897 6.636962303009317 9.365202715302507 7.795891754045669 -7 -3 2
497 1 1 0.5897 7.299171669994638 7.142238280291703 6.392521417110947 1 5 2
496 1 2 -1.1794 6.793554305353307 7.949512575906017 6.29754667356855 1 5 2
536 1 1 0.5897 7.700668149336887 9.023127053623064 10.958585272277169 5 4 3
728 1 1 0.5897 8.57781297634919 8.716998978459916 6.638454366711929 0 0 2
90 1 1 0.5897 6.926455792547017 7.151656378822035 10.124765224858303 8 -1 2
88 1 2 -1.1794 7.784494358623923 6.989264624063135 10.516842833955884 8 -1 2
732 1 1 0.5897 5.634602220020251 11.744767007035472 7.901227255941767 3 1 -3
359 1 1 0.5897 8.682263108708048 10.96545438798999 14.671548162610941 0 0 -3
360 1 1 0.5897 7.215502752948107 11.09916967466189 15.022064842665477 0 0 -3
358 1 2 -1.1794 7.820806757656464 11.111624388359571 14.280580460494308 0 0 -3
128 1 1 0.5897 8.479141658248857 8.312654471238568 13.310097778776951 -1 0 -7
499 1 2 -1.1794 5.291946307972881 11.430747963365397 11.253391044399256 -1 0 -3
688 1 2 -1.1794 7.109290603231096 7.544588582963038 16.13441335617975 5 -1 4
129 1 1 0.5897 7.261350917988863 9.168429661576923 13.587180019020606 -1 0 -7
690 1 1 0.5897 7.404376979941903 7.799507450865072 15.260181224512364 5 -1 4
127 1 2 -1.1794 7.551632122587772 8.257459810233865 13.540339265462963 -1 0 -7
21 1 1 0.5897 5.708747860880606 7.455041916483209 13.499340593232823 -4 -3 2
835 1 2 -1.1794 5.85261632136091 10.73546782373063 16.198721172794055 0 3 -2
500 1 1 0.5897 5.927574269179974 10.728875304611112 11.113043098965399 -1 0 -3
837 1 1 0.5897 4.931999296101498 10.788991890657156 16.455501020885567 0 3 -2
323 1 1 0.5897 6.125254875387849 9.839909195037537 20.46080923598549 5 -4 -1
556 1 2 -1.1794 7.785228866451778 9.466591905452592 18.004781748073434 2 -1 2
836 1 1 0.5897 6.226435788826487 10.074842677041632 16.78195358284251 0 3 -2
557 1 1 0.5897 8.719819646404412 9.641642434583105 18.115371997853313 2 -1 2
324 1 1 0.5897 5.359493434307298 9.526815011278913 19.192840118488824 5 -4 -1
337 1 2 -1.1794 8.245623701956625 8.102021756410288 21.18208017304814 -6 1 3
558 1 1 0.5897 7.381580261896543 9.803964530752696 18.804550545857882 2 -1 2
322 1 2 -1.1794 5.857680907427473 10.220987107655535 19.62444212616187 5 -4 -1
339 1 1 0.5897 8.72710367105308 8.00117418160549 20.360902193555113 -6 1 3
689 1 1 0.5897 7.436918775699587 8.236198314730503 16.70949571353318 5 -1 4
567 1 1 0.5897 5.261055075339876 14.983406763186265 1.3999623780204389 -1 6 -8
808 1 2 -1.1794 8.642779100124057 15.082599398303834 1.7822568823993246 5 -2 1
565 1 2 -1.1794 5.367793851379144 14.38809504026448 2.1419411595936966 -1 6 -8
566 1 1 0.5897 5.6515629858273355 14.95096117626886 2.862350371239166 -1 6 -8
110 1 1 0.5897 5.769829786901972 12.983108043638754 4.967334241313897 0 -1 -6
803 1 1 0.5897 5.756252455394419 15.046964320409408 4.964908341531185 5 1 -5
117 1 1 0.5897 8.017200761629034 12.932529699419984 4.04419657483586 -5 -3 4
804 1 1 0.5897 5.433725699405175 16.335988783295704 4.239275486329783 5 1 -5
109 1 2 -1.1794 5.10641657011822 13.489938083139181 5.4357057724236535 0 -1 -6
579 1 1 0.5897 7.8469372646382824 16.553766781362185 4.579448375042641 2 4 -2
802 1 2 -1.1794 6.150751706623155 15.728158820468956 4.420222144392976 5 1 -5
115 1 2 -1.1794 7.282986364083585 12.394815024716312 3.7473564070182355 -5 -3 4
116 1 1 0.5897 7.327369133910599 12.434381088186319 2.791956982016831 -5 -3 4
107 1 1 0.5897 7.747887303919235 13.737665997259 1.0880538248935416 2 -4 4
106 1 2 -1.1794 7.456024871505006 12.844690571823033 0.9042789285630659 2 -4 4
861 1 1 0.5897 8.112923187804093 16.77210570522863 1.5154851033784134 -3 -2 2
810 1 1 0.5897 9.001494500233022 15.047544319440025 2.6690593753427136 5 -2 1
224 1 1 0.5897 4.983645546520335 12.500509844803586 2.4017341718874867 3 -2 -7
731 1 1 0.5897 5.923536498436909 13.082927194564666 8.547728305584057 3 1 -3
234 1 1 0.5897 8.07369557719946 14.005418946973641 9.540000591208342 -1 1 1
827 1 1 0.5897 8.974065689381275 14.212324759280909 7.449675865780834 3 4 1
233 1 1 0.5897 7.134567812483011 13.63093654645503 10.66691709511259 -1 1 1
232 1 2 -1.1794 7.162318688609048 14.081427933682942 9.822747169000353 -1 1 1
730 1 2 -1.1794 5.321058969172278 12.648192088925095 7.944112721477862 3 1 -3
46 1 2 -1.1794 4.860650232381273 15.929585182433792 10.1833147882942 4 -1 0
47 1 1 0.5897 5.691095220375869 15.476003443219051 10.038513401795566 4 -1 0
111 1 1 0.5897 5.132350799116374 13.150415025873727 6.330343174471634 0 -1 -6
586 1 2 -1.1794 8.776875498494626 12.334108307055896 7.867019065484234 -1 -1 3
588 1 1 0.5897 9.013786641977237 12.303547832709615 8.793982564598618 -1 -1 3
828 1 1 0.5897 8.600850362040786 15.662630725587835 7.2272799305316955 3 4 1
48 1 1 0.5897 5.110839349890912 16.83453686729511 10.369915038895028 4 -1 0
175 1 2 -1.1794 7.255856411966028 16.837849680689594 7.545784729332418 5 -2 5
652 1 2 -1.1794 5.5348773687952795 13.885804163662273 15.551585561356157 -5 -2 -1
385 1 2 -1.1794 7.259904596124577 13.064049890487684 12.411422951077489 -3 0 3
501 1 1 0.5897 5.791622699895233 12.12449484423346 11.683969195756369 -1 0 -3
555 1 1 0.5897 8.575046579578464 16.375350856825225 13.335684151727692 -5 -6 6
471 1 1 0.5897 5.738532873144595 14.935592385410976 14.254038156651083 4 -4 4
446 1 1 0.5897 6.862632001381862 16.75911206973852 12.477016165739775 1 -1 -5
469 1 2 -1.1794 5.833475654099495 15.545540484965791 13.522395095334511 4 -4 4
386 1 1 0.5897 7.560072121999769 12.554376993653294 13.164056984969175 -3 0 3
387 1 1 0.5897 6.975503663053488 13.898422383905517 12.784619766060668 -3 0 3
470 1 1 0.5897 5.169342388017446 16.216335231764624 13.681461417261666 4 -4 4
152 1 1 0.5897 8.69977588209067 15.141501398089616 15.525225224191775 1 0 -1
604 1 2 -1.1794 5.2856145882296 16.44821036503945 21.191386037815427 -5 -2 -2
522 1 1 0.5897 5.366292403110007 11.952373608386974 19.950307845174834 -2 0 -4
605 1 1 0.5897 5.822317394940049 16.07886509683196 20.490045295047782 -5 -2 -2
620 1 1 0.5897 9.068814479805813 12.39350196765165 19.0402383826466 0 -1 3
520 1 2 -1.1794 4.959596299939937 12.804654884129159 20.107001576486187 -2 0 -4
388 1 2 -1.1794 7.092109925475493 15.812473973925508 19.06293822329981 5 4 5
389 1 1 0.5897 7.084343285633918 14.945911952279165 18.656313726655426 5 4 4
621 1 1 0.5897 8.78394196268139 12.460568298010463 20.525661238791468 0 -1 3
657 1 1 0.5897 7.699867510708293 13.734155328029441 17.267739753501672 -2 5 -3
655 1 2 -1.1794 7.501714364792397 13.060770227339164 17.918609924838368 -3 5 -3
390 1 1 0.5897 7.965090288910696 16.157656398662603 18.87559149621903 5 4 5
656 1 1 0.5897 6.913585911868335 12.455728483676529 17.466555108547155 -3 5 -3
653 1 1 0.5897 5.359387971243962 14.220954893231614 16.430917784914655 -5 -2 -1
108 1 1 0.5897 6.598262667243406 12.952393690591009 21.373768563434584 2 -4 3
821 1 1 0.5897 5.871640034513239 16.746846812074622 17.438127520282315 2 2 7
151 1 2 -1.1794 8.547282146071433 15.313321655765407 16.454505198405457 1 0 0
137 1 1 0.5897 6.64087578038457 18.614524266128978 2.3424194538416723 7 -7 -1