LAMMPS data file via write_data, version 30 Jul 2021, timestep = 7500000

1920 atoms
2 atom types
1280 bonds
1 bond types
640 angles
1 angle types

-0.07919335359416024 24.809194353586854 xlo xhi
-0.10526548388176948 24.835266483885526 ylo yhi
-0.0721962438800805 22.88219624387573 zlo zhi

Masses

1 1.008
2 15.999

Pair Coeffs # lj/cut/tip4p/long/omp

1 0 0
2 0.21084 3.1668

Bond Coeffs # harmonic/omp

1 450 0.9572

Angle Coeffs # harmonic/omp

1 55 104.52

Atoms # full

1 1 2 -1.1794 4.464634879675275 1.5046452662422414 4.014078077421453 0 0 0
2 1 1 0.5897 4.611361387068161 2.1706214306437257 4.685736456507618 0 0 0
3 1 1 0.5897 5.094209344549519 1.7161411978124876 3.324873934106757 0 0 0
4 2 2 -1.1794 2.956803069928783 1.7173196358773495 1.7632877585897746 0 0 0
5 2 1 0.5897 3.272977383691378 1.7544726469982792 2.665936048171317 0 0 0
6 2 1 0.5897 2.0049353153000116 1.7818949072906927 1.8396155821078064 0 0 0
13 5 2 -1.1794 1.547991005434675 3.0118268865328486 4.593524980933744 0 0 0
9 3 1 0.5897 5.177040656440697 4.636406687495848 3.624145648249319 0 0 0
10 4 2 -1.1794 3.3308552036505317 4.687099509282355 3.385999835901813 0 0 0
11 4 1 0.5897 2.968476088256171 5.447711343501601 3.840241079145498 0 0 0
12 4 1 0.5897 2.728583300177675 4.532718322738169 2.6583036633781623 0 0 0
20 7 1 0.5897 4.0955079467069 2.984279988195157 0.7289979857141288 0 0 0
27 9 1 0.5897 4.662813780740396 5.153468260360069 0.2581171624993741 0 0 0
24 8 1 0.5897 1.7643516779853563 5.313308263504824 0.3139561349365273 0 0 0
387 129 1 0.5897 3.784554174567335 0.36828729396872606 0.9393893495133101 0 1 0
99 33 1 0.5897 0.41175734987108903 4.027053275522962 3.6250127047185936 1 0 0
19 7 2 -1.1794 4.793140510010217 3.3571730514180125 0.19014832342852023 0 0 0
21 7 1 0.5897 5.602208097903803 3.0492412557341884 0.5983978614618094 0 0 0
22 8 2 -1.1794 1.7965057809882627 4.7224337070320965 1.066287894513296 0 0 0
15 5 1 0.5897 1.5991401890829342 2.058807960453856 4.666957037213821 0 0 0
14 5 1 0.5897 2.4104567833583155 3.2744054130387292 4.272166494515979 0 0 0
23 8 1 0.5897 0.8823655072418568 4.621156552651319 1.3311355014363773 0 0 0
867 289 1 0.5897 4.59509879511916 -0.08902077146219607 5.2027665285215345 0 1 0
7 3 2 -1.1794 6.1179153860646025 4.632667922638501 3.7996808295874516 0 0 0
28 10 2 -1.1794 1.6542913356941094 0.030854269736928702 4.955240911644717 0 0 0
16 6 2 -1.1794 0.04368157446936087 1.6268333641600439 1.9717532142888894 0 0 0
98 33 1 0.5897 0.20963853431456908 5.460971526918704 3.1835360643852 1 0 0
25 9 2 -1.1794 4.633090835061003 6.106832426296231 0.33843678497981133 0 0 0
499 167 2 -1.1794 4.632930205031549 3.352561074369183 6.0916166496408835 0 0 0
481 161 2 -1.1794 4.806503220777241 1.523662340883697 9.718392473625464 0 0 0
503 168 1 0.5897 1.4284753484497144 4.193415913967537 6.444014193966405 0 0 0
500 167 1 0.5897 3.915272382532542 3.1030439959812846 6.673681996712185 0 0 0
484 162 2 -1.1794 3.0225407348745126 1.7411893207311033 7.519215706731048 0 0 0
485 162 1 0.5897 3.628699102864856 1.6714850165495596 8.25664852335559 0 0 0
486 162 1 0.5897 3.1659183176679555 0.9407917981816194 7.014232729842554 0 0 0
494 165 1 0.5897 1.443573870164436 1.745399430755736 10.480847733969119 0 0 0
489 163 1 0.5897 4.879779154794682 4.647116095002949 9.365703998719107 0 0 0
490 164 2 -1.1794 2.99791274340346 4.541992768989057 9.089571493617129 0 0 0
491 164 1 0.5897 2.628699059152669 5.201628238051165 9.676709443291607 0 0 0
492 164 1 0.5897 2.651125929539045 3.7108806899650504 9.41390133207844 0 0 0
493 165 2 -1.1794 1.4963914439676813 2.696316326458316 10.384910891053712 0 0 0
505 169 2 -1.1794 4.665216706350784 6.067592401494686 6.664591709084271 0 0 0
482 161 1 0.5897 5.6580574724261705 1.5732598627528909 9.284277155846883 0 0 0
498 166 1 0.5897 1.1854746306631967 1.9180850805148122 7.665795702141937 0 0 0
487 163 2 -1.1794 5.791583042663227 4.89955529078248 9.510446811103401 0 0 0
483 161 1 0.5897 4.790144165072522 2.2821365747947495 10.302039995093898 0 0 0
501 167 1 0.5897 4.681461309153308 4.305685427754242 6.165374683506752 0 0 0
502 168 2 -1.1794 1.26811330568196 4.96177552972539 6.991836077134571 0 0 0
508 170 2 -1.1794 1.6687880305892822 -0.009207037035181304 10.197909400860057 0 0 0
504 168 1 0.5897 1.9674356526448578 4.940988807512966 7.6449855581000845 0 0 0
527 176 1 0.5897 5.675416379987279 0.6908919480050343 7.391489846701435 0 0 0
579 193 1 0.5897 0.10399702256118692 3.7321266032218006 9.604721362497735 1 0 0
496 166 2 -1.1794 0.23741003029487007 1.8152639140227933 7.584200881853655 0 0 0
578 193 1 0.5897 0.06466686452966425 4.708886601884457 8.448804482222407 1 0 0
495 165 1 0.5897 1.3421869178865053 3.035422088950504 11.266603273631173 0 0 0
528 176 1 0.5897 6.024931032251753 2.0857605267273143 6.9181588696190195 0 0 0
1347 449 1 0.5897 4.666509187150356 0.32011947528665446 11.171261510070629 0 1 0
497 166 1 0.5897 0.12236479076132056 0.9449758125827465 7.202648081862287 0 0 0
980 327 1 0.5897 3.855800378467201 3.065741651384603 12.508804152767082 0 0 0
961 321 2 -1.1794 4.52507860452594 1.5526869028859978 15.725692752208136 0 0 0
962 321 1 0.5897 5.137292199518528 1.3800476009693818 15.010510057211325 0 0 0
963 321 1 0.5897 4.636165215464716 0.8113433515373233 16.320892648399216 0 0 0
964 322 2 -1.1794 2.7530661023366445 1.4283062113143308 13.371803381195308 0 0 0
965 322 1 0.5897 3.0807730374348177 1.3694374722812765 14.269169720246508 0 0 0
966 322 1 0.5897 1.8284190230445474 1.1901549375093599 13.43792627890739 0 0 0
1008 336 1 0.5897 5.633737041776818 0.7345211436275948 12.879779648296864 0 0 0
970 324 2 -1.1794 3.12375489569434 4.536989862631254 15.04665192765062 0 0 0
971 324 1 0.5897 4.0564663129207394 4.393957660116538 15.20679533453561 0 0 0
972 324 1 0.5897 2.6822431159923266 3.942285855492937 15.652919909867498 0 0 0
988 330 2 -1.1794 1.6317609770795456 0.01651704333901169 16.382243574982702 0 0 0
975 325 1 0.5897 0.9161054154973042 3.3286513492136227 15.935962396870286 0 0 0
984 328 1 0.5897 1.9495760851997601 4.530853339585098 13.304042694922105 0 0 0
967 323 2 -1.1794 5.861156821705265 4.511069578214727 14.855913200418962 0 0 0
983 328 1 0.5897 1.5022131772495961 4.9231016372837715 11.91204722952757 0 0 0
981 327 1 0.5897 5.366092794746057 3.135368003882748 12.583672277874838 0 0 0
982 328 2 -1.1794 1.3931843107657091 4.245608009335934 12.57935406135125 0 0 0
990 330 1 0.5897 1.5286428067603979 0.9657298767088154 16.450034026983865 0 0 0
1006 336 2 -1.1794 6.1082331137377315 1.3404235041689825 13.448904505616573 0 0 0
987 329 1 0.5897 4.616633189131693 5.172326405025783 12.291236048301279 0 0 0
973 325 2 -1.1794 1.509406968527579 2.783090227420098 16.452190299857214 0 0 0
1109 370 1 0.5897 0.6783400044901207 5.7465967347618285 16.009613993213712 0 0 0
979 327 2 -1.1794 4.630625842856162 3.2747386687314943 11.987225513624809 0 0 0
1460 487 1 0.5897 4.57129347056385 2.8332118028489948 16.89632169140277 0 0 0
1346 449 1 0.5897 3.741884835766596 0.05878487115644296 12.341022830228829 0 1 0
1110 370 1 0.5897 2.183175702732518 5.773680598328697 15.847843503893277 0 0 0
1058 353 1 0.5897 0.14139843266681393 4.324859474272515 13.972507352858338 1 0 0
985 329 2 -1.1794 4.7347408043519 6.1218875281607765 12.26638903104756 0 0 0
1469 490 1 0.5897 1.168129616564029 1.2664694125716067 21.78718286242041 0 0 0
1463 488 1 0.5897 0.942010883118803 4.626926948847273 19.08302950140793 0 0 0
1441 481 2 -1.1794 5.077917391659336 1.4966180740208017 21.13456994723311 0 0 0
1442 481 1 0.5897 4.309591780501427 1.3896442154992021 20.573939446270373 0 0 0
1443 481 1 0.5897 4.849517925098545 2.2190412703500617 21.71948299401612 0 0 0
1444 482 2 -1.1794 2.954659431250053 1.7439565908415993 19.142294052386312 0 0 0
1461 487 1 0.5897 5.448078021923704 2.7432655028655883 18.12707136259847 0 0 0
1446 482 1 0.5897 3.365066123404013 2.252239065157998 18.442749379532295 0 0 0
1455 485 1 0.5897 1.715615541106524 3.3743116803069806 22.820728247338486 0 0 0
1450 484 2 -1.1794 3.361060914492429 4.906972697857872 20.733653043319165 0 0 0
1451 484 1 0.5897 4.315156821797786 4.862764239098632 20.672089881598424 0 0 0
1452 484 1 0.5897 3.050282332408603 4.557951412462633 19.898348513762457 0 0 0
1453 485 2 -1.1794 1.6753690635016378 3.0036871415379927 21.939152373239544 0 0 0
1487 496 1 0.5897 6.048783534343747 1.4760771241505324 19.783358334186843 0 0 0
1464 488 1 0.5897 1.6929939944769918 4.952575529478582 17.809618269822728 0 0 0
386 129 1 0.5897 4.639598517654863 0.4858499479021803 22.65013670502333 0 1 -1
1459 487 2 -1.1794 4.708465708125403 3.2260653367785985 17.758292763535053 0 0 0
1462 488 2 -1.1794 1.701193153892955 4.362797005976331 18.563452277221003 0 0 0
1445 482 1 0.5897 2.0155457404226933 1.8828192853141903 19.020514062188 0 0 0
1456 486 2 -1.1794 0.048515892707595265 1.5278466026774213 19.00309373472364 0 0 0
1468 490 2 -1.1794 1.2154056279589178 0.314410024280334 21.874294742942148 0 0 0
1454 485 1 0.5897 2.343905851546508 3.4806847894295254 21.447573218187195 0 0 0
1466 489 1 0.5897 4.526129871208782 5.019594554845124 18.093562597376675 0 0 0
1539 513 1 0.5897 0.11674470622228941 5.624227525819411 20.99129513297553 1 0 0
974 325 1 0.5897 1.5654769243717135 3.224828779429108 17.29946680249914 0 0 0
1538 513 1 0.5897 0.36107823245069315 4.160414425410691 21.29035750038382 1 0 0
1465 489 2 -1.1794 4.492044710166389 5.975298209684616 18.052273735276692 0 0 0
1826 609 1 0.5897 3.7552775166512675 0.07579092696410328 18.127197131177304 0 1 0
1470 490 1 0.5897 1.6485592748607851 0.1716389436849859 22.71578848553235 0 0 0
125 42 1 0.5897 3.1851692578861113 6.935666272352173 1.5366584373355798 0 0 0
121 41 2 -1.1794 4.703230677333412 7.408868728636381 4.16236140466924 0 0 0
122 41 1 0.5897 3.961045001466056 7.132354958462672 3.624968378864684 0 0 0
123 41 1 0.5897 5.384684174476755 7.638140798733418 3.530581675813817 0 0 0
124 42 2 -1.1794 2.91390593173413 7.667770956399652 2.0903939499245228 0 0 0
139 47 2 -1.1794 4.75597487895309 9.429962735896712 0.8660800022178077 0 0 0
126 42 1 0.5897 3.450434776326582 8.403505080824429 1.7954405524092298 0 0 0
144 48 1 0.5897 1.3855384941876463 11.763745171721538 0.8029747253677274 0 0 0
143 48 1 0.5897 0.5557031874851642 11.025988905048804 1.831934096733288 0 0 0
130 44 2 -1.1794 3.2830442319498436 10.994543478130106 3.634936983755924 0 0 0
135 45 1 0.5897 2.177974262896357 9.650959316900869 4.541663403527771 0 0 0
132 44 1 0.5897 2.932653637423317 10.958360546654397 2.7449737937299203 0 0 0
136 46 2 -1.1794 0.029472820823973067 7.821211780064018 2.2131708028326313 0 0 0
140 47 1 0.5897 4.570179534277607 10.367198054023111 0.8085453152755868 0 0 0
131 44 1 0.5897 2.7026037436068022 11.599304352298766 4.096988911684577 0 0 0
137 46 1 0.5897 0.9663658348376056 7.729881703179936 2.0401423997858457 0 0 0
621 207 1 0.5897 4.307960796104006 8.822164867605752 5.612889861586144 0 0 0
133 45 2 -1.1794 1.4708533785767604 9.210209396999364 5.0126439195052175 0 0 0
142 48 2 -1.1794 1.3822356434805356 10.97937747071134 1.3515790103671173 0 0 0
129 43 1 0.5897 5.061017527448927 11.021481783686223 3.488118230402779 0 0 0
149 50 1 0.5897 1.4056902287996416 7.364717742240458 4.617728875716474 0 0 0
150 50 1 0.5897 1.5957117014049267 6.228469916373509 5.599884210320234 0 0 0
219 73 1 0.5897 0.1311194546850379 10.150721704023374 4.052154764633131 1 0 0
141 47 1 0.5897 4.690802910419091 9.116560586370019 -0.035961814006065344 0 0 0
127 43 2 -1.1794 6.013665771249997 11.053391726802877 3.4015864607195554 0 0 0
145 49 2 -1.1794 4.589602113446735 12.14606052263844 0.5644730512263201 0 0 0
26 9 1 0.5897 5.432751636500904 6.332705925252289 0.8134107092753052 0 0 0
148 50 2 -1.1794 1.7651322010910622 6.480714198111085 4.692246445495901 0 0 0
620 207 1 0.5897 5.051632364075423 8.807465641158807 6.93134327715756 0 0 0
624 208 1 0.5897 1.5601256814675744 11.690203822106719 6.501734641570519 0 0 0
601 201 2 -1.1794 4.701094778299385 7.742189331287714 9.964640794584314 0 0 0
134 45 1 0.5897 1.457245126241874 9.63002032910375 5.872714681293114 0 0 0
603 201 1 0.5897 3.997606893220139 7.7709134146983345 9.316283114431068 0 0 0
604 202 2 -1.1794 2.678725649235493 7.921207195831533 8.115180397114004 0 0 0
605 202 1 0.5897 3.044441600960596 8.667894967888467 7.64095107034987 0 0 0
606 202 1 0.5897 1.7310431725703643 8.021189300796776 8.026033882417549 0 0 0
1101 367 1 0.5897 4.809027314355286 9.229385200946036 11.176847335575422 0 0 0
610 204 2 -1.1794 3.1911481006837077 10.609078867903028 9.138936228763333 0 0 0
611 204 1 0.5897 4.131949714087797 10.765915298037438 9.059299702744381 0 0 0
698 233 1 0.5897 0.3071111319661462 10.147902207367409 9.840859767725709 1 0 0
607 203 2 -1.1794 5.932677777284174 10.666273123599918 9.030004220979668 0 0 0
615 205 1 0.5897 2.0890111841411563 9.47015748974691 10.267733445601001 0 0 0
612 204 1 0.5897 2.8568054349868923 11.381704881174775 9.594407022744596 0 0 0
626 209 1 0.5897 4.589765897797602 11.264404825755893 6.482473380750861 0 0 0
648 216 1 0.5897 5.853730962028454 7.000678654748789 7.579417373974222 0 0 0
630 210 1 0.5897 1.6328779283403805 7.309002504279893 10.673255475217246 0 0 0
622 208 2 -1.1794 1.3047914713062676 11.096353949851258 7.207646298223521 0 0 0
623 208 1 0.5897 2.0672451232663955 11.068670399252879 7.7855503502612775 0 0 0
699 233 1 0.5897 0.1886973704113895 10.915251056803514 8.541299079956472 1 0 0
613 205 2 -1.1794 1.403014718310972 9.23877231378438 10.893804784740556 0 0 0
602 201 1 0.5897 4.425150846857186 7.070840974704923 10.588598427774354 0 0 0
619 207 2 -1.1794 4.405131208831563 9.30681460653659 6.432540658225198 0 0 0
647 216 1 0.5897 5.927135921715892 7.936496233579753 8.767103739411146 0 0 0
628 210 2 -1.1794 1.6219868995207463 6.354300323733063 10.604989213883071 0 0 0
625 209 2 -1.1794 4.410543833783707 12.200063127449097 6.575555597330961 0 0 0
629 210 1 0.5897 0.723315538072317 6.141937631399697 10.353289293755509 0 0 0
506 169 1 0.5897 3.9503097835063974 6.497370334207739 7.133952496985144 0 0 0
750 250 1 0.5897 0.7649462625751147 12.1060356407773 10.337748887483514 0 0 0
507 169 1 0.5897 4.836811348527018 6.637414642108427 5.914908038304844 0 0 0
1100 367 1 0.5897 5.244780961587097 8.996594682458065 12.607775068462328 0 0 0
1179 393 1 0.5897 0.0029651639102945965 10.600518545531202 14.152812733012404 1 0 0
1081 361 2 -1.1794 4.2794758005404585 8.092784238137488 16.08434100631945 0 0 0
1082 361 1 0.5897 4.47381226223535 8.773955142285198 16.728096209699814 0 0 0
1083 361 1 0.5897 4.2128150785769725 7.2883413182147905 16.598765091363134 0 0 0
1084 362 2 -1.1794 2.9446212543659653 7.72017255881611 13.694489198594773 0 0 0
1087 363 2 -1.1794 5.758663979958483 10.477708279751978 15.16368676479151 0 0 0
1086 362 1 0.5897 3.1930287113769915 8.375723192869518 13.042767783468664 0 0 0
986 329 1 0.5897 3.9468809343882985 6.47268900930659 12.68148786111667 0 0 0
1089 363 1 0.5897 4.803375191714218 10.419420007340179 15.155310722513649 0 0 0
1090 364 2 -1.1794 3.0883668559845665 10.748486782512249 15.21028893516747 0 0 0
1091 364 1 0.5897 2.568210284257063 11.513512585980322 15.455967238462934 0 0 0
1092 364 1 0.5897 2.508133539914356 10.003446945726672 15.366537838617216 0 0 0
1085 362 1 0.5897 3.3917880149430664 7.995797822422595 14.494611881257251 0 0 0
1099 367 2 -1.1794 4.671896527468241 9.543634428085037 12.070481640623791 0 0 0
1107 369 1 0.5897 4.5871820888562835 11.276340773843787 12.221630027743652 0 0 0
1094 365 1 0.5897 1.5699349978946715 8.22815695076565 16.576657522327253 0 0 0
1097 366 1 0.5897 1.0801024862843356 7.52820107477908 13.501315228558145 0 0 0
1095 365 1 0.5897 0.43891287382361033 9.200125832965105 16.316449596383904 0 0 0
1178 393 1 0.5897 -0.0357053553396836 11.51296584438472 15.360155414910928 1 0 0
1102 368 2 -1.1794 1.4080967895847316 11.060440293849958 12.858132975408626 0 0 0
1103 368 1 0.5897 1.7247822818062672 11.613334507109585 12.143868992753257 0 0 0
1104 368 1 0.5897 2.167793764558394 10.9476739419044 13.429295346008473 0 0 0
1128 376 1 0.5897 5.798293210158725 7.0149035044448995 13.382545226772061 0 0 0
1093 365 2 -1.1794 1.3190776776810194 9.145116160886516 16.6883911235805 0 0 0
614 205 1 0.5897 1.3988094294564468 9.960326970957984 11.52272540749095 0 0 0
1096 366 2 -1.1794 0.135232650181445 7.41796606371369 13.395876664367067 0 0 0
1127 376 1 0.5897 5.703158036233121 7.81121633470815 14.666502615450884 0 0 0
1105 369 2 -1.1794 4.534456662038323 12.212291406564502 12.415150168432755 0 0 0
1088 363 1 0.5897 5.946972223635169 11.256619253800714 15.687170211713095 0 0 0
1108 370 2 -1.1794 1.4651172826045542 6.19396025451518 16.320979561542032 0 0 0
1589 530 1 0.5897 1.7400850005564217 7.476597799918699 21.99377345378859 0 0 0
1658 553 1 0.5897 0.21887927741935653 10.098015967943773 21.326819180977687 1 0 0
1590 530 1 0.5897 2.400384891433103 6.200122280008779 21.51796035556353 0 0 0
1561 521 2 -1.1794 4.6485069751475345 8.080542074727733 21.385939956809423 0 0 0
1562 521 1 0.5897 4.5150767052715395 7.268826851830079 21.87535249263913 0 0 0
1563 521 1 0.5897 4.075341872080087 7.9982312812064045 20.62383077162945 0 0 0
1564 522 2 -1.1794 2.8097594821519984 7.695916017498122 19.38103734800538 0 0 0
1565 522 1 0.5897 1.8783455458764693 7.477304988334893 19.35401253398271 0 0 0
1566 522 1 0.5897 3.241251256308633 6.962010488461466 18.943558597224815 0 0 0
1579 527 2 -1.1794 4.688337162638618 9.590173113308017 18.31740625885007 0 0 0
1570 524 2 -1.1794 3.2767521406921367 11.048279883169522 20.699260706471364 0 0 0
1571 524 1 0.5897 3.0015699526078707 11.247265012046338 19.804382324167598 0 0 0
1572 524 1 0.5897 4.227648566889807 10.955247626257089 20.642814415655216 0 0 0
1584 528 1 0.5897 1.3566347812229156 10.172735967526965 17.968825663608044 0 0 0
1573 525 2 -1.1794 1.5378900109231448 9.224625808129996 22.148022682354686 0 0 0
1580 527 1 0.5897 4.0491720219992375 9.12289359966054 18.85521082279437 0 0 0
1587 529 1 0.5897 4.789340791080761 11.34109685693465 18.451655349804554 0 0 0
1575 525 1 0.5897 2.168675544148841 9.761870897041451 21.66884670536909 0 0 0
1581 527 1 0.5897 5.532240114843654 9.21299159316023 18.565683064801078 0 0 0
1582 528 2 -1.1794 1.4452825508361968 10.812285448130599 18.675437818828406 0 0 0
1583 528 1 0.5897 0.7357778446488354 10.599890845280708 19.281726882510647 0 0 0
1467 489 1 0.5897 5.3145472537866345 6.26214266757937 18.44887301936641 0 0 0
1576 526 2 -1.1794 0.21396123497846897 7.476567920239286 19.167343566399012 0 0 0
1567 523 2 -1.1794 6.080973668616354 11.004187462123644 20.975610689406146 0 0 0
1709 570 1 0.5897 0.8805521774910693 12.261525283516852 21.681537116310444 0 0 0
1588 530 2 -1.1794 1.5895277457416617 6.535998714787155 21.89976789469189 0 0 0
1585 529 2 -1.1794 4.701910116611233 12.277153502675995 18.271659452073536 0 0 0
1574 525 1 0.5897 1.2243375891894577 9.792840160869542 22.85156685123168 0 0 0
338 113 1 0.5897 0.4877468427182936 17.352724349585884 2.6013048190428085 1 0 0
740 247 1 0.5897 4.7165871612364985 15.387206402506703 5.452155878474209 0 0 0
241 81 2 -1.1794 4.423102153580621 14.021440912220136 4.14611759847592 0 0 0
242 81 1 0.5897 4.508888421493938 13.356370210373505 4.829135189776316 0 0 0
243 81 1 0.5897 3.7752025457126175 13.661331308512134 3.540588698550757 0 0 0
244 82 2 -1.1794 2.832722985753762 13.624717398801549 1.9732089694142174 0 0 0
245 82 1 0.5897 1.908860188238969 13.873882070756071 1.9519953862152053 0 0 0
246 82 1 0.5897 3.3060437131724822 14.447797091875358 1.8519538527194839 0 0 0
254 85 1 0.5897 0.8619202552507755 15.942133460006879 4.585727282363572 0 0 0
250 84 2 -1.1794 3.2272599987522934 17.501285980503432 3.494793140355542 0 0 0
251 84 1 0.5897 2.821664003495143 17.40930178612411 2.632735326252283 0 0 0
252 84 1 0.5897 4.1285431877349525 17.20485898361568 3.368771194893727 0 0 0
288 96 1 0.5897 5.789872210286467 14.513354093939226 1.4749686466915333 0 0 0
253 85 2 -1.1794 1.6683158704712504 15.479008327293874 4.812300133951761 0 0 0
147 49 1 0.5897 5.335867266870392 12.474514052334861 1.0657757282680163 0 0 0
287 96 1 0.5897 5.909981885891068 13.896106217144538 2.8520153080912842 0 0 0
259 87 2 -1.1794 4.405935573501571 15.621167850907653 0.8393564963195228 0 0 0
260 87 1 0.5897 4.343450224342672 16.555983855193492 0.6432821723197318 0 0 0
262 88 2 -1.1794 1.7006156071574796 17.428560211260017 1.236614044784495 0 0 0
263 88 1 0.5897 1.7089587934362673 16.662484749445817 0.6628020838686758 0 0 0
264 88 1 0.5897 1.8051169005123913 18.17322072962269 0.6443707742332316 0 0 0
255 85 1 0.5897 2.3552294166928287 15.947151316491116 4.337837057866879 0 0 0
261 87 1 0.5897 4.435941190212924 15.197504240440317 -0.01840967638748732 0 0 0
269 90 1 0.5897 1.7464089617746428 13.661452050443884 5.102640026674743 0 0 0
339 113 1 0.5897 0.41213037811720626 17.84640656632832 4.030369283565589 1 0 0
268 90 2 -1.1794 1.7778906249075446 12.708995774111404 5.012781882180791 0 0 0
247 83 2 -1.1794 5.901009543192826 17.384159842300118 3.7411450756869264 0 0 0
256 86 2 -1.1794 0.23124183158356204 14.079500804144466 2.126487003559229 0 0 0
265 89 2 -1.1794 4.513355765728838 18.434298035926645 0.5577486906601689 0 0 0
337 113 2 -1.1794 -0.04619485037972502 17.297928217919193 3.393774208382718 1 0 0
389 130 1 0.5897 2.0696854175331882 18.52200843975084 4.659168532819863 0 0 0
257 86 1 0.5897 0.21469159550080974 14.915494139762293 1.6605916519200252 0 0 0
270 90 1 0.5897 0.9707065474900396 12.484812895471878 4.549876707253821 0 0 0
146 49 1 0.5897 3.8227797336846865 12.488792174381494 1.023389676439676 0 0 0
731 244 1 0.5897 2.8104544374345592 17.143105215222903 8.454247016243565 0 0 0
721 241 2 -1.1794 4.513215441910947 13.770642239845461 10.285790306153068 0 0 0
722 241 1 0.5897 3.882367742952255 13.768500357468383 9.56597885581094 0 0 0
733 245 2 -1.1794 1.4878308262908462 15.151099271431445 10.546032533589077 0 0 0
724 242 2 -1.1794 2.9631636029113424 14.367483126951411 7.877986731642842 0 0 0
725 242 1 0.5897 3.570630248472305 15.053387491709627 7.601080251491757 0 0 0
726 242 1 0.5897 3.2859802545204015 13.574108993282778 7.450740753357804 0 0 0
727 243 2 -1.1794 5.782319210001617 16.612861454422145 9.198997595469987 0 0 0
728 243 1 0.5897 4.842622133337103 16.771535477626852 9.28755020020552 0 0 0
730 244 2 -1.1794 3.190399562714905 17.130094077531357 9.332650577636894 0 0 0
749 250 1 0.5897 1.5060486690167254 13.400637502055774 10.595728311775117 0 0 0
732 244 1 0.5897 2.728057807235138 16.423704705843843 9.783671933029266 0 0 0
870 290 1 0.5897 2.2478255059113588 18.25541873395614 10.209151751302088 0 0 0
627 209 1 0.5897 5.13741237305478 12.532438269164363 7.1021355018546 0 0 0
735 245 1 0.5897 0.5601798725883003 15.384400725998988 10.579016196650251 0 0 0
737 246 1 0.5897 1.1305666819736064 14.47117952522894 7.68690353570369 0 0 0
739 247 2 -1.1794 4.989401634395978 15.64645081202964 6.332209205327954 0 0 0
743 248 1 0.5897 1.1346926431855324 17.970740726808405 6.868717967163705 0 0 0
742 248 2 -1.1794 1.250009008214665 17.11058547316117 7.272510808632465 0 0 0
723 241 1 0.5897 5.365086089738112 13.68237684063172 9.858484216390274 0 0 0
744 248 1 0.5897 1.437448476544204 16.524452441062543 6.539379996204701 0 0 0
741 247 1 0.5897 5.079413043999065 16.5982405258602 6.284952170032367 0 0 0
748 250 2 -1.1794 1.622559257637513 12.450599655070134 10.586441575622914 0 0 0
745 249 2 -1.1794 4.530058990977336 18.280396074700125 6.522326714551253 0 0 0
736 246 2 -1.1794 0.23920328609839525 14.163490882268556 7.52297779834415 0 0 0
768 256 1 0.5897 6.036311062237896 14.69574903868155 7.748542926152403 0 0 0
1221 407 1 0.5897 4.592455131847395 15.13365094273664 11.300471356125751 0 0 0
1225 409 2 -1.1794 4.432360079943605 18.31331273788084 11.885654725105944 0 0 0
1201 401 2 -1.1794 4.7341825395780495 13.850698022409015 15.881620130930854 0 0 0
1228 410 2 -1.1794 1.3583729753131153 12.726687791760288 16.14664263539531 0 0 0
1203 401 1 0.5897 4.846613817669554 13.0896093226911 16.45109287890157 0 0 0
1204 402 2 -1.1794 2.897239200599796 14.130616119398866 13.783423870242029 0 0 0
1205 402 1 0.5897 3.4223207241205005 14.049908350650652 14.579588843412774 0 0 0
1206 402 1 0.5897 2.9400803653320997 13.264184680108647 13.378853353278505 0 0 0
1213 405 2 -1.1794 1.778582188172232 15.299412739307312 16.407825172136462 0 0 0
1210 404 2 -1.1794 3.4107168789560802 16.992440535111346 15.348825216381162 0 0 0
1297 433 2 -1.1794 0.05459293271251195 16.721536740327597 14.870764420674409 1 0 0
1212 404 1 0.5897 4.340135683564366 17.203476320575216 15.4365735518432 0 0 0
1211 404 1 0.5897 2.9566181745311786 17.783172302906426 15.63989730657372 0 0 0
1227 409 1 0.5897 4.599579741023489 17.370951001338316 11.90083150390438 0 0 0
1229 410 1 0.5897 1.5659797833986535 13.650923657603784 16.284174544762855 0 0 0
1215 405 1 0.5897 2.6016037005184987 15.737248015893949 16.190960274438012 0 0 0
1218 406 1 0.5897 0.8308072229896826 14.286073883627763 13.717015544042239 0 0 0
1219 407 2 -1.1794 4.669300241276006 15.699118419613807 12.068919557243737 0 0 0
1220 407 1 0.5897 3.9357367805405508 15.44450696863807 12.628514774232723 0 0 0
1222 408 2 -1.1794 1.8053601910211583 16.816174922662075 12.766685365506799 0 0 0
1223 408 1 0.5897 1.9212604577569943 17.525897626007506 12.134983285699324 0 0 0
1224 408 1 0.5897 2.5755417190912198 16.870238942620908 13.332344731857278 0 0 0
1214 405 1 0.5897 1.1054511783896384 15.828159089184341 15.979524047714138 0 0 0
1202 401 1 0.5897 5.392511333038819 13.736912055102405 15.196238623719454 0 0 0
1248 416 1 0.5897 5.759310761343924 13.260767467191643 13.18881539183631 0 0 0
1298 433 1 0.5897 0.5968831085218278 16.531501547941193 14.105314854247073 1 0 0
1216 406 2 -1.1794 0.1484972874757537 13.92880775296869 13.148755380411272 0 0 0
1247 416 1 0.5897 6.007058644689969 14.744499466454233 13.018366891995521 0 0 0
1106 369 1 0.5897 4.598048172236914 12.638085860292007 11.560279310147894 0 0 0
1230 410 1 0.5897 1.2086546668883134 12.380839131866589 17.026480015787968 0 0 0
734 245 1 0.5897 1.7858963643243084 15.223673811271366 11.452683137532897 0 0 0
1687 563 2 -1.1794 5.979669534670698 17.418657105240964 20.783337681272698 0 0 0
1699 567 2 -1.1794 5.00473972325005 15.684361609876786 17.963659599070198 0 0 0
1681 561 2 -1.1794 4.315106510045288 14.02454198200842 21.640225708113753 0 0 0
1704 568 1 0.5897 1.549911541360378 17.838746614888738 17.507684540788645 0 0 0
1682 561 1 0.5897 5.082615139820252 13.99200574483103 21.069309323538043 0 0 0
1684 562 2 -1.1794 2.88657550364254 14.111514608490644 19.110622958093323 0 0 0
1685 562 1 0.5897 3.3340721405528204 13.391260612063357 18.666605075682483 0 0 0
1686 562 1 0.5897 3.3068857167635293 14.162402726568864 19.969029615027488 0 0 0
1728 576 1 0.5897 6.094747512793695 14.917089465608106 19.288810564103912 0 0 0
1689 563 1 0.5897 5.087591538446198 17.689065956593126 20.566210527718745 0 0 0
1690 564 2 -1.1794 3.217528654650129 17.037839444727723 20.504086773593976 0 0 0
1691 564 1 0.5897 2.644474838967392 16.66940196651854 21.176379828578412 0 0 0
1692 564 1 0.5897 2.658183076643367 17.12257732169237 19.732040221832143 0 0 0
1693 565 2 -1.1794 1.3022936142139447 15.62690672125045 22.07616808912288 0 0 0
1708 570 2 -1.1794 1.599940500095421 12.785532139955627 22.033715007558285 0 0 0
1697 566 1 0.5897 1.129369963520587 13.777331863859658 18.93869369755368 0 0 0
1707 569 1 0.5897 5.16222451114431 17.64560852652668 17.62674381332421 0 0 0
1696 566 2 -1.1794 0.17659469283041884 13.727918823648057 19.014997034332197 0 0 0
1703 568 1 0.5897 1.6279052325432768 16.35426494901341 17.794270692892113 0 0 0
1701 567 1 0.5897 4.188353081680492 15.333722068944102 18.319531335720008 0 0 0
1702 568 2 -1.1794 1.6279704996439783 17.2092995212423 18.224540914483867 0 0 0
1683 561 1 0.5897 4.428895343315243 13.285398448580258 22.23765507063402 0 0 0
1694 565 1 0.5897 0.60577399097466 15.8667643570605 21.465085190747118 0 0 0
1778 593 1 0.5897 0.32789946208871834 17.097340081783 19.5550596270024 1 0 0
1695 565 1 0.5897 1.5652414629264135 14.746807759111801 21.806902453188783 0 0 0
1779 593 1 0.5897 0.2170728284921986 17.874883276246152 20.849220991077424 1 0 0
1710 570 1 0.5897 2.363526390698721 12.519680769259725 21.52151750060932 0 0 0
1586 529 1 0.5897 5.356827589273651 12.691743340058453 18.833185544529897 0 0 0
1705 569 2 -1.1794 5.089013374590482 18.585153737525307 17.79450167706264 0 0 0
1700 567 1 0.5897 5.188959203293181 15.13624778073966 17.200892534625318 0 0 0
380 127 1 0.5897 4.568470153755702 23.128370659594914 0.39649883538556946 0 0 0
459 153 1 0.5897 0.14625528775904983 23.55576861863987 2.570557213913591 1 0 0
361 121 2 -1.1794 4.565080663693575 20.05586459588115 4.1720245963684395 0 0 0
362 121 1 0.5897 3.7939697596956576 19.995658426132085 3.6082448359896815 0 0 0
379 127 2 -1.1794 4.498436214347512 22.173931674893154 0.4159024065786032 0 0 0
364 122 2 -1.1794 3.1741105430847156 20.377047945049913 1.8947904448989688 0 0 0
365 122 1 0.5897 3.43505256738097 21.211213536935325 1.5045583663866258 0 0 0
366 122 1 0.5897 2.2207768944397794 20.360939450226258 1.811407600232148 0 0 0
388 130 2 -1.1794 1.293439953651142 18.92037928484281 5.05266128909092 0 0 0
370 124 2 -1.1794 3.1557393887868317 23.314741834458804 3.2124214080091718 0 0 0
371 124 1 0.5897 4.112233775171387 23.281210937445792 3.218435492085735 0 0 0
372 124 1 0.5897 2.887305904881439 22.613198387516494 3.8056832729440826 0 0 0
373 125 2 -1.1794 1.7817256037309237 21.633745545460588 4.684118219761894 0 0 0
384 128 1 0.5897 1.5291282597482272 22.94662658611318 0.5710127890286598 0 0 0
408 136 1 0.5897 5.607717316430552 20.211511801107125 2.7481584413377056 0 0 0
390 130 1 0.5897 1.3969554317183897 19.85818173049407 4.891283468749699 0 0 0
458 153 1 0.5897 0.3735676696994756 24.056801052054105 3.980860645073599 1 0 0
374 125 1 0.5897 1.646810577788255 21.907072592465727 5.591436870905227 0 0 0