LAMMPS (30 Jul 2021)
Processor partition = 1
  using 2 OpenMP thread(s) per MPI task
using multi-threaded neighbor list subroutines
variable        pid world 0 1
variable        phase world IceIII Liquid

shell cd ${phase}
shell cd Liquid
include Restart.lmp
echo both
log log.lammps
#include		in.partitions
include		in.temp
variable        temperature equal 246.12
variable	tempDamp equal 100.0
include		in.pressure
variable        pressure equal 625.0
variable        pressureDamp equal 1000.0 # This is 1 ps
include		in.seed
variable        seed equal 745823

units		real
atom_style	full
read_restart	restart.lmp.${pid}
read_restart	restart.lmp.1
Reading restart file ...
  restart file = 30 Jul 2021, LAMMPS = 30 Jul 2021
  restoring atom style full from restart
  orthogonal box = (0.075169302 1.1800708 0.091706373) to (18.132403 22.449107 22.121489)
  2 by 4 by 4 MPI processor grid
  restoring pair style lj/cut/tip4p/long/omp from restart
  restoring bond style harmonic/omp from restart
  restoring angle style harmonic/omp from restart
  864 atoms
  576 bonds
  288 angles
Finding 1-2 1-3 1-4 neighbors ...
  special bond factors lj:    0        0        0       
  special bond factors coul:  0        0        0       
     2 = max # of 1-2 neighbors
     1 = max # of 1-3 neighbors
     1 = max # of 1-4 neighbors
     2 = max # of special neighbors
  special bonds CPU = 0.003 seconds
  read_restart CPU = 0.008 seconds
include 	in.setup
variable	out_freq equal 1000
variable	out_freq2 equal 10000
variable	out_freq3 equal 1000

timestep	2.0

neigh_modify    delay 7 every 1

include		in.tip4p
# This is TIP4P/Ice

# create groups ###
group ox type 2
288 atoms in group ox
group hy type 1
576 atoms in group hy

# set charges - beside manually ###
set group ox charge -1.1794
Setting atom values ...
  288 settings made for charge
set group hy charge 0.5897
Setting atom values ...
  576 settings made for charge

# ### TIP3P Potential Parameters ###
pair_style lj/cut/tip4p/long/omp 2 1 1 1 0.1577 8.5
pair_coeff 1 1*2 0.000 0.000
pair_coeff 2 2 0.21084 3.1668
bond_style  harmonic
bond_coeff  1 450 0.9572
angle_style harmonic
angle_coeff 1 55 104.52
kspace_style pppm/tip4p/omp 1.0e-5
pair_modify tail yes

thermo          ${out_freq}
thermo          1000
thermo_style    custom step temp pe etotal epair emol press lx ly lz vol pxx pyy pzz pxy pxz pyz enthalpy

restart 	${out_freq3} restart.lmp.${pid} restart2.lmp.${pid}
restart 	1000 restart.lmp.${pid} restart2.lmp.${pid}
restart 	1000 restart.lmp.1 restart2.lmp.${pid}
restart 	1000 restart.lmp.1 restart2.lmp.1


include         in.dump
dump            myDump all atom ${out_freq2} dump.water.${pid}
dump            myDump all atom 10000 dump.water.${pid}
dump            myDump all atom 10000 dump.water.1
dump            myDump2 all dcd ${out_freq2} dump.dcd
dump            myDump2 all dcd 10000 dump.dcd
dump_modify     myDump append yes
dump_modify     myDump2 append yes


variable natoms 	equal  "count(all)"                        # NUMBER ATOMS
variable H      	equal  "enthalpy/v_natoms"                 # ENTHALPY-per-atom
variable Vol      	equal  "vol/v_natoms"                 # volume-per-atom
fix AVG all 		ave/time ${out_freq} 1 ${out_freq} v_Vol v_H file vol_enthalpy.dat
fix AVG all 		ave/time 1000 1 ${out_freq} v_Vol v_H file vol_enthalpy.dat
fix AVG all 		ave/time 1000 1 1000 v_Vol v_H file vol_enthalpy.dat


timer           timeout 23:50:00 every 1000
New timer settings: style=normal  mode=nosync  timeout=23:50:00

fix 		1 all shake 1e-6 200 0 b 1 a 1
Finding SHAKE clusters ...
       0 = # of size 2 clusters
       0 = # of size 3 clusters
       0 = # of size 4 clusters
     288 = # of frozen angles
  find clusters CPU = 0.001 seconds
fix             2 all nph iso ${pressure} ${pressure} ${pressureDamp}
fix             2 all nph iso 625 ${pressure} ${pressureDamp}
fix             2 all nph iso 625 625 ${pressureDamp}
fix             2 all nph iso 625 625 1000
fix             3 all temp/csvr ${temperature} ${temperature} ${tempDamp} ${seed}
fix             3 all temp/csvr 246.12 ${temperature} ${tempDamp} ${seed}
fix             3 all temp/csvr 246.12 246.12 ${tempDamp} ${seed}
fix             3 all temp/csvr 246.12 246.12 100 ${seed}
fix             3 all temp/csvr 246.12 246.12 100 745823

run             250000
PPPM initialization ...
  extracting TIP4P info from pair style
  using 12-bit tables for long-range coulomb (../kspace.cpp:340)
  G vector (1/distance) = 0.37213768
  grid = 24 25 25
  stencil order = 5
  estimated absolute RMS force accuracy = 0.003231083
  estimated relative force accuracy = 9.7303105e-06
  using double precision FFTW3
  3d grid and FFT values/proc = 4116 672
Last active /omp style is kspace_style pppm/tip4p/omp
Neighbor list info ...
  update every 1 steps, delay 7 steps, check yes
  max neighbors/atom: 2000, page size: 100000
  master list distance cutoff = 10.8154
  ghost atom cutoff = 10.8154
  binsize = 5.4077, bins = 4 4 5
  1 neighbor lists, perpetual/occasional/extra = 1 0 0
  (1) pair lj/cut/tip4p/long/omp, perpetual
      attributes: half, newton on, omp
      pair build: half/bin/newton/omp
      stencil: half/bin/3d
      bin: standard
Setting up Verlet run ...
  Unit style    : real
  Current step  : 5500000
  Time step     : 2
  Walltime left : 23:49:59.94
Per MPI rank memory allocation (min/avg/max) = 10.20 | 10.20 | 10.22 Mbytes
Step Temp PotEng TotEng E_pair E_mol Press Lx Ly Lz Volume Pxx Pyy Pzz Pxy Pxz Pyz Enthalpy 
 5500000    249.43192   -3899.6066   -3472.0888   -3899.6066            0    1076.2631    18.057234    21.269036    22.029783    8460.7576    692.32178     495.1362    2041.3312    1011.7185   -242.08917    863.33007   -3339.2871 
 5501000    253.41824   -3939.6816   -3505.3314   -3939.6816            0    -1115.904    18.136851    21.362815    22.126916    8573.1668   -722.37672    -1481.773   -1143.5623    817.29754    285.67704    275.52372   -3644.8538 
 5502000    255.81203   -3960.8276   -3522.3745   -3960.8276            0    1523.8614    18.085557    21.302398    22.064338    8500.6334    858.54938    1957.2436    1755.7912    1038.7515    700.80349    421.53082   -3333.4568 
 5503000    246.96437    -3948.044   -3524.7556    -3948.044            0    150.13101     18.07982     21.29564    22.057338    8492.5455    2049.5113   -315.35387   -1283.7644    336.67158   -1244.1486    581.08452   -3506.1611 
 5504000    240.90827   -3982.5062   -3569.5977   -3982.5062            0    729.55409    18.073474    21.288165    22.049596    8483.6058    -820.4013    1566.0156     1443.048   -712.78325    -468.3609    599.57768   -3479.3339 
 5505000    246.46946   -3933.9294   -3511.4892   -3933.9294            0     713.1298    18.003537    21.205789    21.964273     8385.503    1213.5212   -267.50965    1193.3778    52.925457   -1656.0553    690.33563   -3424.2778 
 5506000    247.76016   -3936.1317   -3511.4793   -3936.1317            0    1981.6121    18.053175    21.264255    22.024831    8455.0529    2081.8447    1800.0196    2062.9721    1184.5096    796.46536    473.13018   -3267.1301 
 5507000    247.17159   -3914.1418   -3490.4982   -3914.1418            0     475.4322    18.017865    21.222665    21.981753    8405.5389    582.68492   -514.14626    1357.7579    1034.3275    -585.4472    519.91404   -3432.2167 
 5508000    253.49548    -3905.354   -3470.8714    -3905.354            0    515.74628    18.004886    21.207378    21.965919    8387.3883    382.68221   -60.299407     1224.856    455.14001   -951.94754    801.88913   -3407.7846 
 5509000    244.22223   -3887.1438   -3468.5553   -3887.1438            0    1248.9214    18.007762    21.210765    21.969428    8391.4082    1808.5988     654.0714    1284.0939   -127.60615   -255.94883    739.22062   -3315.7122 
 5510000    250.29419   -3917.6475   -3488.6518   -3917.6475            0    1040.4908    17.939502    21.130363     21.88615    8296.3432    1696.5395    681.38437    743.54861    2427.8578   -39.410757    237.72428    -3362.759 
 5511000    247.94128    -3922.627   -3497.6641    -3922.627            0   -1416.7955    18.096369    21.315132    22.077528    8515.8874    504.86084   -2492.7392    -2262.508   -1574.5766    496.71629   -1151.2678   -3673.6237 
 5512000    255.24193    -3907.313    -3469.837    -3907.313            0    719.15115    18.095483    21.314089    22.076447    8514.6367     879.3331    844.34315    433.77719   -167.79326    173.97336   -82.314951   -3380.5348 
 5513000     243.8129   -3902.3541   -3484.4671   -3902.3541            0    674.36329    18.041186    21.250134    22.010204    8438.2193    777.50492    2134.7242   -889.13924   -287.43125    -829.3666   -298.70293   -3401.4781 
 5514000    240.94125   -3958.8773   -3545.9123   -3958.8773            0     1940.664    18.004269    21.206651    21.965167    8386.5259    1587.3981    1296.6965    2937.8975    111.44912   -711.39378    1581.4164   -3308.5518 
 5515000    249.85347   -3963.6501   -3535.4098   -3963.6501            0   -177.20781    18.149237    21.377404    22.142027    8590.7428    254.40402   -93.539106   -692.48836   -445.14383    599.77903   -440.23871   -3557.6117 
 5516000    258.50262   -3964.5287   -3521.4641   -3964.5287            0    468.13069    18.176108    21.409055     22.17481    8628.9566    524.24125   -462.41258    1342.5634   -331.01153    764.21594    837.03081   -3462.5524 
 5517000     259.3663   -3973.5209    -3528.976   -3973.5209            0    629.38586    18.154407    21.383493    22.148334    8598.0861    151.21936    1134.1004    602.83784    333.25957    204.89136    531.45072   -3450.0546 
 5518000    241.33406   -3996.8276   -3583.1893   -3996.8276            0    731.33448    18.144668    21.372023    22.136453    8584.2567     118.1461    1139.3168    936.54059    -399.7948   -396.45665    -261.4049   -3491.6317 
 5519000    235.68092   -3958.9484   -3554.9994   -3958.9484            0   -688.51546     18.20723    21.445712    22.212778    8673.3569   -1271.5389   -529.94006   -264.06741    358.25866   -19.389095   -289.41627   -3642.0911 
 5520000    226.33435   -3964.9262   -3576.9969   -3964.9262            0     860.9339    18.133119    21.358419    22.122363    8567.8756   -1773.7806    3390.3364    966.24592    859.45718    237.30261   -404.35266     -3469.42 
 5521000    255.43237   -3974.4027   -3536.6004   -3974.4027            0    2295.7522    17.981374    21.179683    21.937234    8354.5716    2109.5227     2209.326    2568.4078    537.69059   -594.77935    1028.1268   -3256.8794 
 5522000    251.08511   -3942.6865   -3512.3352   -3942.6865            0    1086.2553    18.074959    21.289914    22.051408    8485.6978     1023.009    997.02302    1238.7339   -489.63715    27.261501     -468.561   -3377.9055 
 5523000    233.07757   -3953.3687   -3553.8817   -3953.3687            0     293.7396    18.102636    21.322514    22.085174    8524.7384    -639.7537     982.0558    538.91669    263.75934   -594.70985   -225.53927   -3517.3626 
 5524000    266.04062   -3930.1512   -3474.1667   -3930.1512            0   -120.39582    18.169413    21.401169    22.166642    8619.4252   -589.05075    1137.2691   -909.40585   -688.95148   -138.47343    587.41939   -3489.3011 
 5525000    246.92705   -3962.3272   -3539.1027   -3962.3272            0    2044.9835    18.171443    21.403559    22.169118    8622.3137    1925.3016    2604.7328     1604.916    -724.3778   -123.13428   -425.73646   -3281.9509 
 5526000    247.91365   -3921.1291   -3496.2136   -3921.1291            0    1057.1517    18.195554    21.431959    22.198533    8656.6809   -68.922345    1222.5852    2017.7921   -742.84972    302.43336   -728.49516   -3362.7494 
 5527000    257.45109   -3942.0398   -3500.7774   -3942.0398            0     492.2417    18.175257    21.408052    22.173771    8627.7446   -76.752197    1696.6613   -143.18403    362.83546    107.75546   -411.99914   -3438.8402 
 5528000    241.90095   -3945.9298   -3531.3199   -3945.9298            0     961.9618    18.145016    21.372433    22.136878    8584.7507    1139.2775     1128.823    617.78492   -754.68267    691.57839    221.97593   -3410.8825 
 5529000    235.69246   -3952.3575   -3548.3887   -3952.3575            0    563.77034    18.137263    21.363301    22.127419    8573.7511    245.98484     1330.225    115.10122    31.625035    957.99644    138.41152   -3477.8952 
 5530000    249.48687   -3926.3039    -3498.692   -3926.3039            0    319.30588     18.19774    21.434534      22.2012    8659.8018   -964.00847    1945.9938   -24.067713   -175.57775    239.00526    157.34112   -3458.3655 
 5531000    242.46163   -3906.9755   -3491.4046   -3906.9755            0    604.83753    18.177017    21.410125    22.175918    8630.2512    585.78244    1469.7401   -241.00997     716.1909    1012.1749   -584.81695   -3415.2777 
 5532000    244.57299   -3910.7563   -3491.5666   -3910.7563            0   -32.845287    18.140876    21.367556    22.131827    8578.8757   -479.15929    192.96524    187.65819   -548.92796    434.61759   -1376.6796    -3495.676 
 5533000    251.56737   -3950.0611   -3518.8833   -3950.0611            0    1110.9474    18.176745    21.409804    22.175586    8629.8633    1597.1882    990.31835    745.33572   -202.60957   -1210.4692   -92.820199    -3379.062 
 5534000    237.30893   -3951.9587   -3545.2193   -3951.9587            0    656.21542    18.186787    21.421632    22.187837    8644.1742    1463.6174    292.27613    212.75268   -459.29578    516.64145     695.2739   -3462.4925 
 5535000    241.25573   -3973.9516   -3560.4476   -3973.9516            0    164.09579    18.133724    21.359132    22.123102    8568.7333   -775.45856    1448.7767   -181.03076   -669.04683   -46.853051    100.07421   -3539.9411 
 5536000    242.77382   -3963.9709   -3547.8649   -3963.9709            0    831.99493    18.110593    21.331887    22.094882    8535.9846    2212.9259    1731.2545   -1448.1956   -244.69584   -321.37473    1010.1987    -3444.291 
 5537000    253.75958   -3960.6815   -3525.7462   -3960.6815            0    356.33103     18.07206    21.286499    22.047871    8481.6148   -240.96673   -403.04178    1713.0016    119.53803   -298.58952   -893.62009   -3481.6696 
 5538000    239.89661    -3923.876   -3512.7014    -3923.876            0    1136.9298    18.079266    21.294987    22.056662    8491.7646     1481.131    1850.5797    79.078643   -847.27924   -519.02035     -1128.83   -3371.8998 
 5539000    242.96028   -3922.7488   -3506.3232   -3922.7488            0    587.07028    18.026862    21.233262    21.992729    8418.1369    1353.2259    -1148.879     1556.864    1152.5499    209.76758   -634.28333   -3434.2487 
 5540000    242.54212   -3957.5042   -3541.7953   -3957.5042            0    719.96646    18.039178    21.247768    22.007754    8435.4021    887.78901    310.67286    961.43751     458.1752   -140.37016   -729.43581   -3453.2238 
 5541000    243.36928   -3943.5188   -3526.3921   -3943.5188            0     740.4725    18.058204    21.270179    22.030967    8462.1219     1038.163    278.19295    905.06155    123.51428    1210.3978    432.75175   -3435.0094 
 5542000    240.41956   -3932.5533   -3520.4824   -3932.5533            0     -412.208    18.108835    21.329816    22.092737    8533.4989    633.98166   -2469.3868    598.78119    288.16904    -108.1829   -1267.7896   -3571.7827 
 5543000    250.10294   -3905.7265   -3477.0587   -3905.7265            0    1195.3078    18.044642    21.254204    22.014421    8443.0698    142.46969    2210.4516    1233.0019    172.57492    560.61821    686.62463   -3329.8762 
 5544000    242.30849    -3917.507   -3502.1986    -3917.507            0    1624.8847    18.006079    21.208783    21.967374     8389.055    1134.4915    1904.9573    1835.2051    745.95899   -132.40889    688.07724   -3303.4008 
 5545000    234.43095   -3957.2758   -3555.4692   -3957.2758            0    1153.4363    17.993418     21.19387    21.951928    8371.3713    2667.0714     591.3385    201.89893   -1356.1264   -238.24016   -728.50868   -3414.6486 
 5546000     252.6322   -3924.5753   -3491.5724   -3924.5753            0    2078.1932    18.011873    21.215608    21.974443    8397.1565    2378.7685    839.17382    3016.6372   -685.16275    382.55244     1094.226   -3237.0687 
 5547000    253.73907   -3961.6417   -3526.7416   -3961.6417            0   -144.55719    18.074805    21.289733     22.05122    8485.4805    385.39482   -639.87006   -179.19633   -711.25475    494.19575   -450.77445   -3544.6309 
 5548000    248.99642   -3940.5553    -3513.784   -3940.5553            0    1311.5079    18.073582    21.288292    22.049727    8483.7578    1582.1695    1677.6232    674.73111   -124.85529    281.70587    602.89976   -3351.5152 
 5549000    246.58918   -3913.7915   -3491.1461   -3913.7915            0   -1279.6636    18.129747    21.354447    22.118249    8563.0961   -468.06533   -439.94033   -2930.9852   -44.782789     971.4879     874.0733   -3650.9555 
 5550000     244.5299    -3935.214   -3516.0981    -3935.214            0    2779.5621    18.014805     21.21906    21.978019    8401.2566    3441.9165    2044.7667    2852.0032   -149.88679    1313.7642   -574.88133   -3175.5359 
 5551000    251.01918   -3937.0352   -3506.7969   -3937.0352            0    1460.9426    18.070909    21.285143    22.046466    8479.9942     1883.271    1142.3562    1357.2006   -232.80213   -812.30261    232.14228   -3326.1192 
 5552000    238.46154   -3934.1014   -3525.3864   -3934.1014            0    1502.6707    17.920446    21.107918    21.862902    8269.9331    1307.3344    2456.2833    744.39439    844.76135    1138.8348   -423.26001   -3344.1516 
 5553000    249.05272   -3952.8072   -3525.9393   -3952.8072            0    1453.4801     17.97971    21.177723    21.935204    8352.2526     236.5868    2355.0262    1768.8273    1107.4903     532.2874    1457.3641   -3348.8923 
 5554000    248.25847   -3896.0744   -3470.5678   -3896.0744            0    3120.0972    17.946521    21.138631    21.894713    8306.0851    2322.4037      3076.94     3960.948    471.88941    -1542.156    128.88308   -3092.6126 
 5555000    244.85224   -3920.8868   -3501.2185   -3920.8868            0    479.85166    17.972937    21.169746    21.926942    8342.8179   -299.84141    391.47328    1347.9231    1045.2091   -473.81782   -497.80358   -3442.8342 
 5556000    259.18191   -3922.4147   -3478.1857   -3922.4147            0    612.61502    18.063244    21.276115    22.037115    8469.2084    1912.1191   -1429.7161    1355.4421    119.63139   -774.25344    -337.7816   -3402.5188 
 5557000    248.68366   -3943.7878   -3517.5525   -3943.7878            0    -147.8377    18.204481    21.442475    22.209425    8669.4297   -220.03044   -243.10834    19.625675    542.48489   -42.336864   -32.582287   -3536.2443 
 5558000    247.01745   -3940.0513   -3516.6719   -3940.0513            0    550.66019    18.048829    21.259136    22.019529    8448.9483     807.9948    571.53047    272.45531   -269.42493   -381.53125   -25.950802   -3448.8199 
 5559000    251.95795   -3951.6182   -3519.7709   -3951.6182            0    1813.7746    18.036556    21.244681    22.004557    8431.7254    1493.9282    2782.6097    1164.7861    1328.7382   -527.64526   -855.40268   -3296.7346 
 5560000    243.30187   -3966.6654   -3549.6543   -3966.6654            0     844.8678    18.036187    21.244246    22.004106    8431.2079    1645.5743    643.73978    245.28933    555.59827   -1158.6127    298.54484   -3445.7689 
 5561000    237.51793   -3949.4397    -3542.342   -3949.4397            0    876.25893    18.038304    21.246739    22.006688    8434.1762    1814.8612    582.66772    231.24788    2113.4534   -403.17375   -1147.0276   -3434.5589 
 5562000    243.67825   -3916.4665   -3498.8103   -3916.4665            0    1105.7751    18.147105    21.374892    22.139425    8587.7148    1159.5396   -299.35797    2457.1438    859.31047   -108.07434    260.92635   -3360.3197 
 5563000    265.54408   -3945.6722   -3490.5387   -3945.6722            0    734.50097    18.122731    21.346183    22.109689    8553.1583   -290.27077    1533.5456    960.22807     156.3558   -66.550086    1063.7718   -3398.9178 
 5564000    255.29098   -3961.1556   -3523.5956   -3961.1556            0    1248.9505     18.07923    21.294945    22.056618    8491.7145    1221.9601    2076.3615    448.52977   -427.38615   -1.6286938   -243.89683   -3368.9219 
 5565000    238.21309    -3968.584   -3560.2949    -3968.584            0    618.42707    18.051287    21.262031    22.022528    8452.4009    512.61027    198.24534    1144.4256   -175.81366   -6.5469425   -371.02305   -3484.0617 
 5566000    256.11127   -3948.1442   -3509.1782   -3948.1442            0    1786.2382     18.07083    21.285051    22.046371    8479.8838    2126.2196    793.35043    2439.1444    176.43124   -659.11658   -277.11282   -3288.2734 
 5567000    228.28433   -3951.6186   -3560.3471   -3951.6186            0    1024.2814    18.160646    21.390842    22.155946    8606.9536    1249.2181    127.05314     1696.573    1092.3977    22.186663    1120.3549   -3431.7756 
 5568000    244.68417   -3947.2184   -3527.8381   -3947.2184            0    758.60302    18.141894    21.368755    22.133068    8580.3193    2263.4738    977.35856   -965.02332    710.93829    24.623758    1283.7249   -3432.9102 
 5569000    236.08274   -3964.1468   -3559.5091   -3964.1468            0    577.25511    18.190396    21.425884    22.192241    8649.3221    659.45735   -251.69488    1324.0029   -114.70548    214.88126    384.59315   -3486.6933 
 5570000     245.1776   -3941.4693   -3521.2433   -3941.4693            0    1540.7811    18.267225    21.516378    22.285972    8759.3792    1102.8545    1790.6013    1728.8875    614.27617   -550.13631   -314.27715   -3324.4138 
 5571000    242.35945   -3963.6372   -3548.2414   -3963.6372            0    162.59536    18.250573    21.496764    22.265656    8735.4461    126.99316   -258.48368    619.27661    582.86413   -77.125363    -1232.803   -3527.5272 
 5572000    263.67942   -3937.4974   -3485.5599   -3937.4974            0    676.56164    18.224789    21.466394      22.2342    8698.4749    180.43648    93.407979    1755.8405   -814.16909    783.02521   -792.46954   -3399.7324 
 5573000     232.8657    -3981.444   -3582.3202    -3981.444            0    149.36027    18.266937    21.516039     22.28562    8758.9646     546.4383   -544.21033    445.85283    665.12495    1002.1022    6.8871897   -3563.2408 
 5574000    246.14354   -3979.6368   -3557.7552   -3979.6368            0    1192.7515    18.239045    21.483185    22.251592     8718.903   -1070.5557    456.96939    4191.8409   -746.19115    147.33455   -43.195314   -3406.0893 
 5575000    242.90928   -3949.4557   -3533.1175   -3949.4557            0     248.0812    18.218358    21.458819    22.226354    8689.2694    1302.8587    -1221.139    662.52393    143.60594   -519.73789    564.93828   -3501.6796 
 5576000    246.21154     -3948.34   -3526.3419     -3948.34            0    778.26269    18.176245    21.409215    22.174976    8629.1509    1206.3538   -503.94445    1632.3787    597.82044    535.37274   -307.04449   -3428.3996 
 5577000    245.53874   -3978.6416   -3557.7966   -3978.6416            0    652.08228    18.244399    21.489492    22.258124     8726.584   -167.73878     420.0208    1703.9648   -102.70016   -486.12987     712.9475   -3474.8072 
 5578000    252.28913   -3920.2402   -3487.8253   -3920.2402            0    754.78582    18.252493    21.499026    22.267999    8738.2035    1553.9118   -347.03313    1057.4788    434.68463    863.43081   -582.17596   -3391.6371 
 5579000    253.25035   -3970.0039   -3535.9415   -3970.0039            0    636.46104    18.229904    21.472419    22.240441    8705.8013    1757.2802    61.537116    90.565776   -171.31114   -317.11849   -246.27446   -3455.1331 
 5580000    259.92431   -3935.7821   -3490.2807   -3935.7821            0    479.23935    18.181173     21.41502    22.180988    8636.1714    -453.8538    -1354.967    3246.5389     56.50338   -193.21603   -820.54603   -3429.9207 
 5581000    245.42533   -3949.5876    -3528.937   -3949.5876            0   -1174.8921    18.215573    21.455539    22.222957    8685.2861    -645.6236   -1763.2969   -1115.7557    538.61176    854.65455    7.3422092   -3677.7559 
 5582000    234.97668   -3948.3957   -3545.6537   -3948.3957            0    1134.8769    18.177996    21.411278    22.177113    8631.6458    2306.1062   -4.4673172     1102.992    405.35674   -647.13256   -179.53452   -3402.7912 
 5583000    227.07659   -3946.8542   -3557.6527   -3946.8542            0    -356.3896    18.295527    21.549715    22.320501    8800.1563   -495.36545   -666.92434    93.121003   -317.36389    300.57309   -653.63323   -3603.3922 
 5584000    246.07283     -3929.62   -3507.8596     -3929.62            0    407.42194    18.170736    21.402727    22.168255    8621.3074     505.1223    1480.1914    -763.0479     657.2363    178.79921   -14.924826   -3456.6332 
 5585000     243.2949   -3964.5929   -3547.5937   -3964.5929            0    466.78373    18.217036    21.457263    22.224742    8687.3789    615.28272   -302.85766    1087.9261    663.30385    922.01148    65.777235   -3488.4539 
 5586000    251.79841   -3973.1118    -3541.538   -3973.1118            0    705.19781    18.182032    21.416032    22.182036    8637.3959     1482.438   -407.11955    1040.2749    281.80613    209.57552    93.649211   -3452.7059 
 5587000    245.81286   -3976.9053   -3555.5905   -3976.9053            0    894.00826    18.250709    21.496925    22.265823    8735.6423     1924.049    143.50576       614.47   -468.33408    1229.0237   -626.75284   -3441.6935 
 5588000    248.59221   -3949.3566    -3523.278   -3949.3566            0    1240.3188    18.229927    21.472446    22.240468    8705.8334    1123.2398    1468.6644    1129.0523    443.86198   -153.19691    269.93373   -3365.8001 
 5589000    240.99067   -4016.1796   -3603.1298   -4016.1796            0   -370.34184     18.22103    21.461966    22.229614    8693.0931   -330.06014   -776.61924    -4.346144   -106.62392    495.88317   -472.76535   -3650.0817 
 5590000    244.99708   -3983.0396    -3563.123   -3983.0396            0    1530.5301    18.225813      21.4676    22.235449    8699.9415    1952.6991    1391.0165    1247.8748    103.43468    1384.9829    302.90016   -3368.9297 
 5591000    237.72562   -3980.8409   -3573.3873   -3980.8409            0    1023.6054    18.139855    21.366353     22.13058    8577.4265    553.87293    1830.5501    686.39319   -998.90677    535.64895    238.47048   -3445.3415 
 5592000    249.14032   -3969.5765   -3542.5585   -3969.5765            0    1000.8941    18.231499    21.474298    22.242387    8708.0869    2107.9654    209.01439    685.70242   -496.34759    38.617252   -600.78949   -3415.4465 
 5593000    241.15268   -3983.0122   -3569.6847   -3983.0122            0   -210.31673    18.274899    21.525417    22.295334    8770.4235   -563.96162    -563.8507    496.86213   -344.38882    539.04617    221.23648   -3596.5858 
 5594000    254.48358   -3992.1864   -3556.0103   -3992.1864            0    1277.2344    18.217673    21.458013    22.225519    8688.2901    1496.6546    1975.9525    359.09593   -210.26723    594.49259   -436.11466   -3394.1722 
 5595000    228.98578   -3957.7267   -3565.2529   -3957.7267            0    2408.1251    18.171171    21.403239    22.168786    8621.9265    3523.6074    234.76705     3466.001    1556.8734    833.06834   -854.77234   -3262.4505 
 5596000     252.3994   -3953.5677   -3520.9638   -3953.5677            0    175.21317    18.262615    21.510948    22.280347    8752.7485    264.84676   -421.43229    682.22504    368.38551    1069.6068    10.605635   -3498.5979 
 5597000    246.20831   -3974.3996    -3552.407   -3974.3996            0   -278.32149    18.208953    21.447742     22.21488    8675.8199     16.39894   -1516.7426    665.37918    93.394274   -597.09738    460.90776   -3587.6225 
 5598000    238.10802   -3993.6475   -3585.5385   -3993.6475            0    -775.7522    18.219871    21.460601      22.2282    8691.4348   -1721.7768    535.98763   -1141.4674    28.668775    606.00718   -432.51137   -3683.8695 
 5599000    248.25291   -3969.1555   -3543.6585   -3969.1555            0   -241.50029    18.237365    21.481207    22.249543    8716.4946    855.00036   -1178.5404   -400.96085    40.689486    232.99586   -692.91365   -3574.3582 
 5600000    245.44526   -3995.8093   -3575.1246   -3995.8093            0   -653.09895    18.255969     21.50312     22.27224     8743.197   -936.53866   -1208.0462    185.28796    617.72652   -427.48857   -140.40992   -3658.4016 
 5601000    236.72751   -3994.4945   -3588.7517   -3994.4945            0    947.14535    18.161301    21.391613    22.156744    8607.8846    1679.5262    1308.3132   -146.40335    1856.3396   -459.71668   -414.19267   -3469.8497 
 5602000    254.61727   -3982.0918   -3545.6865   -3982.0918            0    682.01815    18.260294    21.508214    22.277516    8749.4124   -92.279206     418.8448    1719.4889    777.60827   -634.13502   -407.54742   -3458.6602 
 5603000    239.03798   -3947.8709    -3538.168   -3947.8709            0     -738.722    18.382531    21.652193    22.426644       8926.3   -2204.2826    65.546132    -77.42953    1198.1549     1409.615   -30.679394   -3634.3355 
 5604000    242.54186   -3972.8688   -3557.1603   -3972.8688            0   -328.59718    18.359697    21.625298    22.398788    8893.0788     -893.138   -157.36618    64.712644    2181.0492    195.32787   -159.52688   -3599.7782 
 5605000    265.01977   -3993.7133   -3539.4785   -3993.7133            0    538.02267    18.290687    21.544014    22.314596     8793.174    424.93017    353.59502    835.54283    1452.8875   -1770.5016   -272.28533   -3470.4828 
 5606000    240.06107   -4017.3216   -3605.8652   -4017.3216            0   -70.649891    18.264559    21.513238     22.28272    8755.5448   -164.21777   -576.59412    528.86222    863.90945   -877.95912   -237.40382   -3614.8865 
 5607000    240.75888   -4004.4136   -3591.7611   -4004.4136            0    1272.7458    18.272663    21.522784    22.292606    8767.2044    1223.0037    1548.0907     1047.143    292.05011    526.23031    330.52913    -3429.027 
 5608000     227.0622   -3946.3157   -3557.1389   -3946.3157            0    1531.7421    18.328142     21.58813     22.36029    8847.3031    1930.7857    516.03718    2148.4035    947.72642   -444.17617    1154.7934      -3359.5 
 5609000    250.53032   -4012.0295   -3582.6291   -4012.0295            0   -153.40548    18.245553    21.490851    22.259532      8728.24    -667.8653    30.114596    177.53425   -836.79685   -286.32684   -1135.5655   -3602.1565 
 5610000    233.73571   -3985.6378   -3585.0228   -3985.6378            0    45.257094    18.321196    21.579949    22.351816    8837.2482   -163.28948    49.399597    249.66117    1239.7288   -297.42941    567.22953     -3579.19 
 5611000     253.1434   -4004.1875   -3570.3084   -4004.1875            0    230.92246    18.285687    21.538124    22.308495    8785.9644   -552.34988   -199.51822    1444.6355   -315.16402    608.90864     426.6929   -3540.7193 
 5612000      240.844   -3984.4892   -3571.6908   -3984.4892            0    810.70458    18.254648    21.501564    22.270628    8741.2989    447.46254    140.68211    1843.9691   -397.93352   -554.32897    -1229.315   -3468.3399 
 5613000    245.80152   -3986.1103   -3564.8149   -3986.1103            0    946.24732    18.262538    21.510858    22.280254    8752.6387    81.522452    1168.0695      1589.15    964.04549      205.254   -501.47089   -3444.0281 
 5614000    258.05362   -3978.9489   -3536.6538   -3978.9489            0    -71.13946    18.336607      21.5981    22.370617    8859.5668   -87.399607      635.767   -761.78578    747.68076    344.28342   -225.04164   -3545.8456 
 5615000    257.90582   -3978.9844   -3536.9426   -3978.9844            0    620.57704    18.207628    21.446181    22.213264    8673.9263   -24.528087    1450.3638    435.89539    142.21617   -627.64011    361.54434   -3458.4394 
 5616000    229.76434   -3973.7715   -3579.9633   -3973.7715            0    1028.2871    18.252368    21.498879    22.267847    8738.0248    685.56771    2039.9217    359.37184    640.88856   -1207.2401   -88.227391   -3448.9234 
 5617000    240.96213   -4024.1563   -3611.1555   -4024.1563            0    1841.1472    18.185335    21.419923    22.186067     8642.105    1187.5671     3047.509    1288.3655    615.15627    20.650269   -627.26939   -3379.1042 
 5618000     239.0837     -4022.35   -3612.5687     -4022.35            0    359.52698    18.255571    21.502651    22.271754    8742.6247   -196.01069   -255.57315    1530.1648    508.99866    60.752304    674.61494   -3566.7282 
 5619000    252.39311   -3989.5575   -3556.9644   -3989.5575            0    614.02826    18.292195     21.54579    22.316435     8795.349    449.91371     424.0294    968.14166    7.4116426   -923.30099     537.6114   -3478.2023 
 5620000    243.67117   -4000.0824   -3582.4384   -4000.0824            0    1887.2947    18.208182    21.446833    22.213939    8674.7171     1839.281    2374.8736    1447.7295    1222.4944   -1177.2406    129.13198   -3343.6732 
 5621000    243.55792   -4001.8365   -3584.3866   -4001.8365            0     461.0734    18.246086     21.49148    22.260183    8729.0056    -736.7205    1071.2585    1048.6822    88.970569    54.283316    210.18188   -3525.6903 
 5622000    260.07545   -3986.4197   -3540.6593   -3986.4197            0   -748.21257    18.241668    21.486276    22.254793     8722.666    566.91664   -1256.3287   -1555.2257    811.40176   -506.83348    490.34976   -3635.8403 
 5623000    234.59672   -3994.7793   -3592.6886   -3994.7793            0    230.80981    18.193628    21.429691    22.196184    8653.9331    958.56885   -996.90258    730.76316    1098.0753    224.09819    168.53667   -3563.5584 
 5624000    254.25378   -3968.3315   -3532.5492   -3968.3315            0    -99.87676    18.227565    21.469664    22.237586    8702.4501   -119.00353   -60.836698   -119.79005     1026.517   -1421.7702   -489.39204   -3545.2252 
 5625000    255.89158   -3953.7492   -3515.1598   -3953.7492            0    627.15271     18.22437      21.4659    22.233688    8697.8746   -41.932953   -166.10599    2089.4971    11.699798    258.32131   -187.74848   -3435.6057 
 5626000    238.24174   -3961.9262    -3553.588   -3961.9262            0    2436.7566     18.11409    21.336005    22.099147    8540.9294    2923.6381    1996.3166    2390.3151   -1658.0231   -797.14073   -705.16488   -3250.0639 
 5627000    252.83435    -3982.933   -3549.5836    -3982.933            0    2167.8122    18.137488    21.363565    22.127693    8574.0698    2526.7547      1499.56    2477.1219     26.13742   -808.69913     76.33139   -3278.5117 
 5628000    252.40621   -3971.3289   -3538.7133   -3971.3289            0    1061.7773    18.192807    21.428723    22.195181    8652.7606    1048.0058    827.04844    1310.2777   -629.35243    887.19462    218.47038   -3404.7258 
 5629000    260.98851   -3967.8144    -3520.489   -3967.8144            0   -519.61589    18.198503    21.435433    22.202131    8660.8914   -1015.0515    302.77501   -846.57116   -920.00455    12.730583    485.94195   -3586.1218 
 5630000    242.49102   -4001.4072   -3585.7859   -4001.4072            0    1656.6473    18.138745    21.365046    22.129227    8575.8525    1423.6413    935.18958    2611.1111    346.72753   -486.51959    690.51078    -3378.589 
 5631000    243.14271   -4016.3295   -3599.5912   -4016.3295            0    683.79516    18.202264    21.439862    22.206719    8666.2614   -838.73645    402.17715    2487.9448     557.8221    170.14489   -290.14515   -3513.1674 
 5632000    248.23286   -3963.9318   -3538.4692   -3963.9318            0   -229.63609    18.274133    21.524515    22.294399    8769.3201   -1336.6123    400.72105    246.98298     745.9259    416.84069    204.36854   -3567.8377 
 5633000    243.76877   -4002.1282   -3584.3169   -4002.1282            0    -338.5706    18.222305    21.463468    22.231169     8694.918   -997.77657    336.30609   -354.24131    967.99695   -435.74212   -908.51872   -3627.2498 
 5634000    232.14437   -3989.0644   -3591.1769   -3989.0644            0    1149.5208    18.126048     21.35009    22.113736    8557.8557    282.36388    2204.0705    962.12802   -824.46017   -6.9718541    686.76642    -3447.708 
 5635000    239.95764   -3984.1217   -3572.8425   -3984.1217            0   -393.20407    18.208876     21.44765    22.214786    8675.7092    118.55054   -1349.4643    51.301578   -187.20677   -367.77515    30.087808   -3622.5931 
 5636000    235.78851   -3946.8734   -3542.7399   -3946.8734            0   -682.36127    18.282606    21.534495    22.304737    8781.5245   -1353.9071    45.510556   -738.68724  -0.29969346    226.80755   -610.82376   -3630.1296 
 5637000    230.50421   -3952.5632   -3557.4869   -3952.5632            0    713.82159    18.261525    21.509664    22.279018    8751.1817    620.20563    37.061522    1484.1976   -45.395207   -675.53364    70.880407    -3466.384 
 5638000    258.71348    -3989.342   -3545.9159    -3989.342            0    389.03729    18.213695    21.453326    22.220665    8682.5988   -758.01469   -199.81661    2124.9432    220.42479    376.90791    1427.5939   -3496.6534 
 5639000    231.24611   -3996.4769   -3600.1289   -3996.4769            0   -768.69931    18.258886    21.506556    22.275798    8747.3885   -1566.4256    408.71146   -1148.3838    37.938801   -275.52222    952.53954   -3698.1932 
 5640000    256.02352   -3980.5879   -3541.7723   -3980.5879            0    92.477705    18.191624     21.42733    22.193738    8651.0729   -1394.8136    1670.7804    1.4662789    -464.5165    404.73579    369.12207   -3530.1047 
 5641000    247.74387   -3969.6514   -3545.0269   -3969.6514            0    673.47688    18.079329    21.295061    22.056739    8491.8537   -272.58855    2175.0093    118.00984   -2.6164394   -1023.2391    -941.7208   -3461.6202 
 5642000    245.24981   -3971.1705   -3550.8207   -3971.1705            0    365.36394     18.14087    21.367548    22.131819    8578.8663    355.26319    2198.3723   -1457.5437   -1540.3275   -766.69348   -138.74543   -3505.1086 
 5643000    242.11652   -3966.9992   -3552.0198   -3966.9992            0   -472.16697    18.221678     21.46273    22.230405    8694.0218   -714.35772   -1150.6988    448.55563    1253.6377    893.02037   -309.16418   -3611.8874 
 5644000     245.7983   -3961.8204   -3540.5306   -3961.8204            0    1809.2604    18.133489    21.358854    22.122814     8568.399    1333.5627    3179.4187     914.7999    696.54198    566.90453   -1234.0207    -3314.443 
 5645000    250.06609   -3944.5536   -3515.9489   -3944.5536            0    738.56588    18.172577    21.404896    22.170502    8623.9287   -302.42539    2103.5073     414.6157    92.153945    402.53274   -464.73199   -3423.0586 
 5646000    242.30491   -3953.8753   -3538.5729   -3953.8753            0   -22.147328    18.226189    21.468043    22.235908    8700.4796   -393.07548    477.47929    -150.8458   -52.268849   -72.536525    61.979905   -3541.3832 
 5647000    238.46321   -3981.7568    -3573.039   -3981.7568            0    1162.8766    18.111181    21.332579    22.095599    8536.8161    1715.8175     1.462559    1771.3498    1041.7346   -792.73421   -259.36414     -3428.26 
 5648000    237.32329   -3992.9087   -3586.1447   -3992.9087            0   -817.72983    18.104769    21.325027    22.087776     8527.752   -1140.5753   -133.80604   -1178.8082   -340.59866    622.35656   -577.24757   -3687.8445 
 5649000    266.77402   -3944.7295   -3487.4879   -3944.7295            0    234.59913    18.072582    21.287115    22.048508    8482.3506   -685.58053    1188.9465    200.43136   -1409.6214   -638.29452   -814.32427   -3458.4665 
 5650000    240.01383   -3973.1089   -3561.7334   -3973.1089            0    721.89658    18.028164    21.234796    21.994318    8419.9613    1447.2361   -327.53909    1045.9928   -371.94083   -1139.1057   -521.76888   -3473.0871 
 5651000    242.83444   -3933.9125   -3517.7026   -3933.9125            0   -469.25553    18.032839    21.240303    22.000022    8426.5138   -2074.0382   -191.50719    857.77877    703.63945   -611.84527   -645.22986   -3575.3704 
 5652000    238.43921   -3969.6738   -3560.9971   -3969.6738            0    1692.0999    17.911162    21.096982    21.851575    8257.0867    322.20765    1604.0269    3150.0651     934.4613   -199.62799    844.43704   -3357.2325 
 5653000    244.38201   -3945.1717   -3526.3093   -3945.1717            0    394.63608    17.984908    21.183846    21.941546    8359.4994    -253.4406    166.03242    1271.3164   -69.839596    34.937589    409.11706   -3478.1974 
 5654000    234.59416   -3962.1036   -3560.0172   -3962.1036            0   -272.85253    18.019679    21.224801    21.983966    8408.0779   -905.65775      1521.17   -1434.0698    -184.8809    876.32356   -110.87457   -3593.4753 
 5655000    234.11561   -3945.8606   -3544.5944   -3945.8606            0    -381.9804     18.06652    21.279975    22.041113    8473.8181    -2018.202    93.028597    779.23219   -246.64845   -1243.4795    1115.8144   -3591.8003 
 5656000     230.0819   -3977.3785    -3583.026   -3977.3785            0    1465.6089    18.063159    21.276016    22.037012    8469.0896    82.105215    2811.0889    1503.6325    20.939768    275.40258    330.74926   -3402.0043 
 5657000    229.50371   -3955.7958   -3562.4343   -3955.7958            0     1208.975    18.048844    21.259155    22.019548    8448.9706     1789.802    558.22363    1278.8992   -73.967995   -1029.7549     335.8053    -3413.465 
 5658000     254.9606   -3994.0916   -3557.0978   -3994.0916            0    207.68279    18.091624    21.309543    22.071739    8509.1902   -605.40589    2658.4045   -1429.9502   -65.962143   -477.76591    393.76032   -3531.3249 
 5659000    236.79603   -3953.5576   -3547.6973   -3953.5576            0     567.4288    18.027367    21.233857    21.993346    8418.8448    -114.9916    1087.5353    729.74273   -666.33999   -831.83841    -52.81669   -3478.0283 
 5660000    249.07288   -3937.4476   -3510.5452   -3937.4476            0    180.59106    18.108459    21.329373    22.092277    8532.9668    1038.1343    553.83852   -1050.1997   -18.100809    360.13436   -639.35082   -3488.0717 
 5661000    226.61269   -3940.5394    -3552.133   -3940.5394            0   -839.72199    18.118077    21.340701    22.104011    8546.5704   -1580.5184    -212.8712   -725.77642    -352.4957   -260.22789    599.81223   -3656.7984 
 5662000    243.43584   -3953.9403   -3536.6996   -3953.9403            0    1505.8744    18.014363     21.21854     21.97748    8400.6383    1358.3874    2453.5081    705.72771   -839.62668    1081.9102    5.2187705   -3352.2078 
 5663000    243.43969   -3939.2269   -3521.9796   -3939.2269            0    1186.6155    18.039629    21.248301    22.008306    8436.0359    2351.6504    766.38528    441.81085   -575.13084    242.70649    526.06021   -3375.9892 
 5664000    237.50907    -3958.649   -3551.5666    -3958.649            0    1062.5147    18.061449    21.274002    22.034926    8466.6846    915.91931    335.11315    1936.5116    -344.5545    688.80852   -202.85741   -3420.3695 
 5665000    243.47501   -3941.2715   -3523.9636   -3941.2715            0    890.42437    18.123807     21.34745    22.111002    8554.6815    2150.7616   -451.09765    971.60911   -1105.2913   -161.70141    -339.3537   -3412.8732 
 5666000    249.43337   -3950.5187   -3522.9984   -3950.5187            0    1077.9387    18.094303    21.312699    22.075008    8512.9715   -417.13678    2431.9125    1219.0402   -1322.6522   -772.72637   -1257.9243   -3389.1691 
 5667000    245.87845    -3975.299   -3553.8718    -3975.299            0    557.11342    18.049209    21.259584    22.019993    8449.4822    180.65668    1484.5398     6.143764    449.77336    604.65011     126.1569   -3485.2203 
 5668000    251.82626   -3914.6185    -3482.997   -3914.6185            0    465.49106     18.15992    21.389987     22.15506    8605.9217    1121.3587   -429.52236    704.63687    749.23827    1378.0866   -1771.5192   -3424.5738 
 5669000    257.37827    -3938.297   -3497.1594    -3938.297            0   -524.37553    18.171476    21.403598    22.169158    8622.3604   -1209.6438   -244.59556    -118.8872    27.138188    10.144192    1166.4349   -3563.0987 
 5670000     247.4274   -3933.6011    -3509.519   -3933.6011            0   -58.078187    18.101125    21.320734     22.08333    8522.6035    676.87139    124.50746   -975.61342    171.18627    523.71151    -948.3224   -3516.7378 
 5671000     253.3543   -3947.4678   -3513.2272   -3947.4678            0    -434.8118    18.109887    21.331055     22.09402    8534.9865    488.70009   -1000.6264   -792.50908   -680.65874    258.29205    502.70346     -3567.35 
 5672000    247.59985     -3955.61   -3531.2324     -3955.61            0    810.74199    17.973823     21.17079    21.928023     8344.052    1871.7333    1024.1609   -463.66813   -1122.3453   -276.77119    139.85888   -3432.5736 
 5673000    237.16063   -3939.5915   -3533.1063   -3939.5915            0    936.21772    18.073131    21.287761    22.049177    8483.1231    2043.6284    1088.8212   -323.79645     -384.187    192.57575   -451.96876   -3417.2796 
 5674000    237.14317   -3951.8944   -3545.4391   -3951.8944            0    586.87609     18.08911    21.306582    22.068671    8505.6431    285.08475     1495.807   -20.263462    -983.1649    1436.4187    439.42241   -3472.6394 
 5675000    257.52468   -3970.3918   -3529.0033   -3970.3918            0    274.18486    18.105399    21.325768    22.088544    8528.6414   -634.29566    605.11215    851.73808    634.47184   -181.22727   -1406.3425   -3494.8998 
 5676000    244.90179   -3965.5462    -3545.793   -3965.5462            0    574.78132    18.000015    21.201639    21.959976    8380.5815    778.05921    1510.4109   -564.12613   -629.40792    606.09576    1205.1022   -3475.5419 
 5677000    253.99171   -3949.3509   -3514.0178   -3949.3509            0    1759.1864    17.999165    21.200639     21.95894    8379.3957    1098.4082    327.61406     3851.537    -1695.453   -396.85827    528.88506   -3299.0366 
 5678000    248.75225   -3950.4458    -3524.093   -3950.4458            0    230.11007     18.10327    21.323261    22.085947    8525.6337   -183.92146    699.11842    175.13325    89.262234   -1241.4982   -36.371926   -3495.4816 
 5679000    243.59975   -3968.0665   -3550.5449   -3968.0665            0   -814.05053    18.090372    21.308068    22.070211    8507.4238   -1171.1344   -457.76306   -813.25412   -630.78962    840.82266    741.82043   -3651.5458 
 5680000     247.5317   -3969.1396   -3544.8788   -3969.1396            0    1567.6557    18.001507    21.203398    21.961797    8382.6667    1174.4584    1704.4758     1824.033    183.48153   -503.63463    1257.1332   -3353.2288 
 5681000    249.22238    -3966.099   -3538.9403    -3966.099            0    586.02112    18.074706    21.289616    22.051099    8485.3411   -920.26129    2125.2398    553.08484    721.48104   -91.476955    797.44492   -3466.4202 
 5682000    250.09293   -3944.4103   -3515.7596   -3944.4103            0    2685.8068    18.051974    21.262841    22.023367    8453.3668    1837.4271    2919.3886    3300.6046   -929.72751   -615.60566    198.53841   -3184.6434 
 5683000    235.35912   -3936.4821   -3533.0846   -3936.4821            0     1383.216    17.991292    21.191365    21.949334    8368.4037   0.41134575    1846.7776    2302.4592    819.59558    -609.1018     152.8279   -3364.2706 
 5684000    246.19075   -3973.6005    -3551.638   -3973.6005            0    149.11782    18.104507    21.324718    22.087456    8527.3814    329.11775    1001.0902   -882.85447    364.68464   -752.50891     119.7567   -3533.0932 
 5685000    249.81465   -3941.2725   -3513.0987   -3941.2725            0    1256.2844    18.108681    21.329634    22.092548    8533.2802      37.5317    2185.1436    1546.1779   -352.64573   -746.85114   -852.08729   -3356.7552 
 5686000    240.87554   -3917.3126   -3504.4601   -3917.3126            0    1123.7886     18.12257    21.345993    22.109493    8552.9299    412.71233    2269.6358    689.01759    -648.3343    590.01702   -1531.2505   -3364.2836 
 5687000    242.01066   -3968.7681   -3553.9701   -3968.7681            0    1212.3984    18.098494    21.317635     22.08012    8518.8878    772.55946     748.9128     2115.723    277.95499   -272.45533   -277.02627   -3403.3427 
 5688000    247.14274   -3932.5213   -3508.9271   -3932.5213            0    1092.8976    18.037837    21.246189    22.006119    8433.5217    1041.8272    39.719349    2197.1463   -1147.3851   -560.52303    351.69842    -3374.507 
 5689000    240.87734   -3994.4089   -3581.5533   -3994.4089            0     589.4713    18.078112    21.293628    22.055255    8490.1393    1595.2552   -846.25439    1019.4131    104.19404    -214.3842    120.44723    -3508.565 
 5690000    246.51126   -3916.7573   -3494.2455   -3916.7573            0   -126.94561    18.073507    21.288204    22.049636    8483.6524   -920.49527   -177.39743    717.05587   -11.227653    2181.1784   -873.88527   -3509.9518 
 5691000    243.96345   -3955.1784   -3537.0334   -3955.1784            0    -253.9096    18.155797    21.385131     22.15003    8600.0611   -797.89898    446.39258    -410.2224   -143.03591     1158.825    866.23297   -3568.8795 
 5692000    235.11505   -3937.4845   -3534.5054   -3937.4845            0      497.173    18.135091    21.360742    22.124769    8570.6706    1390.7921   -547.55877    648.28561   -192.43355   -105.61366    226.28343   -3472.3615 
 5693000    247.11326   -3961.0342   -3537.4905   -3961.0342            0    226.72829    18.144388    21.371692    22.136111    8583.8585   -659.16916    1600.0991   -260.74512   -645.84579   -978.74897    410.75222   -3509.1071 
 5694000    238.58705   -3936.1478   -3527.2177   -3936.1478            0    389.20765    18.191886    21.427639    22.194058    8651.4473    1094.9875    1158.2252   -1085.5898   -768.45768    279.84151    836.23756   -3478.1104 
 5695000    248.92348    -3970.761   -3544.1146    -3970.761            0    155.86707    18.093518    21.311774    22.074049     8511.863   -837.23421    700.41668    604.41875    341.86092    954.65283    896.75507   -3524.7658 
 5696000    247.68632   -3968.2805   -3543.7546   -3968.2805            0    1023.2258    18.106554    21.327129    22.089954    8530.2746     996.1909    1311.7929    761.69355    1766.5637   -210.18372   -795.07909   -3416.4599 
 5697000    250.56096   -3973.9264   -3544.4734   -3973.9264            0    457.98207    18.148654    21.376717    22.141316    8589.9149    195.58575    767.42462    410.93584    1203.0361   -55.843209   -467.77319   -3487.0997 
 5698000    248.47278   -3958.7216   -3532.8478   -3958.7216            0    110.54348    18.109635    21.330758    22.093713      8534.63     211.0458    641.40648   -520.82185    559.05399   -892.01725    92.833577   -3519.0886 
 5699000    243.54641   -3936.0925   -3518.6623   -3936.0925            0    525.56726    18.236736    21.480466    22.248775    8715.5923   -630.32754    816.49848    1390.5309    266.71021   -191.60889   -946.37279   -3451.8585 
 5700000    244.95162   -3966.4098   -3546.5711   -3966.4098            0   -617.66048    18.243323    21.488224    22.256811    8725.0397    518.24642    352.32434   -2723.5522   -788.13732    837.52917    759.74134   -3625.1658 
 5701000    249.43524    -3973.288   -3545.7645    -3973.288            0    110.41396    18.154758    21.383907    22.148762    8598.5845   -330.19638   -519.18824    1180.6265    660.37188     829.3518    1468.8321   -3531.9184 
 5702000     248.9108   -3965.2816    -3538.657   -3965.2816            0    641.59537    18.239195    21.483363    22.251776    8719.1192   -468.44999    1731.5027    661.73338   -822.79428   -549.78739    411.17528   -3457.0721 
 5703000     243.0765   -3984.6056   -3567.9808   -3984.6056            0   -127.31606    18.138783     21.36509    22.129273    8575.9063    499.39448    -153.3912   -727.95147   -110.12479    -1014.022   -210.86365   -3583.9044 
 5704000    238.77417   -3974.5721   -3565.3214   -3974.5721            0   -531.27286    18.151569    21.380151    22.144872    8594.0546   -134.37338     102.2028    -1561.648    174.89104    491.30425   -296.48739   -3631.9087 
 5705000    237.95445    -3960.816   -3552.9703    -3960.816            0    747.61015    18.035208    21.243093    22.002912    8429.8345    20.396837    487.66431    1734.7693    97.048367    61.870531    472.06358   -3461.0587 
 5706000    236.74169   -3950.1078   -3544.3407   -3950.1078            0    1375.1442    18.023525    21.229332    21.988659    8413.4631    836.77261    2258.9658    1029.6941    367.72243   -132.39686     485.5983   -3375.6081 
 5707000    242.05091   -3931.3676   -3516.5007   -3931.3676            0    309.45103    18.054075    21.265315    22.025929    8456.3176    1692.9718    71.227133   -835.84587     429.8926   -536.16352    1947.0215   -3478.3371 
 5708000    252.96289   -3945.5575   -3511.9878   -3945.5575            0   -1062.3553    18.153644    21.382595    22.147404    8597.0025   -1621.3303    720.82528   -2286.5609    838.58285    735.34257    574.96101   -3645.1843 
 5709000    250.38004    -3960.706   -3531.5632    -3960.706            0    599.29162    17.986783    21.186054    21.943833    8362.1132    1304.1232   -15.031181    508.78283   -90.904882   -1349.1642   -1186.3892   -3458.4779 
 5710000    271.16082   -3975.8059   -3511.0455   -3975.8059            0   -536.59101    18.157804    21.387494    22.152478    8602.9132   -593.38016   -149.38588   -867.00698   -527.60055    783.94495    360.81605   -3578.3687 
 5711000     250.3827   -3977.3258   -3548.1784   -3977.3258            0    2591.0393    17.980111    21.178196    21.935693    8352.8117    1649.8281    1847.6433    4275.6464    1115.6937     -778.999   -351.78682   -3232.5453 
 5712000    247.85519   -3949.7816   -3524.9663   -3949.7816            0    1395.5725    18.054452    21.265759    22.026389    8456.8475     1938.116    1291.3745     957.2271    256.07667   -14.054658    376.32522   -3352.8441 
 5713000    261.02562   -3961.9832   -3514.5943   -3961.9832            0    233.01106    18.062289    21.274991    22.035951    8467.8657   -379.57392    852.39235    226.21475    1616.0922    920.93247   -498.64901   -3485.8185 
 5714000    249.10735   -3955.4379   -3528.4765   -3955.4379            0   -1370.7048    18.114872    21.336926    22.100101    8542.0355   -970.09566   -2731.0228   -410.99603    1065.9069    602.97276    558.85694   -3699.2345 
 5715000    236.41544   -3986.6157   -3581.4077   -3986.6157            0   -272.62642    18.044545    21.254091    22.014303    8442.9347   -1241.3754    1039.6476    -616.1514    60.787355   -370.93114   -121.87769   -3614.9766 
 5716000     252.2533   -3982.9034   -3550.5499   -3982.9034            0      1915.39    17.930801    21.120115    21.875536    8284.2782    2168.2461     3097.577    480.34691   -75.301817    377.24995   -1838.7864   -3319.1369 
 5717000    240.63642    -3967.038   -3554.5954    -3967.038            0    816.26295    17.980206    21.178308     21.93581    8352.9447    7.1221709    915.55447    1526.1122    -155.0679     272.5698   -749.17981    -3455.159 
 5718000    250.51692   -3944.0486   -3514.6712   -3944.0486            0   -803.30311    18.124383    21.348129    22.111705    8555.4977    316.79636   -1465.4516   -1261.2541    473.66135    662.22139      1402.04   -3614.9019 
 5719000    254.18444   -3941.2112   -3505.5478   -3941.2112            0    1536.2833    17.967306    21.163113    21.920072    8334.9788    1552.9186    2345.4019    710.52953    1488.8833   -1743.3114    366.47311   -3318.8016 
 5720000    229.86403   -3932.1984   -3538.2194   -3932.1984            0    566.07397    17.940578    21.131631    21.887463    8297.8361    658.16283    1672.6853   -632.62624   -280.98072    48.005196   -428.55343   -3469.7157 
 5721000    241.05816   -3929.0506   -3515.8851   -3929.0506            0    943.77571    17.902535    21.086821     21.84105    8245.1612    277.63203     2466.018    87.677122    1105.5726   -527.64343   -850.44553   -3402.3987 
 5722000    236.17233   -3945.2142   -3540.4229   -3945.2142            0   -105.80428    17.932472    21.122084    21.877574    8286.5948    1359.3624   -1787.2383    110.46306   -521.34054    856.65123   -466.08761   -3553.2095 
 5723000    237.45977    -3954.389   -3547.3911    -3954.389            0    430.27288    17.976717    21.174198    21.931553    8348.0828    87.483991    223.34865    979.98599   -224.80659    976.70765    683.59809   -3495.0061 
 5724000    244.94725   -3947.2863    -3527.455   -3947.2863            0    671.28015    17.950947    21.143844    21.900113    8312.2324    1462.5453    733.12273   -181.82761   -433.88519   -304.44186    -553.5165   -3446.0788 
 5725000    253.03172   -3981.2672   -3547.5795   -3981.2672            0    715.28117    17.836684    21.009257    21.760712    8154.5109    262.70041    446.08859    1437.0545    577.50656    199.36595    905.96668   -3462.5145 
 5726000    241.83378   -3938.6543   -3524.1595   -3938.6543            0   -113.18509    17.968479    21.164495    21.921503    8336.6111   -613.10651   -322.94868    596.49994     1544.298    480.69106    370.87567   -3537.9207 
 5727000    252.80405   -3894.7128   -3461.4153   -3894.7128            0     1453.354    17.989587    21.189357    21.947254    8366.0249    2207.1227    1178.4067    974.53255    271.66544    1582.7581   -10.939516   -3284.0917 
 5728000    243.64397   -3929.6438   -3512.0464   -3929.6438            0    350.32915      17.9161      21.1028    21.857601     8263.919    523.33354      1037.86   -510.20605    400.43035   -543.85649   -339.84744   -3469.8245 
 5729000    250.58352   -3950.3418   -3520.8503   -3950.3418            0    999.85358    17.928259     21.11712    21.872434    8280.7545    1937.2768    1279.1228   -216.83879    907.04128   -242.48857    653.15162   -3400.1016 
 5730000    246.38542    -3916.731   -3494.4349    -3916.731            0    47.576349    18.013478    21.217497    21.976401    8399.4003    320.89387   -1459.7678     1281.603    1053.4836   -707.35884   -681.55895   -3488.6069 
 5731000    244.25627   -3918.5493   -3499.9025   -3918.5493            0     530.0486    17.986163    21.185324    21.943076    8361.2485    489.39506     650.1453    450.60543    371.11565    -79.74076   -479.24247   -3435.2682 
 5732000    245.65492   -3933.1202   -3512.0761   -3933.1202            0    1246.9472    17.992176    21.192407    21.950413    8369.6377    2610.9524    710.01011    419.87906    1248.6832   -223.72085   -142.06933   -3359.8705 
 5733000    249.19462   -3952.0652   -3524.9541   -3952.0652            0    1069.6017    18.027179    21.233635    21.993116    8418.5808    1423.9806    1096.6348    688.18978    -891.0688   -555.51814   -995.83823   -3393.6323 
 5734000    251.01595   -3942.0704   -3511.8376   -3942.0704            0    2521.8938    17.867629    21.045707    21.798466    8197.0276    4308.6315     628.7614    2628.2885   -100.90225    523.65149   -1664.9577   -3210.3572 
 5735000    235.70688   -3965.0426   -3561.0491   -3965.0426            0   -49.449341    18.104744    21.324997    22.087745    8527.7162   -232.55075    792.70482   -708.50209   -511.76446   -242.24606    884.29997    -3567.199 
 5736000    245.46703   -3961.3511    -3540.629   -3961.3511            0    2441.6132     17.95892    21.153236     21.90984    8323.3132     3328.328    1548.7405     2447.771    730.31141   -350.77051    -464.2784    -3244.249 
 5737000     248.0792   -3975.7648   -3550.5656   -3975.7648            0    612.19384    17.989012     21.18868    21.946553    8365.2229    1099.5754   -403.71117    1140.7172   -461.54846   -575.57009    333.25663    -3475.879 
 5738000    250.98849   -3972.2319   -3542.0462   -3972.2319            0   -1085.5772    18.120847    21.343964    22.107391    8550.4914    -1390.464   -774.08447   -1092.1833      481.537    407.81517   -451.40883   -3677.4178 
 5739000    236.69911   -3944.8746   -3539.1805   -3944.8746            0   -253.35185    18.026385    21.232701    21.992148    8417.4693    21.780523    638.06193    -1419.898    1844.4653     491.0452    327.99297    -3570.282 
 5740000    242.32698   -3945.4352   -3530.0951   -3945.4352            0    1542.5628    18.001131    21.202954    21.961337    8382.1405    2366.4361    2439.3023   -178.04985    914.75605    581.96763   -478.66327   -3341.5246 
 5741000     241.5044    -3975.129   -3561.1987    -3975.129            0    1180.3472    17.936513    21.126843    21.882504    8292.1977    160.57635    770.61649    2609.8488    834.46813     505.9149    554.54311   -3418.4556 
 5742000    246.49501    -3962.084      -3539.6    -3962.084            0    727.82512    17.972148    21.168816    21.925978    8341.7184    932.29157    876.26568     374.9181    486.84451    209.36808   -459.39813   -3451.0561 
 5743000     255.9019   -3945.3339   -3506.7268   -3945.3339            0    1242.0128    18.006884     21.20973    21.968356    8390.1796    1633.4401    1824.1958    268.40243    -502.0114   -472.14035   -447.95077   -3354.7514 
 5744000    250.53069   -3942.3473   -3512.9462   -3942.3473            0    -635.4677    17.998839    21.200255    21.958541    8378.9395   -856.55878    216.16285   -1266.0072   -341.18957   -1485.2758    -59.23404   -3590.5993 
 5745000    265.20841   -3941.1777   -3486.6196   -3941.1777            0   -1341.1655    18.105411    21.325782    22.088559    8528.6589   -400.60213   -919.51584   -2703.3786   -92.619585   -303.68259    254.83419   -3653.4361 
 5746000     237.3549    -3935.596   -3528.7778    -3935.596            0    747.78139    18.049158    21.259524    22.019931    8449.4108    792.34359   -498.59835    1949.5989    1364.8148    6.1317024    807.21605   -3436.6317 
 5747000    237.08591   -3938.7817   -3532.4245   -3938.7817            0    1382.1854    18.089513    21.307057    22.069164    8506.2127    1360.9475    1527.8539    1257.7547    809.96094   -995.88662    6.4642066   -3360.9584 
 5748000    245.80259   -3914.1842    -3492.887   -3914.1842            0    471.10051    18.086029    21.302953    22.064913    8501.2984    969.58121    964.36439   -520.64409    -472.9652    479.68615    813.72042   -3434.4786 
 5749000    230.04917   -3928.1975   -3533.9011   -3928.1975            0   -566.82923    18.139622    21.366079    22.130297    8577.0966   -810.83901   -1237.4756    347.82689    172.06539    1073.3392   -474.17014   -3604.8048 
 5750000    256.32175   -3921.5076   -3482.1809   -3921.5076            0    1259.3061    17.973574    21.170496    21.927719     8343.705    1377.2742    1996.2248    404.41939   -72.513166   -245.01429    1520.1029   -3328.9431 
Loop time of 367.851 on 64 procs for 250000 steps with 864 atoms

Performance: 117.439 ns/day, 0.204 hours/ns, 679.622 timesteps/s
194.1% CPU use with 32 MPI tasks x 2 OpenMP threads

MPI task timing breakdown:
Section |  min time  |  avg time  |  max time  |%varavg| %total
---------------------------------------------------------------
Pair    | 22.193     | 26.732     | 30.607     |  34.8 |  7.27
Bond    | 0.81302    | 1.112      | 1.4728     |  12.8 |  0.30
Kspace  | 178.02     | 187.14     | 192.88     |  26.0 | 50.87
Neigh   | 2.6091     | 3.2386     | 3.5964     |  17.0 |  0.88
Comm    | 63.439     | 67.467     | 75.979     |  40.6 | 18.34
Output  | 0.50669    | 0.50698    | 0.5087     |   0.0 |  0.14
Modify  | 65.736     | 68.93      | 72.791     |  19.6 | 18.74
Other   |            | 12.73      |            |       |  3.46

Nlocal:        27.0000 ave          37 max          21 min
Histogram: 2 6 5 7 1 5 4 1 0 1
Nghost:        2281.53 ave        2335 max        2216 min
Histogram: 1 1 2 4 6 5 4 5 2 2
Neighs:        7392.56 ave       10598 max        5499 min
Histogram: 2 5 5 6 7 2 4 0 0 1

Total # of neighbors = 236562
Ave neighs/atom = 273.79861
Ave special neighs/atom = 2.0000000
Neighbor list builds = 11356
Dangerous builds = 0

unfix		3
unfix		2
unfix		1

write_data	data.final.${pid}
write_data	data.final.1
System init for write_data ...
PPPM initialization ...
  extracting TIP4P info from pair style
  using 12-bit tables for long-range coulomb (../kspace.cpp:340)
  G vector (1/distance) = 0.37252274
  grid = 24 25 25
  stencil order = 5
  estimated absolute RMS force accuracy = 0.0031867393
  estimated relative force accuracy = 9.5967706e-06
  using double precision FFTW3
  3d grid and FFT values/proc = 4116 672
Last active /omp style is kspace_style pppm/tip4p/omp
WARNING: Not all mixed pair coeffs generated from mixing. Use write_data with 'pair ij' option to store all pair coeffs. (../write_data.cpp:312)

write_restart   restart.lmp.${pid}
write_restart   restart.lmp.1
System init for write_restart ...
PPPM initialization ...
  extracting TIP4P info from pair style
  using 12-bit tables for long-range coulomb (../kspace.cpp:340)
  G vector (1/distance) = 0.37252274
  grid = 24 25 25
  stencil order = 5
  estimated absolute RMS force accuracy = 0.0031867393
  estimated relative force accuracy = 9.5967706e-06
  using double precision FFTW3
  3d grid and FFT values/proc = 4116 672
Last active /omp style is kspace_style pppm/tip4p/omp
Total wall time: 0:06:07
