LAMMPS data file via write_data, version 30 Jul 2021, timestep = 24500000

864 atoms
2 atom types
576 bonds
1 bond types
288 angles
1 angle types

0.16045029429377422 18.04712210570781 xlo xhi
0.17506743572108796 23.45411036429075 ylo yhi
0.05655596062380752 22.156639839369237 zlo zhi

Masses

1 1.00794
2 15.9994

Atoms # full

707 1 1 0.5897 2.831488751516469 1.9138481296945515 3.830075587237893 0 0 0
706 1 2 -1.1794 2.879610812981094 1.9379651645438984 2.8745488391995577 0 0 0
30 1 1 0.5897 5.257414257449828 4.134545150497043 2.261580890365678 0 0 0
708 1 1 0.5897 2.0188699901865945 2.2527641495822825 2.5988162976754876 0 0 0
29 1 1 0.5897 4.406460625535417 2.882647983417694 2.238741513715394 0 0 0
28 1 2 -1.1794 5.2093145848608104 3.2587620039037772 1.8782100848787038 0 0 0
495 1 1 0.5897 8.070966849637731 2.2555576456600583 2.6571542919097326 0 0 0
1 1 2 -1.1794 0.5573459513700404 3.109866465203722 1.6761536307824108 0 0 0
494 1 1 0.5897 6.566025525879026 2.2667177112775065 2.4950908680344637 0 0 0
493 1 2 -1.1794 7.27724410507057 1.793698594566019 2.9269207310981313 0 0 0
846 1 1 0.5897 7.3658346343049805 1.8964648396012729 4.650790881028838 0 0 0
3 1 1 0.5897 0.6320251970636854 4.017103128165955 1.9722586273130955 0 0 0
188 1 1 0.5897 3.071687752669269 0.1847504537876148 2.2772617772328343 0 1 0
595 1 2 -1.1794 0.8761236096000691 5.539327534051435 2.8213531157381975 0 0 0
136 1 2 -1.1794 5.359472772892212 5.876992725519513 2.994304496342254 0 0 0
668 1 1 0.5897 5.326032979036314 3.123088299113364 0.08586050379190768 0 0 0
137 1 1 0.5897 5.4456607465324085 5.851474240392697 3.947125581604621 0 0 0
181 1 2 -1.1794 0.6459593952684035 5.59579024211423 5.552306792430748 0 0 0
597 1 1 0.5897 0.8637406261016627 5.547059895855479 3.778286726749657 0 0 0
685 1 2 -1.1794 5.2710696639943295 5.705528934696775 5.849098337295416 0 0 0
676 1 2 -1.1794 5.21406765857108 5.872101678901064 10.581271680694112 0 0 0
356 1 1 0.5897 7.463153238776686 1.2260631827976072 9.889857488285898 0 0 0
275 1 1 0.5897 5.056261376341169 3.059936119707863 8.567580860015596 0 0 0
487 1 2 -1.1794 2.985211236457346 1.9793504122941028 5.770725207638225 0 0 0
673 1 2 -1.1794 3.097515922188062 1.6880594675393104 10.844157310207695 0 0 0
274 1 2 -1.1794 5.015861438267583 3.1360936776725112 9.520744570381806 0 0 0
845 1 1 0.5897 7.351830992617717 1.056827242173863 5.910262274167036 0 0 0
419 1 1 0.5897 9.102926910320459 2.682844945434203 6.316550842749479 0 0 0
36 1 1 0.5897 1.6874422346941553 2.7951935335344533 10.177521568130167 0 0 0
84 1 1 0.5897 6.002354715020901 2.707897095063405 6.472771750154532 0 0 0
674 1 1 0.5897 3.8131253074297344 2.0831347635423567 10.346322080930161 0 0 0
35 1 1 0.5897 1.002906321389474 4.1420429755122505 10.080567302516915 0 0 0
489 1 1 0.5897 3.0380411997556056 1.0885100973803623 6.117008134711324 0 0 0
34 1 2 -1.1794 0.944345357563651 3.2388655524812764 9.768860475807328 0 0 0
488 1 1 0.5897 2.175463697725804 2.3324399546159764 6.139039531817637 0 0 0
83 1 1 0.5897 4.498719828067391 2.7828992080119788 6.315641222940127 0 0 0
355 1 2 -1.1794 7.44812527613114 2.1233662105651785 10.222903004254762 0 0 0
784 1 2 -1.1794 0.6896272297927922 3.099524055260108 6.938871401816484 0 0 0
844 1 2 -1.1794 7.349628524399965 1.964188413385918 5.605298623489106 0 0 0
112 1 2 -1.1794 0.5617091799535423 5.919772618922307 10.21450163148442 0 0 0
675 1 1 0.5897 2.9075155665135077 0.8705699364153985 10.383882318693244 0 0 0
686 1 1 0.5897 5.251439585401986 4.83045177144323 6.236569791330529 0 0 0
183 1 1 0.5897 0.6500537551173554 4.858026128728601 6.16212243433916 0 0 0
678 1 1 0.5897 5.223745194473628 4.9489030031650145 10.328387408012084 0 0 0
82 1 2 -1.1794 5.2250012826471774 3.1397791670745816 6.826678635353102 0 0 0
276 1 1 0.5897 5.83875697231512 2.7551496356202736 9.82697000891026 0 0 0
785 1 1 0.5897 0.7168611870759228 3.1879352425287713 7.891439017981403 0 0 0
166 1 2 -1.1794 3.0484111698466037 1.7014768774632127 13.541162003019323 0 0 0
167 1 1 0.5897 3.0965333643134034 1.6582388808311286 12.586305527719492 0 0 0
457 1 2 -1.1794 5.286841915856598 3.2515656620260036 13.957154799209386 0 0 0
458 1 1 0.5897 5.96365020407012 2.722037541579355 13.535721323509298 0 0 0
459 1 1 0.5897 4.4874375708865495 2.732449725403709 13.870257790379682 0 0 0
762 1 1 0.5897 5.264590883284296 4.928997004423034 13.590422501166305 0 0 0
594 1 1 0.5897 8.282272278401056 2.2158792210903586 13.33124187586124 0 0 0
168 1 1 0.5897 2.2591671576147037 2.2129796387530103 13.718729766404376 0 0 0
71 1 1 0.5897 5.228999117872302 3.270032909273015 15.775555535295286 0 0 0
592 1 2 -1.1794 7.480295666201567 1.8893656908187664 12.92351167257406 0 0 0
466 1 2 -1.1794 0.8592419944815641 3.2864370206921527 13.978417094133407 0 0 0
593 1 1 0.5897 7.394327861948726 0.9926098514811704 13.247153671617408 0 0 0
365 1 1 0.5897 0.7278735770894585 4.977197278121336 13.21967004205014 0 0 0
468 1 1 0.5897 0.8333564457636425 3.246567111599344 14.934280069166062 0 0 0
364 1 2 -1.1794 0.5552355243814553 5.890809010995828 12.992021812486987 0 0 0
113 1 1 0.5897 0.5628274682985568 5.962990868825452 11.170574829749583 0 0 0
357 1 1 0.5897 7.429939681494586 2.025632087264832 11.17477468162876 0 0 0
760 1 2 -1.1794 5.1531387183704505 5.849676359971892 13.353261507125833 0 0 0
761 1 1 0.5897 5.208109532680944 5.859645466531268 12.397845739102413 0 0 0
134 1 1 0.5897 0.8516588111387035 4.1318619656410185 17.154814382100383 0 0 0
133 1 2 -1.1794 1.0247422756302953 3.229794208043143 16.885321142450326 0 0 0
568 1 2 -1.1794 2.962214247071376 1.776868755867808 20.59535730332992 0 0 0
21 1 1 0.5897 0.6099634819686061 4.0798682776655655 20.86178883289108 0 0 0
599 1 1 0.5897 8.939424055917357 2.5386197961930823 16.86034799209483 0 0 0
142 1 2 -1.1794 5.089581226609507 5.938593949178926 20.577951659268425 0 0 0
755 1 1 0.5897 7.559338210016937 1.7081543672601858 18.182778623065087 0 0 0
278 1 1 0.5897 5.208143682422232 4.957288812810354 17.47354857408726 0 0 0
42 1 1 0.5897 7.661515660392267 1.0321987042279213 20.627671300645368 0 0 0
290 1 1 0.5897 3.1901194804500985 0.9386051632044927 17.39820636433116 0 0 0
41 1 1 0.5897 6.746021787855013 2.230661579992757 20.495431138901097 0 0 0
667 1 2 -1.1794 5.298444046015108 3.0979049921924924 21.22963116532812 0 0 0
289 1 2 -1.1794 3.209914237930077 1.819061351023903 17.77329405358722 0 0 0
360 1 1 0.5897 8.939583551678359 2.6302504225015784 20.928802546120547 0 0 0
72 1 1 0.5897 4.599360003224063 2.7923078846547327 17.06652352535033 0 0 0
19 1 2 -1.1794 0.5951731334755266 3.154990958571491 21.108175681146687 0 0 0
571 1 2 -1.1794 0.5891172658303483 5.781908810832295 17.840114230703307 0 0 0
756 1 1 0.5897 6.820483568433615 2.4062485542947454 17.06109573070958 0 0 0
648 1 1 0.5897 0.6683629981121191 5.982316950481502 19.578310407528388 0 0 0
669 1 1 0.5897 4.456161543543344 2.692294953330608 21.024475408844772 0 0 0
569 1 1 0.5897 2.158172494719664 2.2210302274509477 20.864246836954234 0 0 0
40 1 2 -1.1794 7.5501598872156706 1.8498908519073844 20.142668145950193 0 0 0
646 1 2 -1.1794 0.5244690616781429 5.89858089949772 20.520774488140425 0 0 0
570 1 1 0.5897 2.9046275539127726 1.7333302855399397 19.641038520037156 0 0 0
143 1 1 0.5897 5.168696538201504 5.023537399270123 20.847631318940916 0 0 0
70 1 2 -1.1794 5.2863316783175645 3.3652777747855107 16.7261234589866 0 0 0
291 1 1 0.5897 2.4061979482772022 2.232364943439834 17.458233830834004 0 0 0
754 1 2 -1.1794 7.517801767929703 1.772400733870984 17.22878432750987 0 0 0
135 1 1 0.5897 0.2880817259537416 2.729036879961904 17.23554686926956 0 0 0
277 1 2 -1.1794 5.2457020295976236 5.859286434237886 17.791823647526073 0 0 0
144 1 1 0.5897 5.012380985572272 5.901928473224641 19.62472914799804 0 0 0
81 1 1 0.5897 3.2386042063102978 0.2196868214815879 21.15123931888089 0 1 0
20 1 1 0.5897 0.5882549209190732 3.161766797651078 22.065180648130863 0 0 -1
123 1 1 0.5897 3.0521669621777936 8.824600598443974 3.0818562825465006 0 0 0
121 1 2 -1.1794 3.0814918483260834 9.705825321954997 3.4545079198533313 0 0 0
122 1 1 0.5897 3.066498033829988 9.566499319499604 4.4012403421049475 0 0 0
44 1 1 0.5897 1.4922561850741605 10.772166762982522 2.9297030453362884 0 0 0
218 1 1 0.5897 5.828015368178914 10.555735093541061 2.2570033650467956 0 0 0
417 1 1 0.5897 8.419123689840669 6.429049643660598 2.0227359899994317 0 0 0
219 1 1 0.5897 4.3343281583263735 10.590196630331224 2.4997661710641497 0 0 0
254 1 1 0.5897 3.0542424021009995 7.290470862413292 1.2532757859114492 0 0 0
415 1 2 -1.1794 7.635667274378596 6.926312567155025 1.7882333075170624 0 0 0
217 1 2 -1.1794 5.03000967731052 11.017731460571952 2.000494949719428 0 0 0
66 1 1 0.5897 7.466077093301813 9.555372654354002 3.815690930616587 0 0 0
65 1 1 0.5897 7.487999195193685 8.733069293459879 2.5449451266822076 0 0 0
64 1 2 -1.1794 7.429830828126197 9.634196796148776 2.8625869258554686 0 0 0
253 1 2 -1.1794 3.089789037047159 7.270747244757473 2.209457879413087 0 0 0
255 1 1 0.5897 2.4434713500259178 6.610722853710982 2.4600364243834707 0 0 0
416 1 1 0.5897 6.915163372718534 6.4438323654711915 2.193385644174537 0 0 0
43 1 2 -1.1794 0.7163195004344401 11.107815657031242 2.4810763599662473 0 0 0
138 1 1 0.5897 4.555303712473337 6.3723217304158775 2.839281297029796 0 0 0
773 1 1 0.5897 8.854714402868579 10.783160931182351 2.5433352690349285 0 0 0
396 1 1 0.5897 0.7084258474203611 11.111398158211042 0.6466571625347514 0 0 0
363 1 1 0.5897 5.167936581191902 10.939186643243128 0.30392045292226033 0 0 1
579 1 1 0.5897 5.741797854765567 11.725726371440112 6.542086839602102 0 0 0
165 1 1 0.5897 8.84873502054937 6.046275619112648 5.868312645089445 0 0 0
712 1 2 -1.1794 7.600933627360291 9.357361641732743 5.670044333244961 0 0 0
820 1 2 -1.1794 7.763461169535875 9.578313176802476 10.207417212198147 0 0 0
793 1 2 -1.1794 3.0958151525442794 9.377648557628108 6.095517170659593 0 0 0
256 1 2 -1.1794 2.904997843130695 9.625872017869709 10.39042770689417 0 0 0
582 1 1 0.5897 5.3869494409378085 10.777528097059626 8.531383791587471 0 0 0
114 1 1 0.5897 1.3817774321153289 6.339153387511762 9.954398170099758 0 0 0
580 1 2 -1.1794 5.35118892800809 10.69776507655714 9.484428694266485 0 0 0
794 1 1 0.5897 2.379256105395311 9.937011946572149 6.395109262923692 0 0 0
581 1 1 0.5897 6.219409583731177 10.379589827653712 9.731337557671255 0 0 0
550 1 2 -1.1794 0.7554110533101013 10.948618291623212 6.7580827529604015 0 0 0
12 1 1 0.5897 2.9327916342871485 7.677707971470054 6.463340164098296 0 0 0
714 1 1 0.5897 7.578423152552687 8.454672417364614 5.9877812330209075 0 0 0
145 1 2 -1.1794 7.4709568464781535 6.814158210042675 6.582530936816692 0 0 0
11 1 1 0.5897 2.1453391266265687 6.404341292515996 6.238901277802056 0 0 0
677 1 1 0.5897 6.007779851791351 6.236549731850458 10.189843747710846 0 0 0
258 1 1 0.5897 3.7118154059663313 9.976611630763859 10.013541991523315 0 0 0
257 1 1 0.5897 2.932503111411375 8.69054878272303 10.18856660880016 0 0 0
146 1 1 0.5897 6.694529666838454 6.348311449398074 6.2723641763295825 0 0 0
527 1 1 0.5897 7.360678467794813 7.948114015031987 9.591873534244545 0 0 0
649 1 2 -1.1794 2.967884500725475 7.11917343006522 9.427726772394001 0 0 0
13 1 2 -1.1794 0.541093822335529 10.866225423155186 9.50278537033753 0 0 0
822 1 1 0.5897 8.585280211743218 10.04097214132339 10.044231818813063 0 0 0
551 1 1 0.5897 0.7500630345739617 11.00634848193884 7.713368210705353 0 0 0
651 1 1 0.5897 3.792050686980853 6.74012655434304 9.732862311342615 0 0 0
526 1 2 -1.1794 7.3160066670562545 7.018685068732654 9.367164309589082 0 0 0
528 1 1 0.5897 8.087924407099635 6.633996834802889 9.78212738902587 0 0 0
10 1 2 -1.1794 2.8885649864256315 6.75853342293837 6.726931806929985 0 0 0
578 1 1 0.5897 6.252712687794508 10.316567832889154 6.329204635221644 0 0 0
650 1 1 0.5897 2.9627479784930775 6.954782646608027 8.484910224882128 0 0 0
15 1 1 0.5897 1.329182042469341 10.402449083060665 9.785447408486068 0 0 0
795 1 1 0.5897 3.8838300424596053 9.903282296860823 6.232727287277958 0 0 0
577 1 2 -1.1794 5.546280073864087 10.810849811445108 6.7447914103978635 0 0 0
713 1 1 0.5897 8.414576956435694 9.716212083981405 6.023935599011431 0 0 0
147 1 1 0.5897 7.392151223258169 6.803433424246825 7.536266290424299 0 0 0
14 1 1 0.5897 0.6533792009817296 11.756204533772815 9.836926748047222 0 0 0
687 1 1 0.5897 4.497977493295166 6.143183447492116 6.205233367487425 0 0 0
828 1 1 0.5897 7.500262104658978 7.163101858788079 15.051630787106626 0 0 0
261 1 1 0.5897 0.8891501461907324 10.85625083562345 15.132295382994185 0 0 0
332 1 1 0.5897 2.852284659802856 7.930438622875289 14.049130963228654 0 0 0
797 1 1 0.5897 3.051009844951029 9.63867836364244 12.23758807848733 0 0 0
796 1 2 -1.1794 3.1047636733651243 9.558992097666875 13.18979645858932 0 0 0
798 1 1 0.5897 2.30816790819939 9.981085900763267 13.51123061099443 0 0 0
722 1 1 0.5897 4.528301716413576 10.661145003676719 13.715408624647285 0 0 0
333 1 1 0.5897 3.4889115242226083 6.5568487325888425 14.051066551696755 0 0 0
259 1 2 -1.1794 0.8761198904460833 10.94159740146535 14.179153015265342 0 0 0
721 1 2 -1.1794 5.362423740519353 11.065228786649993 13.954137453885927 0 0 0
723 1 1 0.5897 5.383822326750613 11.024577099118725 14.910076368606513 0 0 0
331 1 2 -1.1794 2.687148923370634 7.019828869746276 14.29373926418302 0 0 0
225 1 1 0.5897 2.7558706318817223 7.192645976245405 15.977971927507618 0 0 0
826 1 2 -1.1794 7.456832758009048 7.156705494492423 14.095590634364978 0 0 0
475 1 2 -1.1794 7.542372526430838 9.593374610508548 12.992723134184308 0 0 0
476 1 1 0.5897 6.866118817005969 10.184592762652885 13.323284822895578 0 0 0
477 1 1 0.5897 7.365036559973365 8.758967629889701 13.426979120693591 0 0 0
827 1 1 0.5897 6.672878211527383 6.645794443389166 13.894415528289624 0 0 0
366 1 1 0.5897 1.266783325579269 6.37977718187742 13.405144142329634 0 0 0
821 1 1 0.5897 7.6412124155374705 9.633354054741645 11.155026010527465 0 0 0
851 1 1 0.5897 8.85738127743383 6.119213513801455 13.511074778452192 0 0 0
462 1 1 0.5897 8.911621117964794 6.161255054753318 20.62650869370533 0 0 0
287 1 1 0.5897 8.758125894250119 10.6198562744494 21.25264537561135 0 0 0
160 1 2 -1.1794 7.475622932161848 7.203579339391432 21.194129403577747 0 0 0
679 1 2 -1.1794 5.5314294796698675 10.81442119189619 16.73655668807724 0 0 0
647 1 1 0.5897 1.3132150537829337 6.267880546373597 20.917652332951317 0 0 0
4 1 2 -1.1794 2.7424230697483423 7.1371601262540025 21.56910904128311 0 0 0
627 1 1 0.5897 2.397741069843871 10.162600041801337 17.41807880235088 0 0 0
689 1 1 0.5897 3.540812571316507 10.080815060907659 20.919295113026898 0 0 0
520 1 2 -1.1794 7.42842110468426 7.296784873000471 16.830196014631994 0 0 0
681 1 1 0.5897 5.527126100350669 11.737954295813838 16.988335510783056 0 0 0
223 1 2 -1.1794 2.834504848167034 7.178680876004317 16.931675382512374 0 0 0
361 1 2 -1.1794 5.0870144683663145 10.866975970832934 21.453123580665878 0 0 0
521 1 1 0.5897 6.619065268743012 6.915949497884863 17.17069019997876 0 0 0
224 1 1 0.5897 2.864265850587216 8.101726837959976 17.183518764894472 0 0 0
9 1 1 0.5897 7.108386198228315 10.137544914754779 17.425130540362115 0 0 0
680 1 1 0.5897 4.720430564019641 10.46200058769708 17.102743136938955 0 0 0
7 1 2 -1.1794 7.916904455147316 9.790795082831231 17.802067201933642 0 0 0
5 1 1 0.5897 3.5562201298254332 6.79546156869667 21.19895962384536 0 0 0
625 1 2 -1.1794 3.1951429513846366 9.756259450249932 17.757315502340084 0 0 0
626 1 1 0.5897 3.0940841020771104 9.786938494232226 18.70851363417609 0 0 0
140 1 1 0.5897 6.6492394413671905 10.116556929248354 20.789229054933507 0 0 0
141 1 1 0.5897 7.485904792867936 8.858073450311336 20.699172311797557 0 0 0
8 1 1 0.5897 7.721386777659586 9.684449493374757 18.732873560202812 0 0 0
445 1 2 -1.1794 0.887059892425096 10.983208246425772 16.858629556820375 0 0 0
139 1 2 -1.1794 7.490530498725307 9.788079218013715 20.472461394175184 0 0 0
394 1 2 -1.1794 0.692190795850667 11.228276423158468 21.79699899037218 0 0 0
161 1 1 0.5897 6.62812391270766 6.808329909516986 20.990251464925574 0 0 0
690 1 1 0.5897 2.0394769225384675 10.240462768782107 21.027712358414405 0 0 0
522 1 1 0.5897 7.508292604550618 8.13594624846276 17.2837350385012 0 0 0
6 1 1 0.5897 2.7195011160907443 8.053590536228452 21.293493438005495 0 0 0
688 1 2 -1.1794 2.7175028398606593 9.769062706671438 20.54383066735492 0 0 0
572 1 1 0.5897 1.3661725871531598 6.255328855470653 17.54325134269606 0 0 0
279 1 1 0.5897 4.443063726024175 6.2636190321668135 17.46270374262035 0 0 0
711 1 1 0.5897 8.826195284188497 6.346956123325049 17.408173594707407 0 0 0
362 1 1 0.5897 5.189454386500223 11.763910410731745 21.134818669470437 0 0 0
162 1 1 0.5897 7.555745260644944 7.122619071240469 22.14437406625496 0 0 0
200 1 1 0.5897 5.642761890900535 13.523234376490358 5.184998202875215 0 0 0
173 1 1 0.5897 4.4622849580916135 13.872184942928492 3.032889767084455 0 0 0
172 1 2 -1.1794 5.1685395311054085 13.354937071929612 3.419862254104415 0 0 0
293 1 1 0.5897 3.0451154697538674 16.819660922306433 2.730748546295374 0 0 0
558 1 1 0.5897 3.241615573457545 15.03738223402549 1.3715445108822792 0 0 0
556 1 2 -1.1794 3.2212108004970714 15.073270423289573 2.3276998413166106 0 0 0
557 1 1 0.5897 2.4310251660207354 14.59017214965193 2.5691311349713515 0 0 0
478 1 2 -1.1794 7.330969420311554 14.716178635060391 2.0696486372286693 0 0 0
174 1 1 0.5897 5.146659954534948 12.524687189157214 2.943985853190316 0 0 0
479 1 1 0.5897 8.147728167082064 14.366572117315748 2.425594836745069 0 0 0
449 1 1 0.5897 7.492915414185443 16.580882836017892 2.500480596660968 0 0 0
480 1 1 0.5897 6.646810127584261 14.173695114443797 2.4617256467625794 0 0 0
373 1 2 -1.1794 0.9675219649185399 13.887062132761077 3.138312669755848 0 0 0
374 1 1 0.5897 0.8327816347668049 13.841507793657406 4.084728896500542 0 0 0
45 1 1 0.5897 0.6990833960298565 12.040376895536818 2.696403067045664 0 0 0
448 1 2 -1.1794 7.688399023641234 17.461095088779715 2.8218971133120716 0 0 0
317 1 1 0.5897 7.708427384567916 14.833701012243857 0.23760111255510447 0 0 0
308 1 1 0.5897 7.471219457284299 17.35972984000741 4.753291251143204 0 0 0
59 1 1 0.5897 8.796216298322918 14.081830523232817 10.127890349934638 0 0 0
307 1 2 -1.1794 7.388163691869459 17.377617496240354 5.706555398698865 0 0 0
199 1 2 -1.1794 5.570160892638895 13.525205773465332 6.139286744875087 0 0 0
382 1 2 -1.1794 3.066042081500823 17.319030335799873 10.486770538346498 0 0 0
812 1 1 0.5897 3.7090867624433397 14.493464496204277 9.658726757372026 0 0 0
656 1 1 0.5897 1.4827131447781836 14.05348090512626 5.901482561390993 0 0 0
239 1 1 0.5897 3.023054383604997 16.392283370883128 5.9550552749105385 0 0 0
186 1 1 0.5897 7.406794854259132 16.704162607522598 10.497373110048475 0 0 0
456 1 1 0.5897 5.105226539630514 12.516086725985993 9.931259677852227 0 0 0
518 1 1 0.5897 7.65289635221461 15.881443414476514 6.556761994398121 0 0 0
519 1 1 0.5897 8.490497830868959 14.629103927030023 6.704928894845765 0 0 0
376 1 2 -1.1794 7.397477817129533 14.8660871028212 9.728134273081077 0 0 0
17 1 1 0.5897 2.9762736958030467 14.694492373088968 7.540531259732825 0 0 0
454 1 2 -1.1794 5.0504229682647575 13.437991332934685 10.18306612652872 0 0 0
813 1 1 0.5897 2.2010594279244495 14.510109281259183 9.788351671415954 0 0 0
18 1 1 0.5897 3.859070272451284 14.250889378956057 6.393734676043043 0 0 0
517 1 2 -1.1794 7.711150407495435 15.063752202086077 7.050958400928769 0 0 0
377 1 1 0.5897 6.595888053077013 14.386143739519397 9.935954437681934 0 0 0
201 1 1 0.5897 6.325137759508905 14.033003920778926 6.436307036570174 0 0 0
384 1 1 0.5897 3.023167742644913 16.43589546377688 10.119995170065321 0 0 0
16 1 2 -1.1794 3.080013020592145 14.770297639885209 6.592150252708291 0 0 0
378 1 1 0.5897 7.442476645483542 14.855511060560506 8.77219905595908 0 0 0
655 1 2 -1.1794 0.7011121185886368 13.515414936137438 5.776305176200787 0 0 0
811 1 2 -1.1794 2.924484651004084 14.919728894292128 9.314107508189446 0 0 0
766 1 2 -1.1794 0.926363557069377 13.510735343096817 10.339093666804276 0 0 0
238 1 2 -1.1794 3.0428790372788064 17.302708385719335 5.660014245703468 0 0 0
552 1 1 0.5897 0.7961871734489 11.85832680564329 6.462972507289299 0 0 0
429 1 1 0.5897 5.782447521293339 14.105691507115795 13.1330861759859 0 0 0
232 1 2 -1.1794 2.665257036185293 14.837169068927906 14.003374034361055 0 0 0
234 1 1 0.5897 2.8199962222719988 14.833458491182455 14.947817995691798 0 0 0
606 1 1 0.5897 3.007103221066968 16.482642607357953 13.435510089026764 0 0 0
427 1 2 -1.1794 5.063727671183482 13.545889987600924 12.839563456741343 0 0 0
233 1 1 0.5897 3.4649192344535256 14.469100124579343 13.627767951664381 0 0 0
639 1 1 0.5897 1.1594691765932086 13.852906716937184 13.314212859934885 0 0 0
428 1 1 0.5897 5.267777075400177 12.683539681316953 13.201493605178122 0 0 0
297 1 1 0.5897 8.008135232761159 14.275976941283382 13.521278289711802 0 0 0
296 1 1 0.5897 7.35321130757608 14.792893330308068 14.784270575825712 0 0 0
295 1 2 -1.1794 7.378185752553557 14.92396793514207 13.836569584911707 0 0 0
270 1 1 0.5897 7.755684380772167 16.62819704780496 13.569893450513112 0 0 0
638 1 1 0.5897 0.5930159574078753 12.45438367056725 13.438022612585346 0 0 0
637 1 2 -1.1794 0.39483949367795446 13.323247279220622 13.088623684512141 0 0 0
767 1 1 0.5897 0.7678897187940533 13.362803172636612 11.271264016654996 0 0 0
604 1 2 -1.1794 3.1187929304489797 17.40803594963478 13.217573771084963 0 0 0
49 1 2 -1.1794 7.504345324606146 14.655819733559083 16.598348283411603 0 0 0
268 1 2 -1.1794 7.9268777127672285 17.556008153710764 13.40801972441794 0 0 0
455 1 1 0.5897 5.034135897692147 13.424766011770137 11.139877844897669 0 0 0
605 1 1 0.5897 3.0550029383256807 17.43913265009509 12.26316358098952 0 0 0
453 1 1 0.5897 0.29349366639739694 14.256400749460829 20.951777700062095 0 0 0
583 1 2 -1.1794 3.1221658530745273 17.240821758151917 17.950684829459224 0 0 0
823 1 2 -1.1794 3.0857889215467478 14.681109361060198 16.72439196743929 0 0 0
716 1 1 0.5897 3.181608238123422 17.53368319955284 19.716631716044564 0 0 0
51 1 1 0.5897 8.274928122141011 14.155724213297665 16.86700410923547 0 0 0
157 1 2 -1.1794 7.794214243144259 17.471558647964088 20.554489663933246 0 0 0
610 1 2 -1.1794 7.749622189788589 17.231847580646225 17.642550863245347 0 0 0
124 1 2 -1.1794 5.3848876136466926 13.357476812331267 17.63144004638466 0 0 0
316 1 2 -1.1794 7.670762944952337 14.838306968802073 21.381377181962343 0 0 0
318 1 1 0.5897 7.65754128714668 15.766132630405794 21.146207108881352 0 0 0
125 1 1 0.5897 5.448449027846641 13.415588314124019 18.5845996002767 0 0 0
159 1 1 0.5897 7.770520030347229 17.583470993448707 19.60430592321558 0 0 0
451 1 2 -1.1794 1.0705436656794705 13.750004749178249 20.715491655692087 0 0 0
584 1 1 0.5897 3.1311611992795694 16.38338782214487 17.525255403866282 0 0 0
52 1 2 -1.1794 0.8775574179501983 13.50685373027341 17.974629057756566 0 0 0
665 1 1 0.5897 2.6278419102604276 14.632613475268027 21.30058659592683 0 0 0
824 1 1 0.5897 3.8365388022154283 14.144303890774825 16.977986767157383 0 0 0
682 1 2 -1.1794 5.411714671746015 13.59765476416846 20.49824901750547 0 0 0
684 1 1 0.5897 4.6993771594263425 14.126161275040843 20.85788001788065 0 0 0
126 1 1 0.5897 6.039775493986797 13.976629148963424 17.309113711928443 0 0 0
683 1 1 0.5897 6.208615727157568 14.054886865201238 20.766464110116154 0 0 0
50 1 1 0.5897 7.64314094793512 15.527832175698716 16.967968606383877 0 0 0
666 1 1 0.5897 3.383341306518779 15.940825911792059 21.20172392413907 0 0 0
664 1 2 -1.1794 3.433093006525975 15.064940619544746 21.584671266891835 0 0 0
452 1 1 0.5897 0.9364862678334234 12.897333856136889 21.12933207119132 0 0 0
825 1 1 0.5897 2.3475474129090026 14.30120353869317 17.200519247173965 0 0 0
53 1 1 0.5897 0.8719655847996288 13.503270440509626 18.93164743754419 0 0 0
611 1 1 0.5897 6.980313962414343 17.546786430436676 17.16823511511143 0 0 0
446 1 1 0.5897 0.9249866915583039 11.907024084574354 17.106554780827977 0 0 0
267 1 1 0.5897 6.257804762359266 21.640066568280616 2.6687223724471805 0 0 0
696 1 1 0.5897 1.7220647797665014 21.503484201721825 2.547152138228108 0 0 0
266 1 1 0.5897 4.7458673867891115 21.683131785367152 2.6100754632083447 0 0 0
265 1 2 -1.1794 5.474763176532852 21.19881701993799 2.99764767773375 0 0 0
228 1 1 0.5897 5.469346393191412 19.62265626887075 2.3245776243628615 0 0 0
343 1 2 -1.1794 0.6273099491849062 18.73460455508811 2.1867774004823803 0 0 0
249 1 1 0.5897 5.143358394406381 21.16310250144989 5.007777555018473 0 0 0
226 1 2 -1.1794 5.358530340865868 18.72675903398067 2.0061238032617665 0 0 0
187 1 2 -1.1794 3.136053288954364 22.555176376195675 1.9829979102642958 0 0 0
227 1 1 0.5897 4.481025885585956 18.47631226221101 2.2946693540745606 0 0 0
818 1 1 0.5897 8.450934378997555 22.10939469644331 2.478629705887009 0 0 0
189 1 1 0.5897 3.1522031848801944 22.612967982372034 1.0278288922969945 0 0 0
344 1 1 0.5897 1.421705923631441 18.290859211257136 2.4835404535143395 0 0 0
817 1 2 -1.1794 7.6779094469427065 22.499469014659176 2.0708371797346294 0 0 0
345 1 1 0.5897 0.6737390392689316 18.696430286477366 1.2316246234703645 0 0 0
413 1 1 0.5897 0.9271384465218178 21.29994752246465 4.666944260953457 0 0 0
695 1 1 0.5897 0.7257533577427447 20.365080910217024 2.604312595539854 0 0 0
694 1 2 -1.1794 0.849856154588084 21.276521506488116 2.869280463720769 0 0 0
450 1 1 0.5897 6.930857680638125 17.985282393644596 2.562208769669706 0 0 0
321 1 1 0.5897 9.076488049658755 18.445515384641993 2.195882735534937 0 0 0
602 1 1 0.5897 5.4275949946245445 18.749938773007912 0.1795821592279344 0 0 0
819 1 1 0.5897 7.704486641930018 23.418784038773566 2.3363033444458536 0 -1 0
292 1 2 -1.1794 2.924985565647196 17.728007526962216 3.007855267295943 0 0 0
294 1 1 0.5897 3.12288442393242 17.721346781422653 3.9441934036291433 0 0 0
498 1 1 0.5897 7.912309128379174 22.660740337649685 0.27563486357288625 0 0 0
309 1 1 0.5897 8.163766963654817 17.851692049661438 6.006137875591 0 0 0
86 1 1 0.5897 7.292719738783005 22.730674551584578 8.574298614325592 0 0 0
404 1 1 0.5897 1.684830725652188 18.264215803986716 9.622658484994648 0 0 0
87 1 1 0.5897 8.055455959262716 22.17544804094066 9.758058556626032 0 0 0
385 1 2 -1.1794 5.171933685014029 18.527295920992742 6.768695181225318 0 0 0
247 1 2 -1.1794 5.252413806442202 21.18295086121244 5.958385780473453 0 0 0
412 1 2 -1.1794 0.865120420389145 21.386296133424423 5.618066193143146 0 0 0
340 1 2 -1.1794 1.0072635495674032 18.84484476535353 6.547724710734648 0 0 0
383 1 1 0.5897 3.8588244384250348 17.698204358644922 10.107635945785058 0 0 0
185 1 1 0.5897 8.246822029241656 17.91912183301737 10.165610805692276 0 0 0
555 1 1 0.5897 5.189002314431099 20.55236033080375 10.041571716520345 0 0 0
387 1 1 0.5897 5.311160010758019 19.402694631459013 6.4073426270476554 0 0 0
102 1 1 0.5897 5.239063539053555 18.80190183735155 8.637667767592072 0 0 0
554 1 1 0.5897 5.743188775196545 21.96122061815734 10.049350822963316 0 0 0
403 1 2 -1.1794 0.8797549823333172 18.616671053531533 9.243652536298814 0 0 0
248 1 1 0.5897 4.484165923954371 21.655770572475312 6.278221320393635 0 0 0
37 1 2 -1.1794 2.824491941005746 22.608457820602254 9.488037233597874 0 0 0
31 1 2 -1.1794 7.3809629557095615 22.780218470385975 6.741284158808908 0 0 0
101 1 1 0.5897 6.04296432418231 18.477553595011784 9.878544828342067 0 0 0
85 1 2 -1.1794 7.256397367520767 22.649000327324927 9.527166572365777 0 0 0
100 1 2 -1.1794 5.183638820834787 18.78748683440123 9.593004539632707 0 0 0
94 1 2 -1.1794 0.7662258551905242 21.050423059868024 10.38795961329268 0 0 0
386 1 1 0.5897 5.950662558405035 18.03433441377088 6.51054306967479 0 0 0
701 1 1 0.5897 2.896309395022292 22.74674393216909 7.692448416434813 0 0 0
32 1 1 0.5897 8.1176489319333 22.203293118438246 6.5399064977599695 0 0 0
700 1 2 -1.1794 3.0988396283950292 22.77637849137303 6.757537085517667 0 0 0
39 1 1 0.5897 3.5819188278269016 22.142949720140216 9.842523100301568 0 0 0
33 1 1 0.5897 6.606601569055587 22.277085283906843 6.489692830453013 0 0 0
342 1 1 0.5897 1.0254424961115705 18.737220427016688 7.498528645876554 0 0 0
414 1 1 0.5897 0.9415007515694448 20.49016580375308 5.9458073495247525 0 0 0
38 1 1 0.5897 2.0755923153246014 22.05913382631931 9.719293533268383 0 0 0
553 1 2 -1.1794 5.068916653262189 21.41087160554013 10.447547176395664 0 0 0
702 1 1 0.5897 2.3466525312296174 22.36116414338771 6.335816707468665 0 0 0
405 1 1 0.5897 0.8195688263792156 19.506105699193036 9.59233074131254 0 0 0
341 1 1 0.5897 1.6719786836311223 18.236611386266674 6.22469407702737 0 0 0
184 1 2 -1.1794 7.458433546731423 17.649820414425427 10.636681068034953 0 0 0
240 1 1 0.5897 3.822954870804411 17.67215297494794 6.0735568078652244 0 0 0
88 1 2 -1.1794 5.033612025122202 21.264437593690886 13.08854092443855 0 0 0
381 1 1 0.5897 1.4201131060619776 21.563599060891164 13.455564117260653 0 0 0
90 1 1 0.5897 5.195716792377278 20.36339083094108 13.368082577422069 0 0 0
763 1 2 -1.1794 5.508096887844957 18.692252880126297 14.036371187031765 0 0 0
738 1 1 0.5897 3.5890962566561506 21.918292838042895 13.791253215114821 0 0 0
89 1 1 0.5897 5.068289417430648 21.22900906794969 12.132781483883578 0 0 0
736 1 2 -1.1794 2.803619677128488 22.30895322565607 14.173918014207487 0 0 0
789 1 1 0.5897 6.404859507878894 22.09214141911181 13.594378617840016 0 0 0
765 1 1 0.5897 6.393102659217824 18.417246289819303 13.797322999169623 0 0 0
787 1 2 -1.1794 7.168014292106117 22.589548064811922 13.888058724585466 0 0 0
503 1 1 0.5897 1.7074826235532272 18.172752629920765 13.864654466997903 0 0 0
764 1 1 0.5897 4.933843251175706 18.08885877013305 13.564918242954372 0 0 0
474 1 1 0.5897 5.483669850587338 18.437199828729128 15.827841421032675 0 0 0
350 1 1 0.5897 2.92560530495144 22.53578017093747 15.871566477771266 0 0 0
788 1 1 0.5897 7.077351969648355 22.628287265756043 14.840009897635948 0 0 0
504 1 1 0.5897 0.9011242679372713 18.64823225460581 15.05417986550071 0 0 0