LAMMPS data file via write_data, version 30 Jul 2021, timestep = 26750000

864 atoms
2 atom types
576 bonds
1 bond types
288 angles
1 angle types

0.08011596502806206 18.12745643496931 xlo xhi
0.14005774410027527 23.489120055910966 ylo yhi
0.12217848690169753 22.091017313092735 zlo zhi

Masses

1 1.00794
2 15.9994

Atoms # full

707 1 1 0.5897 3.2884729928963914 1.8375883810469131 4.221845563106837 0 0 0
706 1 2 -1.1794 3.212976495050294 1.73601590792553 3.273133535577362 0 0 0
30 1 1 0.5897 5.126892432225779 3.9788606616151694 2.5378438122465323 0 0 0
708 1 1 0.5897 2.4641764294020794 2.281391712825159 3.0322445217864975 0 0 0
29 1 1 0.5897 4.499793504654215 2.601434043727027 2.5020003682275367 0 0 0
28 1 2 -1.1794 5.1816920689249955 3.1335740995420083 2.0921115880643977 0 0 0
495 1 1 0.5897 8.09457938126853 2.3466088761739217 2.7240692212942195 0 0 0
1 1 2 -1.1794 0.8485868510934428 2.9795911308505603 2.4294644111833112 0 0 0
494 1 1 0.5897 6.5908575674142265 2.1805067322277223 2.670156141242456 0 0 0
493 1 2 -1.1794 7.387140692386111 1.7634369360661 2.9990294454514514 0 0 0
846 1 1 0.5897 7.6685586084839565 1.6633855892358433 4.816011558042355 0 0 0
3 1 1 0.5897 0.8662478612850973 3.9134901822323256 2.6386100660789475 0 0 0
597 1 1 0.5897 0.6227568485876503 5.7708812099621065 3.940028315061412 0 0 0
136 1 2 -1.1794 5.146841723186669 5.741840236896713 3.212748448048362 0 0 0
20 1 1 0.5897 0.6108851276778307 3.194979039950225 0.6178415271738739 0 0 0
819 1 1 0.5897 7.355956659319462 0.15525070339006794 2.218255077747083 0 0 0
595 1 2 -1.1794 0.5602188426190069 5.601709670423526 3.0000548014332926 0 0 0
137 1 1 0.5897 5.286956881522119 5.827541994844346 4.15566681558247 0 0 0
668 1 1 0.5897 5.33474475409028 3.24494795911483 0.1272303611084214 0 0 0
84 1 1 0.5897 6.288217872081928 2.564231640851953 6.559839010817662 0 0 0
676 1 2 -1.1794 5.058049650505697 5.494242471993208 10.404034129195537 0 0 0
786 1 1 0.5897 0.31520053174163093 2.558636029196443 6.327063460204701 0 0 0
675 1 1 0.5897 2.743779832298199 0.9247237392739026 10.039748623571441 0 0 0
686 1 1 0.5897 5.332094802596421 4.823435050135273 6.392714614628067 0 0 0
487 1 2 -1.1794 3.323143033587352 1.7998060735524497 5.962005060397094 0 0 0
845 1 1 0.5897 7.719195660767233 0.9344994966582577 6.141809237810049 0 0 0
34 1 2 -1.1794 0.7963077574245475 3.150000608748768 9.294833933600502 0 0 0
83 1 1 0.5897 4.777560064647433 2.5714366779983617 6.657423805332648 0 0 0
181 1 2 -1.1794 0.8140342139639001 5.776124717226568 5.733652775116272 0 0 0
276 1 1 0.5897 6.102230771889057 2.4294026041285903 9.877002024288728 0 0 0
355 1 2 -1.1794 7.828167038550581 1.8941800108259252 10.388381930682437 0 0 0
356 1 1 0.5897 7.737251232865208 0.9998963045918924 10.059456695608173 0 0 0
678 1 1 0.5897 5.209641781202865 4.5969572535139624 10.107203975211373 0 0 0
275 1 1 0.5897 5.3935825180184995 2.9133843990632022 8.629944325626347 0 0 0
36 1 1 0.5897 1.5568114251849774 2.7958520341707813 9.755645533964545 0 0 0
274 1 2 -1.1794 5.2958054960093195 2.8508564826290184 9.580001392850805 0 0 0
183 1 1 0.5897 0.6962996390041285 4.879159301823711 6.046382990052658 0 0 0
488 1 1 0.5897 2.501137490426212 2.249592104424005 6.15740302557246 0 0 0
673 1 2 -1.1794 2.8702796339884173 1.8128262772000059 10.373624707735111 0 0 0
35 1 1 0.5897 0.69170984850331 4.033506173675513 9.647928855956888 0 0 0
112 1 2 -1.1794 0.5920635732349728 5.656281032198492 10.350598279131269 0 0 0
785 1 1 0.5897 1.0080359210554524 3.0542507876784133 7.578454504792627 0 0 0
844 1 2 -1.1794 7.736410189047565 1.8116905840615714 5.759137136687058 0 0 0
489 1 1 0.5897 3.1779332829387674 0.8985824892956892 6.249952446722999 0 0 0
784 1 2 -1.1794 1.032451721443346 3.118700072264614 6.623814002461835 0 0 0
674 1 1 0.5897 3.7448251341346808 2.0598737857499194 10.073168864574676 0 0 0
82 1 2 -1.1794 5.55700544907178 3.04571829389262 6.946698399560848 0 0 0
685 1 2 -1.1794 5.362494795748735 5.700492867251771 6.010559347076686 0 0 0
166 1 2 -1.1794 2.8165789608282976 1.9238481423009277 13.053309973499934 0 0 0
167 1 1 0.5897 2.84287865566995 1.8857778321508196 12.097307592781325 0 0 0
457 1 2 -1.1794 5.185028604669882 3.2416977108630713 14.122552185972504 0 0 0
458 1 1 0.5897 5.883994666126654 2.688243708520893 13.774267886604255 0 0 0
459 1 1 0.5897 4.380677427920666 2.8660681251554 13.764676693629765 0 0 0
762 1 1 0.5897 5.279556329275429 4.902363534877827 13.39995423926584 0 0 0
594 1 1 0.5897 8.153209682045164 2.3090499770777084 13.462317330335908 0 0 0
168 1 1 0.5897 2.0960212091038586 2.522451453471875 13.249892768969218 0 0 0
71 1 1 0.5897 5.261812355545922 3.2038369881442414 15.875619770198398 0 0 0
592 1 2 -1.1794 7.363846354616274 1.9211444224568464 13.084727521309318 0 0 0
466 1 2 -1.1794 0.6159440001646823 3.349250566180291 13.84324247092496 0 0 0
593 1 1 0.5897 7.444276633888658 0.9853992586707155 13.269482631832341 0 0 0
468 1 1 0.5897 0.6660924986264298 3.272918036502388 14.79599049564294 0 0 0
365 1 1 0.5897 0.5990643496691854 4.965147067873611 13.320617441096395 0 0 0
761 1 1 0.5897 5.096927251021013 5.7014746336723 12.127294323423286 0 0 0
737 1 1 0.5897 2.7505246142488455 0.14128787754006086 13.527407837606965 0 1 0
113 1 1 0.5897 0.6074236556238674 5.754149400801509 11.30257670530809 0 0 0
357 1 1 0.5897 7.775499120817286 1.8063261610201407 11.340010246563493 0 0 0
760 1 2 -1.1794 5.08347168201693 5.783216126018695 13.080817930090255 0 0 0
364 1 2 -1.1794 0.568298868248027 5.892975322092501 13.087366641235638 0 0 0
142 1 2 -1.1794 5.207921604905605 5.7639020857616865 20.389879304208918 0 0 0
144 1 1 0.5897 5.265418867468256 5.709491361963966 19.436038674939198 0 0 0
133 1 2 -1.1794 0.7163655162973618 3.1778481362436493 16.73550490284447 0 0 0
646 1 2 -1.1794 0.8403704488729209 5.705665030681127 20.714071125467257 0 0 0
571 1 2 -1.1794 0.6105297485460452 5.673005266079166 17.771942131216527 0 0 0
648 1 1 0.5897 0.8827323618610068 5.7162409436961985 19.75794100255372 0 0 0
143 1 1 0.5897 5.141983024898485 4.853685350433924 20.67861689712847 0 0 0
756 1 1 0.5897 6.919640735820259 2.4328943497931905 17.28854856272715 0 0 0
569 1 1 0.5897 2.1212888474746188 2.2228902708912863 21.01734447849016 0 0 0
290 1 1 0.5897 3.044416731051762 1.1133640962499851 17.41637377739741 0 0 0
289 1 2 -1.1794 3.0747048941158894 1.9178290800584836 17.934162104762073 0 0 0
72 1 1 0.5897 4.681653916047179 2.6506431224516906 17.159741520736723 0 0 0
19 1 2 -1.1794 0.6029045686019443 3.1465861512062743 21.630822309284113 0 0 0
754 1 2 -1.1794 7.658290251687531 1.8697356319260938 17.5196639302275 0 0 0
277 1 2 -1.1794 5.331736280031389 5.779611566050795 17.647095804784875 0 0 0
21 1 1 0.5897 0.8046906932431896 4.037144227088051 21.343773995226798 0 0 0
40 1 2 -1.1794 7.794431805760163 1.9414133931539648 20.20092362342313 0 0 0
570 1 1 0.5897 2.842633667717587 1.9303863532911316 19.71901398300278 0 0 0
278 1 1 0.5897 5.355330606236355 4.862682142054865 17.373414709045903 0 0 0
134 1 1 0.5897 0.5760664645627995 4.082344888995251 17.015546277090323 0 0 0
41 1 1 0.5897 6.928101369727296 2.2774318368914086 20.430502991982515 0 0 0
291 1 1 0.5897 2.3232907651136276 2.4271091535839915 17.63056981890186 0 0 0
667 1 2 -1.1794 5.30285274903862 3.095606542018385 21.15119947865606 0 0 0
70 1 2 -1.1794 5.382916158651353 3.2095324494551596 16.82503202934145 0 0 0
568 1 2 -1.1794 2.9419918354338206 1.8743756920254317 20.669318196195235 0 0 0
669 1 1 0.5897 4.482510145299105 2.6229573837944593 21.01049415373066 0 0 0
755 1 1 0.5897 7.729033853236256 1.9451939015797899 18.47117632347905 0 0 0
42 1 1 0.5897 7.784156747661022 1.0305010464267514 20.494756660275982 0 0 0
323 1 1 0.5897 7.512762901692956 0.31186684047741053 16.83613380857946 0 1 0
123 1 1 0.5897 2.9778270202443515 8.791975037758263 2.7501224324798708 0 0 0
121 1 2 -1.1794 2.998705966081661 9.713099676567145 3.009552561409001 0 0 0
122 1 1 0.5897 2.8708192301632276 9.698218420863972 3.95797180278265 0 0 0
44 1 1 0.5897 1.4739133400157005 10.520575150160864 2.552820616987213 0 0 0
218 1 1 0.5897 5.836088998260409 10.802393852221597 2.3484658396405673 0 0 0
417 1 1 0.5897 7.865821122752142 6.818269009431524 2.266861533695897 0 0 0
219 1 1 0.5897 4.327327109801268 10.766000578138616 2.2301224085315443 0 0 0
254 1 1 0.5897 2.952705824819472 6.980345971914302 1.3231886400797694 0 0 0
415 1 2 -1.1794 7.0616136468169355 7.265229087288255 2.0029897112186843 0 0 0
217 1 2 -1.1794 5.104761913493775 11.192542056902923 1.8698295715048572 0 0 0
66 1 1 0.5897 7.3446787054023055 9.805514661708772 3.9581980864625934 0 0 0
65 1 1 0.5897 7.139888394784007 9.040892304239176 2.6678320611431605 0 0 0
64 1 2 -1.1794 7.249414363482863 9.926711038794306 3.013568308588929 0 0 0
253 1 2 -1.1794 3.0139582699774627 7.044774914422764 2.2761674258418583 0 0 0
255 1 1 0.5897 2.196203273106372 6.66339788275839 2.5955095654331317 0 0 0
416 1 1 0.5897 6.358204525515925 6.732105152808444 2.373326122489744 0 0 0
43 1 2 -1.1794 0.7239413374300463 10.949771384321906 2.141140970178082 0 0 0
138 1 1 0.5897 4.405361234128148 6.317918505261003 3.0269930741528084 0 0 0
773 1 1 0.5897 8.684055363276908 10.839904307862993 2.407284042571337 0 0 0
396 1 1 0.5897 0.8250087047634679 11.1098672590397 0.329805021773133 0 0 0
162 1 1 0.5897 7.4197954409976115 7.134099845288782 0.26551389337931086 0 0 1
165 1 1 0.5897 9.04209357218877 6.123580187594204 6.231464721981168 0 0 0
687 1 1 0.5897 4.567965475230927 6.128757609220199 6.329087526899244 0 0 0
13 1 2 -1.1794 0.4637007576141925 11.060401462064757 9.255397169198814 0 0 0
793 1 2 -1.1794 2.9464979851760016 9.465079799368823 5.795462909924485 0 0 0
714 1 1 0.5897 7.371970104726308 8.69868201010668 6.181400136946929 0 0 0
713 1 1 0.5897 8.121564187959953 10.010142462289677 6.081411558043106 0 0 0
649 1 2 -1.1794 2.8309275643059992 7.078480259797702 9.584768067137187 0 0 0
712 1 2 -1.1794 7.340028399927005 9.558797189168 5.762597909345921 0 0 0
581 1 1 0.5897 6.002269552637285 10.616446258161766 9.913484338269138 0 0 0
820 1 2 -1.1794 7.418573652061623 9.571261937068533 10.203799402111967 0 0 0
11 1 1 0.5897 2.2495861522903926 6.450220679998164 6.458487744138606 0 0 0
550 1 2 -1.1794 0.7122622711701824 10.853244054439418 6.4730646012653485 0 0 0
551 1 1 0.5897 0.6350372778753962 10.956692392237468 7.421436555408877 0 0 0
257 1 1 0.5897 2.857959545083583 8.889482763571914 9.906345640814175 0 0 0
582 1 1 0.5897 5.088978190829272 11.029222491722594 8.77897808646156 0 0 0
526 1 2 -1.1794 7.25112965188777 6.840975991861322 9.626079074273553 0 0 0
527 1 1 0.5897 7.253576788709949 7.784273316982253 9.788561136062691 0 0 0
145 1 2 -1.1794 7.377489113459209 7.128621945971887 6.877379314764367 0 0 0
114 1 1 0.5897 1.3832630960995342 6.103657900259322 10.050589798218118 0 0 0
822 1 1 0.5897 8.17702072767468 10.10052753102364 9.957236260147404 0 0 0
258 1 1 0.5897 3.566083230390218 10.213096966710108 10.10237720977971 0 0 0
795 1 1 0.5897 3.686415068315569 9.921914314868056 6.19542403217129 0 0 0
528 1 1 0.5897 8.11553443003058 6.545912553210369 9.912243758728858 0 0 0
578 1 1 0.5897 5.805679480069538 10.281410431659017 6.572802116995947 0 0 0
650 1 1 0.5897 2.995615542741274 7.025240593862732 8.643430388030788 0 0 0
256 1 2 -1.1794 2.7543278955848276 9.750772138609548 10.310863700260821 0 0 0
147 1 1 0.5897 7.295291739863083 7.132130615148053 7.830957983735181 0 0 0
15 1 1 0.5897 1.2548055664506061 10.654328147543268 9.609518649596819 0 0 0
794 1 1 0.5897 2.173887182695188 9.918231592583549 6.132915396645153 0 0 0
10 1 2 -1.1794 3.037666727643217 6.869129312722107 6.804317135017335 0 0 0
651 1 1 0.5897 3.5277405966210127 6.554839531900933 9.980262610340148 0 0 0
580 1 2 -1.1794 5.159130442450842 11.032258412868213 9.733514732457309 0 0 0
577 1 2 -1.1794 5.0710635550401335 10.787577337323317 6.919627353530619 0 0 0
146 1 1 0.5897 6.647586317697834 6.587940753654662 6.575599241349052 0 0 0
12 1 1 0.5897 3.0525741874715657 7.731750964252806 6.389760770952361 0 0 0
579 1 1 0.5897 5.129536673828945 11.6322388230678 6.473170293382756 0 0 0
552 1 1 0.5897 0.7376391909524287 11.748499689381978 6.135313567566408 0 0 0
677 1 1 0.5897 5.801670136789982 5.989503015480875 10.06066538132306 0 0 0
828 1 1 0.5897 7.439647114428375 7.042929677184868 14.520846885646064 0 0 0
261 1 1 0.5897 0.635343515597225 11.044458815773064 14.8214126018938 0 0 0
332 1 1 0.5897 2.7756126642503065 7.754403131098055 13.82159291346528 0 0 0
797 1 1 0.5897 2.8495952443878907 9.53091056526488 12.280092560719847 0 0 0
796 1 2 -1.1794 2.817499275848018 9.440541566596801 13.23239249629124 0 0 0
798 1 1 0.5897 2.1161617807362885 10.03165621533229 13.506022491994717 0 0 0
722 1 1 0.5897 4.340240368714748 10.28181529304872 13.746432987731026 0 0 0
333 1 1 0.5897 3.568555432305038 6.464984781981686 13.800461370688726 0 0 0
259 1 2 -1.1794 0.8002938185146109 11.084151501268778 13.879451741275936 0 0 0
721 1 2 -1.1794 5.029188386805597 10.882109961858644 14.03135348657792 0 0 0
723 1 1 0.5897 5.0587456402966815 10.779314621285739 14.98248439081922 0 0 0
331 1 2 -1.1794 2.7685513082106703 6.855932075358387 14.151594560897085 0 0 0
225 1 1 0.5897 2.8490501579038474 6.959271044069607 15.998144320853212 0 0 0
826 1 2 -1.1794 7.479343051552321 7.054309129557149 13.564621965132593 0 0 0
475 1 2 -1.1794 7.3032046685491325 9.674234046476787 12.8917083118155 0 0 0
476 1 1 0.5897 6.493957069835977 9.968345833281775 13.309747538572745 0 0 0
477 1 1 0.5897 7.375613879491364 8.750572583770893 13.132181292198746 0 0 0
827 1 1 0.5897 6.69292619471532 6.585069347475776 13.286203293060419 0 0 0
366 1 1 0.5897 1.3773419092132757 6.2575751623741045 13.446053274222807 0 0 0
104 1 1 0.5897 8.80975931309999 10.446179860498129 13.608217536468434 0 0 0
821 1 1 0.5897 7.400051415891145 9.609300917001962 11.15999274623639 0 0 0
851 1 1 0.5897 9.004626406335081 6.197417717148027 13.237337891045444 0 0 0
520 1 2 -1.1794 7.384771505109158 7.0054861139439595 16.332271622291884 0 0 0
363 1 1 0.5897 5.269983280834146 11.088124594107622 22.064329076371266 0 0 0
445 1 2 -1.1794 0.5423545985467706 10.904986420567862 16.751978696515117 0 0 0
647 1 1 0.5897 1.7001577954286693 6.017960511256533 20.995817499896923 0 0 0
223 1 2 -1.1794 2.9219140442134033 6.918350755484261 16.951606773298117 0 0 0
679 1 2 -1.1794 5.095298283493606 10.95042012512368 16.793195160952187 0 0 0
224 1 1 0.5897 2.983601378616502 7.83297929212276 17.227026248011626 0 0 0
141 1 1 0.5897 7.422918878931135 8.937055629740755 20.73173824258535 0 0 0
8 1 1 0.5897 7.3829594754706305 9.565656361648422 18.586661142357414 0 0 0
572 1 1 0.5897 1.328537975592771 6.20396927348426 17.4274222048103 0 0 0
140 1 1 0.5897 6.70339167780432 10.25964128778763 20.57397808301822 0 0 0
279 1 1 0.5897 4.468036508053177 6.089266377960417 17.37455063848794 0 0 0
394 1 2 -1.1794 0.8963887761395615 11.209106634039529 21.34936497415758 0 0 0
680 1 1 0.5897 4.369909136379624 10.470346374092184 17.192550594774154 0 0 0
689 1 1 0.5897 3.7500895312142335 10.166264856978723 20.638068155202973 0 0 0
521 1 1 0.5897 6.65934748413421 6.507295855425523 16.70873713551518 0 0 0
6 1 1 0.5897 3.044784650374358 8.004280379318667 21.12597836085881 0 0 0
688 1 2 -1.1794 2.9574632483825676 9.697280009361066 20.37739777107784 0 0 0
7 1 2 -1.1794 7.32234871104916 9.433874985271427 17.640597913877045 0 0 0
161 1 1 0.5897 6.801800614592847 6.604219975082193 20.958074179151964 0 0 0
160 1 2 -1.1794 7.504161592051738 7.168309384153794 21.28157439627293 0 0 0
626 1 1 0.5897 2.8190000988006445 9.610638809782216 18.597247349021828 0 0 0
522 1 1 0.5897 7.32337741970196 7.867313659934336 16.744188574740683 0 0 0
9 1 1 0.5897 6.5415942190458924 9.922314591337505 17.37981730930607 0 0 0
690 1 1 0.5897 2.2612277401229397 10.092762167280153 20.901789101089932 0 0 0
361 1 2 -1.1794 5.206437901514916 11.10800905411314 21.109530642402028 0 0 0
5 1 1 0.5897 3.9245510339271616 6.77458213668343 21.050196231046023 0 0 0
139 1 2 -1.1794 7.5219815457231025 9.812863466428619 20.358438762284656 0 0 0
4 1 2 -1.1794 3.1433567547536874 7.1209797391515455 21.481366289546926 0 0 0
625 1 2 -1.1794 2.8757753757366915 9.598346208692133 17.641879848118514 0 0 0
627 1 1 0.5897 2.079588791604836 10.041237347626705 17.348476538526135 0 0 0
287 1 1 0.5897 9.017989388722322 10.691766220814957 20.978071929793515 0 0 0
246 1 1 0.5897 8.667901465169647 10.561092661296662 17.127525537969376 0 0 0
395 1 1 0.5897 0.13419679382268157 10.746124959432677 21.001718547807734 0 0 0
462 1 1 0.5897 8.862865628103133 6.3557744281385915 20.621070345874223 0 0 0
711 1 1 0.5897 8.642036906328899 6.138164551007011 17.11687523062399 0 0 0
446 1 1 0.5897 0.5516291458926337 11.748523250058245 17.204262579916644 0 0 0
200 1 1 0.5897 5.297166943913268 13.553132120467064 4.837406427785507 0 0 0
173 1 1 0.5897 4.385268706182733 14.183366093613179 2.8280241760660787 0 0 0
172 1 2 -1.1794 5.1934156498831605 13.719596604722003 3.047043044093087 0 0 0
293 1 1 0.5897 3.05292583141376 16.84743282254155 2.698801077863666 0 0 0
558 1 1 0.5897 2.9927986337467405 15.186753890959556 1.350508852361323 0 0 0
556 1 2 -1.1794 3.0096319924245702 15.12636120557335 2.3055745299623096 0 0 0
557 1 1 0.5897 2.2585472530425355 14.574874653621439 2.524426408280651 0 0 0
478 1 2 -1.1794 7.21782521059132 15.126619295876932 2.2064459539873553 0 0 0
174 1 1 0.5897 5.099044203914214 12.863030488855351 2.6304140112534546 0 0 0
479 1 1 0.5897 8.01206842797345 14.669069871391045 2.4821125035369973 0 0 0
449 1 1 0.5897 7.595721856601497 16.781728122751073 2.6752399235543884 0 0 0
480 1 1 0.5897 6.501604085879783 14.585884545015569 2.5393150451467226 0 0 0
373 1 2 -1.1794 0.7941403258071555 13.647580268396414 2.9077006492651223 0 0 0
374 1 1 0.5897 0.525801984585897 13.690543479651316 3.8254292940048393 0 0 0
317 1 1 0.5897 7.296636347763811 14.891125695769666 0.27888207481421656 0 0 0
308 1 1 0.5897 7.689911008943082 17.505046131531014 4.919580806049806 0 0 0
655 1 2 -1.1794 0.557302686981517 13.486234189761948 5.572134843617749 0 0 0
45 1 1 0.5897 0.7736287504671018 11.857948164824627 2.4394331602858683 0 0 0
307 1 2 -1.1794 7.565498191190672 17.433430615041832 5.865872839740404 0 0 0
811 1 2 -1.1794 3.065794280233418 14.9595141895505 9.298645648796022 0 0 0
766 1 2 -1.1794 0.7334938765313364 13.748588982449244 9.99235156868209 0 0 0
767 1 1 0.5897 0.6781323312355063 13.760236084747223 10.947803073346307 0 0 0
14 1 1 0.5897 0.5429743649572059 11.985049070551344 9.489858145178328 0 0 0
382 1 2 -1.1794 3.281062392314877 17.484716922997542 10.529741759678474 0 0 0
238 1 2 -1.1794 3.113032907688129 17.43586540453105 5.635404016382298 0 0 0
184 1 2 -1.1794 7.623709367611979 17.269335227976967 10.38481431040173 0 0 0
376 1 2 -1.1794 7.53431542897975 14.629238654407514 9.523085855747565 0 0 0
377 1 1 0.5897 6.705918671162797 14.293061836737524 9.864978568771173 0 0 0
199 1 2 -1.1794 5.338546046075636 13.345228770823308 5.770755717823666 0 0 0
812 1 1 0.5897 3.752963211611717 14.482192112817044 9.76352279315312 0 0 0
454 1 2 -1.1794 5.192577195194819 13.684813524239894 10.486669353274957 0 0 0
456 1 1 0.5897 5.133565415765962 12.746280423648003 10.308052050258134 0 0 0
18 1 1 0.5897 3.802328277175652 14.392420686678221 6.331564515337514 0 0 0
16 1 2 -1.1794 2.9862533793124135 14.837442655594135 6.559881428113465 0 0 0
519 1 1 0.5897 8.432203693089516 14.285462348922065 6.503588976207813 0 0 0
239 1 1 0.5897 3.077452838480753 16.523496694366724 5.922675226298886 0 0 0
186 1 1 0.5897 7.554469634072965 16.40087809305487 9.988353775996806 0 0 0
656 1 1 0.5897 1.2855205802866352 14.028680154135898 5.874826252526252 0 0 0
201 1 1 0.5897 6.137525865674152 13.774206291284242 6.076952851783122 0 0 0
517 1 2 -1.1794 7.65284561254278 14.751842866232662 6.805655080707425 0 0 0
518 1 1 0.5897 7.7707357553405 15.647100767244034 6.488132951671464 0 0 0
17 1 1 0.5897 2.9846270583188894 14.8596577041644 7.516745676755781 0 0 0
378 1 1 0.5897 7.4354709048942444 14.588679438238263 8.571944289369405 0 0 0
384 1 1 0.5897 3.360280989700165 16.61206311825795 10.144508495021809 0 0 0
813 1 1 0.5897 2.251277478722216 14.664575666129796 9.705714525838081 0 0 0
185 1 1 0.5897 8.510524896776426 17.560136059668114 10.172361537149893 0 0 0
429 1 1 0.5897 5.978760757805284 13.923948828585116 13.547565294040057 0 0 0
232 1 2 -1.1794 2.792701192325891 14.783439093305443 13.92104511199934 0 0 0
234 1 1 0.5897 2.7168165784365557 14.792173605461803 14.875108794032192 0 0 0
606 1 1 0.5897 3.0514303102426474 16.507794845161225 13.541334310409553 0 0 0
427 1 2 -1.1794 5.1158530959388155 13.629779858830048 13.256024088633446 0 0 0
233 1 1 0.5897 3.6035779340369296 14.304793489732488 13.749185419830884 0 0 0
639 1 1 0.5897 1.3623624074733116 14.045891668771636 13.08724766165013 0 0 0
428 1 1 0.5897 5.077695572450299 12.707994311659938 13.51110654096523 0 0 0
297 1 1 0.5897 8.203569349179977 14.248984082711601 13.759249685381738 0 0 0
296 1 1 0.5897 7.547647216374191 14.779709302840912 15.016102025122182 0 0 0
295 1 2 -1.1794 7.466090839257682 14.77846213402358 14.062466738527487 0 0 0
270 1 1 0.5897 7.515253259699346 16.506866215501617 13.513195179604827 0 0 0
638 1 1 0.5897 0.7527141892257669 12.664561108546508 13.197219044332742 0 0 0
637 1 2 -1.1794 0.6415682135510773 13.508335192557851 12.759157108114131 0 0 0
455 1 1 0.5897 5.199391555756202 13.747342959595914 11.441717523205462 0 0 0
269 1 1 0.5897 7.457126139178521 17.25877316846957 12.200625193918079 0 0 0
605 1 1 0.5897 3.1840785418985464 17.373608731154714 12.30667577635254 0 0 0
268 1 2 -1.1794 7.524791459871878 17.39083347100456 13.146170957962513 0 0 0
604 1 2 -1.1794 3.153917787179691 17.417665171849524 13.262307577500678 0 0 0
362 1 1 0.5897 5.282792074895286 12.03491830456893 20.8831950810493 0 0 0
117 1 1 0.5897 8.862231092106544 14.23247348369653 20.65584816916453 0 0 0
824 1 1 0.5897 3.5020876169250337 14.693350527565029 17.025356947383152 0 0 0
52 1 2 -1.1794 0.7540890686339705 13.453543829884854 17.762953761296913 0 0 0
124 1 2 -1.1794 5.028329424975897 13.845070102696258 17.464662920524823 0 0 0
715 1 2 -1.1794 3.1280579086270874 17.640264429504583 20.374318166787845 0 0 0
823 1 2 -1.1794 2.7327533949443867 15.073564838216031 16.6014409866235 0 0 0
318 1 1 0.5897 7.431413457313122 15.814991633287077 21.05610753236858 0 0 0
682 1 2 -1.1794 5.0986600000852995 13.726994217615289 20.263206325283143 0 0 0
125 1 1 0.5897 5.085607393498632 13.73343023783764 18.41351992663244 0 0 0
825 1 1 0.5897 2.0093835411076872 14.502695381720542 16.860376708000018 0 0 0
664 1 2 -1.1794 3.025762602415305 15.172636273120101 21.46321538237183 0 0 0
683 1 1 0.5897 5.828062775192896 14.253953536854985 20.58946528496906 0 0 0
584 1 1 0.5897 3.226750605012342 16.652246178348726 17.22463582613657 0 0 0
316 1 2 -1.1794 7.339493448198945 14.89177946665204 21.29156512630822 0 0 0
51 1 1 0.5897 8.30931482658581 14.410090992507769 17.189710322047183 0 0 0
665 1 1 0.5897 2.178896561290141 14.817553543274057 21.193246230998007 0 0 0
452 1 1 0.5897 0.7090837169057529 12.904792670715354 20.845970910963068 0 0 0
50 1 1 0.5897 7.556344108516191 15.717428409197437 17.315073888328996 0 0 0
666 1 1 0.5897 3.0714400702015423 16.030924335856895 21.041958456811784 0 0 0
126 1 1 0.5897 5.840614138321594 14.29165900284511 17.226115535837373 0 0 0
684 1 1 0.5897 4.316996377277275 14.163452162467623 20.601811962619635 0 0 0
49 1 2 -1.1794 7.492435293913364 14.840317261163792 16.93719963982941 0 0 0
53 1 1 0.5897 0.7796734519318297 13.460654401807089 18.7197042379945 0 0 0
451 1 2 -1.1794 0.8124470257544336 13.780580444894285 20.473774600503546 0 0 0
610 1 2 -1.1794 7.670364414562472 17.47346402751859 17.76456843461046 0 0 0
159 1 1 0.5897 7.480551348821068 17.49121273541371 19.606615842428774 0 0 0
157 1 2 -1.1794 7.467006799430352 17.601485141827578 20.557263256352506 0 0 0
583 1 2 -1.1794 3.34821636650643 17.500537973744187 17.651057540378247 0 0 0
681 1 1 0.5897 4.973639841267041 11.854348724958326 17.08357337558577 0 0 0
267 1 1 0.5897 5.851857348762495 21.944859490626733 2.7853150210223507 0 0 0
696 1 1 0.5897 1.1884481582142818 21.59780480994673 2.577212829758785 0 0 0
266 1 1 0.5897 4.362089313405908 21.7900205471959 3.0051253222163017 0 0 0
265 1 2 -1.1794 5.208980891141063 21.44740146158103 3.290681747819751 0 0 0
228 1 1 0.5897 5.289702177203533 19.782913629673967 2.689956885865712 0 0 0
343 1 2 -1.1794 0.6082244047264266 18.63637981968916 2.0688026625164113 0 0 0
249 1 1 0.5897 5.463880721171641 21.182979160194424 5.110415569688319 0 0 0
226 1 2 -1.1794 5.4419540059510405 18.913981430128807 2.31851372009098 0 0 0
187 1 2 -1.1794 2.773890324934384 22.405195732057614 2.1463652370765733 0 0 0
818 1 1 0.5897 8.129024106281856 22.22036110758004 2.4318781848218074 0 0 0
189 1 1 0.5897 2.811248027890306 22.480993371586326 1.192982556043971 0 0 0
344 1 1 0.5897 1.4585960801798044 18.315228421950827 2.368605390711599 0 0 0
817 1 2 -1.1794 7.367344832036633 22.578355559744793 1.976006527555383 0 0 0
345 1 1 0.5897 0.7202531068929887 18.76958067796189 1.127633862823678 0 0 0
694 1 2 -1.1794 0.31965241480614504 21.284541007022042 2.828609154556942 0 0 0
413 1 1 0.5897 0.5837860194768182 20.896384377013366 4.783579045283827 0 0 0
695 1 1 0.5897 0.34110198908012435 20.345179034867567 2.6459843459239516 0 0 0
227 1 1 0.5897 4.633025907866704 18.43311731374983 2.493349701087966 0 0 0
602 1 1 0.5897 5.368099925210967 19.042621244726547 0.549613874227131 0 0 0
321 1 1 0.5897 9.06021054997021 18.382766092975338 2.3291456147858147 0 0 0
188 1 1 0.5897 2.7483140470413656 23.30980862409502 2.4581750354647447 0 0 0
448 1 2 -1.1794 7.7061822577301475 17.673513846805996 3.005010516007469 0 0 0
450 1 1 0.5897 6.887289527791198 18.11545317888111 2.7808362023895974 0 0 0
294 1 1 0.5897 2.998683370057916 17.693397337851774 3.9530038889459345 0 0 0
292 1 2 -1.1794 3.016497845928649 17.75590044216371 2.998091891272458 0 0 0
498 1 1 0.5897 7.359658263622906 22.673840021296296 0.2258768218264109 0 0 0
386 1 1 0.5897 6.091422741628742 18.133900899783253 6.541676636342683 0 0 0
248 1 1 0.5897 4.578910600336841 21.60480549024251 6.263894100985546 0 0 0
309 1 1 0.5897 8.321630461106997 17.883862074391043 6.242079310347506 0 0 0
240 1 1 0.5897 3.8729000182538313 17.80078919396803 6.088802437597327 0 0 0
31 1 2 -1.1794 7.665085778302244 22.5574711643379 6.749155982443715 0 0 0
554 1 1 0.5897 5.761191605711183 21.922750011383826 9.913772930731989 0 0 0
247 1 2 -1.1794 5.411779271241936 21.176583898019633 6.066102902062513 0 0 0
342 1 1 0.5897 0.7073144210522292 18.32092084096277 7.503239147169469 0 0 0
412 1 2 -1.1794 0.8671769063501826 20.913756127397185 5.6976168018712325 0 0 0
387 1 1 0.5897 5.3697692638607615 19.45715712407755 6.683167829009717 0 0 0
86 1 1 0.5897 7.451363446563382 22.672093724137536 8.551491411513192 0 0 0
383 1 1 0.5897 4.087962983618032 17.933004423025587 10.276548296180424 0 0 0
700 1 2 -1.1794 3.05810840038513 22.40046912685409 6.533715349075918 0 0 0
37 1 2 -1.1794 2.658858846255976 22.594006538880315 9.324802125268953 0 0 0
702 1 1 0.5897 2.300725682950098 21.951998073206457 6.157693236667999 0 0 0
32 1 1 0.5897 8.436299201093304 22.109236692131695 6.402071423249047 0 0 0
341 1 1 0.5897 1.52910847122662 17.99208337423243 6.275200267438256 0 0 0
39 1 1 0.5897 3.486821429833187 22.23954649710576 9.648832183513454 0 0 0
403 1 2 -1.1794 0.909238135166059 18.597217068661447 9.387887459206535 0 0 0
555 1 1 0.5897 5.083733894048467 20.569063454786008 9.933865072745368 0 0 0
38 1 1 0.5897 1.989439079006372 22.023504005884458 9.702381456329103 0 0 0
404 1 1 0.5897 1.7557031854398475 18.300481004542974 9.721937937806585 0 0 0
701 1 1 0.5897 2.9036895011157227 22.38154606077085 7.4781129830459045 0 0 0
414 1 1 0.5897 0.7602057734760751 20.01164298216039 5.9991978980539455 0 0 0
100 1 2 -1.1794 5.438819097667466 18.841470892158405 9.649315440398004 0 0 0
102 1 1 0.5897 5.414337287073312 18.68748025474803 8.704984141517095 0 0 0
33 1 1 0.5897 6.9332929219220665 21.98099258819594 6.529339781355199 0 0 0
85 1 2 -1.1794 7.294199626571834 22.680726172123585 9.495589898210334 0 0 0
385 1 2 -1.1794 5.301323462877821 18.52962924786983 6.909487229943514 0 0 0
94 1 2 -1.1794 0.5610357424966848 21.162402890852857 10.388445921567225 0 0 0
340 1 2 -1.1794 0.6805918796914242 18.341993173201647 6.546728118687771 0 0 0
101 1 1 0.5897 6.202501427298027 18.350683850619482 9.952754534567495 0 0 0
553 1 2 -1.1794 4.968379638974676 21.47746343894975 10.212633776050447 0 0 0
87 1 1 0.5897 8.020179802331453 22.17757099165401 9.864317873543323 0 0 0
405 1 1 0.5897 0.8468180058967587 19.51000426607855 9.66918831349859 0 0 0
88 1 2 -1.1794 5.150680336139227 21.5931280736993 12.976689229503602 0 0 0
381 1 1 0.5897 1.375174996437519 21.81584470936884 13.346603663780483 0 0 0
90 1 1 0.5897 5.134533850357839 20.677667791362957 13.255759464752588 0 0 0
763 1 2 -1.1794 5.377443769378918 18.95377221756329 13.845007236095832 0 0 0
738 1 1 0.5897 3.6415501284338085 22.268592105326064 13.599403097887818 0 0 0
89 1 1 0.5897 5.112590844543051 21.553389578555503 12.02115701814308 0 0 0
736 1 2 -1.1794 2.798240135714085 22.609046199945897 13.897852798154375 0 0 0
789 1 1 0.5897 6.693131012740196 22.36227473405891 13.54523195847933 0 0 0
765 1 1 0.5897 6.111104209962972 18.393078879785083 13.592951794892041 0 0 0
787 1 2 -1.1794 7.5164732729066674 22.754266984870423 13.836099836060162 0 0 0
503 1 1 0.5897 1.7593461724765578 18.366986550456442 13.71232468462219 0 0 0
764 1 1 0.5897 4.6094001313178845 18.385836037702287 13.783979168900915 0 0 0
474 1 1 0.5897 5.6062129131227465 18.858497087429978 15.664857112856863 0 0 0
350 1 1 0.5897 2.7546070888930476 22.623899660435093 15.760607004147795 0 0 0
788 1 1 0.5897 7.471996864411824 22.724507529114714 14.791720729976161 0 0 0
504 1 1 0.5897 0.988214026717351 18.81343134938416 14.936101638554504 0 0 0
380 1 1 0.5897 0.658570798015198 20.484383118297654 13.420893149655763 0 0 0