LAMMPS data file via write_data, version 30 Jul 2021, timestep = 14500000

864 atoms
2 atom types
576 bonds
1 bond types
288 angles
1 angle types

0.6679864307496821 17.539585969248193 xlo xhi
1.8783310516416254 21.75084674835663 ylo yhi
0.8149418852771042 21.398253914719398 zlo zhi

Masses

1 1.00794
2 15.9994

Pair Coeffs # lj/cut/tip4p/long/omp

1 0 0
2 0.21084 3.1668

Bond Coeffs # harmonic/omp

1 450 0.9572

Angle Coeffs # harmonic/omp

1 55 104.52

Atoms # full

289 1 2 -1.1794 3.0405872353862096 4.254616525705109 4.11813326335943 -3 -4 -8
432 1 1 0.5897 2.352159217767613 3.596638218899609 2.5206993507241275 -4 -4 -4
291 1 1 0.5897 3.5933458251914634 4.8084955920451 4.669372917148938 -3 -4 -8
430 1 2 -1.1794 2.001933506523062 3.342600238937598 1.6669049790799866 -4 -4 -4
389 1 1 0.5897 3.9609167512994095 2.6316953522455186 3.743625892458871 1 4 2
778 1 2 -1.1794 3.5979538308418126 6.274760266786785 1.9198415543169753 0 2 2
780 1 1 0.5897 4.500919396686597 5.9594528142126215 1.882245494308562 0 2 2
290 1 1 0.5897 2.1511159019690234 4.413021628503295 4.434215166076983 -3 -4 -8
779 1 1 0.5897 3.2635051433766735 5.945935159830871 2.7542318796237137 0 2 2
431 1 1 0.5897 2.7701075706515605 3.2905550552029226 1.0982523635713832 -4 -4 -4
323 1 1 0.5897 0.9512605857144905 6.373313725144333 1.7783122386340704 12 -1 -2
388 1 2 -1.1794 4.570254376629152 1.8935441862960596 3.747737554519578 1 4 3
738 1 1 0.5897 4.319797085410931 2.182782592539418 5.611962355866565 -3 3 -1
615 1 1 0.5897 0.847189193112122 6.414872800264613 5.783175900354276 -10 5 6
492 1 1 0.5897 2.562037260237071 5.622772889923844 8.634106957121693 0 7 5
490 1 2 -1.1794 2.3087828714956133 6.186227738273903 9.365252402932715 0 7 5
8 1 1 0.5897 3.816726598603559 5.15896901859295 6.848764170514488 2 -2 -3
363 1 1 0.5897 1.5224606439555646 3.838596006682561 7.3946625638642045 4 -2 -2
7 1 2 -1.1794 3.1129406346143855 4.635267601526164 7.231625283134785 2 -2 -3
9 1 1 0.5897 3.4328367192653726 3.7342397371886245 7.187123145812986 2 -2 -3
736 1 2 -1.1794 3.886759626124062 2.088505384480716 6.460347108301091 -3 3 -1
407 1 1 0.5897 1.1021404770503955 3.3903882616254077 10.784741234891777 -1 -3 4
491 1 1 0.5897 1.3579819284790315 6.092086846262455 9.422627564315048 0 7 5
683 1 1 0.5897 3.040271430126442 5.042316399093181 10.850687821252528 8 4 -5
362 1 1 0.5897 0.7711853290459278 3.095073244813218 8.47846395186755 4 -2 -2
361 1 2 -1.1794 0.7950753667265718 3.2316042756912156 7.5313613518704 4 -2 -2
406 1 2 -1.1794 0.8014119905186605 2.6334790698047867 10.281907138184978 -1 -3 4
737 1 1 0.5897 2.976954294595844 1.884489269864126 6.244026118017311 -3 3 -1
752 1 1 0.5897 0.8205927997846508 2.1568026687928894 5.99164517988012 6 0 1
703 1 2 -1.1794 3.2352547895152868 5.9225374149971834 13.882184615042314 3 4 -3
405 1 1 0.5897 1.5167185318519154 4.1176071969832515 15.41161134229573 3 -1 -3
682 1 2 -1.1794 3.16125369393943 4.450766847046675 11.593380022598566 8 4 -5
705 1 1 0.5897 3.2250917942324566 5.427021279462663 13.063285853016815 3 4 -3
183 1 1 0.5897 3.6777105253359172 3.9639030141235545 14.839314772906016 -7 2 -5
403 1 2 -1.1794 1.1303735627312432 3.649774730277242 14.671320506544365 3 -1 -3
181 1 2 -1.1794 4.194372413473678 3.1952097949727856 15.08096648469199 -7 2 -5
704 1 1 0.5897 2.313474736044658 5.996852581556796 14.129146903085664 3 4 -3
587 1 1 0.5897 3.3461831554718438 2.117098554662882 12.644537637314277 0 4 4
182 1 1 0.5897 3.7109458274438136 2.4556631032838503 14.71273611139165 -6 2 -5
684 1 1 0.5897 3.885729743863929 3.882425444821591 11.33196878323646 8 4 -5
824 1 1 0.5897 3.7394816314868424 6.796492463429273 15.3862261820012 -4 4 7
391 1 2 -1.1794 0.8457885576958944 6.770843084378873 14.962190017958532 2 -3 -1
191 1 1 0.5897 1.5430294637426223 4.107094214211484 17.783861508488364 7 4 -8
825 1 1 0.5897 4.534411454133789 6.393515725542395 16.609922556129234 -4 4 7
476 1 1 0.5897 4.591387799060878 3.833441013790864 20.540462373853035 8 -1 1
137 1 1 0.5897 1.4881697144182076 4.805594389825181 21.213661448293298 6 -7 1
190 1 2 -1.1794 1.9767705696259805 4.670223045937674 17.142830107360815 7 4 -8
192 1 1 0.5897 2.0894000812245452 5.50623435085761 17.59515805341616 7 4 -8
47 1 1 0.5897 4.698921622344058 4.212597872786768 17.053186389275954 6 -1 1
475 1 2 -1.1794 4.118861837372813 3.0149313953524994 20.69196809415618 8 -1 1
477 1 1 0.5897 3.951089542626339 2.6688942921981793 19.815453600251953 8 -1 1
138 1 1 0.5897 1.9159751916786736 5.8423068920988115 20.19683259860103 6 -7 1
136 1 2 -1.1794 1.1685394084398533 5.565036845018904 20.726573762467 6 -7 1
666 1 1 0.5897 0.679735028493288 2.174006187671908 19.225867373088533 -2 1 3
108 1 1 0.5897 1.3166505550797585 11.388159649504674 1.3025068024920405 -2 -1 2
106 1 2 -1.1794 1.8459689950689337 10.934548223291753 1.95843190394784 -2 -1 2
194 1 1 0.5897 4.2711209805211245 8.511908985224665 4.244491286529884 3 -2 2
236 1 1 0.5897 3.039065092627292 8.911878166022014 5.714992827569267 1 2 -5
195 1 1 0.5897 4.578707491401032 8.312275244529438 2.775720218592176 3 -2 2
710 1 1 0.5897 2.5925381601666935 11.136477710204131 5.633296296101361 -7 -4 -1
237 1 1 0.5897 2.3458187031477586 7.566118663791315 5.727216149933773 1 2 -5
235 1 2 -1.1794 3.1595056279513516 7.9960610402659915 5.464054263227998 1 2 -5
107 1 1 0.5897 1.206642240872918 10.52751028455981 2.5430808035695236 -2 -1 2
635 1 1 0.5897 2.0838505302451864 9.505815682080378 0.8364410062678335 -8 4 1
636 1 1 0.5897 2.8342700551905526 8.230511425614932 1.1561793875066513 -8 4 1
133 1 2 -1.1794 4.758906110105057 11.403443751884875 2.197377557929353 0 -6 1
135 1 1 0.5897 4.577561923836084 10.641160781363183 2.7471843861778034 0 -6 1
193 1 2 -1.1794 4.6024289356657455 8.969078829700372 3.471574210824484 3 -2 2
315 1 1 0.5897 4.827312496435504 10.333573091861448 5.880671733091681 1 -3 0
140 1 1 0.5897 1.645471331816258 9.01794576570153 9.435045768948934 1 -6 4
141 1 1 0.5897 1.6946600031465358 8.433874688362259 8.039281168067363 1 -6 4
139 1 2 -1.1794 1.7326887636596806 9.26404705045444 8.514184571114246 1 -6 4
711 1 1 0.5897 2.669239297908396 10.786104602298947 7.1040404710234135 -7 -4 -1
312 1 1 0.5897 4.308326690816999 7.400311141923314 6.942116584149671 5 5 5
709 1 2 -1.1794 3.0750156549914145 10.59547210674438 6.258368018276876 -7 -4 -1
613 1 2 -1.1794 0.8530778928351684 7.054264956803771 6.495494061996093 -10 5 6
310 1 2 -1.1794 4.5261630578650465 7.33265959918968 7.871723968472388 5 5 5
311 1 1 0.5897 3.6977206923474224 7.110988934023929 8.29681998842231 5 5 5
166 1 2 -1.1794 4.733074535279767 11.239386644809983 9.151129939287298 -7 0 3
167 1 1 0.5897 4.870547483695884 11.406734829422042 10.083471323395026 -7 0 3
677 1 1 0.5897 2.9604806210983554 11.641029671965576 8.825529188170396 1 2 -2
162 1 1 0.5897 3.3070014968405546 9.730505690751222 15.258756783355983 1 8 0
392 1 1 0.5897 1.1281670323508637 7.656071546434927 15.191969069743031 2 -3 -1
55 1 2 -1.1794 1.4695818128674278 9.358234196109498 15.968913411646424 -6 0 0
386 1 1 0.5897 0.6870029289886759 8.469263879756703 11.714989183765068 -5 0 -2
149 1 1 0.5897 3.742330210198938 8.735581813492239 12.918440533845299 -3 0 3
57 1 1 0.5897 0.9370565711780274 9.829742564209468 15.32840199633021 -6 0 0
570 1 1 0.5897 3.2164749084101847 11.358800978244942 13.730833306784103 0 0 -2
148 1 2 -1.1794 3.4937493102067263 8.075001208160925 12.27189440705052 -3 0 3
161 1 1 0.5897 4.720009001401267 10.077124600992377 14.84039594999122 1 8 0
265 1 2 -1.1794 1.2652341657714739 11.750799849416287 11.279946282390057 -1 -2 -1
160 1 2 -1.1794 3.8727532955683173 9.802225934837335 14.49001572965419 1 8 0
702 1 1 0.5897 0.9886098931565263 10.630527044921799 13.40520753432906 2 2 0
387 1 1 0.5897 2.156604550226783 8.647958510888358 11.398684739293982 -5 0 -2
385 1 2 -1.1794 1.2895657381124583 8.994971268372325 11.188943824677917 -5 0 -2
150 1 1 0.5897 3.1922881677979205 7.33079955761058 12.792902659247389 -3 0 3
266 1 1 0.5897 1.0315038383667874 10.824858363117864 11.2149445814972 -1 -2 -1
567 1 1 0.5897 3.8598800415541197 10.963551812832119 20.25092821456214 -1 9 -7
359 1 1 0.5897 2.504915699827021 7.60281789961402 19.31047263488221 6 2 -1
565 1 2 -1.1794 4.3621374179939245 10.27610936669155 19.81349862973965 -1 9 -7
302 1 1 0.5897 2.0794551688396323 11.0974404125258 18.766657683555728 0 4 4
823 1 2 -1.1794 3.993267644295657 7.100132615109728 16.25775412353545 -4 4 7
360 1 1 0.5897 3.199547669126612 7.234987022970928 18.016678440363656 6 2 -1
56 1 1 0.5897 1.4947427108363143 9.935790114854752 16.731771916955733 -6 0 0
157 1 2 -1.1794 4.236207165166245 10.92627962683757 17.209836031673113 0 1 1
301 1 2 -1.1794 1.555805136021311 10.348312216201748 18.482484557070723 0 4 4
158 1 1 0.5897 3.886682267502282 10.495949584386093 17.990114140665135 0 1 1
358 1 2 -1.1794 2.560667234682521 6.910884876029669 18.651467803122404 6 2 -1
634 1 2 -1.1794 2.159582768897966 8.587170912579438 21.161779643974185 -8 4 0
768 1 1 0.5897 2.3141394023496646 16.16182170832741 5.222511519022789 -2 -6 6
708 1 1 0.5897 3.3025593145130796 14.22168156507402 2.3166303163620907 -1 0 -5
109 1 2 -1.1794 3.225957072079206 14.562222177994151 5.5089947337552525 -2 -1 -7
440 1 1 0.5897 2.053783841047337 12.188118409113828 3.6714730246328795 3 2 4
110 1 1 0.5897 2.665167229230925 13.834948322114245 5.239270808641122 -2 -1 -7
707 1 1 0.5897 1.9286852549414786 14.346064192216154 1.6931663907822845 -1 0 -5
439 1 2 -1.1794 1.7251806677263695 12.335503518707931 4.558316638446435 3 2 4
231 1 1 0.5897 4.704478189321664 15.75629853804394 1.8560213382959525 4 1 -1
111 1 1 0.5897 4.11740647986503 14.2394857228887 5.3773803814068115 -2 -1 -7
706 1 2 -1.1794 2.602863110633545 13.704688144257265 1.9174680764851155 -1 0 -5
535 1 2 -1.1794 0.9094484181557949 15.599702948808964 1.068511285428915 6 10 8
229 1 2 -1.1794 4.828915736537754 14.978308994897292 2.399533094946172 4 1 -1
441 1 1 0.5897 0.7730612116341419 12.28774919882228 4.472481125982167 3 2 4
134 1 1 0.5897 3.9046214954435623 11.815804931409541 2.069604048424173 0 -6 1
678 1 1 0.5897 2.3669187100028974 13.032513703228288 8.769287148086857 1 2 -2
695 1 1 0.5897 0.8961529300073852 14.537950430650872 7.327981741121384 0 -4 0
696 1 1 0.5897 2.2626816714392373 15.10101660117921 7.000424606273818 0 -4 0
28 1 2 -1.1794 3.8489768063993717 14.784892182810442 9.588192030327065 -10 0 5
694 1 2 -1.1794 1.5908894466217525 15.09302083391953 7.682187923357915 0 -4 0
676 1 2 -1.1794 2.1584218777748623 12.113356199863789 8.602408632253702 1 2 -2
29 1 1 0.5897 3.257605515363944 14.921182223209662 8.847997151122808 -10 0 5
30 1 1 0.5897 3.2743996695352773 14.762266054110405 10.353398843791862 -10 0 5
460 1 2 -1.1794 1.5320516535369224 14.963126118745269 11.03408920498046 1 4 2
267 1 1 0.5897 1.5067985015069167 12.000516769808703 10.388065751128604 -1 -2 -1
568 1 2 -1.1794 2.5820228457991075 12.071019529022958 13.65068599158189 0 0 -2
210 1 1 0.5897 3.2812949391030846 15.099596532128174 16.18913291583324 4 -2 3
585 1 1 0.5897 1.6947268043083938 12.53769135734368 15.21332689914236 3 -3 3
462 1 1 0.5897 1.662288175235531 15.579276132098823 11.754899357831277 1 4 2
760 1 2 -1.1794 4.356239804192392 13.67583629027768 15.898567337899001 2 -6 4
813 1 1 0.5897 3.9981662564035525 14.123266564378838 13.772726702797431 -3 4 -5
450 1 1 0.5897 3.347744046222537 16.5455779606348 12.734296272467647 3 1 1
369 1 1 0.5897 0.7770335920788739 15.525435243333025 14.66928871410275 6 6 -2
811 1 2 -1.1794 4.4029364355779155 14.762253901169807 13.18619470312708 -3 4 -5
583 1 2 -1.1794 1.0154650574133839 12.6203501808047 15.882608811900145 3 -3 3
461 1 1 0.5897 1.3463232428951706 14.127820747450665 11.462979687391513 1 4 2
569 1 1 0.5897 2.290016958031141 12.030991866695677 12.740006782190221 0 0 -2
367 1 2 -1.1794 0.9699202567333423 15.561313311537115 13.732445563252476 6 6 -1
501 1 1 0.5897 1.5715481095399189 15.007779423088282 17.822202316824573 4 -2 -5
623 1 1 0.5897 4.073620968197678 14.112772776009415 19.044267462212442 2 -3 4
555 1 1 0.5897 2.6098641545828243 15.514689680517082 20.78755142191791 -3 -4 6
91 1 2 -1.1794 2.561127629146254 12.406815699298862 20.107171057643885 5 -5 -2
92 1 1 0.5897 2.137117367012905 13.061247945474973 19.55211060462955 5 -5 -2
499 1 2 -1.1794 1.3646914940363444 14.315216311832865 18.44970507453462 4 -2 -5
553 1 2 -1.1794 3.489258659331924 15.821858489762372 20.56735274502002 -3 -4 6
554 1 1 0.5897 3.3446258084724922 16.554558222533394 19.968680499657285 -3 -4 6
93 1 1 0.5897 2.550127734896547 12.791881428888091 20.983408990722936 5 -5 -2
209 1 1 0.5897 2.799871857613727 16.37164486497494 16.853842599223004 4 -2 3
208 1 2 -1.1794 2.501954979952554 15.641752086182008 16.311015092064693 4 -2 3
761 1 1 0.5897 4.2258164544184265 12.801970270881322 16.26670553593611 2 -6 4
584 1 1 0.5897 1.3438004252117899 13.296241209979213 16.475548575569757 3 -3 3
713 1 1 0.5897 1.7596596882132112 16.898528661909182 1.9221051900180284 -5 -1 1
578 1 1 0.5897 1.3361793379994644 20.956997796804316 2.2530710328791557 -1 2 1
102 1 1 0.5897 3.658831189800065 19.306475775175095 5.260023998452577 9 -5 -4
671 1 1 0.5897 2.5366583660216273 19.29756515215447 2.103059642421322 7 -2 5
714 1 1 0.5897 1.8168288463992655 17.218372509574166 3.4006830624249216 -5 -1 1
751 1 2 -1.1794 1.1146134339818838 21.298117460689888 5.448451304568439 6 -1 1
712 1 2 -1.1794 2.0845887320542733 17.54991904602047 2.543624308545203 -5 -1 1
767 1 1 0.5897 2.0097095532142095 17.64435567385954 5.2573415546386535 -2 -6 6
753 1 1 0.5897 0.8406945760884245 21.53252273868783 4.5617803675926165 6 -1 1
670 1 2 -1.1794 2.9939140491084926 20.055570045711953 1.7390385712278826 7 -2 5
672 1 1 0.5897 3.564841057743392 20.354131227143824 2.4468978874191407 7 -2 5
101 1 1 0.5897 2.228037555913139 19.780965452916 5.399467971840773 9 -5 -4
100 1 2 -1.1794 2.814802583653648 19.064359454992015 5.641042483939706 9 -5 -4
766 1 2 -1.1794 1.5946487390051898 16.78874324463385 5.148525704215503 -2 -6 6
269 1 1 0.5897 4.081557245995109 20.231260834988575 9.106597083300162 8 5 6
479 1 1 0.5897 2.7912405400250435 17.52423574203131 8.356618461871804 -1 3 -4
480 1 1 0.5897 3.2087745476158434 18.242416696375706 7.091035047309039 -1 3 -4
414 1 1 0.5897 4.390924541659441 18.05578494929629 9.4397176125164 4 -3 2
680 1 1 0.5897 2.038888232838131 18.119065046715335 10.486549299961506 -7 -3 -2
681 1 1 0.5897 0.7811111745379012 18.646229579579654 9.82936963031458 -7 -3 -2
268 1 2 -1.1794 4.8634215023930745 20.435208197196935 8.59351576181692 8 5 6
270 1 1 0.5897 4.525518530250949 20.805554303952597 7.778131370446255 8 5 6
355 1 2 -1.1794 2.8325566514574674 20.3893602696404 10.510342132299872 0 -2 1
478 1 2 -1.1794 3.5627112691805984 17.823779819286177 7.875660935543544 -1 3 -4
679 1 2 -1.1794 1.4165326961983487 17.931853849383593 9.783827430811039 -7 -3 -2
357 1 1 0.5897 2.3564807029028088 21.097975559192633 10.07746862946727 0 -2 1
412 1 2 -1.1794 4.818083379889897 17.846427030622507 10.27029859319714 4 -3 2
588 1 1 0.5897 3.868847887260904 20.717265891740873 13.276746846832264 0 3 4
448 1 2 -1.1794 2.9886961231602927 17.230658105123897 12.170458909174904 3 1 1
75 1 1 0.5897 2.336928390744665 20.104064461822333 15.420832605939088 -1 -1 0
449 1 1 0.5897 3.6951807367713028 17.430873183039648 11.556417221080846 3 1 1
660 1 1 0.5897 0.9520391824622048 20.715127545509937 13.308220651684561 -1 -1 0
226 1 2 -1.1794 1.8591790014065823 18.186303832668962 14.71354982580825 3 -3 2
586 1 2 -1.1794 3.0681060962523796 21.22626360764228 13.150642033535334 0 3 4
227 1 1 0.5897 2.110513127589754 17.794608039041286 13.87712958681772 3 -3 2
228 1 1 0.5897 1.901975431545779 17.463467632968662 15.339542185339257 3 -3 2
73 1 2 -1.1794 1.9050935076348183 20.85877648656662 15.820941540115127 -1 -1 0
74 1 1 0.5897 1.7450216443964188 21.458016879685168 15.091937316528245 -1 -1 0
356 1 1 0.5897 2.6604904114994583 20.51928865325764 11.442904343721297 0 -2 1
472 1 2 -1.1794 1.8096948734464557 20.225551492007057 19.65372468746377 0 -2 -5
602 1 1 0.5897 3.7052857869313285 18.343853832336706 18.918809409073763 2 9 -4
473 1 1 0.5897 2.102343786777577 20.399316788424905 20.548334280563328 0 -2 -5
644 1 1 0.5897 4.2326791281421485 19.425223252272772 21.120291719662145 0 -3 2
601 1 2 -1.1794 3.354736170866901 17.986567509044427 18.102947384813266 2 9 -3
603 1 1 0.5897 2.425310691391675 18.21465660817136 18.120848036787645 2 9 -3
474 1 1 0.5897 2.488366538497792 20.6114913253235 19.099991903255052 0 -2 -5
71 1 1 0.5897 2.8410793543903474 21.348803334665575 17.45356316265835 5 0 -6
72 1 1 0.5897 4.318009425499608 21.312800280433947 17.78398456235673 5 0 -6
70 1 2 -1.1794 3.4682453743132604 21.569246946391544 18.142226423445404 5 0 -6
643 1 2 -1.1794 4.544312845863185 19.137668103569197 20.262174526758056 0 -3 2
163 1 2 -1.1794 6.512872067362772 2.498439083393434 1.5400046303626642 -1 4 -2
717 1 1 0.5897 8.634124019397458 5.218471487686541 3.675026156493509 3 -9 1
344 1 1 0.5897 6.587738103938259 5.669576042378099 2.900074882050103 -3 -2 -1
2 1 1 0.5897 7.829823299717179 3.77097219840972 5.854783231367699 -1 -7 1
343 1 2 -1.1794 5.930656308987778 4.9770274873586295 2.830937558426111 -3 -2 -1
345 1 1 0.5897 6.405540943140967 4.23144316407428 2.4638549374059044 -3 -2 -1
390 1 1 0.5897 5.210443624927971 2.107053630199058 3.0689637455432894 1 4 3
689 1 1 0.5897 5.675051426409046 5.3751413823262695 4.590313849105384 0 -7 4
418 1 2 -1.1794 7.938476129251914 6.718359417701241 2.917863061070277 -9 -5 1
715 1 2 -1.1794 8.956654059026164 4.659812255492293 4.3821689262456225 3 -9 1
688 1 2 -1.1794 5.311175055884113 5.343513989148488 5.4750479559773675 0 -7 4
164 1 1 0.5897 5.8290518350764495 2.4731848767745506 0.8707047205120669 -1 4 -2
307 1 2 -1.1794 6.26653009587569 5.104916792731364 8.846204877784386 0 10 -3
219 1 1 0.5897 5.45709449353443 3.493925119174805 9.507208156392263 0 5 -1
640 1 2 -1.1794 8.546719967858635 4.270880707941886 10.6873896902252 5 1 -7
309 1 1 0.5897 6.39439802815008 5.608115534485597 9.650334361143328 0 10 -3
112 1 2 -1.1794 8.126738683752285 2.3014744308977324 8.744417841359326 -4 -5 4
308 1 1 0.5897 5.7619639773085565 5.686078658881707 8.277141260015775 0 10 -3
117 1 1 0.5897 7.731486103026192 6.024857712153247 8.228135806527419 -1 -3 2
217 1 2 -1.1794 4.980542243781235 2.8201728763838187 9.99209554899148 0 5 -1
114 1 1 0.5897 8.236905020194007 2.863353032888602 9.511449764742448 -4 -5 4
3 1 1 0.5897 7.358261219547239 3.165575360834697 7.159724970847781 -1 -7 1
218 1 1 0.5897 5.177961211805562 2.0061936915510907 9.528786239538348 0 5 -1
115 1 2 -1.1794 8.333790038547262 6.696914849590463 7.909154415667358 -1 -3 2
1 1 2 -1.1794 7.0437451001964035 3.463698230087238 6.306275530751912 -1 -7 1
690 1 1 0.5897 5.933015976078715 4.811439052329234 5.971401512934736 0 -7 4
747 1 1 0.5897 5.966651741184216 2.923281380182879 11.610872541691798 4 4 -6
84 1 1 0.5897 6.1616290719017055 3.5003160507374833 15.212553544064058 -3 0 -7
99 1 1 0.5897 7.952803704594006 4.3708953131059545 14.068168713088287 3 -6 4
50 1 1 0.5897 5.082453069535712 5.630209298404193 13.589578394391392 8 2 -2
746 1 1 0.5897 6.261826007828167 3.933259710842478 12.699259431683132 4 4 -6
745 1 2 -1.1794 6.063329965286319 3.007393402474454 12.559429356730623 4 4 -6
49 1 2 -1.1794 5.941916752100059 5.610185667716758 13.168770111616391 8 2 -2
82 1 2 -1.1794 6.999563031966736 3.914762960719948 15.418132701323241 -3 0 -7
288 1 1 0.5897 8.17132970050925 2.3110433725938107 12.701245996567417 6 3 -1
97 1 2 -1.1794 8.676549516004279 4.444252460355486 13.446095301797738 3 -6 4
51 1 1 0.5897 5.811189911366458 6.060781857724202 12.334484199530493 8 2 -2
641 1 1 0.5897 8.638243941885715 4.501696351185549 11.6118055750947 5 1 -7
98 1 1 0.5897 8.928550413308672 5.367064125296196 13.478860090384973 3 -6 4
83 1 1 0.5897 7.442898032279238 3.288684624445515 15.990547261440083 -3 0 -7
127 1 2 -1.1794 7.899200546307238 2.980074417765886 18.170118494869122 -2 0 -3
129 1 1 0.5897 8.625001716303252 2.356556552536986 18.194524426919926 -2 0 -3
384 1 1 0.5897 6.2071325356132405 5.1356577968418415 20.33252701358453 -10 -3 -3
128 1 1 0.5897 7.155159678521507 2.469856097473083 17.850362794188133 -2 0 -3
572 1 1 0.5897 8.817945526941683 4.312883647419622 20.45200153260665 3 -5 -5
483 1 1 0.5897 7.895823447102682 4.9605137554316165 18.468761878283775 5 5 4
46 1 2 -1.1794 5.28059617852588 4.954099416702755 17.220585012976134 6 -1 1
382 1 2 -1.1794 5.3065261614632275 5.358751681092668 20.097311219113344 -10 -3 -3
481 1 2 -1.1794 8.163193285539426 5.834197396075041 18.183537426992665 5 5 4
383 1 1 0.5897 5.278565149497174 5.271019798114562 19.144549714927724 -10 -3 -3
482 1 1 0.5897 7.374939830768547 6.3689984813581475 18.277523918161588 5 5 4
571 1 2 -1.1794 7.978806941937647 4.595347014458165 20.815632715576754 3 -5 -5
48 1 1 0.5897 6.094441319601008 4.726931750370331 16.77087779011027 6 -1 1
573 1 1 0.5897 7.696323263783898 3.8633683332006337 21.363957319771288 3 -5 -5
649 1 2 -1.1794 7.45786212043252 10.443759657216487 3.605454718817434 3 -5 1
650 1 1 0.5897 7.965453381643947 9.664781225210863 3.832857806898724 3 -5 1
651 1 1 0.5897 6.547212072268954 10.14931493462983 3.6194355563459943 3 -5 1
314 1 1 0.5897 6.06982460228951 10.965829114223618 5.290646330875306 1 -3 0
443 1 1 0.5897 6.166827988824328 7.122616965111578 5.4432353086030565 5 3 -2
468 1 1 0.5897 8.28166456128057 11.574714778978224 5.0047002367409625 10 -4 10
442 1 2 -1.1794 6.901525035902847 7.7086596547243875 5.6247302345035415 5 3 -2
421 1 2 -1.1794 8.676109548935814 10.987958706898013 1.3116663146620484 -3 -1 6
420 1 1 0.5897 8.525533216306169 7.201196230836753 3.4995770644681756 -9 -5 1
419 1 1 0.5897 8.078872838403004 7.11030359128059 2.0559888577678365 -9 -5 1
822 1 1 0.5897 8.359478776057893 9.347647290540621 1.0106677371742965 2 3 5
422 1 1 0.5897 8.071460545708035 11.061911902003574 2.04997032441083 -3 -1 6
444 1 1 0.5897 6.52650370157759 8.58761140975508 5.570316899587112 5 3 -2
313 1 2 -1.1794 5.779130716786856 10.239962311530705 5.8427168519221135 1 -3 0
172 1 2 -1.1794 6.364738865946274 9.15542555659014 8.389957337752707 3 2 1
379 1 2 -1.1794 8.615663275285083 10.821703693048702 7.954815490329905 3 3 -1
381 1 1 0.5897 7.882508935464957 10.285521609923965 8.25678196251253 3 3 -1
380 1 1 0.5897 8.836553152805655 11.371464881065867 8.706572073266386 3 3 -1
168 1 1 0.5897 5.1720715601866685 10.404248502563277 8.989930780698488 -7 0 3
173 1 1 0.5897 5.772250634923544 8.403844320571812 8.373759287111742 3 2 1
118 1 2 -1.1794 5.614950164948245 7.150535741406981 10.875640359787953 -1 -3 0
119 1 1 0.5897 6.344866762146763 7.767953336876878 10.922574266081028 -1 -3 0
174 1 1 0.5897 6.320393054280625 9.51509652775741 7.5040529258205115 3 2 1
735 1 1 0.5897 8.661556081282804 7.611277177900919 9.565848062872407 -2 0 -2
116 1 1 0.5897 7.828134075580108 7.182513180301542 7.257458073365229 -1 -3 2
852 1 1 0.5897 7.548155625143474 8.596776008745103 12.861828117210365 -6 0 -3
850 1 2 -1.1794 7.502967551920304 9.111652426949423 12.056202434930643 -6 0 -3
580 1 2 -1.1794 5.419596344581892 11.126872436963254 11.780364688467754 -8 -1 3
417 1 1 0.5897 6.692669030642324 9.08032878984104 15.385389923523672 -6 1 -4
416 1 1 0.5897 6.915049723242406 10.521243889067417 15.79287435271256 -6 1 -4
581 1 1 0.5897 5.947460249629268 10.332353769415025 11.859478950504577 -8 -1 3
415 1 2 -1.1794 6.247484514020893 9.835707631186894 15.769294219875157 -6 1 -4
646 1 2 -1.1794 7.332822277585409 7.654034530715277 14.61338242020682 -6 -3 -3
648 1 1 0.5897 8.09444942998968 7.297166008926561 15.07025871045986 -6 -3 -3
214 1 2 -1.1794 8.882790672004363 11.462882697353386 15.551587513976038 -4 -1 4
851 1 1 0.5897 8.325461808759602 8.923071659964508 11.604430389121479 -6 0 -3
647 1 1 0.5897 6.751871430426929 6.9029731309628115 14.492390446996605 -6 -3 -3
36 1 1 0.5897 8.678619862524222 11.779085265369588 12.219632464361723 -1 6 -2
120 1 1 0.5897 4.910631584615652 7.573857536838053 11.36647130686484 -1 -3 0
596 1 1 0.5897 5.031426666478805 8.844641296008348 20.77531138327901 4 -4 -1
821 1 1 0.5897 7.211101141628913 8.422797758426656 21.251041774327316 2 3 4
595 1 2 -1.1794 5.439765001687901 8.113337692044173 21.238575299295388 3 -4 -1
453 1 1 0.5897 5.561073170683603 8.234351262607024 17.38217482244745 -2 -1 5
447 1 1 0.5897 7.7433135688219625 10.340871747614386 18.62779957840829 4 -2 -1
452 1 1 0.5897 6.648382602330691 8.641773313286897 18.35351650598941 -2 -1 5
566 1 1 0.5897 5.184011811812884 10.699809454317396 19.56617884808173 -1 9 -7
451 1 2 -1.1794 6.035087527302863 7.933554345788533 18.157424042752357 -2 -1 5
446 1 1 0.5897 8.377645036623687 9.242897070417602 19.45471257142134 3 -2 -1
445 1 2 -1.1794 8.26595156485283 9.542531013526268 18.552542631633898 3 -2 -1
597 1 1 0.5897 5.280148319166782 7.354588107096925 20.67732265188599 3 -4 -1
159 1 1 0.5897 4.945804938141449 10.354135518493512 16.917776370020288 0 1 1
820 1 2 -1.1794 8.159043924195764 8.4357939736146 21.38296893055417 2 3 4
732 1 1 0.5897 6.074947174381379 12.442172843913848 1.5672109148344782 4 4 -2
54 1 1 0.5897 5.866266866153238 16.031157871274782 5.648314640909403 -7 -6 4
466 1 2 -1.1794 8.574292195481341 12.258768658192523 5.606865120732361 10 -4 10
731 1 1 0.5897 6.041032764754327 13.941188720368894 1.358293414067679 4 4 -2
730 1 2 -1.1794 6.560787505338271 13.161372884956426 1.1635695212799213 4 4 -2
800 1 1 0.5897 8.287970874166191 13.89826480886723 4.703030571232016 -1 -1 5
52 1 2 -1.1794 5.914599032582583 16.00776784969154 4.692655707998876 -7 -6 4
799 1 2 -1.1794 8.076911954530456 14.620766933704571 4.111756959932752 -1 -1 5
469 1 2 -1.1794 5.627725653487345 12.810112278031145 4.642854250170552 -4 0 6
471 1 1 0.5897 6.396016687400714 13.329793631941184 4.406562048115131 -4 0 6
53 1 1 0.5897 6.798190597553144 15.69135528417667 4.504730173101005 -7 -6 4
470 1 1 0.5897 5.268685578663488 12.517984945604821 3.80505389306145 -4 0 6
230 1 1 0.5897 4.959491005293105 15.321482749897969 3.283487823927431 4 1 -1
801 1 1 0.5897 8.819931402211214 14.66315742329674 3.509855191633419 -1 -1 5
171 1 1 0.5897 7.793436066600914 13.166823393439207 9.916333519224045 -2 5 -1
169 1 2 -1.1794 8.16944071568591 13.299140361550622 9.046111402648286 -2 5 -1
244 1 2 -1.1794 5.936491198170839 13.379796923948607 7.5578802959508025 -2 4 0
840 1 1 0.5897 5.215773431185524 14.138529577401664 10.358073916911273 -2 -2 -4
264 1 1 0.5897 5.906102000169619 15.329713719533624 7.556977549850858 2 -2 1
246 1 1 0.5897 6.051438779392042 13.009579059782284 6.682728944008153 -2 4 0
245 1 1 0.5897 5.638371197968812 12.643932250746326 8.0924875937706 -2 4 0
170 1 1 0.5897 7.430677944716081 13.578545013044943 8.505444494373114 -2 5 -1
263 1 1 0.5897 4.952657899104271 16.504438140272182 7.6088771204113765 2 -2 1
262 1 2 -1.1794 5.840427791515107 16.261150567891207 7.346477995966973 2 -2 1
600 1 1 0.5897 8.345871415062614 16.30343175548245 8.85696539663378 -2 -5 -6
463 1 2 -1.1794 7.084758881637628 16.434317545139848 10.25628952835757 3 -3 -2
838 1 2 -1.1794 6.018558460837064 13.942899895436245 10.841226965604163 -2 -2 -4
839 1 1 0.5897 6.524595237601624 14.75452583467847 10.804442346096984 -2 -2 -4
598 1 2 -1.1794 9.070755352453249 16.577012364778373 8.294941741263273 -2 -5 -6
599 1 1 0.5897 8.70043350026221 16.584618443540627 7.412316866657152 -2 -5 -6
467 1 1 0.5897 8.451962815040103 11.880442083702352 6.477541499074986 10 -4 10
630 1 1 0.5897 7.393161317456863 13.972941297694458 15.092234817050388 -3 -1 3
656 1 1 0.5897 8.927265449018336 15.607134325957972 12.076908443717896 1 2 -3
34 1 2 -1.1794 7.986764535838024 12.432850695240711 12.320082649939533 -1 6 -2
628 1 2 -1.1794 6.890750812145692 13.224257733115817 14.770925363003764 -3 -1 3
629 1 1 0.5897 7.25523172271458 13.044797304586917 13.904258188718517 -3 -1 3
762 1 1 0.5897 5.1587618542873175 13.601405119779592 15.382239920053976 2 -6 4
31 1 2 -1.1794 8.539274999325283 15.366903187791461 15.710217420979903 4 5 3
812 1 1 0.5897 5.102467699253053 14.277040300242744 12.7487144170368 -3 4 -5
32 1 1 0.5897 8.472955384978412 16.31999133588915 15.652065063452001 4 5 3
35 1 1 0.5897 8.384513144465451 13.250896381612778 12.02215897357419 -1 6 -2
216 1 1 0.5897 8.404878354960164 12.131400379260503 15.060829499807738 -4 -1 4
260 1 1 0.5897 5.049015100215935 16.141769954784852 14.48726741399854 -1 -8 7
582 1 1 0.5897 6.039663010783449 11.842077325462451 11.922352788995466 -8 -1 3
804 1 1 0.5897 8.398615894339905 12.633670416182527 18.522627294656342 6 2 1
802 1 2 -1.1794 8.700056415212677 13.086829490210112 17.73526587493354 6 2 1
590 1 1 0.5897 8.453985406922657 13.577009035807247 21.32151793387308 1 3 0
722 1 1 0.5897 6.7695319408655745 16.183022492883595 21.297835104158864 3 3 0
857 1 1 0.5897 6.677403645259499 16.6628319499116 18.139196377612947 -2 1 -4
771 1 1 0.5897 6.111270821224879 14.79781109240466 19.253559885117568 4 -3 -2
769 1 2 -1.1794 6.82798900081561 15.39313992625744 19.47279116406682 4 -3 -2
770 1 1 0.5897 7.5918469975542875 14.824275295906777 19.56809416953878 4 -3 -2
622 1 2 -1.1794 4.916507034392805 13.837860639746724 18.683538084781432 2 -3 4
803 1 1 0.5897 8.909496910962423 12.384567250071473 17.11953888416286 6 2 1
41 1 1 0.5897 6.262154960760312 12.504008889632647 18.76079627996199 2 -1 7
589 1 2 -1.1794 9.081495420133171 14.11932362610121 20.843697618516796 1 3 0
42 1 1 0.5897 6.740147138412666 12.17268128408045 20.158460301035916 2 -1 7
33 1 1 0.5897 8.697945468315854 15.193551979313652 16.63814268592361 4 5 3
624 1 1 0.5897 4.889427913606288 14.119228717599396 17.769061384325575 2 -3 4
40 1 2 -1.1794 6.6897743443642 11.8165833406419 19.271434723079206 2 -1 7
844 1 2 -1.1794 6.574305259636007 19.62713513889996 2.309446283650696 3 -2 4
276 1 1 0.5897 6.112015848870026 18.848994240806697 5.004715324923816 2 3 -1
274 1 2 -1.1794 5.337536365829748 18.834042829514438 4.442444818858835 2 3 -1
786 1 1 0.5897 9.097723743098442 20.968403904261415 4.660532207081267 8 2 7