LAMMPS data file via write_data, version 30 Jul 2021, timestep = 16000000

1008 atoms
2 atom types
672 bonds
1 bond types
336 angles
1 angle types

-3.0312664810824046 14.641265480636434 xlo xhi
-0.37555055556070904 22.955549555579054 ylo yhi
0.01703155767223663 19.21296644232533 zlo zhi
-0.027163870728921992 -6.208716844091072 0.2873477329090497 xy xz yz

Masses

1 1.008
2 15.999

Pair Coeffs # lj/cut/tip4p/long/omp

1 0 0
2 0.21084 3.1668

Bond Coeffs # harmonic/omp

1 450 0.9572

Angle Coeffs # harmonic/omp

1 55 104.52

Atoms # full

55 19 2 -1.1794 -0.7969497765826881 4.269633898655126 3.2942384340151283 0 0 0
123 41 1 0.5897 -2.9304395781426824 2.51011870953802 2.268672907758514 1 0 0
56 19 1 0.5897 -1.2198083128047519 3.5797684134648486 2.7827579200803565 0 0 0
122 41 1 0.5897 -2.096877863398779 1.469369315987447 1.5515955882640997 1 0 0
57 19 1 0.5897 0.06860443451928422 4.366373630792126 2.8970828460775695 0 0 0
86 29 1 0.5897 -2.2042385339270165 1.154188341496915 3.8083239640105475 1 0 0
121 41 2 -1.1794 -2.0722044836976705 2.0865134750396686 2.282970253910943 1 0 0
158 53 1 0.5897 -4.272396173613165 4.249042163523609 4.560251799282874 1 0 0
603 201 1 0.5897 0.19320458558980613 3.978991510425069 0.2854502841797653 1 0 1
85 29 2 -1.1794 -2.4286414788075437 0.6496032254730064 4.590303399070648 1 0 0
602 201 1 0.5897 -0.24884612777441006 5.320988851404123 0.8294512862873425 1 0 1
101 34 1 0.5897 -2.2924336104427674 4.311506017667909 0.24616444338134474 1 0 0
601 201 2 -1.1794 -0.4127781865646738 4.700961832257215 0.11874838913010345 1 0 1
33 11 1 0.5897 0.3378951374732888 0.06751713018796923 2.3110705392515545 0 0 0
114 38 1 0.5897 -3.306038838016498 5.455945126692329 1.9926232545271234 1 0 0
90 30 1 0.5897 -4.351539901300154 0.7414255947907784 4.720035591399597 1 0 0
98 33 1 0.5897 -3.828069577184588 5.039237187305534 9.247576360171317 1 0 0
133 45 2 -1.1794 -2.1322626617012577 2.9259197934962087 6.2666036028471 1 0 0
135 45 1 0.5897 -1.5595590531170433 3.2555287756220177 6.959152345801288 1 0 0
134 45 1 0.5897 -2.9216445932754604 2.6376275123788044 6.725032938131873 1 0 0
125 42 1 0.5897 -4.636568379238657 1.5761612226238992 6.825643523572685 1 0 0
126 42 1 0.5897 -4.927475739037238 3.0143838185547804 7.198754581579952 1 0 0
87 29 1 0.5897 -2.0684728124281047 1.1590870385510095 5.3162834885328065 1 0 0
669 223 1 0.5897 -5.045894311300906 1.5774366694969588 8.97105887641274 1 0 0
67 23 2 -1.1794 -1.8319094631499202 0.15718920289158622 8.259381402913185 0 0 0
69 23 1 0.5897 -1.9459721866487425 1.0660286495395654 8.537550322539618 0 0 0
124 42 2 -1.1794 -4.338718303968808 2.285638398483363 7.395120186236377 1 0 0
68 23 1 0.5897 -2.627659782041427 -0.044926991380548675 7.767330252089421 0 0 0
159 53 1 0.5897 -2.969542780806173 4.0474027126882905 5.304319559321475 1 0 0
157 53 2 -1.1794 -3.6131033484749766 4.717032848617736 5.072659288353998 1 0 0
110 37 1 0.5897 -4.052517552679097 5.483447051152 6.558127524222882 1 0 0
524 175 1 0.5897 -2.3456938489054187 3.440729826091334 9.582313222357207 0 0 0
667 223 2 -1.1794 -5.401298776741962 0.9075247231491201 9.55530476527409 1 0 0
523 175 2 -1.1794 -1.8639032053334046 2.622132448899825 9.463460276321921 0 0 0
559 187 2 -1.1794 -3.6385377807582975 4.113504572209908 13.217242872614047 0 0 0
626 209 1 0.5897 -5.383077611857329 1.9119034214058885 12.631612985881585 1 0 0
987 329 1 0.5897 -2.792899075203677 -0.13053189384592018 11.357413990088002 1 1 0
561 187 1 0.5897 -4.1850153484067105 3.682813038157243 12.559848899306276 0 0 0
625 209 2 -1.1794 -5.519103664561016 2.4947751381186936 11.884530499115971 1 0 0
97 33 2 -1.1794 -3.7476441741238933 4.726877511439446 10.148889723208026 1 0 0
668 223 1 0.5897 -5.321528518932703 1.2858916179928577 10.431043413439415 1 0 0
560 187 1 0.5897 -3.281536777892982 3.395591273670947 13.740181484318054 0 0 0
627 209 1 0.5897 -6.4170178125077975 2.8102892852811596 11.986817474142711 1 0 0
663 221 1 0.5897 -6.566525088490399 5.529862071409045 13.696069602890072 1 0 0
99 33 1 0.5897 -3.535403975683489 5.5103244052060685 10.65639129485291 1 0 0
606 202 1 0.5897 -5.943053283952002 4.391195998629278 10.299002742604571 1 0 0
986 329 1 0.5897 -3.9961934752680692 -0.09054544094068606 10.439650897188967 1 1 0
662 221 1 0.5897 -7.338883233862882 4.238692302274201 13.865138530358442 1 0 0
661 221 2 -1.1794 -6.8467694015666645 4.8963058471626475 14.356761443768407 1 0 0
164 55 1 0.5897 -8.129228744692636 1.6188983150063383 18.32176176054383 1 0 -1
590 197 1 0.5897 -5.379072680848328 1.6232030662292958 15.074817770924119 1 0 0
637 213 2 -1.1794 -5.075650617070613 3.3963284085696785 15.8475479472114 1 0 0
20 7 1 0.5897 -5.082598458831677 1.8064172937705179 18.87376235987025 0 0 -1
638 213 1 0.5897 -5.648396889950611 3.923141454975368 15.290184564287644 1 0 0
639 213 1 0.5897 -5.649873201486399 3.067958465733846 16.53958171002094 1 0 0
593 198 1 0.5897 -7.20981624847134 0.34089967641960706 14.426569021979617 1 0 0
629 210 1 0.5897 -8.099330766346036 3.0223645129261376 16.652557097099084 1 0 0
628 210 2 -1.1794 -7.533331885577703 2.3068298844091943 16.94226020893108 1 0 0
571 191 2 -1.1794 -5.21910641033856 0.23818210550955088 18.077347216910898 0 0 0
630 210 1 0.5897 -7.6618947400576625 1.6193276230902598 16.288627187500204 1 0 0
614 205 1 0.5897 -7.08469574199085 5.54517085791063 17.547172086642007 1 0 0
163 55 2 -1.1794 -8.352435515806345 1.2165640100367017 19.161254194609025 1 0 -1
589 197 2 -1.1794 -5.402357499842081 0.9195338246237361 14.426165094070521 1 0 0
591 197 1 0.5897 -4.613404342868867 0.40627180651554107 14.600350727210584 1 0 0
290 97 1 0.5897 -1.9052578273899936 10.669656474976252 2.5822214473996077 1 0 0
113 38 1 0.5897 -3.2224272933630127 5.6386341339480985 3.493309754710808 1 0 0
291 97 1 0.5897 -3.3897032898061608 10.372820596401697 2.5697836692533733 1 0 0
146 49 1 0.5897 -1.582306654957645 6.731579512333606 2.216164249234483 1 0 0
145 49 2 -1.1794 -0.7633665413806918 6.969499659283329 1.7812920112769717 1 0 0
289 97 2 -1.1794 -2.5345852997968876 9.962310492447815 2.441245425993346 1 0 0
147 49 1 0.5897 -1.0121034043947241 7.651694575744676 1.1575308632436672 1 0 0
332 111 1 0.5897 -2.3530429106139765 9.12915336808237 0.8701354549914908 1 0 0
255 85 1 0.5897 -2.3028385751882317 8.82919045713263 3.933603411009239 1 0 0
112 38 2 -1.1794 -3.3039731419486817 6.127848362772907 2.6745225686838965 1 0 0
331 111 2 -1.1794 -2.052407366965948 8.63977748701913 0.10423196616753107 1 0 0
200 67 1 0.5897 0.3584936897648694 8.14345392187501 2.6403876467122873 0 0 0
9 3 1 0.5897 -0.9763215464459174 5.916065986492967 4.332001509887617 0 0 0
188 63 1 0.5897 0.8595248449451756 9.526384648259198 1.2239010681240425 0 0 0
187 63 2 -1.1794 0.8372339859126843 10.034917631302557 0.4131603910920908 0 0 0
258 86 1 0.5897 -4.970323578186368 9.460427629708079 6.19664266713447 1 0 0
235 79 2 -1.1794 -2.289184535683398 7.809627731990009 8.2181144052394 0 0 0
109 37 2 -1.1794 -4.097746830651639 5.929429975941085 7.404017739193339 1 0 0
294 98 1 0.5897 -4.964607981372007 9.812517419599404 8.462669403703833 1 0 0
302 101 1 0.5897 -2.0254524508538996 9.958021231884496 5.998638201461582 1 0 0
236 79 1 0.5897 -2.959550217556571 7.317464263408348 7.744140153264744 0 0 0
837 279 1 0.5897 -5.677963900088242 7.93993493261404 9.319565412867718 1 0 0
301 101 2 -1.1794 -2.282276656531755 10.826807537429973 6.307930240435276 1 0 0
237 79 1 0.5897 -2.778648972123791 8.467325647979795 8.712373819235824 0 0 0
293 98 1 0.5897 -3.902009805281188 10.47046594116577 7.608084721669839 1 0 0
292 98 2 -1.1794 -4.8413538692681595 10.289596493110116 7.641912876086722 1 0 0
111 37 1 0.5897 -5.014026149780834 6.193280858127982 7.48763372379028 1 0 0
7 3 2 -1.1794 -0.6663617480770769 6.488472736435154 5.033878305360877 0 0 0
303 101 1 0.5897 -1.4873071390011425 11.186095590353862 6.701824698454168 1 0 0
254 85 1 0.5897 -1.7505569940011565 7.840303711432195 4.938148643792954 1 0 0
8 3 1 0.5897 -0.7203456482621782 5.950460950152579 5.823852199186514 0 0 0
253 85 2 -1.1794 -2.4066698995753866 8.5299013283287 4.836977247338897 1 0 0
257 86 1 0.5897 -4.1040482290188685 8.70414162335735 5.2117226920828745 1 0 0
793 265 2 -1.1794 -5.5049640888199045 10.170004214930982 12.38481468030397 1 0 0
759 253 1 0.5897 -5.365364190585456 9.151818262031355 14.036902755790141 1 0 0
835 279 2 -1.1794 -5.267344379238532 8.57955441049541 9.90148725194726 1 0 0
794 265 1 0.5897 -4.773034422484045 10.722835690457405 12.658513785362572 1 0 0
649 217 2 -1.1794 -3.4935049340135063 7.151317294979451 11.302040290303388 1 0 0
616 206 2 -1.1794 -6.111859394163741 6.513114360576304 12.202735958145665 1 0 0
651 217 1 0.5897 -4.3376193614927985 7.086423859648192 11.748802291269907 1 0 0
795 265 1 0.5897 -5.2764248620139895 9.890896960001136 11.498062887390278 1 0 0
650 217 1 0.5897 -2.9109903272245274 7.552592813518634 11.94697570867834 1 0 0
836 279 1 0.5897 -4.547156832331222 8.101861099675709 10.31300382820404 1 0 0
691 231 2 -1.1794 -2.22139912487335 10.111237845717705 10.093288867001215 0 0 0
618 206 1 0.5897 -6.355724647192614 5.736676428184296 11.698683277232206 1 0 0
617 206 1 0.5897 -6.742896400381937 7.1811656345859305 11.934916152195212 1 0 0
513 171 1 0.5897 -3.553689946090947 5.998683486386053 13.95717659154256 0 0 0
739 247 2 -1.1794 -5.459295668435006 7.987631838851126 18.012514116419336 0 0 0
758 253 1 0.5897 -5.1094092082386116 9.262421635704419 15.525032732023693 1 0 0
613 205 2 -1.1794 -7.1963545977347625 6.2305349787876745 16.88827358587338 1 0 0
797 266 1 0.5897 -6.7880196782627165 10.992713379926522 16.901067325519087 1 0 0
798 266 1 0.5897 -7.953887251658377 10.11228934812703 16.504106840188335 1 0 0
741 247 1 0.5897 -5.793307505091006 8.680775242847265 18.582117068103027 0 0 0
805 269 2 -1.1794 -5.074092174189911 11.196332638801128 16.004179144086557 1 0 0
740 247 1 0.5897 -6.243853068455056 7.571888796215671 17.65494399196441 0 0 0
796 266 2 -1.1794 -7.666632724185168 10.730598070443605 17.176095963999973 1 0 0
757 253 2 -1.1794 -5.086299689040851 8.641245213964755 14.796990867278955 1 0 0
333 111 1 0.5897 -8.094475639188913 9.59736159972223 18.637292765594584 1 0 -1
512 171 1 0.5897 -3.763218909716424 7.286273840798872 14.725694715137093 0 0 0
762 254 1 0.5897 -7.095735032328444 8.509718483504427 15.22175391041268 1 0 0
615 205 1 0.5897 -7.075822731363046 5.781139583148134 16.051616186924186 1 0 0
760 254 2 -1.1794 -8.001664127747208 8.77173600889539 15.385798438746408 1 0 0
280 94 2 -1.1794 -3.213815794874524 14.197772325944017 2.6545328697471375 1 0 0
315 105 1 0.5897 -0.19724343749501205 13.62691542199821 1.2389728690222057 1 0 0
269 90 1 0.5897 -3.2196958591609044 12.806902735129366 1.2544880788010582 1 0 0
223 75 2 -1.1794 -0.4055532008893912 11.637154982654815 3.398067510805687 0 0 0
281 94 1 0.5897 -3.3314898818109047 13.8458754718634 3.537019632922418 1 0 0
282 94 1 0.5897 -2.2772592349664227 14.102709099369854 2.4810393728269298 1 0 0
313 105 2 -1.1794 -0.5013724757161926 14.315209150506659 1.8307382423893348 1 0 0
268 90 2 -1.1794 -3.1300971656754983 12.489553392320024 0.3557497538680316 1 0 0
225 75 1 0.5897 -0.7583478039445821 12.434527931664446 3.793230546419157 0 0 0
500 167 1 0.5897 -1.2484888734873956 15.645363066413962 0.7709346147537368 1 0 0
314 105 1 0.5897 0.26442151700514094 14.87414671540571 1.962513039411346 1 0 0
499 167 2 -1.1794 -1.8829222694406 16.247362566510866 0.38191900619726843 1 0 0
422 141 1 0.5897 -1.8104628248204195 16.62609972998436 3.9327908650789336 1 0 0
326 109 1 0.5897 -3.0757939528314995 12.112998020995285 5.341521460740331 1 0 0
425 142 1 0.5897 -3.748702448765893 16.181243819273405 4.941425186406172 1 0 0
421 141 2 -1.1794 -1.7463000974903597 16.303129045242557 4.831673892351992 1 0 0
403 135 2 -1.1794 -1.8632791570093765 15.789565582702815 8.453897718661851 0 0 0
277 93 2 -1.1794 -3.6917399525456123 14.181324068924718 7.402209089770382 1 0 0
278 93 1 0.5897 -3.1567959780188533 14.841060869354502 7.843668211454625 1 0 0
267 89 1 0.5897 -3.14486844835104 13.003223106639611 8.865866236014963 1 0 0
405 135 1 0.5897 -2.0553126682705876 16.59859144988502 8.928249759321066 0 0 0
327 109 1 0.5897 -3.730212128550515 13.405240308517811 5.782122231682351 1 0 0
279 93 1 0.5897 -4.568880439376106 14.300803646875742 7.7664119525218975 1 0 0
424 142 2 -1.1794 -4.67903595905871 16.34986091706285 5.0907605957554445 1 0 0
176 59 1 0.5897 -0.9344183528560288 14.566520836898567 5.154114992984991 0 0 0
175 59 2 -1.1794 -0.41740304494479474 13.763554218219692 5.219294343121744 0 0 0
423 141 1 0.5897 -1.6413793094293694 17.09225681502725 5.363352286290631 1 0 0
325 109 2 -1.1794 -3.593682071725868 12.848876679350136 5.015125754287934 1 0 0
1004 335 1 0.5897 -4.654641625536355 17.02384210015512 9.130040625970388 1 0 0
728 243 1 0.5897 -2.945421875751821 12.28397681931586 12.551351249880195 0 0 0
729 243 1 0.5897 -3.979688409925646 12.73464824200486 13.56112024606613 0 0 0
1003 335 2 -1.1794 -5.268935802138646 16.678047205951117 9.777745023622927 1 0 0
784 262 2 -1.1794 -6.158987038171118 14.203997633478483 12.20745785439465 1 0 0
819 273 1 0.5897 -3.409978874687973 14.09494723733735 10.888881768304786 1 0 0
727 243 2 -1.1794 -3.6565922868655654 11.958454458734424 13.103336213561953 0 0 0
818 273 1 0.5897 -4.528892966829357 14.690168223072169 11.71719786285574 1 0 0
786 262 1 0.5897 -6.270148300413895 13.668758178304815 12.993278787063426 1 0 0
817 273 2 -1.1794 -3.7604595859190235 14.93000276315413 11.199123771161588 1 0 0
1005 335 1 0.5897 -4.7172960645276625 16.216724886448944 10.409505207621898 1 0 0
773 258 1 0.5897 -6.269138105968853 13.311985220677702 10.56603722797541 1 0 0
831 277 1 0.5897 -7.210297390168065 12.138695036404641 14.035174182499288 1 0 0
785 262 1 0.5897 -6.869095194303371 14.844402749193101 12.250887199093455 1 0 0
774 258 1 0.5897 -5.291432685290448 12.615784649007765 9.643111907203997 1 0 0
925 309 2 -1.1794 -5.225584237679445 16.565854739462793 13.873590699199355 1 0 0
926 309 1 0.5897 -4.64570616575968 15.829314926131135 14.067291070091473 1 0 0
265 89 2 -1.1794 -3.3764944340743455 12.646807376429551 9.72364786594564 1 0 0
266 89 1 0.5897 -3.0456813831602094 11.748670164151841 9.707600513727927 1 0 0
930 310 1 0.5897 -7.02693949702978 16.239835396385587 14.270556349798568 1 0 0
829 277 2 -1.1794 -6.47146983893013 12.680298634476634 14.31278151362375 1 0 0
907 303 2 -1.1794 -5.3472903383280315 16.287717141649743 17.765675302542654 0 0 0
806 269 1 0.5897 -5.541805339384556 11.61482678496219 15.281425702954959 1 0 0
679 227 2 -1.1794 -3.6584054176322214 14.27265137085798 14.584121306614414 0 0 0
908 303 1 0.5897 -5.828530889581276 15.72932242316425 17.15499416731091 0 0 0
781 261 2 -1.1794 -7.083945664206964 14.167580689981973 16.494216315564323 1 0 0
782 261 1 0.5897 -6.945860631385021 13.588207108943548 17.243638669356407 1 0 0
909 303 1 0.5897 -4.482955310136253 16.389896261601884 17.367123232861644 0 0 0
783 261 1 0.5897 -7.960382306680964 14.528362271943026 16.628215046363582 1 0 0
830 277 1 0.5897 -6.8213499006641145 13.217374880373695 15.023831790088886 1 0 0
927 309 1 0.5897 -5.053663394638981 17.197029683940514 14.572497822304065 1 0 0
770 257 1 0.5897 -7.496719864409065 12.774104693457764 19.157677787728947 1 0 0
501 167 1 0.5897 -7.577093736632095 17.065852515992127 18.969926482596016 1 0 -1
965 322 1 0.5897 -8.096518879849857 17.160885082253593 16.188872115823447 1 0 0
807 269 1 0.5897 -4.483267244310182 11.874314070571797 16.332158216739163 1 0 0
769 257 2 -1.1794 -6.583144596140457 12.75977967688813 18.872240598388327 1 0 0
771 257 1 0.5897 -6.332581574612901 11.836917156129653 18.915754479918974 1 0 0
481 161 2 -1.1794 -0.7546923757196953 22.056681494570732 0.867312436502801 1 0 0
391 131 2 -1.1794 -0.4004729109966294 19.616376541212233 3.0124502620622584 0 0 0
938 313 1 0.5897 -0.6638701417885406 20.310410824514612 0.28543516457334484 1 0 1
448 150 2 -1.1794 -2.9427324435616775 21.69821388590445 2.565667581952742 1 0 0
483 161 1 0.5897 -1.5749664539914414 21.864856795437795 1.321994844380267 1 0 0
459 153 1 0.5897 -1.7237662852559898 18.33783179424848 2.5334768340073954 1 0 0
458 153 1 0.5897 -2.2137009032426143 17.191550025297765 1.674272965098174 1 0 0
457 153 2 -1.1794 -2.43505325781119 17.70229411238649 2.4531328086559263 1 0 0
495 165 1 0.5897 -3.3356314145447077 21.066448446059553 4.135804357105057 1 0 0
393 131 1 0.5897 -0.5004886485174889 20.412876084474796 3.534012806666371 0 0 0
355 119 2 -1.1794 0.9731755030543621 17.891198024196242 0.4667689435191611 0 0 0
392 131 1 0.5897 0.4185747044636461 19.74418224925109 2.5336985734644517 0 0 0
449 150 1 0.5897 -3.300780399419355 21.09357066579932 1.91562797022614 1 0 0
345 115 1 0.5897 -1.0955664278267245 22.446073684331772 4.436703377672511 0 0 0
450 150 1 0.5897 -3.6064295726961557 22.383093169858086 2.647806062369573 1 0 0
482 161 1 0.5897 -0.9671786454392826 22.787569557718165 0.2867939987443685 1 0 0
343 115 2 -1.1794 -0.31716746267183105 21.920010258230207 4.619872735518202 0 0 0
461 154 1 0.5897 -5.075181278789088 18.749962375665184 7.142750985718931 1 0 0
469 157 2 -1.1794 -1.8532258676619824 18.986999619315725 6.603492555191791 1 0 0
494 165 1 0.5897 -3.7715552505624172 21.010698534973976 5.584730178143191 1 0 0
460 154 2 -1.1794 -4.5009455223298716 18.010664963046693 7.342626400172713 1 0 0
445 149 2 -1.1794 -3.8803149559362735 22.16491932853436 7.073313997391093 1 0 0
446 149 1 0.5897 -3.542922769597833 21.557802243070057 7.732022824930721 1 0 0
471 157 1 0.5897 -2.519378672592227 18.72119854205583 7.237555434935298 1 0 0
470 157 1 0.5897 -2.310539775102531 19.58321851422164 6.010473936347966 1 0 0
447 149 1 0.5897 -4.827645110878549 22.165529177457934 7.210527078380449 1 0 0
435 145 1 0.5897 -4.429253652476294 20.203694035251864 9.458247832274763 1 0 0
462 154 1 0.5897 -4.70582912245932 17.35925241278096 6.671741841646718 1 0 0
433 145 2 -1.1794 -3.527715974674291 20.509551055685648 9.358496764518836 1 0 0
493 165 2 -1.1794 -3.5066677768072325 20.454585251657797 4.851895981444617 1 0 0
985 329 2 -1.1794 -3.5782605880255196 22.6860795598 11.080529464820147 1 0 0
434 145 1 0.5897 -3.429572785221285 21.188839492267924 10.025852379392614 1 0 0
954 318 1 0.5897 -5.283438066896103 22.260430835075425 12.249565006833713 1 0 0
895 299 2 -1.1794 -3.795100510802537 19.721637157985697 13.08641093035159 0 0 0
848 283 1 0.5897 -3.6853768685479564 21.28658997398952 14.098326292066993 0 0 0
896 299 1 0.5897 -4.580876956247986 19.327156148039847 12.70803555058609 0 0 0
897 299 1 0.5897 -3.4142959134412063 19.028250531529565 13.625399868463651 0 0 0
952 318 2 -1.1794 -6.090719185657932 21.74624919230814 12.263835633786893 1 0 0
961 321 2 -1.1794 -5.752847438201508 18.44061276215988 11.82046435378672 1 0 0
998 333 1 0.5897 -6.798533097680819 20.989693107915848 13.919401325768256 1 0 0
859 287 2 -1.1794 -1.9369840130511489 18.335406122189056 9.881224213747613 0 0 0
962 321 1 0.5897 -5.542572973108729 17.732899629725388 12.429788857843427 1 0 0
941 314 1 0.5897 -6.441499364441757 20.744898646225607 10.577000232815989 1 0 0
860 287 1 0.5897 -2.363194863986264 19.18759332934073 9.78928609058203 0 0 0
953 318 1 0.5897 -6.78343087571373 22.382248471003308 12.085309806957254 1 0 0
963 321 1 0.5897 -5.50906390555725 18.097469840390993 10.960638301609908 1 0 0
437 146 1 0.5897 -8.899204516741085 19.939354360611098 19.16768686704064 1 0 -1
974 325 1 0.5897 -6.380384064471924 18.30821763840612 16.30705160132749 1 0 0
937 313 2 -1.1794 -6.875156905130788 19.942129852541107 18.783809732529317 1 0 0
975 325 1 0.5897 -5.02790289616714 18.979986989698368 16.414164400358782 1 0 0
973 325 2 -1.1794 -5.606905357936997 18.539012934021763 15.79240287811419 1 0 0
949 317 2 -1.1794 -7.045545367963378 21.78536964785895 16.844822327403257 1 0 0
950 317 1 0.5897 -7.35336431580503 21.455524712208394 16.0005338119293 1 0 0
951 317 1 0.5897 -6.940151113193128 21.001885032532414 17.384615099576983 1 0 0
964 322 2 -1.1794 -8.088321181528542 17.78212086523513 16.91719355176868 1 0 0
999 333 1 0.5897 -6.584080552088833 19.795192880760673 14.824618112760758 1 0 0
939 313 1 0.5897 -6.204802108265717 19.3108468602291 19.045230263177512 1 0 0
847 283 2 -1.1794 -3.5411485676518826 22.00224207093322 14.717561863727552 0 0 0
572 191 1 0.5897 -5.9441866113086625 23.09038543318551 17.63033691632494 0 -1 0
573 191 1 0.5897 -4.7845385697512235 22.90197924713091 18.58506095964349 0 -1 0
357 119 1 0.5897 -5.399997320589154 17.44196716716222 19.073802841922195 0 0 -1
997 333 2 -1.1794 -7.222991850717546 20.473160363854255 14.604593451672674 1 0 0
6 2 1 0.5897 3.6711890267845266 1.681845835698911 4.391280495231957 0 0 0
54 18 1 0.5897 3.305733531247065 3.64497871718915 2.7305310564258702 0 0 0
527 176 1 0.5897 4.313959735631713 1.6818221507181796 0.48571020630209444 0 0 1
31 11 2 -1.1794 1.0798920230275932 0.6571753802609561 2.4453284346430366 0 0 0
70 24 2 -1.1794 3.7488002519068004 0.21551619981276215 1.7570080881218795 0 0 0
32 11 1 0.5897 0.9169867425377118 1.057230171837709 3.299678359587004 0 0 0
71 24 1 0.5897 2.7972373285399534 0.31831948314186453 1.770190505867204 0 0 0
46 16 2 -1.1794 1.8937557694110936 4.712337789052104 2.2703614799417373 0 0 0
53 18 1 0.5897 4.71289368714183 3.0867666856076776 2.7433555516587087 0 0 0
52 18 2 -1.1794 3.9324134029620987 3.1848950145085473 3.2888932364212695 0 0 0
47 16 1 0.5897 2.2815344153475 5.224219027297722 1.5603825171107732 0 0 0
48 16 1 0.5897 2.0186048239574124 5.251845641221736 3.0512409375015053 0 0 0
5 2 1 0.5897 3.603276020620025 0.1877920361865829 4.626702676371889 0 0 0
21 7 1 0.5897 1.305064772195145 1.8374627133556958 1.1471888516058708 0 0 0
78 26 1 0.5897 0.06647768582674374 2.8992893071146892 4.6437097710015545 0 0 0
19 7 2 -1.1794 1.3028422004656637 2.2422275848894775 0.27966914522320285 0 0 0
528 176 1 0.5897 3.09625388402672 2.496593624155103 0.10465240281659528 0 0 1
59 20 1 0.5897 1.8925701949809586 3.375955798340246 5.773648081995378 0 0 0
60 20 1 0.5897 2.969103573893886 3.3487251251723236 6.837667218206171 0 0 0
58 20 2 -1.1794 2.34701386502533 3.933647911914096 6.4051248299706165 0 0 0
34 12 2 -1.1794 0.715487503964185 0.9716799262139375 7.319991966551336 0 0 0
35 12 1 0.5897 0.8610616467388765 1.677558953143277 7.950032380624754 0 0 0
36 12 1 0.5897 -0.05202123340967768 0.5068766088175388 7.653525995715549 0 0 0
77 26 1 0.5897 0.42201198348439295 1.8512422506709534 5.676838854351936 0 0 0
44 15 1 0.5897 -0.44238723366563537 5.093988286038061 8.12871727892493 0 0 0
45 15 1 0.5897 0.6091881063618807 4.463487585603523 7.240422788949686 0 0 0
43 15 2 -1.1794 -0.2757229340776277 4.828046429758674 7.224290618595064 0 0 0
522 174 1 0.5897 2.2603806119422876 5.480304923832972 9.016236748306875 0 0 0
4 2 2 -1.1794 3.917142236751042 1.0025064808133834 5.019229262392473 0 0 0
11 4 1 0.5897 2.2676746012993005 5.535643014793477 5.292407318968328 0 0 0
76 26 2 -1.1794 0.716916671736116 2.2271679419510697 4.847268259824801 0 0 0
22 8 2 -1.1794 0.9467383210377553 2.651314667326326 9.300258768357926 0 0 0
525 175 1 0.5897 -0.9609192182909787 2.8962859167523973 9.303003741646029 0 0 0
402 134 1 0.5897 1.8220843747943132 -0.21989459965419728 8.160756140723754 0 1 0
575 192 1 0.5897 1.4678780345252047 0.16658850003668002 11.785965920437956 0 0 0
552 184 1 0.5897 -2.083437028099359 4.634979119368764 12.374806840130828 0 0 0
550 184 2 -1.1794 -1.2083315945453137 4.942764028551925 12.138664822343024 0 0 0
557 186 1 0.5897 0.5420404745036045 2.4473279369488 13.594809952624512 0 0 0
537 179 1 0.5897 -1.8011936325225846 1.7893421876344888 11.040357319062101 0 0 0
556 186 2 -1.1794 0.8526102653843282 3.3234422240655848 13.365981967868647 0 0 0
535 179 2 -1.1794 -1.784254512977188 1.2033589908903257 11.797154314535243 0 0 0
536 179 1 0.5897 -2.07039409763793 1.7490960415538992 12.529797013089823 0 0 0
574 192 2 -1.1794 0.8766056975942282 0.7260806316544108 11.282411854763495 0 0 0
558 186 1 0.5897 0.17550621211946904 3.6747134654209663 12.787753575158087 0 0 0
576 192 1 0.5897 0.07499879579640378 0.7592859955602751 11.804574709784344 0 0 0
23 8 1 0.5897 0.8651042366408523 1.928735811945319 9.922856476842288 0 0 0
520 174 2 -1.1794 2.6033245120636117 4.862716984570448 9.662220027507198 0 0 0
551 184 1 0.5897 -0.955339292504088 5.521392019460703 12.85805142144306 0 0 0
24 8 1 0.5897 1.6412110163343092 3.2021723303471052 9.661557521677764 0 0 0
564 188 1 0.5897 -1.5204501321481878 4.512281056757422 16.34512795414288 0 0 0
563 188 1 0.5897 -0.5256250229356754 5.283553866026193 15.503823693463286 0 0 0
547 183 2 -1.1794 -3.153989172246278 5.101455490027445 16.836579944967557 0 0 0
582 194 1 0.5897 -1.553994238077042 2.8599696759998547 14.745379450865906 0 0 0
562 188 2 -1.1794 -0.6569330745486752 4.440685987767304 15.938233184034614 0 0 0
538 180 2 -1.1794 -2.8813351101434774 0.98332908627459 16.818670133722886 0 0 0
539 180 1 0.5897 -2.683116236056949 1.6222700968625876 17.503406477162784 0 0 0
546 182 1 0.5897 0.40254023061914523 3.020492912564419 16.544512928769002 0 0 0
581 194 1 0.5897 -2.531939146458753 1.8262426107012883 15.262374606816293 0 0 0
526 176 2 -1.1794 -2.2041011258148 2.6173557888207117 19.048813021816816 0 0 0
540 180 1 0.5897 -3.7679647758743045 0.683682005994094 17.01953434455681 0 0 0
549 183 1 0.5897 -3.8792936279093864 4.598708569460117 16.465861284061386 0 0 0
580 194 2 -1.1794 -2.0961758437237075 2.123202185653591 14.463370293437428 0 0 0
510 170 1 0.5897 0.7193956452994446 1.3132832316918766 15.264050605137601 0 0 0
18 6 1 0.5897 -1.225858796868173 4.124818791384401 18.959107357608723 0 0 -1
16 6 2 -1.1794 -0.7357862909348016 4.909972066728918 19.20343678983138 0 0 -1
508 170 2 -1.1794 0.9220841645082007 0.8220594555938647 14.467761194704227 0 0 0
239 80 1 0.5897 4.030467105293909 8.692617343858215 1.4866881835053165 0 0 0
189 63 1 0.5897 1.7579950205959278 10.1727978172802 0.1907723430966457 0 0 0
240 80 1 0.5897 3.556778790802124 7.273312909274306 1.2554676382834908 0 0 0
238 80 2 -1.1794 3.748714372693798 7.903655595796861 1.9498806877407904 0 0 0
201 67 1 0.5897 1.8474308665031565 8.41432107725469 2.6803286775539306 0 0 0
222 74 1 0.5897 4.600330616421827 10.514979868553286 3.252498681487644 0 0 0
220 74 2 -1.1794 3.8047915289120544 10.637092881836072 3.7707425702540194 0 0 0
199 67 2 -1.1794 0.9971422496562203 8.843983225874434 2.77344263957151 0 0 0
245 82 1 0.5897 1.0634834252849013 9.477499606820501 4.391655897323884 0 0 0
10 4 2 -1.1794 2.0583533142494996 6.068755914174961 4.5253826720845565 0 0 0
174 58 1 0.5897 3.432158372851905 8.97463552979882 4.692135660493603 0 0 0
221 74 1 0.5897 3.26907247640687 11.235846219860212 3.2505023253220386 0 0 0
224 75 1 0.5897 0.09865676061584239 11.224633846267357 4.099395007334565 0 0 0
12 4 1 0.5897 1.139272665483663 6.30867925297053 4.64359284592671 0 0 0
203 68 1 0.5897 -0.6210662096330255 8.207831062015636 7.629415606713296 0 0 0
64 22 2 -1.1794 2.299193827938481 6.882507817391658 8.013133251500669 0 0 0
246 82 1 0.5897 0.5893797389655555 9.506147285119324 5.829346002820758 0 0 0
204 68 1 0.5897 0.8826649827307054 8.0586660583892 7.5378583129091155 0 0 0
191 64 1 0.5897 0.7013119529949412 9.719602957762199 9.10070984885758 0 0 0
172 58 2 -1.1794 3.675575850694872 8.276388986000608 5.300016085346245 0 0 0
202 68 2 -1.1794 0.1807186571635091 8.705906232347962 7.470198402696866 0 0 0
66 22 1 0.5897 3.042968157555215 6.48681079400987 7.558643166317062 0 0 0
65 22 1 0.5897 2.691902770599075 7.533545206433653 8.594746380800958 0 0 0
588 196 1 0.5897 -1.4987596131538825 6.612546850208129 9.447224542391416 0 0 0
228 76 1 0.5897 1.980277624295268 11.143048450689259 5.837897763947367 0 0 0
244 82 2 -1.1794 0.7847080343710964 10.075711662208459 5.085111301710602 0 0 0
173 58 1 0.5897 3.2494345096111825 7.493965170954108 4.9499311332418605 0 0 0
744 248 1 0.5897 0.08541319777562695 7.184009930071141 10.674827633432784 0 0 0
743 248 1 0.5897 0.538446953555844 8.585630327544077 11.024685572165176 0 0 0
724 242 2 -1.1794 0.9281187847738828 11.047252585130623 12.734244799802255 0 0 0
192 64 1 0.5897 1.0649599048564529 11.004369873285935 9.81441395793201 0 0 0
704 235 1 0.5897 -0.9589605671191199 8.343547048284066 12.508182335238017 0 0 0
742 248 2 -1.1794 0.5394718690698164 7.685966880819054 11.351723336941138 0 0 0
703 235 2 -1.1794 -1.8030184125694424 8.784734939446247 12.603953124837341 0 0 0
705 235 1 0.5897 -1.7363835045363496 9.252472528143564 13.436554195448453 0 0 0
586 196 2 -1.1794 -0.7770990375503861 6.025455536224453 9.672348417619535 0 0 0
190 64 2 -1.1794 0.6948508389847499 10.134231041359515 9.963548549437903 0 0 0
678 226 1 0.5897 0.7028201516708599 9.589367950774294 13.935273079334548 0 0 0
750 250 1 0.5897 -2.5406598349790768 10.966245637571381 14.143843873399282 0 0 0
514 172 2 -1.1794 -0.5455481367774695 6.615289214649554 14.189622276784633 0 0 0
587 196 1 0.5897 -0.9431454341522927 5.7791290413527046 10.582400435763534 0 0 0
692 231 1 0.5897 -1.312306352477293 10.142030119701039 9.79509957407272 0 0 0
693 231 1 0.5897 -2.169680941312128 9.771664795227123 10.986844845606543 0 0 0
725 242 1 0.5897 0.09990913398069257 11.445978033906927 12.467251255111629 0 0 0
516 172 1 0.5897 -0.03824982551289491 7.407946770458887 14.364747395504612 0 0 0
83 28 1 0.5897 -4.2451274455345684 6.997264427068554 18.843846403252694 0 0 -1
706 236 2 -1.1794 -3.148408040733443 9.053688560767945 17.05777597679648 0 0 0
708 236 1 0.5897 -2.51592171029956 8.33526181276133 17.067082864014253 0 0 0
749 250 1 0.5897 -2.813631468843579 10.189784834537608 15.414680307808025 0 0 0
695 232 1 0.5897 -2.409841514322169 10.302112496440065 18.166464714992593 0 0 0
570 190 1 0.5897 -0.16298819490260286 7.035610433709893 17.290937165861134 0 0 0
568 190 2 -1.1794 -0.9626008703883535 7.233659295776912 17.77855076840269 0 0 0
707 236 1 0.5897 -3.968745121165009 8.654938297575578 17.348270346580744 0 0 0