LAMMPS data file via write_data, version 30 Jul 2021, timestep = 19750000

864 atoms
2 atom types
576 bonds
1 bond types
288 angles
1 angle types

0.5475724760691847 17.659999923932062 xlo xhi
1.7364993184373212 21.892678481569206 ylo yhi
0.668037141821749 21.545158658169036 zlo zhi

Masses

1 1.00794
2 15.9994

Pair Coeffs # lj/cut/tip4p/long/omp

1 0 0
2 0.21084 3.1668

Bond Coeffs # harmonic/omp

1 450 0.9572

Angle Coeffs # harmonic/omp

1 55 104.52

Atoms # full

461 1 1 0.5897 8.286564883630732 5.07752690467544 4.860094372157264 -3 3 -6
42 1 1 0.5897 2.0914883438277876 2.510742953529794 5.24082859497692 -5 0 5
462 1 1 0.5897 7.989140289228628 3.5969397903605977 4.7523766112762305 -3 3 -6
851 1 1 0.5897 8.83002149991152 3.2414794289987556 1.7951988997416484 -12 2 -4
31 1 2 -1.1794 2.784388407219826 4.85058813660393 3.3877203072236575 2 7 2
95 1 1 0.5897 3.6322853914131117 3.569908487169104 2.5149965410637503 -8 -2 -2
33 1 1 0.5897 3.2566781690970137 5.683181539036115 3.383208945785077 2 7 2
210 1 1 0.5897 4.998597887960818 6.289088717688062 1.0536716778171893 0 -6 6
400 1 2 -1.1794 6.202369604101296 5.308609802202481 2.1440458623751253 -1 -1 3
32 1 1 0.5897 2.0816054834479445 4.969858663388594 2.7487959449506416 2 7 2
96 1 1 0.5897 4.682484680567563 2.4795568565115915 2.4967439565227054 -9 -2 -2
460 1 2 -1.1794 7.5722205962845175 4.4576971514737025 4.71213437764518 -3 3 -6
402 1 1 0.5897 6.470396402703207 4.873588561529848 2.953526033492051 -1 -1 3
852 1 1 0.5897 7.435265395491651 3.3042160781054486 1.2097423155867655 -12 2 -4
94 1 2 -1.1794 3.9982390018367173 2.880567051720778 1.9607259547430504 -9 -2 -2
850 1 2 -1.1794 8.049415017037099 2.7095241892144553 1.6403857769673533 -12 2 -4
614 1 1 0.5897 6.957860801047067 1.955756358680118 2.9179976061510673 -9 6 6
401 1 1 0.5897 6.9689577723318905 5.817364579498475 1.8798262019059782 -1 -1 3
41 1 1 0.5897 3.1379755102675784 3.547445028247176 4.891317846493227 -5 0 5
40 1 2 -1.1794 2.875924599129618 2.9396612243038627 5.582854036884875 -5 0 5
793 1 2 -1.1794 8.876402523567783 1.8348666196720647 5.0878468186981305 -4 4 3
76 1 2 -1.1794 8.77533055488896 6.466468474286754 2.048363112392047 -2 -6 -5
78 1 1 0.5897 8.70736976944592 6.4501400700442435 1.093684311320383 -2 -6 -5
604 1 2 -1.1794 0.7306167199986604 2.3786961275438205 3.816044771141678 -3 1 -2
506 1 1 0.5897 4.336118561861788 1.7950657903156007 5.460110245324687 6 3 -3
781 1 2 -1.1794 1.9872342850997047 4.838181071710201 7.331983542505566 -8 2 -2
356 1 1 0.5897 2.8585392491382096 5.525247068007113 10.143540459657768 7 2 1
357 1 1 0.5897 3.1690399824537687 5.3521030602569155 8.671895872827697 7 2 1
201 1 1 0.5897 7.160953148093247 4.68919986909669 10.845303719935227 3 -9 -1
269 1 1 0.5897 9.018671403218244 3.188774549206065 7.728715196836054 -2 2 1
817 1 2 -1.1794 5.80145012522275 2.5727163296429145 8.135123977495008 -2 -2 1
268 1 2 -1.1794 8.429488296087062 2.4343961577869937 7.738135894511 -2 2 1
771 1 1 0.5897 7.3292643569192775 5.4851574079551835 7.269383914959378 3 0 1
790 1 2 -1.1794 5.737348129034104 4.931208747159086 6.7454565634088155 3 3 3
355 1 2 -1.1794 3.4980636978469746 5.762186038323354 9.47182540465076 7 2 1
207 1 1 0.5897 1.4484393070237498 3.0796228885278847 7.62763490934137 -7 6 -3
770 1 1 0.5897 7.8540881351848775 5.558324185076248 8.68758304610766 3 0 1
818 1 1 0.5897 5.569896741409415 3.3463944229384426 7.6212068470961105 -2 -2 1
270 1 1 0.5897 8.402584198780355 2.139533043768803 6.827841613481494 -2 2 1
205 1 2 -1.1794 1.0936027479850035 2.27833604797965 8.012818435831871 -7 6 -3
769 1 2 -1.1794 8.109904134651615 5.706702285295621 7.7771803527780845 3 0 1
200 1 1 0.5897 6.77968201159166 6.084668356459162 10.39876911266967 3 -9 -1
199 1 2 -1.1794 7.520968716628292 5.480819826201266 10.445218379143551 3 -9 -1
264 1 1 0.5897 2.5415381671837505 1.9121441728963184 8.960759783142374 3 0 1
782 1 1 0.5897 1.3518039577730347 5.506185672968558 7.074519167184527 -8 2 -2
535 1 2 -1.1794 8.553623045906466 2.3051444362092206 10.611129501017905 5 7 4
536 1 1 0.5897 8.440870479901466 2.3924887691474077 9.664579581641814 5 7 4
819 1 1 0.5897 6.750069001255349 2.4929826048109547 8.034713392889092 -2 -3 1
278 1 1 0.5897 5.634715127063224 3.2943399845030585 9.917099811026828 2 -1 0
792 1 1 0.5897 5.378883858590245 5.817411738286919 6.7949554584587455 3 3 3
263 1 1 0.5897 4.050251690821664 1.8317818527308911 8.863703563059728 3 0 1
783 1 1 0.5897 2.2268252185792576 4.40617171595522 6.512072763874742 -8 2 -2
277 1 2 -1.1794 5.434035453721253 3.807876992828796 10.69960607046529 2 -1 0
279 1 1 0.5897 4.8730490346282656 4.516508275695616 10.384270204318035 2 -1 0
791 1 1 0.5897 6.324694230790963 4.951752829394829 5.989872113388066 3 3 3
394 1 2 -1.1794 3.2396474019652786 1.9371938061805567 12.247194389950518 6 -2 -1
318 1 1 0.5897 8.756765710790079 2.9604516974293866 13.416768222266228 -2 -1 -1
52 1 2 -1.1794 5.510006097874373 2.709139144078042 13.210335985993007 -2 1 -1
316 1 2 -1.1794 8.877440953299454 3.909060552649908 13.373392467663816 -2 -1 -1
691 1 2 -1.1794 3.011770345169844 3.7298915605865925 15.120437812814918 1 0 2
395 1 1 0.5897 4.079582869361953 2.2341600027247375 12.597353010467355 6 -2 -1
667 1 2 -1.1794 0.9309247525758352 6.355231357862555 15.532692714045375 -7 -5 -3
429 1 1 0.5897 7.2728804523856745 5.061405466640643 13.346690471181159 0 -2 -2
428 1 1 0.5897 6.671345235467753 5.731751631884998 14.563612293932984 0 -2 -2
168 1 1 0.5897 1.9157060293745662 5.266114462436617 12.629491428450187 1 -1 4
427 1 2 -1.1794 6.655481729455952 5.745196082553854 13.606581368275792 0 -2 -2
53 1 1 0.5897 5.483551186753275 3.228862171021201 12.40689521890992 -2 1 -1
693 1 1 0.5897 3.037729789313648 4.642603771588387 14.833076415232037 1 0 2
167 1 1 0.5897 2.8655558071182714 4.089287807128706 12.699589597661083 1 -1 4
692 1 1 0.5897 3.763070750642384 3.6414901676135973 15.706976285363215 1 0 2
396 1 1 0.5897 3.337919402746737 2.005496289289553 11.297464458596695 6 -2 -2
669 1 1 0.5897 0.7250202985244566 5.842665928688934 14.750919451565105 -7 -5 -3
71 1 1 0.5897 5.213591823840166 6.53787606186188 13.171746137722465 15 -3 -1
166 1 2 -1.1794 2.810512269625375 5.001762490234396 12.415581142131744 1 -1 4
54 1 1 0.5897 6.163714456482541 2.0318108670453348 13.036585252324562 -2 1 -1
317 1 1 0.5897 8.90675826799864 4.189342358245736 14.28820535298691 -2 -1 -2
72 1 1 0.5897 3.7634708557996057 6.4390699708495065 12.748114499961165 15 -3 -1
274 1 2 -1.1794 6.891379405354335 6.433786891295277 16.276517141742936 -5 0 4
175 1 2 -1.1794 9.067342971724749 4.914770531979823 15.865940347083557 -5 -4 5
594 1 1 0.5897 8.626975678806636 6.766800652239462 11.204878877912781 -2 4 -6
276 1 1 0.5897 7.773589012916968 6.088774794859959 16.138554225600064 -5 0 4
653 1 1 0.5897 1.3729179833840401 3.5714382510952793 16.244315053472555 -2 -2 4
6 1 1 0.5897 2.059736271941693 4.909623881561789 18.075864688530753 2 2 -2
620 1 1 0.5897 8.201085210264573 2.4907865879256965 17.71026212010913 0 -5 6
685 1 2 -1.1794 7.122133300428567 4.421270043095 20.040750508082052 5 -10 -9
5 1 1 0.5897 2.7229859518583104 6.011147702912478 18.875112274548258 2 2 -2
255 1 1 0.5897 4.276692587043657 3.5994514647167897 21.347350906612167 0 6 -7
55 1 2 -1.1794 1.4656615738350267 2.5627577233162357 19.861006394450797 -3 0 -3
687 1 1 0.5897 7.175822479488409 4.0260224841313175 19.170584816784814 5 -10 -9
686 1 1 0.5897 6.199543988601306 4.342677532112519 20.283533617394752 5 -10 -9
619 1 2 -1.1794 7.730269705087426 3.3226249376781203 17.658414459251922 0 -5 6
56 1 1 0.5897 1.6057897104375014 3.420829135412658 19.460540315833953 -3 0 -3
253 1 2 -1.1794 4.496089267969624 3.890867070724043 20.462340658887534 0 6 -7
652 1 2 -1.1794 0.9321591662739701 3.7257139257217116 17.079918845755135 -2 -2 4
57 1 1 0.5897 0.6732395968254814 2.6700124542773778 20.3871969710175 -3 0 -3
254 1 1 0.5897 3.650275391476726 4.075116358932263 20.053750242965595 0 6 -7
383 1 1 0.5897 5.212509374781118 2.2188978265397847 20.099049718831647 -8 -1 -5
235 1 2 -1.1794 5.003925222989002 3.5302630357777964 17.062751429964027 -4 -5 -2
585 1 1 0.5897 8.259209564366895 6.028421228385673 19.957801088064777 -3 -9 0
4 1 2 -1.1794 2.468969975787653 5.0894414287324885 18.922320739317637 2 2 -2
621 1 1 0.5897 6.921939697771207 3.112155453188377 17.190870165657017 0 -5 6
654 1 1 0.5897 0.6479573987782616 2.857320964049302 17.36527067790227 -2 -2 4
237 1 1 0.5897 4.445990094862098 2.8175832747416107 17.37434764471023 -4 -5 -2
176 1 1 0.5897 8.72637566071435 4.4145981402234575 16.607464865415373 -5 -4 5
236 1 1 0.5897 4.819054220625266 4.2573153848170975 17.657330497539547 -4 -5 -2
275 1 1 0.5897 6.654027725988171 6.1409063772928 17.156395659182603 -5 0 4
418 1 2 -1.1794 5.378890912314912 6.656019949989632 18.622750009479834 -5 -6 3
550 1 2 -1.1794 2.944516761280219 11.64962161415976 4.866173052781126 2 3 -4
703 1 2 -1.1794 8.502802550146894 9.719972394170199 4.785585614248919 -1 0 -5
552 1 1 0.5897 1.9872927102216857 11.64633680751607 4.863332362804375 2 3 -4
314 1 1 0.5897 5.788999464646252 7.450081475429763 3.070882450100673 0 -5 -1
707 1 1 0.5897 4.013281200052102 10.156635787200328 1.78579497105799 -4 -3 -6
475 1 2 -1.1794 6.143053386607584 11.15291857190365 4.17950978671054 4 -5 -4
636 1 1 0.5897 2.9811133577095035 7.875567388662898 3.7291659114533693 -4 1 3
635 1 1 0.5897 4.079214978370068 7.312251553553705 4.606030843539138 -4 1 3
634 1 2 -1.1794 3.8320598215341586 7.43888109665397 3.689942819060957 -4 1 3
670 1 2 -1.1794 0.9323463411251692 7.965936580208161 4.018066780101883 5 -5 -2
313 1 2 -1.1794 6.482721922981529 8.109595218533602 3.0608750647315026 0 -5 -1
477 1 1 0.5897 5.5115351629742735 10.825785569835597 3.5388118299959688 4 -5 -4
708 1 1 0.5897 4.280926366376045 9.235074034577647 2.956778028120263 -4 -3 -6
315 1 1 0.5897 7.253703865097359 7.652072115287221 3.3964569056501057 0 -5 -1
705 1 1 0.5897 8.847349108143765 10.055085819787854 5.613406423455438 -1 0 -5
192 1 1 0.5897 8.168981019334861 9.461852434564229 1.0126918655610382 1 3 -5
704 1 1 0.5897 7.642393615568449 10.130648137538161 4.699932186097443 -1 0 -5
59 1 1 0.5897 1.675095244978827 7.002838525454593 1.5961698576100862 8 3 1
191 1 1 0.5897 6.914008717875652 9.363570619265506 1.8537990332529235 1 3 -5
706 1 2 -1.1794 4.071926429720422 10.144003109770482 2.74118686412712 -4 -3 -6
753 1 1 0.5897 5.616801664281977 11.139498369279176 5.845659548649992 2 -4 2
551 1 1 0.5897 3.1882332517870493 11.311124761305395 4.0045937477571565 2 3 -4
190 1 2 -1.1794 7.3405871184157245 9.907026399559495 1.1912298502834893 1 3 -5
12 1 1 0.5897 0.6888531951788177 9.663924760010387 4.215495149384816 -3 -3 3
847 1 2 -1.1794 8.986273995955713 7.194072013189088 5.365777169726276 3 2 2
848 1 1 0.5897 8.791930417385268 8.09882111560862 5.120860565552744 3 2 2
242 1 1 0.5897 8.70294395760425 11.34809433907705 2.4928236992558377 4 -3 5
58 1 2 -1.1794 2.201181816474784 7.735490029001402 1.2756230340394603 8 3 1
671 1 1 0.5897 0.6327402656168651 7.549390904496066 4.826176313196032 5 -5 -2
60 1 1 0.5897 3.0633201639697547 7.355739554690004 1.1059131015986057 8 3 1
14 1 1 0.5897 1.3478024590409423 9.533788784006477 0.7399609507865389 -2 -5 -3
641 1 1 0.5897 2.6920377353428764 10.01998086545958 5.84462048721139 -2 6 -3
548 1 1 0.5897 3.811723070675831 8.08893568578997 6.2695267436891715 9 3 -1
519 1 1 0.5897 4.844733272381694 11.350121307247468 9.436080996837537 2 0 -4
591 1 1 0.5897 8.58111763277387 8.42255093926071 8.369986975310685 8 2 4
642 1 1 0.5897 2.3282300424979585 9.18245101167536 7.052194919804386 -2 6 -3
751 1 2 -1.1794 5.604142897626236 10.889327461330629 6.7695348325438935 2 -4 2
752 1 1 0.5897 6.158744458105103 11.538907084358234 7.201688210126638 2 -4 2
2 1 1 0.5897 6.485190187912705 8.137110324299544 8.16910462107941 3 -9 6
517 1 2 -1.1794 5.51384350029663 10.98936292028769 10.01783241548244 2 0 -4
758 1 1 0.5897 5.397643458277982 8.131850763145593 10.237522326506472 1 3 3
3 1 1 0.5897 6.2860760281881465 9.478160751607215 7.495264110908411 3 -9 6
833 1 1 0.5897 2.053473711465612 8.90366418409932 9.507983097324834 6 -3 0
640 1 2 -1.1794 2.5279136963611646 9.117500781467943 6.118279690120381 -2 6 -3
823 1 2 -1.1794 8.282047691262735 11.06391281396314 10.155612717752007 -2 4 4
834 1 1 0.5897 2.4908852862677717 7.577837924835039 8.922350866215206 6 -3 0
757 1 2 -1.1794 5.557035008011158 7.47822144952123 9.556567434686352 1 3 3
240 1 1 0.5897 0.9790715342025356 7.663387587813445 6.701288869635313 -9 -4 0
1 1 2 -1.1794 6.832761618293997 8.692743428563205 7.471372937576589 3 -9 6
832 1 2 -1.1794 2.1716918637670193 8.445918171288328 8.675629043649318 6 -3 0
593 1 1 0.5897 9.095558006489107 8.068775900621459 10.590606800717952 -2 4 -6
518 1 1 0.5897 5.033696145420787 10.399853299623627 10.599408248939026 2 0 -4
825 1 1 0.5897 7.346178178862355 10.86395413340593 10.17756684591881 -2 4 4
482 1 1 0.5897 4.221908100368356 11.699578656559 7.49907688535665 -4 -1 -4
549 1 1 0.5897 5.296376267002781 8.176885392733041 6.552589730563464 9 3 -1
824 1 1 0.5897 8.656340957365378 10.397677374043731 9.57910545132415 -2 4 4
759 1 1 0.5897 4.787140219565435 6.910024027368239 9.584405483200701 1 3 3
547 1 2 -1.1794 4.619859820487604 7.576826864268912 6.238659095764898 9 3 -1
862 1 2 -1.1794 1.11138929761698 11.656931188293258 7.4655601066496695 5 2 -1
80 1 1 0.5897 1.123575567983557 10.190474249922225 10.934749507374352 7 3 -3
863 1 1 0.5897 2.051604922856813 11.800257951798146 7.573982816670281 5 2 -1
849 1 1 0.5897 8.47387715144848 7.045202125690501 6.160521174062438 3 2 2
79 1 2 -1.1794 1.7192705712875853 9.460295232011003 11.102961874174776 7 3 -3
165 1 1 0.5897 3.7823498166714002 10.345157700021298 14.876465924676006 -9 3 -3
803 1 1 0.5897 6.618035882010962 8.166213813277803 15.763045256493568 7 3 -1
804 1 1 0.5897 6.829688003325372 9.015849479654614 14.5279894048737 7 3 -1
306 1 1 0.5897 4.09871168669036 6.819669724099536 15.49311933288853 9 -5 -10
746 1 1 0.5897 7.965162961720833 9.159777720134336 12.145770141078595 -1 7 -8
632 1 1 0.5897 4.439194511281785 8.403206430338901 12.18871901963572 14 10 3
305 1 1 0.5897 2.8046727052904807 7.1352672785032345 16.21287181308462 9 -5 -10
164 1 1 0.5897 5.269745320732503 10.168915386609266 15.096998726955979 -9 3 -3
747 1 1 0.5897 7.727948203414417 10.506764504809707 12.794942628733214 -1 7 -8
81 1 1 0.5897 2.4656033771452863 9.857857950936296 11.551606665362844 7 3 -3
802 1 2 -1.1794 6.537535899698927 9.063077832182504 15.43832347875465 7 3 -1
745 1 2 -1.1794 7.296598955821552 9.675545694934911 12.596666790293911 -1 7 -8
855 1 1 0.5897 2.1797094708851463 8.596469222315978 14.09818834451043 -1 3 2
631 1 2 -1.1794 4.81797672996471 9.132446809992892 11.6977531579514 14 10 3
854 1 1 0.5897 1.650790607594039 10.009589174045226 13.974144110716995 -1 3 2
853 1 2 -1.1794 2.1927510348794286 9.450305074319736 14.530724537795352 -1 3 2
633 1 1 0.5897 5.61939180750431 9.351339494391814 12.17330510172806 14 10 3
163 1 2 -1.1794 4.629262211629944 10.746581048419882 14.681817101756383 -9 3 -3
421 1 2 -1.1794 1.121184275709457 7.310865880427774 12.808967476660143 0 2 4
827 1 1 0.5897 1.184751880214677 9.674404785113701 16.25366429851976 -6 3 7
592 1 2 -1.1794 8.912978786496913 7.6514903342346 11.432534772402388 -2 4 -6
423 1 1 0.5897 1.2723366758854955 8.108408359605408 12.301619297232293 0 2 4
359 1 1 0.5897 9.075442246195989 11.72718878514771 13.531348731211374 6 7 -8
509 1 1 0.5897 3.926081774436209 11.35736340992234 13.086398842682456 3 0 4
508 1 2 -1.1794 3.231837273660017 11.572846857218659 12.463581583766716 3 0 4
70 1 2 -1.1794 4.3603999248332865 6.9555619746260176 13.289620465157054 15 -3 -1
398 1 1 0.5897 4.2135765066268895 8.958276277344648 16.919503041363537 5 1 -6
459 1 1 0.5897 7.579414007680015 9.462967259274919 18.946542421827928 -3 3 -4
583 1 2 -1.1794 8.695289958085727 6.8579054201955865 20.152978712870603 -3 -9 0
399 1 1 0.5897 4.123037738480669 9.415003924094574 18.36009306771989 5 1 -6
584 1 1 0.5897 8.068432293994746 7.528363392073159 19.8812207373527 -3 -9 0
67 1 2 -1.1794 2.5064240514975245 7.9924485885998156 19.14569293081605 8 -6 1
602 1 1 0.5897 3.151141878860567 11.130436447952846 17.852504168254782 7 4 -1
490 1 2 -1.1794 8.34912519306229 10.128490674343157 17.385717054153837 0 2 1
457 1 2 -1.1794 7.042602414557724 8.89230912902764 19.496533319774535 -3 3 -4
828 1 1 0.5897 1.4990969654207056 10.507007397533505 17.47843302004314 -6 3 7
491 1 1 0.5897 7.594456539209 9.90966855182625 16.839012292183877 0 2 1
657 1 1 0.5897 4.9161788304526315 10.544218267557328 21.05308672428222 -5 5 3
69 1 1 0.5897 2.030431363809804 8.412734405973325 18.429397010260203 8 -6 1
458 1 1 0.5897 6.880340230807609 9.405381889131526 20.288191192758674 -3 3 -4
397 1 2 -1.1794 4.141154340016984 9.744053477782908 17.461360876856045 5 1 -6
655 1 2 -1.1794 4.148331158920319 10.002042764133456 20.872078801629762 -6 5 3
15 1 1 0.5897 2.466161068381296 10.357329035591869 21.0144715684908 -2 -5 -4
68 1 1 0.5897 2.441756404912467 8.611724547053694 19.872744776688595 8 -6 1
656 1 1 0.5897 4.4219000998638265 9.114069684769376 21.102197701184014 -6 5 3
13 1 2 -1.1794 1.517670081906026 10.348005635351253 21.143245451190822 -2 -5 -4
420 1 1 0.5897 4.639919557610198 6.782333966953959 18.027521355282662 -5 -6 3
209 1 1 0.5897 4.961773245920796 6.812318771285602 20.51059337979171 0 -6 5
826 1 2 -1.1794 1.1813042153468585 9.644738348903559 17.210442074462144 -6 3 7
419 1 1 0.5897 5.950763690052968 7.405719739508336 18.457799115766175 -5 -6 3
208 1 2 -1.1794 4.779384372324211 7.065474079317045 21.415559240864027 0 -6 5
492 1 1 0.5897 9.007625585731718 9.47145600312415 17.159899393890505 0 2 1
486 1 1 0.5897 5.549256182393881 11.800110441050268 17.03473496569631 -1 7 -2
304 1 2 -1.1794 3.7551055017683215 7.140938829214413 16.326812092807586 9 -5 -10
409 1 2 -1.1794 3.0170591571250336 16.353690089931277 4.2000489091951545 5 -1 -5
599 1 1 0.5897 7.840688029382316 14.702853008946615 2.618558276956532 2 -2 -4
600 1 1 0.5897 7.99592378966693 16.134497012216613 2.1512484195168673 2 -2 -4
116 1 1 0.5897 5.58459950847361 13.983390581566983 4.5243375309656075 -7 2 4
476 1 1 0.5897 6.159317629049556 12.099619554355357 4.038679349233536 4 -5 -4
151 1 2 -1.1794 4.172962746817467 14.180057339040989 5.679599148172436 1 3 -1
561 1 1 0.5897 1.2208031479222328 16.824529323265846 4.767326601925337 7 2 1
152 1 1 0.5897 3.771663192006193 13.31165658165965 5.645815728449699 1 3 -2
196 1 2 -1.1794 1.9206063288898119 12.932694224940299 2.126170540950911 -1 -4 -3
820 1 2 -1.1794 8.275943988397097 15.76717315460283 5.708612626400825 -2 2 7
126 1 1 0.5897 4.785864942708645 13.376309992519726 0.763875929819579 4 -3 6
153 1 1 0.5897 3.6372879954591832 14.714953068770182 5.093726201109533 1 3 -1
598 1 2 -1.1794 8.458913003133851 15.433652503369284 2.610338568882711 2 -2 -4
122 1 1 0.5897 0.9584888802614798 16.27483539881944 1.6035104111170395 3 -4 2
198 1 1 0.5897 2.724496058989221 13.265829491759442 1.7273280510388123 -1 -4 -3
115 1 2 -1.1794 6.148540354585265 14.014258174654405 3.751477125569545 -7 2 4
410 1 1 0.5897 2.608595862443245 16.345556735748715 3.3343798175450194 5 -1 -5
117 1 1 0.5897 5.545825314330975 14.14683787501317 3.019733701839112 -7 2 4
540 1 1 0.5897 1.2552241274311235 13.563421936960632 3.7300630020259047 -11 -2 2
538 1 2 -1.1794 0.8116471209571245 13.891272352083906 4.512394812365299 -11 -2 2
125 1 1 0.5897 4.338961061130673 14.798822874538171 1.0261933270262444 4 -3 6
694 1 2 -1.1794 4.230090173286815 16.736534573719528 0.8276332569532447 -1 -4 -2
821 1 1 0.5897 8.086093911255329 15.701464221501347 4.772698512319231 -2 2 7
816 1 1 0.5897 8.314366654108685 13.70654776594482 5.3906412649514746 -1 7 -6
815 1 1 0.5897 8.542732355018293 12.493437511755547 4.51410292954079 -1 7 -6
124 1 2 -1.1794 4.53455902409734 13.972985228046314 1.4689495012893343 4 -3 6
197 1 1 0.5897 1.7955321864912503 12.070388159610387 1.7298364600992189 -1 -4 -3
814 1 2 -1.1794 8.487779710255673 12.765983064185148 5.430103483005122 -1 7 -6
221 1 1 0.5897 0.809000323878706 14.112800316499452 1.4405475592047954 0 -5 3
717 1 1 0.5897 1.421361710201161 15.0914121898887 7.500802250524279 0 -10 -1
498 1 1 0.5897 7.734537001774443 13.319182309759292 7.650465951708826 8 -1 2
798 1 1 0.5897 8.581989553051438 15.144373114011426 9.668247978921057 -2 -3 -5
624 1 1 0.5897 5.21066422596638 15.675464365817312 6.3122891014535725 3 5 6
623 1 1 0.5897 5.56353959637548 15.921810507780881 7.763785632963882 3 5 6
622 1 2 -1.1794 5.739285998668591 16.238591684749526 6.87774631684104 3 5 6
481 1 2 -1.1794 3.668718383718135 12.044959362989387 8.199779466444298 -4 -1 -4
216 1 1 0.5897 3.4762343284866413 16.186680343948986 8.844835384272118 1 -3 7
110 1 1 0.5897 1.6764562175124489 15.635035545569949 10.807920686111997 -2 3 -15
497 1 1 0.5897 7.518534575160778 12.278613579304356 8.728729975065834 8 -1 3
214 1 2 -1.1794 2.7601539932866364 16.10708356113276 8.214606440264188 1 -3 7
364 1 2 -1.1794 3.098387435736747 14.127375067901891 10.989573663168045 7 4 7
715 1 2 -1.1794 0.8615875053041574 14.362678329094868 7.232628480167493 0 -10 -1
23 1 1 0.5897 8.814365654517077 12.625007043134048 10.62460522681922 -5 1 0
796 1 2 -1.1794 8.416640359782814 15.653624443854104 8.874732305584606 -2 -3 -5
111 1 1 0.5897 1.671794862308735 16.56531932476023 9.613487160406287 -2 3 -15
496 1 2 -1.1794 7.061843992350032 12.759464827733371 8.038432409934988 8 -1 3
366 1 1 0.5897 3.758366190541101 14.272509989678019 10.311580865294511 7 4 7
180 1 1 0.5897 5.890766304401201 14.039575203916186 8.81808698815086 -13 1 -4
109 1 2 -1.1794 1.1928538251961336 16.362889071345386 10.41720461108556 -2 3 -15
178 1 2 -1.1794 5.1803927635113745 14.559144385293818 9.194549474347824 -13 1 -4
716 1 1 0.5897 0.9022559835403223 14.368149765948118 6.276275214629993 0 -10 -1
179 1 1 0.5897 5.514656891688012 14.841445750282313 10.045956614188881 -13 1 -4
797 1 1 0.5897 9.052257586274557 15.322341943621382 8.240237395724002 -2 -3 -5
864 1 1 0.5897 0.7820860754274443 12.482740398855732 7.110737071922735 5 2 -1
483 1 1 0.5897 3.6373536889704816 12.98791360973164 8.03808688304397 -4 -1 -4
215 1 1 0.5897 3.1636155423974697 16.297258288125654 7.367645355227938 1 -3 7
822 1 1 0.5897 7.439412371766326 16.007818500008536 6.1068767314183345 -2 2 7
148 1 2 -1.1794 1.3898102987705871 12.871364382686439 13.957845059033016 -2 2 3
299 1 1 0.5897 6.33422044247579 14.075241966338483 13.63803225153837 -3 1 -2
469 1 2 -1.1794 8.880019788691948 15.185599103532928 12.904294273851455 5 3 2
24 1 1 0.5897 8.88263812240339 13.87163154516484 11.480949554453735 -5 1 0
298 1 2 -1.1794 6.001334394085643 14.279575707513667 14.511948402184515 -3 1 -2
358 1 2 -1.1794 8.188974766896642 12.08823302861856 13.543177848918345 6 7 -8
412 1 2 -1.1794 8.523680706734762 12.707780002654083 16.27042110849778 3 2 4
149 1 1 0.5897 2.0397576182416253 13.302352541486444 14.512920964215512 -2 2 3
761 1 1 0.5897 3.26089740512615 14.794357635468879 15.561514332557518 1 3 0
530 1 1 0.5897 5.7676668768604875 12.312071001213644 11.307715927144827 1 -3 -6
762 1 1 0.5897 4.264935425060861 13.662767635170033 15.50234873618118 1 3 0
521 1 1 0.5897 3.2199964759403836 16.462537836968863 14.01994561602382 -6 -5 -3
531 1 1 0.5897 6.796010871300174 12.450439603659014 12.41016960986848 1 -3 -6
360 1 1 0.5897 8.0556185998592 12.367337834890083 14.449067408282367 6 7 -8
760 1 2 -1.1794 3.3569382664077088 13.857766982582426 15.734353604407973 1 3 0
510 1 1 0.5897 2.550439488748193 11.983092050507206 12.996231346543103 3 0 4
300 1 1 0.5897 6.736911762548255 14.701036233740664 14.956465354272591 -3 1 -2
188 1 1 0.5897 4.9083619721374845 15.253577391706896 13.391068906583119 -1 2 7
835 1 2 -1.1794 7.965767222945623 16.027560654443327 16.29038078311836 1 1 -5
529 1 2 -1.1794 6.1627189115363965 12.953572560389826 11.898223979348504 1 -3 -6
836 1 1 0.5897 8.517392285226805 16.53105507986637 15.691538636817592 1 1 -5
187 1 2 -1.1794 4.332255046385774 15.732282828891465 12.795044334666455 -1 2 7
520 1 2 -1.1794 3.0222941188452097 16.639119421582357 14.93974559838111 -6 -5 -3
365 1 1 0.5897 3.131291641224009 13.185804342697363 11.158864356795931 7 4 7
150 1 1 0.5897 1.068091494936108 13.56509671048862 13.38203449542704 -2 2 3
471 1 1 0.5897 8.180510945641341 15.823466880872235 13.046078588979467 5 3 2
189 1 1 0.5897 3.897946750314083 15.050753714721605 12.282016055034651 -1 2 7
470 1 1 0.5897 8.987086437137112 14.754380195237278 13.752181237141027 5 3 2
330 1 1 0.5897 6.0785018757774765 16.809282000235093 12.465001434260003 0 4 -1
522 1 1 0.5897 2.0843181706714438 16.82993511718564 14.951261679330916 -6 -5 -3
143 1 1 0.5897 5.5659190588824226 15.180963045135327 19.194255700185636 5 3 6
144 1 1 0.5897 4.90787983113913 14.239265450487608 18.208224097447253 5 3 6
511 1 2 -1.1794 6.004721116967979 12.354647358604128 20.37845263387522 3 1 3
37 1 2 -1.1794 2.6416535249436945 13.926434933472924 19.88033237437852 -4 -5 -4
103 1 2 -1.1794 0.9850606711400227 15.369686788862737 18.24574903661287 3 -4 1
104 1 1 0.5897 1.440848879565996 14.863318174012656 18.91817168647625 3 -4 1
105 1 1 0.5897 1.284103258585401 16.269223448664004 18.37878980526773 3 -4 1
709 1 2 -1.1794 7.170162288345474 15.364808047896878 20.04431930991782 2 1 3
484 1 2 -1.1794 5.852835283880549 12.636653982721725 17.387336931198845 -1 7 -2
375 1 1 0.5897 5.14492240678269 16.39334275171747 17.36539725338469 5 2 -2
38 1 1 0.5897 3.3620752903510973 14.466301258191475 19.554977612967804 -4 -5 -4
711 1 1 0.5897 7.864834015691556 14.797756164547382 20.3792469778112 2 1 3
601 1 2 -1.1794 2.544710684146605 11.87105698599052 17.846865101802834 7 4 0
39 1 1 0.5897 2.6539294966891385 13.148485506875874 19.322714179369164 -4 -5 -4
513 1 1 0.5897 6.08134166966446 12.348611010850602 19.42429094021743 3 1 3
142 1 2 -1.1794 4.735594185893544 15.009474513864733 18.74991045912352 5 3 6
512 1 1 0.5897 6.8407476542656065 12.706738983884804 20.68416894952744 3 1 3
485 1 1 0.5897 6.773904501716945 12.68496752949963 17.13120747036771 -1 7 -2
710 1 1 0.5897 7.624950967343125 16.155287756171134 19.753456000459394 2 1 3
61 1 2 -1.1794 8.80730618251853 13.52214683594048 21.119441568469732 -1 3 2
837 1 1 0.5897 7.216974347450692 16.59806313707753 16.463964832101098 1 1 -5
414 1 1 0.5897 8.55987882186437 11.936633803159904 16.83639660889261 3 2 4
603 1 1 0.5897 2.9330999359938277 12.494564660369008 17.233091141972004 7 4 0
372 1 1 0.5897 9.031961513637986 15.36092248003921 17.389127974182983 7 3 -4
413 1 1 0.5897 9.04911967179023 13.365145722887625 16.72658156881994 3 2 4
613 1 2 -1.1794 6.253253063627577 21.640877145543605 3.362888316508485 -9 5 7
838 1 2 -1.1794 3.279271226969314 19.74587014272265 3.4051029623018954 -3 -1 -2
845 1 1 0.5897 1.6511632239769147 19.36693358549471 3.0583888406156876 -5 -4 5
581 1 1 0.5897 6.013206301535819 19.404501057914338 1.3136727236129917 4 -1 1
562 1 2 -1.1794 5.499923996196963 17.947293256812838 4.512372410583437 1 -4 2
840 1 1 0.5897 3.654928289799671 20.125091410259877 4.199713984380512 -3 -1 -2
505 1 2 -1.1794 4.786641689746643 21.106915589192408 5.481215425396206 6 2 -3
839 1 1 0.5897 3.9306070935066284 19.919212493150944 2.725357483364588 -3 -1 -2
580 1 2 -1.1794 5.359853693447055 20.097640553784846 1.4084247391820757 4 -1 1
181 1 2 -1.1794 7.480598315113388 19.37343155012237 5.591341071190757 -6 3 -3
507 1 1 0.5897 5.498621625262846 21.198889400883917 4.848021535143669 6 2 -3
615 1 1 0.5897 5.9796183391368825 20.970824145364368 2.7364249459793943 -9 5 7
183 1 1 0.5897 8.06078384225054 19.05092253119798 4.901652377469394 -6 3 -3
564 1 1 0.5897 5.506093728999105 17.45365007543241 5.332475028172711 1 -4 2
212 1 1 0.5897 2.032703554474265 20.420795532604647 1.5241391900524381 3 -4 5
795 1 1 0.5897 8.19187453834454 21.328443279423848 4.994557342964705 -4 3 3
123 1 1 0.5897 1.2322554987245393 17.663119832387352 2.1418062056313545 3 -4 2
563 1 1 0.5897 6.139204402311007 18.64670243514049 4.648442500115497 1 -4 2
8 1 1 0.5897 6.343532563795783 17.699154011622902 2.7167299503697078 9 4 3
411 1 1 0.5897 3.712734512375081 17.007601091581755 4.131020133188781 5 -1 -5
7 1 2 -1.1794 6.685588622870833 17.58758404303359 1.829690010122981 9 4 3
684 1 1 0.5897 8.526866862839178 17.999018431940257 0.7472175652541111 1 1 -6
9 1 1 0.5897 5.936747317366083 17.276364208441468 1.3210869887162215 9 4 3
844 1 2 -1.1794 0.7216090901037159 19.243435189021245 2.866061559020222 -5 -4 5
121 1 2 -1.1794 1.6696337402786159 16.88809557272733 1.789193000976826 3 -4 2
696 1 1 0.5897 3.382409259944509 16.991229888155118 1.1921790627391022 -1 -4 -2
618 1 1 0.5897 8.613838075730918 17.487368555522206 8.368087817701301 -6 4 0
737 1 1 0.5897 5.2739403410474255 18.01979414623516 10.111137876687229 1 2 -2
736 1 2 -1.1794 4.963934492791551 17.531805739353885 9.348159462219948 1 2 -2
336 1 1 0.5897 6.739144676660677 19.509024709066647 8.042442660551181 -1 -2 6
342 1 1 0.5897 3.6223508319372413 18.62948157490349 9.261532673553884 2 5 3
261 1 1 0.5897 5.481607176452994 19.984717766072936 10.301910391078586 5 -2 8
334 1 2 -1.1794 5.862407556960887 19.86169382921929 8.194916190790423 -1 -2 6
738 1 1 0.5897 5.510052397389654 17.84292275361205 8.626162939699519 1 2 -2
206 1 1 0.5897 1.1271114302455034 21.792201745226638 7.30384514402015 -7 5 -3
351 1 1 0.5897 0.7440887973450273 19.47504553193736 9.403594633020303 -12 5 1
616 1 2 -1.1794 8.50630000004681 18.418153657773455 8.172180479236282 -6 4 0
341 1 1 0.5897 3.1837615017301464 20.062672946321086 9.475178671831024 2 5 3
673 1 2 -1.1794 3.1630254715128925 18.739108676683113 6.639936850017658 -1 -2 -5
340 1 2 -1.1794 2.8436689306165106 19.18469924002955 9.302552082391966 2 5 3
335 1 1 0.5897 5.844028218145825 20.68114993872895 7.700457059543228 -1 -2 6
262 1 2 -1.1794 3.3211119201427772 21.834384850653876 9.464595661633936 3 -1 1
675 1 1 0.5897 3.1439542911343463 18.916712166840913 7.580356991334487 -1 -2 -5