LAMMPS data file via MDAnalysis

        2592  atoms
        1728  bonds
         864  angles
           0  dihedrals
           0  impropers

           2  atom types
           1  bond types
           1  angle types
           0  dihedral types
           0  improper types

0.000000 47.062523 xlo xhi
0.000000 21.599474 ylo yhi
0.000000 21.947752 zlo zhi
-9.235244 -21.542086 2.945154 xy xz yz


Masses

1 1.008000
2 15.999000

Atoms

1 0 2 -1.179400 -0.623811 -3.675537 4.537764
2 0 1 0.589700 -0.258129 -3.077091 5.195617
3 0 1 0.589700 -1.447692 -3.263427 4.271944
4 0 2 -1.179400 0.242469 4.070420 1.814696
5 0 1 0.589700 -0.451588 3.641545 2.319949
6 0 1 0.589700 -0.195936 4.394973 1.023181
7 0 2 -1.179400 5.587747 1.930453 0.437088
8 0 1 0.589700 5.340334 1.002038 0.392475
9 0 1 0.589700 5.515322 2.155180 1.369707
10 0 2 -1.179400 -1.284102 0.107771 4.141519
11 0 1 0.589700 -2.015058 -0.503941 4.251985
12 0 1 0.589700 -0.505684 -0.415591 4.341644
13 0 2 -1.179400 -3.189836 5.207962 1.735119
14 0 1 0.589700 -2.598167 5.499916 2.433252
15 0 1 0.589700 -2.710788 5.381155 0.920430
16 0 2 -1.179400 2.885667 0.429250 2.472290
17 0 1 0.589700 2.665458 1.287573 2.098159
18 0 1 0.589700 3.498715 0.043140 1.842366
19 0 2 -1.179400 2.442258 6.770846 0.830836
20 0 1 0.589700 3.236276 6.352492 1.168898
21 0 1 0.589700 2.166809 6.208572 0.100699
22 0 2 -1.179400 1.071592 -1.177505 3.720763
23 0 1 0.589700 1.593577 -0.660495 3.101774
24 0 1 0.589700 1.716080 -1.680395 4.224334
25 0 2 -1.179400 -4.179639 0.673796 5.045655
26 0 1 0.589700 -4.268983 0.493349 4.104868
27 0 1 0.589700 -3.945276 1.605573 5.091264
28 0 2 -1.179400 2.706804 2.850494 1.441635
29 0 1 0.589700 3.310050 3.589388 1.553626
30 0 1 0.589700 1.835644 3.246252 1.494298
31 0 2 -1.179400 4.709949 -2.263075 3.616337
32 0 1 0.589700 4.084867 -2.595352 4.264856
33 0 1 0.589700 4.354495 -2.544977 2.768466
34 0 2 -1.179400 -1.797760 2.791920 3.072247
35 0 1 0.589700 -1.799130 1.859182 3.308139
36 0 1 0.589700 -2.371846 3.205708 3.721374
37 0 2 -1.179400 7.010478 -3.643696 4.459357
38 0 1 0.589700 7.345794 -3.018614 5.108444
39 0 1 0.589700 6.251168 -3.199063 4.090569
40 0 2 -1.179400 15.045739 2.453741 6.454940
41 0 1 0.589700 15.162318 1.627907 5.975450
42 0 1 0.589700 15.627677 2.376506 7.214890
43 0 2 -1.179400 20.541183 -6.774187 12.675727
44 0 1 0.589700 21.076441 -5.976644 12.664870
45 0 1 0.589700 21.079338 -7.423819 13.135107
46 0 2 -1.179400 5.253952 -1.447396 7.861293
47 0 1 0.589700 4.382895 -1.717389 8.154887
48 0 1 0.589700 5.702173 -2.272279 7.655754
49 0 2 -1.179400 4.498098 4.933572 1.548509
50 0 1 0.589700 5.124243 5.066094 2.260267
51 0 1 0.589700 5.026815 4.685790 0.785812
52 0 2 -1.179400 14.194234 3.906676 3.468242
53 0 1 0.589700 14.031899 4.640263 4.068966
54 0 1 0.589700 13.485794 3.285051 3.647617
55 0 2 -1.179400 -10.059622 11.085402 20.557480
56 0 1 0.589700 -9.202976 10.997375 20.977592
57 0 1 0.589700 -10.449268 11.861186 20.970299
58 0 2 -1.179400 14.488238 6.342239 14.105108
59 0 1 0.589700 15.268800 6.491549 13.568637
60 0 1 0.589700 14.828839 6.094017 14.969291
61 0 2 -1.179400 3.482217 1.012258 5.147613
62 0 1 0.589700 3.286700 0.733046 4.248037
63 0 1 0.589700 3.531126 1.974965 5.078808
64 0 2 -1.179400 1.309156 13.260967 9.261889
65 0 1 0.589700 9.995322 -7.661581 9.731503
66 0 1 0.589700 0.640377 12.788997 8.760880
67 0 2 -1.179400 -9.089845 3.023943 19.408857
68 0 1 0.589700 -8.346354 3.629733 19.394918
69 0 1 0.589700 -9.583157 3.270615 20.195580
70 0 2 -1.179400 18.896580 -7.256478 6.656007
71 0 1 0.589700 18.866140 -8.033122 7.223042
72 0 1 0.589700 19.599812 -6.717127 7.023584
73 0 2 -1.179400 5.365007 5.940269 16.007610
74 0 1 0.589700 6.183898 6.401332 15.818978
75 0 1 0.589700 5.230749 5.366683 15.247069
76 0 2 -1.179400 6.160373 5.961503 3.560491
77 0 1 0.589700 6.622740 5.185521 3.888381
78 0 1 0.589700 6.855457 6.559885 3.278587
79 0 2 -1.179400 -5.224870 13.950433 12.660753
80 0 1 0.589700 3.294013 -6.956371 12.745119
81 0 1 0.589700 -5.185982 13.769372 11.716656
82 0 2 -1.179400 -1.603397 9.980002 19.742439
83 0 1 0.589700 -1.437685 10.569095 19.000237
84 0 1 0.589700 -1.234560 10.438830 20.502483
85 0 2 -1.179400 2.050118 2.874432 12.760095
86 0 1 0.589700 2.363949 2.234565 13.405622
87 0 1 0.589700 1.106710 2.925488 12.914558
88 0 2 -1.179400 -3.416285 9.121129 12.100432
89 0 1 0.589700 -2.475129 8.968510 12.186803
90 0 1 0.589700 -3.689705 9.429992 12.969174
91 0 2 -1.179400 2.065054 -6.941556 15.448027
92 0 1 0.589700 2.999060 -6.763151 15.559686
93 0 1 0.589700 -7.322528 14.067885 16.169024
94 0 2 -1.179400 -6.052569 -1.272504 20.130203
95 0 1 0.589700 -6.300381 -0.364964 19.930262
96 0 1 0.589700 -6.575399 -1.502274 20.902657
97 0 2 -1.179400 8.577595 1.728190 5.437291
98 0 1 0.589700 7.754026 1.470808 5.854607
99 0 1 0.589700 9.178936 1.875743 6.171130
100 0 2 -1.179400 2.375355 8.569307 20.124645
101 0 1 0.589700 2.432226 8.730370 21.071438
102 0 1 0.589700 1.448206 8.390117 19.966284
103 0 2 -1.179400 12.617536 -0.162535 0.679897
104 0 1 0.589700 11.891635 0.137186 1.230770
105 0 1 0.589700 13.299630 0.500584 0.805880
106 0 2 -1.179400 16.060205 6.461724 1.597807
107 0 1 0.589700 16.986994 6.222517 1.623282
108 0 1 0.589700 16.048752 7.346968 1.221169
109 0 2 -1.179400 19.375368 -2.787511 11.985310
110 0 1 0.589700 19.825966 -1.964377 11.778022
111 0 1 0.589700 18.717804 -2.541024 12.639565
112 0 2 -1.179400 26.187746 9.005051 0.090130
113 0 1 0.589700 26.581518 9.117150 0.959847
114 0 1 0.589700 5.004556 11.126513 21.827665
115 0 2 -1.179400 6.468389 8.839608 13.415253
116 0 1 0.589700 6.839477 8.090897 13.890593
117 0 1 0.589700 7.127556 9.059264 12.753119
118 0 2 -1.179400 19.383011 -4.801930 9.994338
119 0 1 0.589700 19.263548 -5.705763 10.301443
120 0 1 0.589700 19.254738 -4.261211 10.779597
121 0 2 -1.179400 16.316702 -1.503608 7.128559
122 0 1 0.589700 16.099520 -2.209564 6.512436
123 0 1 0.589700 17.179932 -1.741006 7.469802
124 0 2 -1.179400 -2.384248 7.882390 15.868572
125 0 1 0.589700 -3.053459 8.528764 15.633221
126 0 1 0.589700 -2.440865 7.812921 16.826468
127 0 2 -1.179400 1.740867 9.599053 11.598741
128 0 1 0.589700 1.568736 8.954672 12.291906
129 0 1 0.589700 1.109078 9.386587 10.907928
130 0 2 -1.179400 5.562112 12.764482 11.171730
131 0 1 0.589700 4.994374 13.538878 11.153888
132 0 1 0.589700 5.575315 12.495862 12.095471
133 0 2 -1.179400 21.486305 4.990746 0.216749
134 0 1 0.589700 20.706366 4.473111 0.424427
135 0 1 0.589700 22.214876 4.464612 0.552226
136 0 2 -1.179400 25.959000 1.864419 1.346073
137 0 1 0.589700 26.452377 1.242138 1.886887
138 0 1 0.589700 26.240805 1.680190 0.445259
139 0 2 -1.179400 28.685568 -2.694205 4.178225
140 0 1 0.589700 28.495409 -3.200697 3.382885
141 0 1 0.589700 27.965975 -2.903517 4.777132
142 0 2 -1.179400 0.748061 14.620530 20.779583
143 0 1 0.589700 1.305921 14.203901 20.118029
144 0 1 0.589700 9.616902 -6.174312 20.362537
145 0 2 -1.179400 -16.487436 -4.172215 5.051049
146 0 1 0.589700 -16.135195 -3.527211 5.671215
147 0 1 0.589700 -17.274179 -3.755615 4.694159
148 0 2 -1.179400 -15.263289 3.724724 1.651585
149 0 1 0.589700 -16.001114 3.227771 2.010860
150 0 1 0.589700 -15.637630 4.223390 0.919701
151 0 2 -1.179400 -31.188713 4.857069 21.926851
152 0 1 0.589700 -9.956185 0.890883 0.100989
153 0 1 0.589700 -9.765215 2.214897 0.826114
154 0 2 -1.179400 -16.860752 -0.383347 3.944031
155 0 1 0.589700 -17.508125 -1.091106 3.986588
156 0 1 0.589700 -16.018663 -0.825740 4.062615
157 0 2 -1.179400 28.035883 4.269124 1.420048
158 0 1 0.589700 -18.571018 4.391517 2.266642
159 0 1 0.589700 27.392553 3.581541 1.606439
160 0 2 -1.179400 -12.810530 -0.037045 2.452078
161 0 1 0.589700 -12.749735 0.866061 2.126014
162 0 1 0.589700 -12.063413 -0.488364 2.054393
163 0 2 -1.179400 -13.690546 6.085304 0.693297
164 0 1 0.589700 -12.935087 5.674822 1.118935
165 0 1 0.589700 -35.279026 8.537176 21.931473
166 0 2 -1.179400 -14.377762 -1.815012 3.883626
167 0 1 0.589700 -13.871487 -1.159707 3.396377
168 0 1 0.589700 -13.770768 -2.147243 4.549637
169 0 2 -1.179400 -19.780262 0.461996 5.688405
170 0 1 0.589700 26.350727 0.379413 5.917504
171 0 1 0.589700 -19.683619 1.402413 5.509925
172 0 2 -1.179400 -12.687716 2.715666 1.636772
173 0 1 0.589700 -12.231842 3.556237 1.539799
174 0 1 0.589700 -13.613087 2.953768 1.703272
175 0 2 -1.179400 -10.548893 -2.239796 4.073274
176 0 1 0.589700 -11.201324 -2.554510 4.703090
177 0 1 0.589700 -10.948919 -2.389559 3.211909
178 0 2 -1.179400 -17.181419 2.176162 3.144561
179 0 1 0.589700 -17.084667 1.289342 3.504759
180 0 1 0.589700 -17.796875 2.611490 3.739030
181 0 2 -1.179400 -8.544297 -4.048223 4.514611
182 0 1 0.589700 -8.203773 -3.473878 5.206679
183 0 1 0.589700 -9.230638 -3.529348 4.089180
184 0 2 -1.179400 -7.420113 3.800802 1.520779
185 0 1 0.589700 -8.195566 3.476413 1.982537
186 0 1 0.589700 -7.769482 4.329231 0.797376
187 0 2 -1.179400 -1.976385 2.399247 0.180372
188 0 1 0.589700 -2.240861 1.489748 0.347403
189 0 1 0.589700 -2.012532 2.823576 1.043061
190 0 2 -1.179400 -9.155198 0.182926 3.812504
191 0 1 0.589700 -9.794342 -0.510263 3.993711
192 0 1 0.589700 -8.304875 -0.250295 3.902004
193 0 2 -1.179400 -11.334375 5.091465 1.601840
194 0 1 0.589700 -10.771159 5.223834 2.368817
195 0 1 0.589700 -10.728799 5.046627 0.858141
196 0 2 -1.179400 -4.617260 0.402492 2.318402
197 0 1 0.589700 -4.756868 1.346693 2.198303
198 0 1 0.589700 -3.922014 0.181325 1.695178
199 0 2 -1.179400 -5.502802 6.504705 0.724120
200 0 1 0.589700 -4.792045 6.273780 1.326305
201 0 1 0.589700 -5.460315 5.837843 0.031964
202 0 2 -1.179400 -6.732031 -1.021816 3.864894
203 0 1 0.589700 -6.172099 -0.550074 3.243250
204 0 1 0.589700 -6.121567 -1.509768 4.423022
205 0 2 -1.179400 -12.179258 0.815367 5.087605
206 0 1 0.589700 -12.436211 0.575010 4.192391
207 0 1 0.589700 -12.012175 1.761757 5.044452
208 0 2 -1.179400 -4.871387 2.909924 1.280675
209 0 1 0.589700 -4.438737 3.751441 1.111519
210 0 1 0.589700 -5.805116 3.122368 1.299076
211 0 2 -1.179400 -2.974788 -2.121278 3.845639
212 0 1 0.589700 -3.684064 -2.398664 4.429271
213 0 1 0.589700 -3.292814 -2.325311 2.961252
214 0 2 -1.179400 -9.685686 2.665839 2.760468
215 0 1 0.589700 -9.412257 1.798162 3.072387
216 0 1 0.589700 -10.298011 2.979181 3.430240
217 0 2 -1.179400 -3.790630 3.526309 4.931755
218 0 1 0.589700 -3.612646 4.113058 5.673050
219 0 1 0.589700 -4.478165 3.972241 4.431990
220 0 2 -1.179400 -2.681574 11.162246 1.408459
221 0 1 0.589700 -3.341679 10.731618 1.956337
222 0 1 0.589700 -3.187111 11.695172 0.788953
223 0 2 -1.179400 2.774204 9.463333 0.386120
224 0 1 0.589700 2.758607 8.506227 0.482843
225 0 1 0.589700 2.933717 9.793113 1.275681
226 0 2 -1.179400 -4.346678 7.350879 3.887012
227 0 1 0.589700 -4.962860 6.614522 3.869010
228 0 1 0.589700 -3.509567 6.965385 3.623606
229 0 2 -1.179400 2.821181 -9.066926 1.473166
230 0 1 0.589700 3.314398 -8.936894 2.287713
231 0 1 0.589700 3.491297 -9.133370 0.789380
232 0 2 -1.179400 0.353254 7.286411 2.673515
233 0 1 0.589700 0.333799 8.216199 2.427027
234 0 1 0.589700 1.059076 6.911113 2.142926
235 0 2 -1.179400 8.049898 -8.004587 0.672547
236 0 1 0.589700 8.862968 -8.446116 0.924325
237 0 1 0.589700 -13.669066 -5.488674 21.910866
238 0 2 -1.179400 -1.839329 6.129212 4.104376
239 0 1 0.589700 -1.079316 6.532616 3.680472
240 0 1 0.589700 -1.469216 5.449143 4.674412
241 0 2 -1.179400 -7.422307 7.896547 5.306006
242 0 1 0.589700 -7.427904 7.725353 4.359277
243 0 1 0.589700 -7.283119 8.845682 5.378738
244 0 2 -1.179400 -0.192510 9.945384 1.890596
245 0 1 0.589700 0.470805 10.532895 1.521434
246 0 1 0.589700 -1.027231 10.355131 1.657287
247 0 2 -1.179400 1.684387 4.893828 3.980916
248 0 1 0.589700 1.251363 4.747006 4.826221
249 0 1 0.589700 1.011386 4.699197 3.324469
250 0 2 -1.179400 -4.636146 9.955264 2.693588
251 0 1 0.589700 -4.718467 9.023757 2.919672
252 0 1 0.589700 -5.262139 10.400045 3.269671
253 0 2 -1.179400 11.547599 -3.225261 13.362583
254 0 1 0.589700 11.274883 -4.051616 13.772026
255 0 1 0.589700 12.482525 -3.159291 13.558046
256 0 2 -1.179400 -4.017162 9.075233 20.562592
257 0 1 0.589700 -3.122442 9.257777 20.273523
258 0 1 0.589700 -3.925724 8.360436 21.199976
259 0 2 -1.179400 -11.704554 7.544752 20.151520
260 0 1 0.589700 -12.244550 8.338720 20.125694
261 0 1 0.589700 -12.326774 6.829894 20.304749
262 0 2 -1.179400 26.350220 -3.218083 5.669668
263 0 1 0.589700 26.208738 -2.738498 6.491503
264 0 1 0.589700 25.472109 -3.344014 5.308056
265 0 2 -1.179400 1.340280 12.117914 1.141212
266 0 1 0.589700 10.735028 -8.917200 1.882453
267 0 1 0.589700 2.007653 12.297510 0.475259
268 0 2 -1.179400 6.171457 2.618171 3.163186
269 0 1 0.589700 6.380006 1.701472 3.366574
270 0 1 0.589700 6.702202 2.821501 2.388777
271 0 2 -1.179400 12.666919 8.276713 2.679816
272 0 1 0.589700 13.051349 8.434439 1.812952
273 0 1 0.589700 12.366050 9.142635 2.970288
274 0 2 -1.179400 10.365091 -7.282458 3.280504
275 0 1 0.589700 10.041945 -6.393672 3.106701
276 0 1 0.589700 9.621500 -7.738785 3.678991
277 0 2 -1.179400 1.067526 7.862213 5.426085
278 0 1 0.589700 1.058703 7.595692 4.504288
279 0 1 0.589700 0.989099 8.820512 5.392960
280 0 2 -1.179400 3.377336 10.009281 3.108661
281 0 1 0.589700 3.523738 9.160095 3.536299
282 0 1 0.589700 3.365225 10.644366 3.831265
283 0 2 -1.179400 1.885132 12.162889 21.336334
284 0 1 0.589700 1.595700 13.069143 21.476759
285 0 1 0.589700 2.776821 12.140427 21.685389
286 0 2 -1.179400 7.582046 9.017062 5.387330
287 0 1 0.589700 6.810160 8.527422 5.677085
288 0 1 0.589700 7.261881 9.910891 5.235150
289 0 2 -1.179400 -1.996166 11.901484 11.439661
290 0 1 0.589700 -1.906106 11.159238 10.834254
291 0 1 0.589700 -1.313954 11.759624 12.099436
292 0 2 -1.179400 2.167042 5.963329 10.230934
293 0 1 0.589700 1.617938 5.652097 9.506963
294 0 1 0.589700 2.666860 6.692647 9.854969
295 0 2 -1.179400 -9.921095 11.224225 17.665371
296 0 1 0.589700 -9.780995 10.283919 17.518244
297 0 1 0.589700 -10.097252 11.296991 18.608232
298 0 2 -1.179400 21.494143 -7.076386 2.301359
299 0 1 0.589700 21.289286 -7.413804 3.178505
300 0 1 0.589700 22.436403 -7.215866 2.205448
301 0 2 -1.179400 13.525956 4.956924 6.096010
302 0 1 0.589700 14.115704 4.199582 6.069527
303 0 1 0.589700 13.181955 4.961338 6.993821
304 0 2 -1.179400 21.431080 -2.488324 9.458635
305 0 1 0.589700 21.768064 -2.321134 8.573787
306 0 1 0.589700 21.171480 -3.414283 9.446073
307 0 2 -1.179400 21.227310 2.199444 2.525099
308 0 1 0.589700 20.861141 2.800103 3.180379
309 0 1 0.589700 21.542965 1.449101 3.036923
310 0 2 -1.179400 5.616032 -3.631181 21.308880
311 0 1 0.589700 4.721801 -3.482715 21.618277
312 0 1 0.589700 6.047843 -2.778582 21.410555
313 0 2 -1.179400 -2.436525 12.910594 14.245640
314 0 1 0.589700 -2.633257 12.576468 13.365362
315 0 1 0.589700 -3.233031 13.371709 14.514100
316 0 2 -1.179400 18.816475 -3.234744 6.576499
317 0 1 0.589700 18.246286 -3.724122 5.978435
318 0 1 0.589700 19.570801 -2.989573 6.037364
319 0 2 -1.179400 -0.040499 -2.553446 18.406008
320 0 1 0.589700 -0.920484 -2.188103 18.306879
321 0 1 0.589700 -0.047628 -2.970798 19.272842
322 0 2 -1.179400 6.230430 6.612787 10.625986
323 0 1 0.589700 5.909683 6.496518 9.727003
324 0 1 0.589700 5.930688 5.827854 11.093698
325 0 2 -1.179400 0.917037 -4.564868 20.484640
326 0 1 0.589700 0.402153 -5.095521 21.098003
327 0 1 0.589700 1.603017 -5.159442 20.173645
328 0 2 -1.179400 8.766870 7.611981 17.660784
329 0 1 0.589700 8.511820 8.534920 17.570721
330 0 1 0.589700 8.263962 7.293725 18.414993
331 0 2 -1.179400 -1.875083 5.364555 14.708042
332 0 1 0.589700 -1.947369 6.227926 15.126322
333 0 1 0.589700 -2.374473 5.449051 13.891629
334 0 2 -1.179400 3.203055 -4.201878 16.534704
335 0 1 0.589700 3.613975 -3.627753 17.186945
336 0 1 0.589700 3.883169 -4.346533 15.873339
337 0 2 -1.179400 21.632992 0.334031 4.368987
338 0 1 0.589700 20.886419 -0.210220 4.111455
339 0 1 0.589700 22.391630 -0.108852 3.984213
340 0 2 -1.179400 24.217829 -7.643307 2.196843
341 0 1 0.589700 24.836727 -7.180335 2.766327
342 0 1 0.589700 24.713018 -8.392035 1.854321
343 0 2 -1.179400 10.629682 1.340260 10.825426
344 0 1 0.589700 10.125093 0.663712 11.284445
345 0 1 0.589700 9.978170 1.991851 10.556658
346 0 2 -1.179400 10.166705 9.507580 6.168927
347 0 1 0.589700 9.302247 9.376709 5.777101
348 0 1 0.589700 10.720064 9.785892 5.434879
349 0 2 -1.179400 7.862503 11.684610 7.757770
350 0 1 0.589700 8.811524 11.595047 7.845582
351 0 1 0.589700 7.505184 10.955656 8.272821
352 0 2 -1.179400 11.217337 -3.837120 21.180870
353 0 1 0.589700 32.437523 -7.343533 0.018624
354 0 1 0.589700 10.511881 -3.188871 21.129560
355 0 2 -1.179400 25.618435 4.522862 3.734638
356 0 1 0.589700 25.062435 4.767026 2.990530
357 0 1 0.589700 25.018028 4.468657 4.481968
358 0 2 -1.179400 17.100006 0.524423 5.213020
359 0 1 0.589700 17.756031 1.082753 5.636231
360 0 1 0.589700 16.886452 -0.139693 5.875226
361 0 2 -1.179400 -19.205385 2.981402 4.971010
362 0 1 0.589700 -18.685905 3.366861 5.681641
363 0 1 0.589700 -19.967516 3.558622 4.893427
364 0 2 -1.179400 -18.179142 11.086080 1.845318
365 0 1 0.589700 -18.824379 10.523396 2.279691
366 0 1 0.589700 -18.699387 11.668762 1.285834
367 0 2 -1.179400 -34.385227 11.746957 21.856163
368 0 1 0.589700 -34.649303 10.825407 21.934046
369 0 1 0.589700 -12.949937 9.032335 0.783322
370 0 2 -1.179400 -19.878271 6.716486 3.677793
371 0 1 0.589700 -20.514938 6.003382 3.587489
372 0 1 0.589700 -19.033072 6.303520 3.494072
373 0 2 -1.179400 25.089741 11.889174 1.662576
374 0 1 0.589700 -21.613085 12.318531 2.438159
375 0 1 0.589700 25.761862 12.037379 0.993784
376 0 2 -1.179400 -15.418908 7.265402 2.683139
377 0 1 0.589700 -15.297470 8.140985 2.303511
378 0 1 0.589700 -14.907750 6.682700 2.115666
379 0 2 -1.179400 -7.487068 -8.166659 0.829755
380 0 1 0.589700 -6.600032 -8.407680 1.100659
381 0 1 0.589700 -7.723003 -8.823239 0.167545
382 0 2 -1.179400 -17.316402 5.504477 3.422272
383 0 1 0.589700 -16.618725 6.120801 3.188898
384 0 1 0.589700 -16.995865 5.061459 4.213345
385 0 2 -1.179400 23.951183 7.738366 5.141099
386 0 1 0.589700 23.177794 7.691894 5.706075
387 0 1 0.589700 -22.788095 8.635284 5.240805
388 0 2 -1.179400 -15.764410 9.920019 1.352546
389 0 1 0.589700 -15.132025 10.642590 1.354993
390 0 1 0.589700 -16.618597 10.353290 1.387720
391 0 2 -1.179400 -13.822385 4.881723 3.853746
392 0 1 0.589700 -14.378371 4.599911 4.584448
393 0 1 0.589700 -14.324366 4.659431 3.064956
394 0 2 -1.179400 -20.232283 9.380213 2.839725
395 0 1 0.589700 -20.245584 8.495971 3.218649
396 0 1 0.589700 -20.820200 9.891929 3.400548
397 0 2 -1.179400 -11.532156 3.651602 4.605529
398 0 1 0.589700 -11.343847 4.321510 5.269763
399 0 1 0.589700 -12.263908 4.012872 4.100766
400 0 2 -1.179400 -10.746161 11.081124 1.548588
401 0 1 0.589700 -11.646101 10.790538 1.702355
402 0 1 0.589700 -10.797318 11.617163 0.751293
403 0 2 -1.179400 -26.743937 12.350232 21.907440
404 0 1 0.589700 -5.314082 8.376331 0.105021
405 0 1 0.589700 -5.292068 9.733104 0.793603
406 0 2 -1.179400 -12.132769 7.320782 4.013102
407 0 1 0.589700 -12.794741 6.632289 4.109982
408 0 1 0.589700 -11.300194 6.846292 3.988179
409 0 2 -1.179400 -14.152878 12.248532 1.500742
410 0 1 0.589700 -13.636302 12.301750 2.309292
411 0 1 0.589700 -13.509861 12.335586 0.793383
412 0 2 -1.179400 -7.416131 7.609457 2.496487
413 0 1 0.589700 -7.618544 8.479810 2.140445
414 0 1 0.589700 -6.971183 7.153142 1.777284
415 0 2 -1.179400 0.269106 -8.010438 0.875046
416 0 1 0.589700 1.082537 -8.333916 1.266490
417 0 1 0.589700 0.071145 -8.640720 0.175780
418 0 2 -1.179400 -9.545852 6.062374 3.743429
419 0 1 0.589700 -8.955571 6.713479 3.356202
420 0 1 0.589700 -9.088421 5.756131 4.531371
421 0 2 -1.179400 -15.096640 7.765474 5.271421
422 0 1 0.589700 -15.245102 7.357229 4.413029
423 0 1 0.589700 -14.947041 8.694981 5.073686
424 0 2 -1.179400 -8.217752 10.087622 1.472769
425 0 1 0.589700 -7.717144 10.907857 1.467717
426 0 1 0.589700 -9.131019 10.367672 1.544454
427 0 2 -1.179400 -5.925434 4.966785 3.839750
428 0 1 0.589700 -6.594935 4.902044 4.524329
429 0 1 0.589700 -6.370255 4.685787 3.035231
430 0 2 -1.179400 -12.894085 9.556485 2.538723
431 0 1 0.589700 -12.428800 8.852116 2.998089
432 0 1 0.589700 -13.522184 9.888146 3.184498
433 0 2 -1.179400 -6.924763 10.527436 4.789890
434 0 1 0.589700 -6.560503 11.000645 5.543572
435 0 1 0.589700 -7.667025 11.065043 4.506196
436 0 2 -1.179400 3.415763 -3.419839 1.312559
437 0 1 0.589700 2.812935 -3.797352 1.957596
438 0 1 0.589700 2.971352 -2.628369 0.996593
439 0 2 -1.179400 -12.696804 -2.140337 21.953318
440 0 1 0.589700 -12.897414 -3.077524 21.870974
441 0 1 0.589700 8.558563 -4.975533 0.905456
442 0 2 -1.179400 1.676084 -7.004215 3.892550
443 0 1 0.589700 1.050298 -7.728524 3.968945
444 0 1 0.589700 2.505065 -7.430415 3.668874
445 0 2 -1.179400 -0.193244 -1.985804 1.524145
446 0 1 0.589700 0.222299 -1.938087 2.389781
447 0 1 0.589700 0.516761 -1.812126 0.902603
448 0 2 -1.179400 6.206571 -6.838976 2.555329
449 0 1 0.589700 6.238241 -5.925996 2.253493
450 0 1 0.589700 6.858992 -7.293679 2.017889
451 0 2 -1.179400 5.033171 -0.697624 0.848107
452 0 1 0.589700 5.903203 -1.006038 1.105960
453 0 1 0.589700 4.685944 -1.399549 0.290016
454 0 2 -1.179400 4.197498 -8.252208 3.688600
455 0 1 0.589700 4.866178 -7.703563 3.272435
456 0 1 0.589700 -4.478871 12.754556 4.253807
457 0 2 -1.179400 -0.890411 -6.502555 5.248753
458 0 1 0.589700 -0.868580 -6.712211 4.310043
459 0 1 0.589700 -0.801959 -5.545204 5.284271
460 0 2 -1.179400 6.091255 -4.215318 1.369430
461 0 1 0.589700 6.621951 -3.414421 1.377312
462 0 1 0.589700 5.188366 -3.900695 1.308730
463 0 2 -1.179400 -0.873649 12.402996 4.143135
464 0 1 0.589700 -1.675184 12.024553 4.508893
465 0 1 0.589700 -0.937512 12.237967 3.197446
466 0 2 -1.179400 1.511688 -4.399580 2.886383
467 0 1 0.589700 1.652025 -5.316139 3.142639
468 0 1 0.589700 0.745573 -4.123288 3.392800
469 0 2 -1.179400 6.605624 1.704139 10.314624
470 0 1 0.589700 6.751616 0.811691 9.986524
471 0 1 0.589700 6.231219 2.177433 9.566289
472 0 2 -1.179400 10.353179 -8.080108 6.186842
473 0 1 0.589700 9.437582 -7.914569 6.413333
474 0 1 0.589700 10.791047 -8.195162 7.034596
475 0 2 -1.179400 -2.582858 -4.643271 20.649065
476 0 1 0.589700 -1.986163 -5.302159 21.012112
477 0 1 0.589700 -3.277531 -4.564501 21.306259
478 0 2 -1.179400 0.822035 10.553854 5.570244
479 0 1 0.589700 0.123286 11.088002 5.186770
480 0 1 0.589700 1.582578 11.137742 5.588647
481 0 2 -1.179400 7.531163 -1.864251 1.360698
482 0 1 0.589700 7.860429 -1.478804 2.176806
483 0 1 0.589700 8.291862 -1.864029 0.776596
484 0 2 -1.179400 12.884884 -7.957897 7.547626
485 0 1 0.589700 12.965782 -7.415587 6.757106
486 0 1 0.589700 12.571963 -7.351321 8.224960
487 0 2 -1.179400 0.252556 2.234501 9.821598
488 0 1 0.589700 -0.224818 1.490928 9.444097
489 0 1 0.589700 0.999215 1.834091 10.271122
490 0 2 -1.179400 14.920869 10.089258 5.789694
491 0 1 0.589700 14.401080 10.640675 5.199258
492 0 1 0.589700 14.543565 9.209915 5.697106
493 0 2 -1.179400 6.624391 -6.331231 5.191679
494 0 1 0.589700 6.646906 -6.502409 4.245213
495 0 1 0.589700 6.753429 -5.380948 5.268782
496 0 2 -1.179400 -11.242408 4.304921 21.056622
497 0 1 0.589700 -12.076810 4.764902 20.953316
498 0 1 0.589700 -10.987927 4.471679 21.968977
499 0 2 -1.179400 14.107435 7.418056 4.928675
500 0 1 0.589700 13.547521 7.492647 4.151929
501 0 1 0.589700 13.783667 6.638021 5.388332
502 0 2 -1.179400 9.145709 -4.547851 3.143280
503 0 1 0.589700 8.383139 -4.271046 3.654680
504 0 1 0.589700 9.570115 -3.725479 2.883719
505 0 2 -1.179400 8.739108 -2.211483 20.925966
506 0 1 0.589700 8.694666 -2.292213 21.883631
507 0 1 0.589700 8.372014 -3.036820 20.596855
508 0 2 -1.179400 19.589527 -7.683556 10.130397
509 0 1 0.589700 9.783764 13.211941 10.227990
510 0 1 0.589700 19.981258 -7.591676 11.003410
511 0 2 -1.179400 7.250210 12.522784 3.043791
512 0 1 0.589700 6.983939 12.042006 3.833005
513 0 1 0.589700 6.646111 12.222201 2.360719
514 0 2 -1.179400 15.177460 -2.706417 9.663851
515 0 1 0.589700 14.919384 -3.558168 9.299334
516 0 1 0.589700 15.503763 -2.210201 8.907651
517 0 2 -1.179400 10.795582 -2.926803 1.495334
518 0 1 0.589700 11.646182 -3.202628 1.150946
519 0 1 0.589700 10.424859 -2.374156 0.801528
520 0 2 -1.179400 10.597700 -1.879241 18.641346
521 0 1 0.589700 9.647530 -1.923843 18.748755
522 0 1 0.589700 10.834366 -1.003060 18.959721
523 0 2 -1.179400 7.920883 7.797039 2.783543
524 0 1 0.589700 8.041618 8.255242 3.620773
525 0 1 0.589700 8.800721 7.511581 2.534383
526 0 2 -1.179400 2.489531 -0.655941 19.787977
527 0 1 0.589700 2.413913 -0.624076 18.829416
528 0 1 0.589700 2.561313 0.265549 20.054993
529 0 2 -1.179400 3.980675 -1.254794 15.317908
530 0 1 0.589700 4.865823 -1.037937 15.612963
531 0 1 0.589700 3.443545 -1.189935 16.111607
532 0 2 -1.179400 10.849392 -2.437393 4.896118
533 0 1 0.589700 11.166698 -2.831764 5.713665
534 0 1 0.589700 11.235237 -2.977235 4.200558
535 0 2 -1.179400 7.888062 13.698734 17.027363
536 0 1 0.589700 7.722869 14.633410 17.183764
537 0 1 0.589700 8.334459 13.672487 16.176701
538 0 2 -1.179400 5.087605 2.251995 19.016542
539 0 1 0.589700 5.131893 1.295018 18.927881
540 0 1 0.589700 4.850213 2.564752 18.138548
541 0 2 -1.179400 4.248817 14.534246 19.550871
542 0 1 0.589700 3.435698 14.149372 19.219902
543 0 1 0.589700 4.935737 13.944441 19.232967
544 0 2 -1.179400 6.565527 -3.876662 7.511312
545 0 1 0.589700 7.495990 -3.906660 7.735072
546 0 1 0.589700 6.159914 -4.527428 8.090909
547 0 2 -1.179400 20.915314 -5.180505 7.616663
548 0 1 0.589700 20.288731 -4.577178 7.210474
549 0 1 0.589700 20.626781 -5.252173 8.531207
550 0 2 -1.179400 -0.383853 13.687934 15.812177
551 0 1 0.589700 0.329360 13.106512 15.540715
552 0 1 0.589700 -1.142503 13.380044 15.312815
553 0 2 -1.179400 -7.334270 9.031449 19.445835
554 0 1 0.589700 -6.866369 8.225418 19.679882
555 0 1 0.589700 -6.736588 9.499076 18.857559
556 0 2 -1.179400 7.249448 -1.085883 13.500604
557 0 1 0.589700 8.092772 -0.883032 13.093197
558 0 1 0.589700 6.661887 -0.394767 13.185609
559 0 2 -1.179400 2.957294 -6.096208 18.744823
560 0 1 0.589700 3.705739 -6.528122 19.160944
561 0 1 0.589700 3.342476 -5.551029 18.053064
562 0 2 -1.179400 7.857898 -4.956726 20.128656
563 0 1 0.589700 7.085853 -4.758806 20.661842
564 0 1 0.589700 7.709805 -4.486917 19.302364
565 0 2 -1.179400 0.644457 1.650911 17.585909
566 0 1 0.589700 1.323081 2.090364 18.102867
567 0 1 0.589700 -0.078034 1.523001 18.203903
568 0 2 -1.179400 18.069729 8.515437 0.108864
569 0 1 0.589700 -3.788684 11.032841 21.426821
570 0 1 0.589700 17.382814 8.969990 0.601128
571 0 2 -1.179400 16.847227 12.120737 1.066549
572 0 1 0.589700 17.783297 12.043339 1.252040
573 0 1 0.589700 16.499647 11.237349 1.218906
574 0 2 -1.179400 10.559485 11.710987 7.839709
575 0 1 0.589700 10.580096 11.065499 7.126579
576 0 1 0.589700 10.921263 11.244113 8.598278
577 0 2 -1.179400 -22.036947 10.358326 4.785117
578 0 1 0.589700 -21.737616 11.096567 5.324001
579 0 1 0.589700 -22.904123 10.624458 4.475544
580 0 2 -1.179400 -12.310386 -3.687908 1.852428
581 0 1 0.589700 -12.946103 -4.138277 2.413395
582 0 1 0.589700 -12.828866 -3.044543 1.362086
583 0 2 -1.179400 -6.555872 -5.442415 0.203040
584 0 1 0.589700 -6.995232 -6.282611 0.044808
585 0 1 0.589700 -6.652239 -5.293216 1.148515
586 0 2 -1.179400 -13.955649 -7.729603 4.008220
587 0 1 0.589700 -14.451352 -8.547792 4.099202
588 0 1 0.589700 -13.040574 -7.994166 4.110002
589 0 2 -1.179400 31.347281 -2.811745 1.752023
590 0 1 0.589700 -15.265505 -2.709569 2.597214
591 0 1 0.589700 32.014519 -2.628089 1.087099
592 0 2 -1.179400 -9.451842 -7.278514 2.570649
593 0 1 0.589700 -9.593264 -6.431989 2.136075
594 0 1 0.589700 -8.635136 -7.608933 2.192727
595 0 2 -1.179400 -10.345391 -0.880395 1.091762
596 0 1 0.589700 -9.560979 -1.259883 1.492568
597 0 1 0.589700 -10.615228 -1.527034 0.432830
598 0 2 -1.179400 -11.426155 -8.546082 4.076892
599 0 1 0.589700 -10.744370 -8.161956 3.521311
600 0 1 0.589700 -20.122755 12.478772 4.677392
601 0 2 -1.179400 -16.578394 -6.966839 5.307077
602 0 1 0.589700 29.613159 -7.131431 5.661383
603 0 1 0.589700 -16.443550 -6.022308 5.430402
604 0 2 -1.179400 -9.620899 -4.732037 1.574837
605 0 1 0.589700 -9.008158 -4.040087 1.314302
606 0 1 0.589700 -10.476076 -4.299393 1.584268
607 0 2 -1.179400 -16.835222 11.935883 4.197332
608 0 1 0.589700 -17.474695 11.703844 4.874630
609 0 1 0.589700 -17.217066 11.607174 3.378381
610 0 2 -1.179400 -14.600750 -5.082116 3.162447
611 0 1 0.589700 -14.306210 -5.955648 3.436281
612 0 1 0.589700 -15.084669 -4.743709 3.920333
613 0 2 -1.179400 -14.551583 10.330760 4.766108
614 0 1 0.589700 -14.157232 10.923188 5.412605
615 0 1 0.589700 -15.387388 10.743832 4.542803
616 0 2 -1.179400 -4.389316 -3.229230 1.718283
617 0 1 0.589700 -5.101230 -3.759984 2.081970
618 0 1 0.589700 -4.819060 -2.638125 1.093846
619 0 2 -1.179400 0.985651 -5.155413 0.228512
620 0 1 0.589700 0.673391 -6.063860 0.183184
621 0 1 0.589700 1.008791 -4.954777 1.169179
622 0 2 -1.179400 -6.092615 -7.299479 4.071783
623 0 1 0.589700 -6.610579 -8.093511 3.915126
624 0 1 0.589700 -5.201993 -7.621989 4.216433
625 0 2 -1.179400 -8.115874 -2.268634 1.659651
626 0 1 0.589700 -7.740952 -2.087554 2.526377
627 0 1 0.589700 -7.367475 -2.244246 1.060219
628 0 2 -1.179400 -1.325514 -6.785959 2.526514
629 0 1 0.589700 -1.543092 -5.949110 2.105153
630 0 1 0.589700 -0.870733 -7.287276 1.844439
631 0 2 -1.179400 -2.243343 -0.210729 0.745996
632 0 1 0.589700 -1.414146 -0.609369 1.015654
633 0 1 0.589700 -2.619401 -0.839013 0.122778
634 0 2 -1.179400 -3.608918 -8.449890 3.772577
635 0 1 0.589700 -2.926137 -7.907205 3.371998
636 0 1 0.589700 -12.305910 12.415479 4.159340
637 0 2 -1.179400 -9.165425 -6.675117 5.418578
638 0 1 0.589700 -9.355817 -6.666129 4.475661
639 0 1 0.589700 -8.859134 -5.784000 5.610925
640 0 2 -1.179400 -1.793425 -4.378465 1.055905
641 0 1 0.589700 -1.099875 -3.793220 1.368762
642 0 1 0.589700 -2.601760 -3.881401 1.192898
643 0 2 -1.179400 -9.214447 12.368610 3.897997
644 0 1 0.589700 -9.950336 12.021276 4.406089