LAMMPS data file via write_data, version 30 Jul 2021, timestep = 9000000

864 atoms
2 atom types
576 bonds
1 bond types
288 angles
1 angle types

0.18394380045612024 18.02362859954819 xlo xhi
-0.04485624509393915 23.67403404509318 ylo yhi
0.06839764910208146 22.144798150893465 zlo zhi

Masses

1 1.00794
2 15.9994

Atoms # full

707 1 1 0.5897 2.842525923648076 2.1152279126365485 4.054546589891261 0 0 0
706 1 2 -1.1794 3.0012972094522605 2.0192528941846097 3.115472492011629 0 0 0
30 1 1 0.5897 5.330463036409145 3.8285603180666223 2.1104739892095297 0 0 0
708 1 1 0.5897 2.238591938643989 2.422331251015363 2.7006827573118524 0 0 0
29 1 1 0.5897 4.621823564430435 2.4953137958712728 1.9999618451354495 0 0 0
28 1 2 -1.1794 5.430876684887331 2.9450204528257475 1.7561680876681665 0 0 0
846 1 1 0.5897 7.638934857200753 1.541368456952387 4.820943325424873 0 0 0
136 1 2 -1.1794 5.241543463155948 5.413528528319112 2.7681941347257175 0 0 0
188 1 1 0.5897 2.9813553163361064 0.17667400481944437 2.5894911333754136 0 1 0
494 1 1 0.5897 6.789482966114371 2.1382525634084564 2.5634513914566615 0 0 0
493 1 2 -1.1794 7.542412526574296 1.8436107733547638 3.0758261124037105 0 0 0
495 1 1 0.5897 8.30123847626154 2.200621250243474 2.6143412731935673 0 0 0
3 1 1 0.5897 0.5906950855205835 3.9002320534890784 2.5945930286809045 0 0 0
1 1 2 -1.1794 0.6095096847430543 3.0263484639108205 2.2044331115720226 0 0 0
819 1 1 0.5897 7.403862997413802 0.08578713965527385 2.361645730219572 0 0 0
137 1 1 0.5897 5.2242124811276645 5.3893227197024345 3.7249730015305076 0 0 0
595 1 2 -1.1794 0.5052496248679113 5.7240119878887405 2.952323546437295 0 0 0
597 1 1 0.5897 0.389141075821001 5.758602123535477 3.901854641238416 0 0 0
685 1 2 -1.1794 5.405927476211086 5.738121182896602 5.54328493584844 0 0 0
20 1 1 0.5897 0.556384102232426 3.248860623253353 0.2598677245009 0 0 0
35 1 1 0.5897 0.9452249805725845 3.713718791502451 9.744498491714019 0 0 0
84 1 1 0.5897 6.1003944641758805 2.743080736492148 6.0471162900095 0 0 0
356 1 1 0.5897 7.61438223193431 0.6226149081973061 9.676643480092222 0 0 0
686 1 1 0.5897 5.318265427941471 4.804812843881173 5.736923065858437 0 0 0
83 1 1 0.5897 4.6033228837997555 2.525753084645191 6.105828352224496 0 0 0
112 1 2 -1.1794 0.9326395443359996 5.576220956097074 10.174336932640449 0 0 0
82 1 2 -1.1794 5.286868218984801 3.1534166143838633 6.340445934437049 0 0 0
784 1 2 -1.1794 0.8692997349955522 3.23462882464046 6.7933259823145695 0 0 0
785 1 1 0.5897 0.8911920372476098 3.0632741777865227 7.734844418445337 0 0 0
845 1 1 0.5897 7.395233090815771 0.9249981119881373 6.182113797722567 0 0 0
355 1 2 -1.1794 7.515466340264209 1.5312477368694783 9.961016253382406 0 0 0
274 1 2 -1.1794 5.1359906219229625 2.5538532331898325 9.111948195760654 0 0 0
678 1 1 0.5897 5.241953939971813 4.251414653892846 9.768097130650675 0 0 0
844 1 2 -1.1794 7.550903766915238 1.7637181896851564 5.7478293789361645 0 0 0
36 1 1 0.5897 1.6121322609884519 2.355854660469208 9.802451895394464 0 0 0
673 1 2 -1.1794 3.0178243470381427 1.678323400927321 10.497624757664305 0 0 0
674 1 1 0.5897 3.754184162022828 2.1044190037767665 10.058922198184714 0 0 0
176 1 1 0.5897 8.990635962541802 2.6571423468245743 9.718083361106531 0 0 0
276 1 1 0.5897 5.998615421744967 2.1884277494824684 9.308376626115134 0 0 0
675 1 1 0.5897 3.1089610522341746 0.7519622534341466 10.274478887487101 0 0 0
275 1 1 0.5897 5.1645076018815095 2.7459941138734125 8.17463925768034 0 0 0
34 1 2 -1.1794 0.8529413353213593 2.8113971481833353 9.438640933223857 0 0 0
183 1 1 0.5897 0.39240131189353666 4.917135997946746 6.081109536555661 0 0 0
677 1 1 0.5897 6.018538996784083 5.550343161081009 9.808504222074857 0 0 0
488 1 1 0.5897 2.2063036615855554 2.2532111400066213 6.195921908224269 0 0 0
676 1 2 -1.1794 5.235796921572875 5.125189889850743 10.158930601575705 0 0 0
419 1 1 0.5897 9.004952787242216 2.525239831349344 6.262317146165241 0 0 0
357 1 1 0.5897 7.6518092288442245 1.5024890945828482 10.908070444226036 0 0 0
487 1 2 -1.1794 2.941324662826544 1.8311624826345165 5.7510962231515395 0 0 0
489 1 1 0.5897 2.976210959557155 0.9515177763624424 6.12695185543647 0 0 0
181 1 2 -1.1794 0.35959299423713276 5.798099223720903 5.708129236522571 0 0 0
166 1 2 -1.1794 3.0611915819951956 1.4006869614161817 13.190918947736824 0 0 0
167 1 1 0.5897 3.1854346341397197 1.5251460511499664 12.249981872710432 0 0 0
457 1 2 -1.1794 5.24402066155481 2.988163357890835 14.058019179627223 0 0 0
458 1 1 0.5897 6.126940044356537 2.688877529577205 13.840943360838162 0 0 0
459 1 1 0.5897 4.672510441912169 2.2736193041457566 13.77685125058934 0 0 0
762 1 1 0.5897 5.171191811963026 4.678100492120534 13.364502560894852 0 0 0
594 1 1 0.5897 8.283903032371574 2.2203750370379987 13.295988106825583 0 0 0
168 1 1 0.5897 2.330166740092903 1.9766705400961846 13.414729343018154 0 0 0
466 1 2 -1.1794 0.9571837824579787 2.8918044019219384 14.048940708273626 0 0 0
592 1 2 -1.1794 7.51275975227617 1.8253909347279607 12.8890883702276 0 0 0
71 1 1 0.5897 5.261174939170614 3.4509747076243333 15.838813153015728 0 0 0
468 1 1 0.5897 0.988927651908101 2.876820761050726 15.005558890134143 0 0 0
593 1 1 0.5897 7.515679090143985 0.9195246930249144 13.198359885560674 0 0 0
365 1 1 0.5897 0.9011628753366215 4.40693782130107 13.313615802175429 0 0 0
113 1 1 0.5897 0.9063452290214298 5.587860722189556 11.131154199885383 0 0 0
467 1 1 0.5897 0.2936122439085054 2.2408202317995207 13.8206106971287 0 0 0
761 1 1 0.5897 5.255336675027619 5.489837555915121 12.089355432467341 0 0 0
760 1 2 -1.1794 5.074429016205103 5.56825849873849 13.026073413680884 0 0 0
364 1 2 -1.1794 0.8580517335028663 5.288366142977508 12.942812417287673 0 0 0
366 1 1 0.5897 1.5822717923611815 5.758315812863718 13.356211789691274 0 0 0
72 1 1 0.5897 4.488375702807595 3.0416696257245817 17.07464645432784 0 0 0
40 1 2 -1.1794 7.438284920748104 1.9632255774687684 20.128890258579023 0 0 0
571 1 2 -1.1794 0.9017802513350487 5.58848763060361 17.704663875810862 0 0 0
755 1 1 0.5897 7.532634467626998 1.883994363869043 18.354229255893166 0 0 0
754 1 2 -1.1794 7.534279328297398 1.8500269282636819 17.397608357992645 0 0 0
667 1 2 -1.1794 5.310878955946702 3.2674374537608224 21.190428853909992 0 0 0
289 1 2 -1.1794 2.9099788709072287 2.2792507062085194 17.53165823959126 0 0 0
756 1 1 0.5897 6.806756905745471 2.4144767537712557 17.13617043319078 0 0 0
143 1 1 0.5897 4.9665012668484305 5.034711163395758 20.87694038384138 0 0 0
569 1 1 0.5897 1.8939188841494252 2.5129338733373707 20.534114494960093 0 0 0
646 1 2 -1.1794 0.5088094046745918 5.867498508976349 20.529831020476955 0 0 0
570 1 1 0.5897 2.781688605993772 2.207006988984978 19.346564868069347 0 0 0
360 1 1 0.5897 8.845070614018706 2.8357111641213497 20.6682252360196 0 0 0
669 1 1 0.5897 4.434840731454691 3.0005998910518468 20.91188019300029 0 0 0
290 1 1 0.5897 2.8230112477524534 1.4069044778060469 17.14734267456048 0 0 0
648 1 1 0.5897 0.7361591988526454 5.855963585376304 19.600070124579528 0 0 0
568 1 2 -1.1794 2.792726116748912 2.280546448898721 20.30090312051982 0 0 0
41 1 1 0.5897 6.74759212182416 2.4521467909024013 20.57630400689563 0 0 0
42 1 1 0.5897 7.486744212114786 1.1311241307184663 20.599567322655957 0 0 0
278 1 1 0.5897 5.461486954127154 4.883526297965796 17.501583122787586 0 0 0
19 1 2 -1.1794 0.37012308105753955 3.1312626732524187 21.40471650547556 0 0 0
291 1 1 0.5897 2.045047165854858 2.675406527816958 17.425894762208003 0 0 0
21 1 1 0.5897 0.2770547540579671 4.021086729689664 21.06436139983069 0 0 0
70 1 2 -1.1794 5.358446661218731 3.311707793135204 16.780854137111692 0 0 0
81 1 1 0.5897 3.2900507490580138 0.5171430358201452 20.997446279804272 0 1 0
134 1 1 0.5897 0.48198872528859943 3.9830385907865287 17.18355772955469 0 0 0
323 1 1 0.5897 7.623244979261333 0.01325115206471493 16.913780162870765 0 1 0
277 1 2 -1.1794 5.360415795102599 5.7364134720381745 17.924217455165948 0 0 0
144 1 1 0.5897 5.259465927636414 5.805065349395882 19.607013831133056 0 0 0
133 1 2 -1.1794 0.496475502346632 3.103528635800084 16.806061347155843 0 0 0
599 1 1 0.5897 9.006168847192924 2.6595280195354234 17.004624228530016 0 0 0
668 1 1 0.5897 5.317274523015253 3.1200380550724742 22.136224948120816 0 0 -1
417 1 1 0.5897 8.219988566162758 6.491282738112874 2.2346559277096625 0 0 0
123 1 1 0.5897 3.1635705716804634 8.746484500006124 2.915310189532891 0 0 0
121 1 2 -1.1794 3.313488866850193 9.676900730920048 3.082962669244271 0 0 0
122 1 1 0.5897 3.2700835891686055 9.759113972872798 4.035676923008673 0 0 0
44 1 1 0.5897 1.89744842258076 10.723342770653987 2.490256099805402 0 0 0
218 1 1 0.5897 6.0555609060737 10.736270636201146 2.1098330826164737 0 0 0
773 1 1 0.5897 8.988767068772699 10.62383535205689 2.349528305586878 0 0 0
219 1 1 0.5897 4.562622942328 10.518300274021039 2.234454398060457 0 0 0
255 1 1 0.5897 2.1559619366004554 6.542545732512091 2.7346287804486447 0 0 0
217 1 2 -1.1794 5.212583123625924 11.159253318484202 1.946394027652621 0 0 0
254 1 1 0.5897 2.744329364550097 7.025195069856174 1.4258606833846703 0 0 0
415 1 2 -1.1794 7.4322528970584605 7.018974055149846 2.103228994335003 0 0 0
396 1 1 0.5897 0.5179811672894055 11.407329391526655 0.3707259149710416 0 0 0
66 1 1 0.5897 7.308455255810863 9.826556895073663 3.531617440477612 0 0 0
65 1 1 0.5897 7.456038843495824 8.768567609198469 2.4588403264657908 0 0 0
64 1 2 -1.1794 7.451827639325453 9.716512520184898 2.5916104790517096 0 0 0
253 1 2 -1.1794 2.9078967543300447 7.008430851387407 2.368861254289798 0 0 0
416 1 1 0.5897 6.71547187382351 6.458156784450625 2.3997997692501674 0 0 0
138 1 1 0.5897 4.526914055551132 6.004190727676001 2.530115746402934 0 0 0
43 1 2 -1.1794 1.1392505026577415 11.244833688554037 2.2267631253673836 0 0 0
714 1 1 0.5897 7.556083778576023 8.712378296099795 5.564299694191977 0 0 0
712 1 2 -1.1794 7.309771468514846 9.612368938882241 5.35070929900798 0 0 0
162 1 1 0.5897 7.528733510435886 7.455753954695696 0.2686718559883662 0 0 1
793 1 2 -1.1794 2.77564764496414 9.59798760801518 5.873336974466063 0 0 0
795 1 1 0.5897 3.548997846502282 10.021501722517216 6.24590746418169 0 0 0
10 1 2 -1.1794 2.9470769299825093 6.8035717344934215 6.294608592844541 0 0 0
526 1 2 -1.1794 7.428219200504949 6.636435221352753 9.018288083153523 0 0 0
145 1 2 -1.1794 7.710126899693715 7.052934694503472 6.320456858698826 0 0 0
580 1 2 -1.1794 5.31977514251604 10.724816659009488 9.601653853244214 0 0 0
713 1 1 0.5897 8.013510869614171 10.147355479192038 5.717870339710326 0 0 0
822 1 1 0.5897 8.233963729027742 9.646605883133802 10.12097210584 0 0 0
579 1 1 0.5897 5.069624050749312 11.49466044644798 6.781416494171713 0 0 0
258 1 1 0.5897 3.688989742407015 9.774595613202207 9.915467981036892 0 0 0
650 1 1 0.5897 3.526263815000236 6.786009338717246 8.169077758613108 0 0 0
146 1 1 0.5897 6.853197718870453 6.667811958307927 6.137198934101633 0 0 0
527 1 1 0.5897 7.38881326536678 7.552050757506136 9.294602377229324 0 0 0
15 1 1 0.5897 1.5021016633801314 10.29641617950279 9.73594039810423 0 0 0
794 1 1 0.5897 2.0364344560338807 10.08482221952647 6.237771127720691 0 0 0
581 1 1 0.5897 5.940492806791561 10.106276052668747 9.986881579941823 0 0 0
147 1 1 0.5897 7.804095519414844 6.988104639355861 7.27084937030919 0 0 0
550 1 2 -1.1794 0.6798691341848645 11.017991990428731 6.718092069290127 0 0 0
649 1 2 -1.1794 3.2949213702318128 6.754644586575064 9.09739556541135 0 0 0
577 1 2 -1.1794 5.133124669101454 10.54158596698953 6.84367034885754 0 0 0
551 1 1 0.5897 0.8304017036844553 10.942310077128345 7.660399550222769 0 0 0
13 1 2 -1.1794 0.7181661081260594 10.766859048627706 9.452441187622162 0 0 0
578 1 1 0.5897 5.898714896857906 10.317002279861537 6.314792890478697 0 0 0
257 1 1 0.5897 3.075956573116701 8.390653726899833 9.886641086032737 0 0 0
528 1 1 0.5897 8.291838842899516 6.336980040237022 9.30240211712417 0 0 0
820 1 2 -1.1794 7.491906748531855 9.06953766240064 10.301472597294927 0 0 0
651 1 1 0.5897 3.941046771548797 6.164916874896925 9.485963316251285 0 0 0
256 1 2 -1.1794 2.9133859044229604 9.28443658408338 10.188269282671326 0 0 0
12 1 1 0.5897 2.9299201596979403 7.727744259297269 6.045900822898299 0 0 0
582 1 1 0.5897 5.231138169963053 10.440652039038168 8.691885433900435 0 0 0
11 1 1 0.5897 2.03333405937167 6.523561136339387 6.24079704814348 0 0 0
687 1 1 0.5897 4.536357366739079 6.100926067145749 5.711960085211705 0 0 0
165 1 1 0.5897 8.857196650693513 5.897411303273706 5.724245227868918 0 0 0
14 1 1 0.5897 0.8697929497501982 11.671940966464064 9.7247026491699 0 0 0
114 1 1 0.5897 1.6853374050453647 6.1226598906092535 9.948268560392833 0 0 0
828 1 1 0.5897 7.505906800186631 6.554357170324618 14.862801811158034 0 0 0
827 1 1 0.5897 6.7577823352030375 6.128104935914931 13.617572101133323 0 0 0
332 1 1 0.5897 3.018577679065362 7.862843265225158 13.359626080276557 0 0 0
797 1 1 0.5897 2.947160927851327 9.672761857770917 12.022605851220456 0 0 0
796 1 2 -1.1794 3.1572596314902586 9.727685240951946 12.954878041967545 0 0 0
798 1 1 0.5897 2.449469310500219 10.251722523197406 13.329945988378622 0 0 0
722 1 1 0.5897 4.634962954752687 10.770787554589198 13.399630512988509 0 0 0
333 1 1 0.5897 3.682632177222294 6.509258637151268 13.496640843250825 0 0 0
261 1 1 0.5897 0.6797020790272125 11.05959304011727 14.926274867854515 0 0 0
259 1 2 -1.1794 0.7244475321257128 10.985585072432292 13.972964057395245 0 0 0
723 1 1 0.5897 5.549474571768028 11.026034402522736 14.578827152779626 0 0 0
331 1 2 -1.1794 2.909606246318355 7.004124535242549 13.768262524031728 0 0 0
225 1 1 0.5897 2.940774528469126 7.129651220244647 15.775088966180315 0 0 0
826 1 2 -1.1794 7.592192936422236 6.493693525519668 13.911403773606873 0 0 0
475 1 2 -1.1794 7.556524458429766 9.116583427720446 13.107657189892807 0 0 0
476 1 1 0.5897 6.815282143779549 9.668162735274262 13.35777677310529 0 0 0
477 1 1 0.5897 7.262368311881735 8.223503918490344 13.28692736066038 0 0 0
721 1 2 -1.1794 5.558870782896367 10.842518444487382 13.639401548785067 0 0 0
821 1 1 0.5897 7.427616138745313 9.052796799589677 11.25641026279349 0 0 0
104 1 1 0.5897 9.01182446379401 10.17246929168511 13.663999864543609 0 0 0
679 1 2 -1.1794 5.354586089108991 11.280093179792198 16.424496818858227 0 0 0
851 1 1 0.5897 9.094901046779173 5.886468792904859 13.146733953796048 0 0 0
522 1 1 0.5897 7.617005550966648 7.866368216068501 16.87104661269355 0 0 0
445 1 2 -1.1794 0.5708542670808401 11.061950197848134 16.698917199369053 0 0 0
7 1 2 -1.1794 7.803806406630317 9.831454625138258 17.238212271991507 0 0 0
139 1 2 -1.1794 7.516201620725331 9.767076937314068 20.003148427881516 0 0 0
160 1 2 -1.1794 7.570170532166748 7.31344577585537 21.39939096924406 0 0 0
647 1 1 0.5897 1.245059710002129 6.3106797710784335 20.951457504033993 0 0 0
141 1 1 0.5897 7.58417895797916 8.914084112734404 20.432212974549138 0 0 0
520 1 2 -1.1794 7.580203761941087 6.911516575750551 16.8148272166101 0 0 0
361 1 2 -1.1794 5.130555196234348 11.07292054125511 21.12817698841208 0 0 0
161 1 1 0.5897 6.780615808987309 6.811378447245431 21.197432530546383 0 0 0
690 1 1 0.5897 2.0873865532335447 10.566481671539941 20.794327211990964 0 0 0
625 1 2 -1.1794 3.1151518230698225 9.799959284388352 17.57704038224796 0 0 0
688 1 2 -1.1794 2.7535762109079625 9.952380575398044 20.485585837027003 0 0 0
140 1 1 0.5897 6.659661556129774 10.101741047015093 20.268806675166918 0 0 0
5 1 1 0.5897 3.615543309371767 6.926898634079307 21.334907601787677 0 0 0
689 1 1 0.5897 3.578390893009331 10.430735427677186 20.569824464328534 0 0 0
4 1 2 -1.1794 2.7916888941178972 7.308196564271861 21.638421109875043 0 0 0
626 1 1 0.5897 3.125930017508512 9.861436682942076 18.5322282140534 0 0 0
521 1 1 0.5897 6.847041088655749 6.665970364820839 17.37913213889767 0 0 0
6 1 1 0.5897 2.9110856999424604 8.252117704433454 21.53353543582057 0 0 0
627 1 1 0.5897 2.2662275490431716 10.161850286846935 17.322819380722997 0 0 0
8 1 1 0.5897 7.794421919233421 9.870619668690699 18.19460032884207 0 0 0
224 1 1 0.5897 3.13918237506422 7.882784037053807 17.073336273589984 0 0 0
680 1 1 0.5897 4.581064652543243 10.755838093100312 16.631998218759133 0 0 0
9 1 1 0.5897 7.0380755145759535 10.339187085912124 16.969697323926944 0 0 0
223 1 2 -1.1794 3.114821848219839 6.99869695883684 16.707208600792523 0 0 0
394 1 2 -1.1794 0.5741136986892958 11.388384830299591 21.491732406277706 0 0 0
462 1 1 0.5897 8.827575872849348 6.389185351272487 20.46468741064196 0 0 0
279 1 1 0.5897 4.5848507951330415 6.117746269934812 17.512727065624457 0 0 0
287 1 1 0.5897 8.929895027374691 10.453404936143075 20.938050785060412 0 0 0
711 1 1 0.5897 9.095709963286119 5.933766454464464 17.185082049767786 0 0 0
572 1 1 0.5897 1.5642420740184322 6.07598978913455 17.21503736388849 0 0 0
142 1 2 -1.1794 5.070286253536131 5.9238116843399755 20.537828639185186 0 0 0
363 1 1 0.5897 5.216316751949774 11.202171644002382 22.07275162159148 0 0 0
200 1 1 0.5897 5.083764863892526 13.131487252209382 5.2712687976148755 0 0 0
173 1 1 0.5897 4.492755856532122 13.916113515314777 2.936868108915606 0 0 0
172 1 2 -1.1794 5.058065832159919 13.319759892721788 3.427820941805687 0 0 0
293 1 1 0.5897 2.8342231902409227 16.653637596273942 2.76846767678991 0 0 0
558 1 1 0.5897 3.170154575531625 15.080241314048283 0.9858254639858268 0 0 0
556 1 2 -1.1794 3.375016883334605 15.23861902443137 1.9073766348227272 0 0 0
557 1 1 0.5897 2.7059804883111056 14.752119651831295 2.3889963319102527 0 0 0
478 1 2 -1.1794 7.332389950234487 14.738009965423295 2.3249149057628813 0 0 0
374 1 1 0.5897 1.5713486610604968 13.635334359538918 4.232131225413569 0 0 0
174 1 1 0.5897 5.089835950525939 12.525570809741797 2.8944276150128614 0 0 0
479 1 1 0.5897 8.122663390229551 14.329714895850223 2.6784727694527106 0 0 0
449 1 1 0.5897 7.367700216390027 16.388683012991418 2.867325035275252 0 0 0
480 1 1 0.5897 6.619867165151292 14.162749948855781 2.603528884787247 0 0 0
373 1 2 -1.1794 1.5144124791964029 13.814994304070831 3.2936431187114636 0 0 0
317 1 1 0.5897 7.454648319169764 14.843898237152803 0.4629584007351141 0 0 0
294 1 1 0.5897 2.703861537691013 17.357275874886085 4.102604434814391 0 0 0
375 1 1 0.5897 0.6080490345600691 14.090601791603337 3.1566121953895503 0 0 0
448 1 2 -1.1794 7.378200291878942 17.285101706099812 3.202854112685085 0 0 0
45 1 1 0.5897 1.2411022150299171 12.071633922733152 2.6982346607242533 0 0 0
308 1 1 0.5897 7.661047929017797 17.31088201667703 4.918809791461063 0 0 0
450 1 1 0.5897 6.580284389994893 17.681628252826545 2.8530572344039706 0 0 0
292 1 2 -1.1794 2.545113892973729 17.47500107180239 3.1659941322454017 0 0 0
518 1 1 0.5897 7.388573892018985 15.555542120171573 6.757115094949846 0 0 0
186 1 1 0.5897 7.77435253611778 16.56894064831664 10.305738938812313 0 0 0
656 1 1 0.5897 1.8135528222942954 14.237097591966762 6.57327668796453 0 0 0
519 1 1 0.5897 7.884598927292137 14.12519780285698 6.752903544440897 0 0 0
811 1 2 -1.1794 3.013504569137496 14.717061878779665 10.024370753021326 0 0 0
454 1 2 -1.1794 5.3585522571729856 13.366242381408982 10.68012719643296 0 0 0
813 1 1 0.5897 2.2417990327191464 14.170145573266932 10.17145839177742 0 0 0
17 1 1 0.5897 3.335058084184434 14.829830006609718 8.155144464560774 0 0 0
384 1 1 0.5897 3.059697708053899 16.51604364320298 10.47050942434624 0 0 0
377 1 1 0.5897 6.936081441788741 14.24953527476979 10.310736535100949 0 0 0
376 1 2 -1.1794 7.685719304627236 14.685480320309651 9.905476528798252 0 0 0
239 1 1 0.5897 3.290656906273317 16.76151074866936 6.493053497029462 0 0 0
456 1 1 0.5897 5.517109160673793 12.4460457377522 10.469504073987887 0 0 0
812 1 1 0.5897 3.7492650024843766 14.175847516643504 10.310772925449095 0 0 0
766 1 2 -1.1794 0.8316201088403835 13.228443098615774 10.34256233378831 0 0 0
657 1 1 0.5897 0.3025285851656191 14.269523799148915 6.485886828784177 1 0 0
16 1 2 -1.1794 3.3157665290464338 14.958455076118568 7.206788005254682 0 0 0
517 1 2 -1.1794 7.249986373738776 14.70506688398737 7.173944238248327 0 0 0
18 1 1 0.5897 3.9876775402414713 14.365445518674766 6.870457671610015 0 0 0
378 1 1 0.5897 7.525603017549816 14.61307169890353 8.964519899099056 0 0 0
238 1 2 -1.1794 3.1708060698079654 17.614483505679782 6.0755139495636366 0 0 0
201 1 1 0.5897 5.899368728097605 13.769502192506815 6.3756750878818504 0 0 0
655 1 2 -1.1794 1.0619084594637065 13.728999445203417 6.26814673556139 0 0 0
199 1 2 -1.1794 5.142413556700654 13.203597242612757 6.223974659852375 0 0 0
382 1 2 -1.1794 2.8687934247542777 17.45389833074564 10.485562567965257 0 0 0
184 1 2 -1.1794 7.748554355832715 17.49269746670318 10.555244414056348 0 0 0
552 1 1 0.5897 0.8099657763718049 11.947118573943152 6.528178278423946 0 0 0
307 1 2 -1.1794 7.480077737085854 17.116684067986487 5.83849085201296 0 0 0
309 1 1 0.5897 8.239289070676973 17.45942820157981 6.310059926317527 0 0 0
429 1 1 0.5897 6.148272600129019 14.119255532296265 13.53022900254758 0 0 0
232 1 2 -1.1794 3.108415011811592 15.00206243906634 13.848026638854373 0 0 0
234 1 1 0.5897 3.0961871859793386 15.138410940158218 14.79542384487233 0 0 0
606 1 1 0.5897 3.065163309029504 16.73161412785399 13.617243369365749 0 0 0
427 1 2 -1.1794 5.320096868781739 13.667162178774857 13.368999319361553 0 0 0
233 1 1 0.5897 3.9001875155688555 14.48796617323796 13.689763617853291 0 0 0
639 1 1 0.5897 1.6832073920888924 14.203709493748557 13.259629311069894 0 0 0
428 1 1 0.5897 5.539625142745426 12.737119696791883 13.42444405526169 0 0 0
455 1 1 0.5897 5.304335250903574 13.3878608334739 11.635582389720904 0 0 0
297 1 1 0.5897 8.447583887896949 14.68533760469318 13.588684377310932 0 0 0
296 1 1 0.5897 7.893721617528674 15.003498645699413 14.961299329005648 0 0 0
295 1 2 -1.1794 7.705593691218735 15.101168646136063 14.027839516487292 0 0 0
270 1 1 0.5897 7.526291156039394 16.708107124900344 13.527963128759295 0 0 0
637 1 2 -1.1794 0.8404327431886873 13.807496490172484 13.038267603069977 0 0 0
638 1 1 0.5897 0.8880849260080165 12.923279644417399 13.401776329141533 0 0 0
767 1 1 0.5897 0.8915690317357271 13.33469983931502 11.291983511434102 0 0 0
268 1 2 -1.1794 7.426501227382808 17.624460404299356 13.269901992345101 0 0 0
269 1 1 0.5897 7.4067702798414485 17.603564886106675 12.313105232240284 0 0 0
604 1 2 -1.1794 2.973747000069107 17.662713892925524 13.41490205844829 0 0 0
605 1 1 0.5897 2.8215140249319903 17.68920379980727 12.470231575076065 0 0 0
823 1 2 -1.1794 3.0415789516048832 15.273180373336414 16.625093447448307 0 0 0
824 1 1 0.5897 3.843302094498775 14.841324733041995 16.920031224525065 0 0 0
126 1 1 0.5897 6.2397231054970295 14.305573961930698 17.04286646571305 0 0 0
451 1 2 -1.1794 0.45481288747042636 13.756060899315484 20.1802819612103 0 0 0
664 1 2 -1.1794 3.0784911087570754 14.874944395356774 21.242942562553964 0 0 0
665 1 1 0.5897 2.2419333344073813 14.63168868379136 20.846397569813796 0 0 0
610 1 2 -1.1794 7.426603192093087 17.62989281499205 18.009382010022243 0 0 0
125 1 1 0.5897 5.447555967302587 13.93341359259826 18.278165335950877 0 0 0
51 1 1 0.5897 8.626972305313503 14.7136930537768 17.322873242293106 0 0 0
684 1 1 0.5897 4.432509810268887 13.960274469933909 20.40155558909647 0 0 0
52 1 2 -1.1794 0.9373405372132173 13.735690975505875 17.297645194088318 0 0 0
666 1 1 0.5897 3.128386126895949 15.82466934268282 21.13437240474144 0 0 0
318 1 1 0.5897 7.574232869934005 15.785451122097308 21.359884214504333 0 0 0
584 1 1 0.5897 3.1847996265897884 16.885308787082646 17.688699369878435 0 0 0
316 1 2 -1.1794 7.463255045420069 14.861074586173457 21.58230930826617 0 0 0
53 1 1 0.5897 0.7894406157227118 13.80675486090236 18.24071459679701 0 0 0
49 1 2 -1.1794 7.9873517237869445 15.133723326762196 16.74779070079788 0 0 0
683 1 1 0.5897 5.886823811154828 14.092536657278776 20.8007775136767 0 0 0
825 1 1 0.5897 2.3370995360055096 14.689474703843572 16.906590565405793 0 0 0
682 1 2 -1.1794 5.3063203770192064 13.62571817535948 20.199654418173157 0 0 0
124 1 2 -1.1794 5.4002479135652 13.940155520198319 17.322127542706763 0 0 0
50 1 1 0.5897 7.905735405617022 16.024140369932642 17.089470202569995 0 0 0
452 1 1 0.5897 0.4665270377547668 12.918321945083969 20.643218737963867 0 0 0
715 1 2 -1.1794 3.2825768144372884 17.569012991915365 21.012269903780634 0 0 0
157 1 2 -1.1794 7.397407062775881 17.403555662129442 20.836997941785153 0 0 0
446 1 1 0.5897 0.5538900008351038 11.961135691897379 17.026696875344445 0 0 0
362 1 1 0.5897 5.11414439800166 11.95851838906623 20.765272300891393 0 0 0
583 1 2 -1.1794 3.307014167084837 17.66451653222054 18.231066238978254 0 0 0
716 1 1 0.5897 3.2237630537399067 17.593720493737976 20.05717305010705 0 0 0
159 1 1 0.5897 7.344276834297733 17.34955819801865 19.882767886145732 0 0 0
681 1 1 0.5897 5.16566952279437 12.142976544977216 16.79327270272689 0 0 0
267 1 1 0.5897 5.479529173611454 21.835929283816313 2.690110641272064 0 0 0
696 1 1 0.5897 1.368456970698775 22.232525755963604 2.7159447227652636 0 0 0
266 1 1 0.5897 3.969080243196465 21.754639705408255 2.7520090484932256 0 0 0
265 1 2 -1.1794 4.763439288760292 21.28358075598031 3.0037659927135087 0 0 0
345 1 1 0.5897 0.5710354640953037 19.260544182360338 1.3923926573725152 0 0 0
228 1 1 0.5897 5.015146306502176 19.397523884182952 2.8349106011063343 0 0 0
694 1 2 -1.1794 0.629844926936775 21.918693035727067 3.2376784033626804 0 0 0
344 1 1 0.5897 1.2744855723061568 18.65184449435036 2.586813520282243 0 0 0
321 1 1 0.5897 8.871975012374689 18.29136198962134 2.383360424437244 0 0 0
226 1 2 -1.1794 5.114461276806675 18.52080921559843 2.4637373163827636 0 0 0
187 1 2 -1.1794 2.865632537991532 23.061040002007466 2.1351381933114437 0 0 0
343 1 2 -1.1794 0.5650499182077512 19.249087162535044 2.34954219552275 0 0 0
818 1 1 0.5897 7.9802868655355 22.42145930356235 2.1462673095943967 0 0 0
189 1 1 0.5897 3.086676053814223 23.251458311890495 1.223460193307999 0 0 0
413 1 1 0.5897 0.7275493519265558 21.76147600578093 5.006606985470434 0 0 0
817 1 2 -1.1794 7.200016252840952 22.950573612835807 1.9805800014375003 0 0 0
227 1 1 0.5897 4.30061297472279 18.07070917849037 2.69023385104095 0 0 0
249 1 1 0.5897 5.023682629953202 21.490579508276916 4.758221681955151 0 0 0
695 1 1 0.5897 0.4400525227816037 21.048847819723562 2.8860550614096407 0 0 0
602 1 1 0.5897 5.455314502895845 18.867448828827364 0.6420633570155193 0 0 0
498 1 1 0.5897 7.669559045663417 23.18383404108759 0.14537134062197787 0 0 0
342 1 1 0.5897 0.5835432998121644 18.789427019094187 7.249425816446939 0 0 0
405 1 1 0.5897 0.8744780702649609 19.50803867336054 9.618183665976547 0 0 0
247 1 2 -1.1794 5.269907780758383 21.58043245390312 5.678863431657461 0 0 0
701 1 1 0.5897 2.990758076924634 22.81381716061311 7.813259751402341 0 0 0
702 1 1 0.5897 2.2204344497376587 22.46236019911191 6.5582428855636214 0 0 0
403 1 2 -1.1794 0.6320615329938555 18.640560274169612 9.294198008035895 0 0 0
32 1 1 0.5897 8.294026466683986 22.096339598085006 6.237993162937754 0 0 0
85 1 2 -1.1794 7.390499641837513 22.626246592557486 9.227016672235708 0 0 0
39 1 1 0.5897 3.858103456159548 22.358539297863683 9.965842983969772 0 0 0
37 1 2 -1.1794 3.095837317061926 22.805085875412217 9.597350349247543 0 0 0
86 1 1 0.5897 7.42092496739984 22.488432186703374 8.280238641248236 0 0 0
385 1 2 -1.1794 5.549260807276851 18.663776290743744 6.8966581933247015 0 0 0
100 1 2 -1.1794 5.289862159316473 18.81782648861988 9.853868719165757 0 0 0
102 1 1 0.5897 5.1774782309705145 18.717259654698097 8.908598005654767 0 0 0
33 1 1 0.5897 6.807911056644199 22.367168626583247 6.137329512874183 0 0 0
555 1 1 0.5897 5.408656138278758 20.572908057377422 10.245263557885265 0 0 0
341 1 1 0.5897 1.5680962353876182 18.597972224563073 6.115425003293985 0 0 0
38 1 1 0.5897 2.3484395113151235 22.28028575725917 9.88409128201084 0 0 0
383 1 1 0.5897 3.6782858159204825 17.86841227107438 10.186986392681659 0 0 0
387 1 1 0.5897 5.631824439605816 19.55467352745861 6.55645215362571 0 0 0
31 1 2 -1.1794 7.61001226714921 22.68972844249542 6.548278771231611 0 0 0
101 1 1 0.5897 6.078320435534464 18.31440649818622 10.056710554929818 0 0 0
412 1 2 -1.1794 0.7965318961872063 21.63284952987818 5.952640132811747 0 0 0
554 1 1 0.5897 6.035049452977052 21.946174249787024 10.1281949714827 0 0 0
340 1 2 -1.1794 0.7139443756668543 18.97842395128689 6.320149747937799 0 0 0
700 1 2 -1.1794 3.024242008603905 22.885996208209182 6.859343655333084 0 0 0
248 1 1 0.5897 4.593564133703925 22.14424095499632 6.0542647878676 0 0 0
87 1 1 0.5897 8.094696382559777 22.077419698781004 9.572201342368075 0 0 0
94 1 2 -1.1794 0.9536937645095891 21.177850509457446 10.271565255501075 0 0 0
404 1 1 0.5897 1.2933123739099655 18.053857775101864 9.661304844954737 0 0 0
553 1 2 -1.1794 5.260089278576073 21.493556777339066 10.461091151251258 0 0 0
414 1 1 0.5897 0.8119605243658948 20.682394292649033 6.065118973028121 0 0 0
386 1 1 0.5897 6.046852265492955 18.12494321922956 6.2815834568644275 0 0 0
240 1 1 0.5897 3.9767529426919013 18.092599501950318 6.270724437999589 0 0 0
185 1 1 0.5897 8.519624144883611 17.875858813226227 10.137057131941678 0 0 0
474 1 1 0.5897 5.370778625213816 19.01527564325121 16.045740959044558 0 0 0
88 1 2 -1.1794 5.41183996415328 21.537060325756237 13.186481160001714 0 0 0
381 1 1 0.5897 1.3158365249168869 21.678778761817338 13.477776939733307 0 0 0
90 1 1 0.5897 5.235269157652013 20.671012820189972 13.553980902553329 0 0 0
763 1 2 -1.1794 5.190672694656628 18.919796112276916 14.26667719978958 0 0 0
738 1 1 0.5897 3.8968156938202267 22.252644632397658 13.72047437760211 0 0 0
89 1 1 0.5897 5.414555119775655 21.399778244381874 12.239145774592673 0 0 0
736 1 2 -1.1794 3.0282806649431566 22.586154139821605 13.945528012153181 0 0 0
789 1 1 0.5897 7.000842291448753 22.330278772407656 13.684852085086998 0 0 0
765 1 1 0.5897 5.8355618330941805 18.38729329408986 13.80104676425 0 0 0
787 1 2 -1.1794 7.7048743090122 22.947757152149443 13.883079969923669 0 0 0
379 1 2 -1.1794 0.7014127515912855 21.088770361020725 13.04110870944283 0 0 0
350 1 1 0.5897 2.7325958705482223 23.273315971263138 15.741069716302825 0 0 0