LAMMPS data file via write_data, version 30 Jul 2021, timestep = 34750000

1008 atoms
2 atom types
672 bonds
1 bond types
336 angles
1 angle types

-3.1171707762456897 14.727169775796238 xlo xhi
0.0023860504868178367 22.577612949506157 ylo yhi
0.023774523838874018 19.20622347615368 zlo zhi
-0.12263716246856851 -6.7763088094281505 0.184711018365855 xy xz yz

Masses

1 1.008
2 15.999

Pair Coeffs # lj/cut/tip4p/long/omp

1 0 0
2 0.21084 3.1668

Bond Coeffs # harmonic/omp

1 450 0.9572

Angle Coeffs # harmonic/omp

1 55 104.52

Atoms # full

55 19 2 -1.1794 -0.659497133422768 4.473822898087747 3.388158927157671 0 0 0
56 19 1 0.5897 -1.192814421204348 3.8927079766391093 2.845805850994982 0 0 0
57 19 1 0.5897 0.16134420632705115 4.567192412412284 2.90463006953212 0 0 0
121 41 2 -1.1794 -2.4079886569352245 2.676389726168094 2.3760788653860123 1 0 0
122 41 1 0.5897 -2.2968292936180164 2.27846155402025 1.5126622234436735 1 0 0
21 7 1 0.5897 1.209818298143139 2.486445152778363 0.9920920987038652 0 0 0
31 11 2 -1.1794 1.3721226003099511 1.2587614892516679 2.334124610930362 0 0 0
86 29 1 0.5897 -2.4223794567719503 1.8286699045246297 4.016653264430338 1 0 0
32 11 1 0.5897 1.2184146572951047 1.5124781469873099 3.244189325602508 0 0 0
46 16 2 -1.1794 1.834061969176405 4.833501268111842 2.496292493377663 0 0 0
602 201 1 0.5897 -0.42786023689963404 5.473187008615714 0.4870978865626114 1 0 1
70 24 2 -1.1794 3.935874525239904 0.48583059121413114 1.4038870775154293 0 0 0
669 223 1 0.5897 -5.337240037858042 1.855056324755572 9.052907018795239 1 0 0
71 24 1 0.5897 3.18725455431679 0.6130662047871442 1.9866751251662906 0 0 0
98 33 1 0.5897 -4.022934236997331 5.310518251558521 8.769040688111351 1 0 0
123 41 1 0.5897 -3.3506605471439395 2.8240042237265506 2.4527353702441888 1 0 0
44 15 1 0.5897 -0.3556647616712558 5.413275926237314 8.195319735732015 0 0 0
54 18 1 0.5897 2.9589962453910914 3.622161789366536 3.041044030987759 0 0 0
158 53 1 0.5897 -4.161915059804569 4.638354994536359 4.407911766394998 1 0 0
527 176 1 0.5897 4.028852135991929 2.0102044061561575 0.434134397434855 0 0 1
47 16 1 0.5897 2.0391448429309813 5.274471151045823 1.6717819455129241 0 0 0
52 18 2 -1.1794 3.6722074358917984 3.131588706554357 3.449692168025749 0 0 0
101 34 1 0.5897 -2.577805060888441 4.699251614524904 0.05512098168013659 1 0 0
33 11 1 0.5897 0.6698540274098201 0.6392205734924725 2.135851070155187 0 0 0
53 18 1 0.5897 4.383725622771566 3.16510005832875 2.8102412075297547 0 0 0
124 42 2 -1.1794 -5.1098421980205355 2.635280224725849 7.586224626851311 1 0 0
6 2 1 0.5897 3.6951403729360486 1.6229041886333229 4.488121229333459 0 0 0
159 53 1 0.5897 -3.0973267993354963 4.538204892697552 5.479660329653837 1 0 0
87 29 1 0.5897 -3.467852725190758 1.2730878521752365 4.960296875239183 1 0 0
85 29 2 -1.1794 -2.5227393322377774 1.3872616023993447 4.860112754785384 1 0 0
45 15 1 0.5897 0.5139107760649848 4.747559751654328 7.150069101577459 0 0 0
78 26 1 0.5897 0.1112070712018185 3.1863901697507067 4.501519238914488 0 0 0
76 26 2 -1.1794 0.7196109430203563 2.493666201233285 4.759043573959209 0 0 0
59 20 1 0.5897 1.567026862968186 3.6392680597411213 5.848465982123063 0 0 0
43 15 2 -1.1794 -0.36501438912213136 5.099551365034588 7.291060151175503 0 0 0
60 20 1 0.5897 2.790692857244135 3.8822678371890245 6.706123142913918 0 0 0
34 12 2 -1.1794 -0.018889332473690956 1.3702875597481439 7.074304061472953 0 0 0
35 12 1 0.5897 0.22615676275310648 2.0478219324750184 7.704491067298088 0 0 0
36 12 1 0.5897 -0.8392899558307527 1.0122825163897602 7.413581586274358 0 0 0
522 174 1 0.5897 2.0837163503813354 5.65531842780337 9.165835956562752 0 0 0
67 23 2 -1.1794 -2.3137634241030516 0.3658076087630301 8.123611198667211 0 0 0
157 53 2 -1.1794 -3.562385649945656 5.1702040589536935 4.931335645104955 1 0 0
58 20 2 -1.1794 2.014153431593412 4.317734302036795 6.3544429628645664 0 0 0
4 2 2 -1.1794 3.803703496386925 0.9379529938807528 5.147995227450904 0 0 0
48 16 1 0.5897 1.9961941045669915 5.49495437546879 3.1689217136513648 0 0 0
135 45 1 0.5897 -1.7076954318388005 3.7955495949097124 6.9041666138618645 1 0 0
126 42 1 0.5897 -4.288738391361242 3.1258240098376557 7.547546291421154 1 0 0
77 26 1 0.5897 0.24960718961672512 1.99863879496213 5.430147942246828 0 0 0
134 45 1 0.5897 -2.3574498153031365 2.6872406970329497 6.103238247417156 1 0 0
133 45 2 -1.1794 -2.5512850095078536 3.3731544741634543 6.742128033424956 1 0 0
69 23 1 0.5897 -2.5653224623315816 1.0832723706207952 8.70515650025239 0 0 0
5 2 1 0.5897 3.0630468690181996 0.3483628803256661 5.006093765010321 0 0 0
482 161 1 0.5897 -1.0631784682278789 0.18266567100404885 0.9807387885654195 1 1 0
401 134 1 0.5897 2.3140912117932695 0.3344253448311085 8.694149641753134 0 1 0
16 6 2 -1.1794 5.450125437022784 5.113080174922432 0.31351033021852387 0 0 0
19 7 2 -1.1794 1.1918691476275907 2.857384367132618 0.10982163356206077 0 0 0
97 33 2 -1.1794 -4.078598806656677 4.845740594061947 9.604040075592273 1 0 0
22 8 2 -1.1794 0.3627034763895334 2.843643141867366 9.385069065122769 0 0 0
163 55 2 -1.1794 -2.0480852318684954 1.300859302421926 0.11112870065662604 1 0 0
18 6 1 0.5897 4.998657099305932 4.287041564313537 0.13978169388239065 0 0 0
24 8 1 0.5897 0.9729393258051129 3.563112788493197 9.54725230442855 0 0 0
526 176 2 -1.1794 -2.8397420720739968 2.989375160180928 19.090557443600577 0 0 0
626 209 1 0.5897 -5.875208989943925 2.0033628450131524 12.746835896952321 1 0 0
23 8 1 0.5897 0.5903204956545611 2.1835581671540036 10.03993222224732 0 0 0
575 192 1 0.5897 0.9105335425633525 0.21417190463733082 11.713720910761227 0 0 0
536 179 1 0.5897 -2.197027875922255 1.7577008125001952 13.22647089009254 0 0 0
524 175 1 0.5897 -2.9093596512482507 3.3698515664309965 9.799997589397519 0 0 0
576 192 1 0.5897 -0.4473653042834771 0.8817024989890418 11.663547264239638 0 0 0
628 210 2 -1.1794 -8.247410650654729 2.5487785995088723 16.8940406021048 1 0 0
535 179 2 -1.1794 -2.083532600539452 1.3189101233478544 12.383395673107751 0 0 0
520 174 2 -1.1794 2.1573369919648755 4.902005556878286 9.751901097741971 0 0 0
537 179 1 0.5897 -2.299403775739801 1.9879482413346097 11.733659111642675 0 0 0
561 187 1 0.5897 -3.9266365543246744 3.7350635299383117 13.853003189784674 0 0 0
571 191 2 -1.1794 -5.732768165465059 0.6140570975002129 17.813918431808535 0 0 0
164 55 1 0.5897 -8.493375806236775 1.8301120058860316 18.46410176504228 1 0 -1
627 209 1 0.5897 -7.02644571704615 2.8322460919755166 12.217917138499487 1 0 0
557 186 1 0.5897 0.16920933731838694 2.807045912844663 13.411233943310492 0 0 0
558 186 1 0.5897 -0.5789460829793827 3.8887048512502123 12.661226738968535 0 0 0
559 187 2 -1.1794 -4.460543420950927 4.376145521391318 13.383646471968813 0 0 0
560 187 1 0.5897 -5.023288275213838 3.849923598423942 12.815608564619511 0 0 0
625 209 2 -1.1794 -6.102402714264667 2.6350774016441005 12.064423709610947 1 0 0
668 223 1 0.5897 -5.906525922620096 1.783373873880768 10.453885216763258 1 0 0
556 186 2 -1.1794 0.30448292113007547 3.583354089370675 12.867682446860584 0 0 0
580 194 2 -1.1794 -2.7133058237593017 2.770046251402588 14.61660484496563 0 0 0
552 184 1 0.5897 -2.8235861776837092 4.841227634894468 12.581605150241593 0 0 0
589 197 2 -1.1794 -5.869874834188433 1.0495595764023606 14.381949988670726 1 0 0
550 184 2 -1.1794 -1.9435270862111018 5.066619223108286 12.279921779418641 0 0 0
165 55 1 0.5897 -9.604425265538087 0.9861322096018016 19.05187014662021 1 0 -1
99 33 1 0.5897 -4.003079393953735 5.532600762362688 10.266427376711537 1 0 0
630 210 1 0.5897 -8.446370103972638 1.9708404957077992 16.157407984831025 1 0 0
582 194 1 0.5897 -2.149037748273134 3.4190660865540368 15.036924633531115 0 0 0
551 184 1 0.5897 -1.596553057473736 5.642821088824051 12.960974609602676 0 0 0
547 183 2 -1.1794 -3.9562078511530165 5.027831066939464 17.077666251120238 0 0 0
639 213 1 0.5897 -6.147463864997608 3.9613626273949203 15.245506299417748 1 0 0
538 180 2 -1.1794 -3.2491457883868726 1.3089531104290704 16.93207603418429 0 0 0
540 180 1 0.5897 -4.147653972013688 1.0332549581146717 17.113669961527165 0 0 0
591 197 1 0.5897 -5.107862016682326 0.508753216714227 14.589765947770365 1 0 0
539 180 1 0.5897 -3.057422529335697 1.9612457984774712 17.60585055485934 0 0 0
638 213 1 0.5897 -6.56436772833554 2.973279335120643 16.31421810234682 1 0 0
549 183 1 0.5897 -4.498208111658904 4.314481334724392 16.74050581362161 0 0 0
562 188 2 -1.1794 -1.3850047619064112 4.487310785510896 16.24246181717914 0 0 0
528 176 1 0.5897 -3.7792028026169042 3.172856964560157 19.09575194187484 0 0 0
564 188 1 0.5897 -2.1948571499225062 4.63792927540273 16.730028431439727 0 0 0
593 198 1 0.5897 -7.70073448539264 0.8719509366113636 14.501524570508169 1 0 0
603 201 1 0.5897 -6.779266956400782 4.3752469870839334 18.986738865864062 1 0 0
637 213 2 -1.1794 -5.798760752683338 3.2958526671541466 15.838694569475889 1 0 0
663 221 1 0.5897 -7.923182760796724 4.482629713678205 14.076464267397688 1 0 0
581 194 1 0.5897 -2.938765831479687 2.158135272853538 15.317393885314454 0 0 0
590 197 1 0.5897 -5.762339181652351 1.8331089488013341 14.921152029116776 1 0 0
563 188 1 0.5897 -1.2647009464465349 5.283691008613791 15.725057575589975 0 0 0
523 175 2 -1.1794 -2.441018202247945 2.5378526308865297 9.869095026317495 0 0 0
20 7 1 0.5897 -5.8003352336863045 2.3018227720597335 18.725133011260777 0 0 -1
661 221 2 -1.1794 -7.353925121584454 5.120792283952304 14.506566751210594 1 0 0
574 192 2 -1.1794 0.2615439043383354 0.5649671927704767 11.103766925959683 0 0 0
525 175 1 0.5897 -1.5378857266490606 2.750618923515971 9.633741622328875 0 0 0
601 201 2 -1.1794 -7.471374671068361 5.036503893452531 18.992271246632164 1 0 0
629 210 1 0.5897 -8.83214681735037 3.2974995739134245 16.77640279064522 1 0 0
508 170 2 -1.1794 0.2829098401145753 1.4767238291661178 14.508776720761633 0 0 0
667 223 2 -1.1794 -5.59960031955355 1.2340933232343148 9.732565885976312 1 0 0
987 329 1 0.5897 -3.41677808595484 0.18070735833889273 11.767618390431949 1 1 0
572 191 1 0.5897 -6.472405833228277 0.25610225611685455 17.32291107790496 0 0 0
510 170 1 0.5897 0.28643917925844153 1.9493609178132083 15.34113141957242 0 0 0
606 202 1 0.5897 -5.964138203544879 4.752834900558154 9.628614457522458 1 0 0
986 329 1 0.5897 -4.510982643057316 0.17554406793742192 10.72133683059702 1 1 0
521 174 1 0.5897 2.0229973282829956 5.265013262062408 10.62733582308698 0 0 0
662 221 1 0.5897 -7.117749997093346 5.737360263424701 13.813440756479388 1 0 0
548 183 1 0.5897 -3.9913885018990944 5.6989339113523725 16.39592884036731 0 0 0
587 196 1 0.5897 -1.2292077775768018 5.721045256187938 10.54839730046326 0 0 0
289 97 2 -1.1794 -2.4128851096924295 10.071295187995418 2.4280417871859608 1 0 0
332 111 1 0.5897 -2.289013966866627 9.1502352732428 0.8792707502462613 1 0 0
255 85 1 0.5897 -2.4059665403455686 9.015744236249656 3.9654625606843132 1 0 0
147 49 1 0.5897 -0.9573016681010476 7.528153915150216 0.9991476890691701 1 0 0
146 49 1 0.5897 -1.226892207229429 6.553716799441527 2.126112286137848 1 0 0
145 49 2 -1.1794 -0.5254795129492575 6.8920023629981895 1.5694147791008892 1 0 0
174 58 1 0.5897 3.5978729053000196 9.239844909216773 4.777069700386794 0 0 0
112 38 2 -1.1794 -3.093791052787798 6.400337097775168 2.5870991599992075 1 0 0
588 196 1 0.5897 -1.3419477725673463 6.6700847038699775 9.37415176046753 0 0 0
228 76 1 0.5897 1.7706534249501296 11.329631535520797 5.9254522282680195 0 0 0
110 37 1 0.5897 -4.095731697718158 6.098601564093819 6.448934569049571 1 0 0
189 63 1 0.5897 1.8149928585035937 10.447183771657471 0.34457697425535916 0 0 0
201 67 1 0.5897 2.037462015119602 8.408780090631685 2.4815305224361808 0 0 0
188 63 1 0.5897 0.7877308342133897 9.816494505728176 1.2606012097810022 0 0 0
200 67 1 0.5897 0.5914103195187894 7.973317011070076 2.3746897445037116 0 0 0
331 111 2 -1.1794 -2.0315283907702044 8.627573269312162 0.11983620078981985 1 0 0
199 67 2 -1.1794 1.1439181571165697 8.699370206722499 2.6643442513259674 0 0 0
239 80 1 0.5897 3.7515860322720895 8.75506196754623 1.2214896208090602 0 0 0
238 80 2 -1.1794 3.6389609258394877 7.9981644525469 1.796658671010022 0 0 0
173 58 1 0.5897 3.1512879105212557 7.808347611055573 4.986055322650388 0 0 0
10 4 2 -1.1794 2.0170375597221852 6.460963500377103 4.700336302162521 0 0 0
240 80 1 0.5897 3.279994486632381 7.316384210117756 1.2286975816598298 0 0 0
245 82 1 0.5897 0.9710289283500932 9.422820900872916 4.327651997118008 0 0 0
837 279 1 0.5897 -6.209593016029757 8.195244977191404 9.164552142005334 1 0 0
291 97 1 0.5897 -3.31591169324406 10.343440026722487 2.591637468370682 1 0 0
187 63 2 -1.1794 0.8758310734037038 10.2824346223567 0.4290509293542765 0 0 0
12 4 1 0.5897 1.0940797187455376 6.693734432575159 4.801630935258313 0 0 0
65 22 1 0.5897 2.3968780003995738 7.774236951537442 8.679961664318965 0 0 0
303 101 1 0.5897 -1.6213365551540209 11.242129315291727 6.956919610096416 1 0 0
301 101 2 -1.1794 -2.4242391583771083 10.834647854746764 6.631956131282509 1 0 0
696 232 1 0.5897 4.194037448472465 11.056788485726392 0.30800076842021784 0 0 1
8 3 1 0.5897 -0.5799019467297422 6.271168407449657 5.955723091051299 0 0 0
254 85 1 0.5897 -1.7379746912310798 7.9817180348853904 4.846824414874575 1 0 0
253 85 2 -1.1794 -2.3396014751974827 8.725730599369578 4.875289374280736 1 0 0
302 101 1 0.5897 -2.1225339402041623 10.081492398774541 6.124055598363426 1 0 0
244 82 2 -1.1794 0.764921415623049 10.062356687261257 5.009368956572202 0 0 0
220 74 2 -1.1794 3.6846889360299118 10.786330554845096 3.6514324040085984 0 0 0
294 98 1 0.5897 -5.151284953304456 9.733650242965117 8.194767232220991 1 0 0
109 37 2 -1.1794 -4.310681376641365 6.276457229588129 7.364558803378265 1 0 0
7 3 2 -1.1794 -0.6026122224688928 6.637459182597837 5.071622611829216 0 0 0
64 22 2 -1.1794 2.160694443615075 7.014656059617729 8.147494290676262 0 0 0
237 79 1 0.5897 -2.591157666973775 8.522393846382238 8.772917725641912 0 0 0
257 86 1 0.5897 -4.295211066476511 8.217263924526979 4.938877854182371 1 0 0
290 97 1 0.5897 -1.883541262802837 10.822470424221288 2.696056563984093 1 0 0
292 98 2 -1.1794 -5.009529674327954 10.126448677358455 7.333410749655555 1 0 0
191 64 1 0.5897 0.34991866988903286 9.810814527728855 8.70128743495197 0 0 0
293 98 1 0.5897 -4.064686171901954 10.273514036758217 7.289240101565075 1 0 0
202 68 2 -1.1794 0.17562140711889995 8.676345566309347 7.195218471588468 0 0 0
203 68 1 0.5897 -0.7033554845127568 8.356517675528288 7.398785824811516 0 0 0
204 68 1 0.5897 0.7604161238900646 7.985073083257857 7.505875325737519 0 0 0
246 82 1 0.5897 0.49353761226966153 9.533884228611981 5.759984391341091 0 0 0
235 79 2 -1.1794 -2.250490032666812 7.73296976632132 8.352177719319972 0 0 0
236 79 1 0.5897 -3.00520358566738 7.358453578401196 7.897827865343435 0 0 0
111 37 1 0.5897 -5.226250318168298 6.555208706881117 7.346360762031484 1 0 0
694 232 2 -1.1794 3.6534677971057405 10.267177007208623 0.28228338459273217 0 0 1
113 38 1 0.5897 -3.132847513832102 5.888845208528288 3.395304901886434 1 0 0
221 74 1 0.5897 4.396869200267575 10.645250459441835 3.027609934948588 0 0 0
66 22 1 0.5897 2.9777733459456934 6.757840922076358 7.720064100780565 0 0 0
114 38 1 0.5897 -3.3108628323264986 5.774340524273918 1.8962828422575813 1 0 0
172 58 2 -1.1794 3.7593245288990635 8.468026726673035 5.319862041037159 0 0 0
9 3 1 0.5897 -0.6842713811173016 5.875354320259011 4.498224546981997 0 0 0
224 75 1 0.5897 -0.33975673025247977 11.240869528889325 4.202206788494633 0 0 0
222 74 1 0.5897 2.9684346320910278 11.137810806434496 3.1225210500370193 0 0 0
82 28 2 -1.1794 2.264340157565483 6.250631197936444 0.1961818480805551 0 0 0
11 4 1 0.5897 2.165665534988854 5.778439136595035 5.354896183833657 0 0 0
692 231 1 0.5897 -1.7120012025466815 10.304262487957695 9.553591333229384 0 0 0
190 64 2 -1.1794 0.09389261924469938 10.230202943045288 9.52273512446527 0 0 0
677 226 1 0.5897 0.19663314544831856 9.401328756445958 15.442075491462699 0 0 0
798 266 1 0.5897 -8.406907466512948 9.767030721984904 16.42887357689538 1 0 0
759 253 1 0.5897 -6.023519960967198 8.915452725279952 13.66858455897757 1 0 0
651 217 1 0.5897 -4.812085813465899 6.904905415800057 11.888678867484995 1 0 0
691 231 2 -1.1794 -2.643396785785664 10.14904245347005 9.710818983457063 0 0 0
797 266 1 0.5897 -7.280102932891667 10.693428748856478 16.83408911697085 1 0 0
795 265 1 0.5897 -5.955521245027715 9.728137349464264 11.2184660745332 1 0 0
693 231 1 0.5897 -2.682935583974245 9.8133013394671 10.60637894594682 0 0 0
649 217 2 -1.1794 -4.165070525454666 7.083592156752144 11.206225799922228 1 0 0
650 217 1 0.5897 -3.5348885266142185 7.672627134842052 11.621191019054914 1 0 0
742 248 2 -1.1794 0.2701442761276365 8.096462433346852 11.427926993351505 0 0 0
793 265 2 -1.1794 -6.00914696614449 9.96021868498399 12.145546643053764 1 0 0
743 248 1 0.5897 0.1688534780743769 8.898701393643671 10.91553805999983 0 0 0
744 248 1 0.5897 -0.044220807584970157 7.401191812829485 10.84997157820632 0 0 0
741 247 1 0.5897 -6.285662853306238 8.973782937481644 18.39187893190402 0 0 0
570 190 1 0.5897 -0.7408427608087269 7.156044638752554 17.226761449577594 0 0 0
703 235 2 -1.1794 -2.3285069811454626 8.757161699652704 12.150644849937388 0 0 0
704 235 1 0.5897 -1.4187273433294898 8.464946400175146 12.09399761315677 0 0 0
705 235 1 0.5897 -2.379603627874234 9.222290986498672 12.985662672255431 0 0 0
83 28 1 0.5897 -5.08114197239101 7.10292480492599 18.995577306998523 0 0 -1
706 236 2 -1.1794 -3.524404984250231 9.192864837845729 17.070656636353466 0 0 0
707 236 1 0.5897 -4.394369367022937 8.920182795945808 17.362431930645588 0 0 0
750 250 1 0.5897 -3.4589105410559435 10.597300215951185 14.077609583115644 0 0 0
333 111 1 0.5897 -8.598621257918126 9.457462327286365 18.62674346202353 1 0 -1
614 205 1 0.5897 -7.6943290993475655 6.069421706722292 17.605882649700483 1 0 0
796 266 2 -1.1794 -8.128474280776441 10.360225187001156 17.12660808178169 1 0 0
748 250 2 -1.1794 -2.819047232125051 10.017142661129025 14.4903278503091 0 0 0
514 172 2 -1.1794 -1.2526288226095685 6.5277222816573 14.475874910571653 0 0 0
708 236 1 0.5897 -2.9411968825785184 8.495584854788067 17.37068690254515 0 0 0
749 250 1 0.5897 -3.2516759720153976 9.711004124281615 15.287464683784055 0 0 0
676 226 2 -1.1794 0.16348806992710774 8.940520642095136 14.603768034971756 0 0 0
512 171 1 0.5897 -4.680131081259093 7.24933810957384 14.763382207019673 0 0 0
511 171 2 -1.1794 -4.01355341635848 6.577377377189814 14.906450172896639 0 0 0
515 172 1 0.5897 -2.169211206377943 6.799055942371804 14.526378040272192 0 0 0
516 172 1 0.5897 -0.755878317968758 7.338512164986695 14.586374919110659 0 0 0
724 242 2 -1.1794 0.5538045062304944 11.004727711581904 12.891606612569564 0 0 0
757 253 2 -1.1794 -5.972382201727717 8.425107163608928 14.489124479536466 1 0 0
695 232 1 0.5897 -3.13542408283696 10.199678080419007 18.541451897272765 0 0 0
758 253 1 0.5897 -5.711908916754821 9.075437444205303 15.141405310784464 1 0 0
616 206 2 -1.1794 -6.742353995229347 6.446176312439143 12.192841771391274 1 0 0
762 254 1 0.5897 -7.825751827191236 8.511754957722756 14.840478106778082 1 0 0
568 190 2 -1.1794 -1.5147441334010976 7.384220501153736 17.741807071776865 0 0 0
84 28 1 0.5897 -4.334437542001068 5.829648794525202 18.65902083115245 0 0 -1
836 279 1 0.5897 -5.061876923503449 8.23229537842306 10.151156325593513 1 0 0
678 226 1 0.5897 0.28266378617257537 9.627235443132601 13.947569685025053 0 0 0
739 247 2 -1.1794 -5.911139334566634 8.215746417421336 17.943130833462746 0 0 0
613 205 2 -1.1794 -7.792335548634004 6.691024927656614 16.88451231851971 1 0 0
740 247 1 0.5897 -6.659165523299387 7.792800384250847 17.521387683950937 0 0 0
794 265 1 0.5897 -5.381203490410508 10.675049853451396 12.250674199692622 1 0 0
569 190 1 0.5897 -1.6339121962614112 6.643835646694977 18.336803937781763 0 0 0
805 269 2 -1.1794 -5.776034957175876 10.972298079180849 15.716712334175327 1 0 0
513 171 1 0.5897 -4.296615284754335 5.83965171432977 14.36616668242831 0 0 0
615 205 1 0.5897 -7.531448979708221 6.198553253188145 16.10629448567015 1 0 0
835 279 2 -1.1794 -5.660868542747606 8.799110744197375 9.66507886163343 1 0 0
618 206 1 0.5897 -6.831648276739717 5.869293354093674 11.434258290047955 1 0 0
617 206 1 0.5897 -7.389534952377972 7.136274134928575 12.047056877642358 1 0 0
731 244 1 0.5897 -1.848827927825372 11.318620194551011 15.369130592449963 0 0 0
586 196 2 -1.1794 -0.7246898568362754 6.0942605065406665 9.82555489513929 0 0 0
807 269 1 0.5897 -5.092646014838686 11.407530961247943 16.22643896410346 1 0 0
192 64 1 0.5897 0.7214062066486586 10.94460219366559 9.633211256920406 0 0 0
280 94 2 -1.1794 -3.1774076477892423 13.678514315669279 2.442367223864778 1 0 0
184 62 2 -1.1794 5.350003213419299 12.450890970821797 0.3885384583163034 0 0 0
690 230 1 0.5897 1.7490229365933576 13.091449580149739 9.52871287883083 0 0 0
306 102 1 0.5897 -4.481668187134057 11.391783224097606 3.9191634531320707 1 0 0
223 75 2 -1.1794 -0.8232260547931292 11.805029255926453 3.5986109466560245 0 0 0
232 78 2 -1.1794 1.888169486727472 14.51419866082776 8.389375015712565 0 0 0
233 78 1 0.5897 2.7166863234492107 14.412237054432746 7.920935500978731 0 0 0
277 93 2 -1.1794 -4.430424143789198 13.966859171752327 7.266300807746976 1 0 0
326 109 1 0.5897 -3.190877988930815 12.027391413878455 5.426460568364481 1 0 0
226 76 2 -1.1794 2.1329348052888033 11.910243073581775 6.594694666784171 0 0 0
408 136 1 0.5897 4.005209074024582 16.353752069204184 1.1929575515566813 0 0 0
281 94 1 0.5897 -3.2319633490469926 13.413120419549143 3.360454181598884 1 0 0
423 141 1 0.5897 -2.4591322742784865 16.504874600510902 3.976008680036489 1 0 0
340 114 2 -1.1794 3.6179414600274447 16.295086509222926 5.119455932752098 0 0 0
341 114 1 0.5897 3.1108616190618132 15.490716878513608 5.009120161536882 0 0 0
227 76 1 0.5897 1.3663991491014391 12.265067495996567 7.045008062172383 0 0 0
407 136 1 0.5897 4.511901781980323 15.211059805737785 2.047231253499185 0 0 0
234 78 1 0.5897 1.368882292118096 15.096380598758905 7.834615246396565 0 0 0
404 135 1 0.5897 -1.7193856191317751 15.722342737567386 7.651091140673702 0 0 0
403 135 2 -1.1794 -2.519167821316469 15.67654176265217 8.175056754438325 0 0 0
282 94 1 0.5897 -2.2737307885883444 13.974051796404314 2.331239522958855 1 0 0
178 60 2 -1.1794 2.1243946606458533 14.015551548677394 4.690753077139688 0 0 0
180 60 1 0.5897 2.048734584917928 13.489333638943293 3.894773877950847 0 0 0
368 123 1 0.5897 2.0489486775149253 16.041648533730147 2.205766500474317 0 0 0
314 105 1 0.5897 -0.12841065412695762 15.277572019707534 1.8360951185764123 1 0 0
175 59 2 -1.1794 -0.6877494955664654 14.103641036473089 5.120761953149165 0 0 0
313 105 2 -1.1794 -0.880290928685393 14.72073311377842 1.6337797701327648 1 0 0
315 105 1 0.5897 -0.5116916101926683 13.991758439642297 1.1347968331280016 1 0 0
225 75 1 0.5897 -0.9204841013441114 12.632748445899953 4.06944610513566 0 0 0
278 93 1 0.5897 -3.8429508745770233 14.655667503133028 7.577323098396391 1 0 0
279 93 1 0.5897 -5.2898344504589865 14.211151422334007 7.609828545877711 1 0 0
252 84 1 0.5897 2.8486435689606875 14.377854140964214 0.6167794433538606 0 0 0
214 72 2 -1.1794 1.7475763290459856 12.447467820325263 2.563298444673141 0 0 0
215 72 1 0.5897 1.8687391487630833 12.788453854354575 1.6770912294790858 0 0 0
216 72 1 0.5897 0.8159932806480068 12.232904232275088 2.6126342241348675 0 0 0
176 59 1 0.5897 -1.1912197054154052 14.916553570555948 5.075762945913769 0 0 0
406 136 2 -1.1794 3.7161439101188467 15.562602181729874 1.6478487393694765 0 0 0
500 167 1 0.5897 -1.6525382074202568 15.904102118543806 0.43941635726003586 1 0 0
177 59 1 0.5897 0.22283770487338028 14.379169600262275 5.014763050931703 0 0 0
367 123 2 -1.1794 1.1847614620253175 16.43959499464549 2.311178750072364 0 0 0
421 141 2 -1.1794 -2.5092680485975793 16.048466267339606 4.815942768514854 1 0 0
179 60 1 0.5897 2.2529901878742926 13.375085074888021 5.3904898668306025 0 0 0
422 141 1 0.5897 -2.450069402787186 16.744042497753334 5.470853477072085 1 0 0
425 142 1 0.5897 -4.351622814290657 15.956146363703633 5.014064298725844 1 0 0
327 109 1 0.5897 -4.103089271931609 13.219112326360626 5.625775667546398 1 0 0
211 71 2 -1.1794 -0.4613614071647807 12.625101309279824 7.39015196583905 0 0 0
212 71 1 0.5897 -0.5850970033189555 13.156545698269221 8.176580638051396 0 0 0
213 71 1 0.5897 -0.7983690207970735 13.168560567166418 6.677810602660847 0 0 0
370 124 2 -1.1794 0.02101237836296521 16.254093064234084 7.204023723660769 0 0 0
267 89 1 0.5897 -3.9113989953902673 12.771114497120093 8.736672940377654 1 0 0
325 109 2 -1.1794 -3.752387826644645 12.638977522022346 4.950003279170073 1 0 0
405 135 1 0.5897 -2.50025995659348 16.469076470952032 8.71151729694646 0 0 0
369 123 1 0.5897 1.1424689437588542 16.679761524727184 3.2367858518655144 0 0 0
756 252 1 0.5897 -1.6012327614094595 14.56560654176963 9.220880182548152 0 0 0
250 84 2 -1.1794 2.33727504079335 13.685518780729048 0.1978856270492077 0 0 0
771 257 1 0.5897 -0.2851308263636203 11.655387988035978 0.08575757563938333 1 0 1
372 124 1 0.5897 0.15448774233671436 16.619478226201153 6.329384255211394 0 0 0
1004 335 1 0.5897 -5.203092191278819 16.76928314958154 9.053983916720444 1 0 0
462 154 1 0.5897 -5.167966413917985 16.93578188890698 6.899590206555104 1 0 0
770 257 1 0.5897 -1.69661882644825 12.202609634394875 0.10355571626777764 1 0 1
371 124 1 0.5897 0.1367148641995528 16.998100933643563 7.7950549213803155 0 0 0
769 257 2 -1.1794 -0.780652746940214 12.47306976840801 0.038913920214707465 1 0 1
910 304 2 -1.1794 0.4421473478056961 15.824400944405484 11.261869516384598 0 0 0
831 277 1 0.5897 -7.606031885164365 12.232554138174155 14.01631242394274 1 0 0
727 243 2 -1.1794 -4.056321747289804 11.871864778251062 12.884596234075833 0 0 0
718 240 2 -1.1794 -1.6291849616296759 12.482387950495301 11.902008887119054 0 0 0
927 309 1 0.5897 -5.448522827602586 16.881509197371265 14.824962969951288 1 0 0
720 240 1 0.5897 -1.5809721537904728 13.135579217315783 12.600031881849695 0 0 0
911 304 1 0.5897 -0.23916511008453156 16.04741235192163 11.896162107060753 0 0 0
873 291 1 0.5897 -2.5802180306748124 15.880052730556244 12.204810495516652 0 0 0
830 277 1 0.5897 -7.3388702705072895 13.196138305597298 15.152985171810247 1 0 0
251 84 1 0.5897 -5.131022532798409 14.334569705396424 18.90930093936339 0 0 -1
729 243 1 0.5897 -4.204609318664487 12.70965033769355 13.323230005370313 0 0 0
755 252 1 0.5897 -0.40655347310304224 14.651608055099258 10.146817489170495 0 0 0
785 262 1 0.5897 -7.1335037016938845 14.639671165337177 11.83037244781637 1 0 0
784 262 2 -1.1794 -6.384919946144548 14.062530786921295 11.981555996990043 1 0 0
829 277 2 -1.1794 -6.951840451717452 12.846301863006895 14.350465042675435 1 0 0
719 240 1 0.5897 -1.4734274443300999 12.978304762940345 11.098173298477922 0 0 0
786 262 1 0.5897 -6.502470566791572 13.74660970889212 12.877478827713874 1 0 0
817 273 2 -1.1794 -3.858627721968036 14.739329990387247 11.266882790097846 1 0 0
818 273 1 0.5897 -4.753693875984419 14.539053338978887 11.540855037938563 1 0 0
819 273 1 0.5897 -3.6042069169087094 13.997810568148179 10.717641984168514 1 0 0
930 310 1 0.5897 -7.534422979277745 16.106158285683648 14.495941553825578 1 0 0
730 244 2 -1.1794 -1.382648910588756 11.974986254549421 15.8869517786597 0 0 0
679 227 2 -1.1794 -4.067042675939389 14.072695715477423 14.609559236477812 0 0 0
783 261 1 0.5897 -8.626678587601845 14.16111508179928 16.8877121065955 1 0 0
684 228 1 0.5897 -0.6812981419185888 14.70913857728686 14.334600087989955 0 0 0
682 228 2 -1.1794 -1.3567473257162384 14.082569103670481 14.074825465829102 0 0 0
806 269 1 0.5897 -6.095680627704306 11.647488776105638 15.118115155501627 1 0 0
683 228 1 0.5897 -1.2227334761294086 13.33156843987855 14.653120752633217 0 0 0
926 309 1 0.5897 -5.222808462223902 15.444857604017269 14.404037638215724 1 0 0
688 230 2 -1.1794 1.8590486554112955 12.363795036816256 10.140925388696687 0 0 0
876 292 1 0.5897 -2.796195575067628 15.63488965541745 17.052703553204545 0 0 0
681 227 1 0.5897 -4.051442925990772 13.614054932839698 15.449643440054459 0 0 0
907 303 2 -1.1794 -6.030001898770244 15.487578539409464 17.95492840522701 0 0 0
925 309 2 -1.1794 -5.751709028632504 16.217664385785334 14.205575863929392 1 0 0
680 227 1 0.5897 -3.1472876337805795 14.130919199426037 14.35079091698219 0 0 0
908 303 1 0.5897 -6.5857678564930975 15.026125614948084 17.3268817227697 0 0 0
728 243 1 0.5897 -3.257292872662325 12.006045065871046 12.374866556249318 0 0 0
1005 335 1 0.5897 -4.77430813411066 15.869741380751142 10.193791854176968 1 0 0
715 239 2 -1.1794 -3.8890327604521193 12.550486644259433 16.91265802992313 0 0 0
716 239 1 0.5897 -3.9805400423301984 12.90762763918847 17.79599493596882 0 0 0
871 291 2 -1.1794 -1.9666251711345604 16.594403659060447 12.376649806205618 0 0 0
874 292 2 -1.1794 -3.551184563472054 16.195965056326898 16.87518810328201 0 0 0
736 246 2 -1.1794 -1.3486242249072786 14.797711114536474 17.7714324950864 0 0 0
912 304 1 0.5897 1.1014543794139495 15.354873826308923 11.772937630609213 0 0 0
185 62 1 0.5897 -1.588121016469647 13.24324256143553 18.849215432763135 0 0 -1
909 303 1 0.5897 -5.226918197099072 15.678149355065433 17.470114660954568 0 0 0
781 261 2 -1.1794 -7.772477081534747 13.747761464518012 16.76215783583374 1 0 0
782 261 1 0.5897 -7.621005385989701 13.259142268155335 17.57126244339294 1 0 0
875 292 1 0.5897 -3.3331222656050725 16.63958197260709 16.05543835769534 0 0 0
717 239 1 0.5897 -2.956248672580542 12.352347035015125 16.829357434995863 0 0 0
725 242 1 0.5897 0.8448730420669186 11.67336402828356 13.511643176239955 0 0 0
1003 335 2 -1.1794 -5.549821835202053 16.241248607354336 9.773228209739083 1 0 0
737 246 1 0.5897 -1.0639108172018483 15.348298773808285 18.50083179209387 0 0 0
773 258 1 0.5897 -6.5744656431097255 12.75617655896723 10.82802376896869 1 0 0
772 258 2 -1.1794 -6.54349633456402 12.156038848480515 10.08297564190321 1 0 0
726 242 1 0.5897 -0.17176289832504743 11.414182207274457 12.420203293554458 0 0 0