LAMMPS data file via write_data, version 30 Jul 2021, timestep = 9000000

864 atoms
2 atom types
576 bonds
1 bond types
288 angles
1 angle types

0.3536667506533284 17.853905649343602 xlo xhi
1.5081039867930937 22.121073813212163 ylo yhi
0.43147260973318957 21.78172319027132 zlo zhi

Masses

1 1.00794
2 15.9994

Pair Coeffs # lj/cut/tip4p/long/omp

1 0 0
2 0.21084 3.1668

Bond Coeffs # harmonic/omp

1 450 0.9572

Angle Coeffs # harmonic/omp

1 55 104.52

Atoms # full

237 1 1 0.5897 2.1743217746587886 3.9327280580808908 5.28283433681494 2 0 -4
648 1 1 0.5897 3.9877979098858494 1.5118484647204893 2.025511911291966 -5 -1 1
224 1 1 0.5897 2.6517144840181666 6.016249287694274 4.806958710689915 0 -1 -6
612 1 1 0.5897 6.8558471187713685 4.688571045274678 3.6145032613073256 2 3 1
610 1 2 -1.1794 6.967722099246127 3.9361146642108547 3.033579347140093 2 3 1
225 1 1 0.5897 2.633052358353004 5.032672256679608 3.656306963938236 0 -1 -6
223 1 2 -1.1794 3.118187137109092 5.260808752244918 4.449275081732013 0 -1 -6
206 1 1 0.5897 1.1805205209680332 4.110628359357925 2.1114601501589014 -6 3 -4
212 1 1 0.5897 3.5963236797904594 3.6858367572991457 1.6317837907337942 4 3 3
213 1 1 0.5897 4.695431668783218 3.083304900641086 0.7828468295614435 4 3 3
211 1 2 -1.1794 4.404463157045405 3.176208583871486 1.6899800788969306 4 3 3
236 1 1 0.5897 1.747292547803181 2.482702538268029 5.2000813434952295 2 0 -4
423 1 1 0.5897 7.908566428812857 2.451028838785058 3.557847935673639 -2 1 4
205 1 2 -1.1794 2.000224992591061 4.57857130071171 1.9523918528119169 -6 3 -4
611 1 1 0.5897 6.09134056422002 3.7677494523243378 2.687475621633895 2 3 1
207 1 1 0.5897 1.8373144647418294 5.084113692125089 1.1560964546901678 -6 3 -4
334 1 2 -1.1794 7.39274125762882 6.508145549300391 4.232928428772919 4 0 2
356 1 1 0.5897 4.299263924252779 6.446701456675087 3.1540057632112264 -1 -3 3
793 1 2 -1.1794 8.737602724925276 4.472833839929487 0.8387575716148117 -4 3 6
794 1 1 0.5897 8.128967618150618 4.439166977203712 1.576734168018741 -4 3 6
335 1 1 0.5897 6.6223017479892805 6.5629000239127 4.79828260772995 4 0 2
421 1 2 -1.1794 8.41654689721048 1.6418249711180701 3.6155093477078397 -2 1 4
128 1 1 0.5897 0.8591720904058289 1.7366852030898579 3.0811404335906807 1 1 -4
827 1 1 0.5897 8.9632327228974 6.033885398301087 5.585873388635067 0 3 0
762 1 1 0.5897 4.73594290312114 5.398577232773691 5.516517071594247 -2 -3 -3
515 1 1 0.5897 2.5829589424133146 2.5831150860336756 9.896919671773121 -3 -2 -1
41 1 1 0.5897 6.998133682139052 5.021829386116658 9.07877246454549 -3 1 2
639 1 1 0.5897 6.404788712590329 2.5600254613607514 8.540764348832408 -8 3 3
761 1 1 0.5897 5.607695063500419 4.897281489572963 6.648115301027162 -2 -3 -3
289 1 2 -1.1794 0.44695353043312774 4.119347502774214 8.137393528457155 -9 -5 -6
760 1 2 -1.1794 5.466948358013617 5.654019058219324 6.079153514655912 -2 -3 -3
290 1 1 0.5897 1.0141309373624918 3.82270565442655 7.4256904052349 -9 -5 -6
789 1 1 0.5897 4.883187745914071 1.8523093646357582 10.643522511030845 5 -1 4
494 1 1 0.5897 9.075819549295382 4.753873265552552 9.634760435570684 -1 0 -2
42 1 1 0.5897 5.5047500883904785 4.832380177813544 9.239015201584763 -3 1 2
514 1 2 -1.1794 2.0995740703680035 3.345634073842991 10.214865768082602 -3 -2 -1
686 1 1 0.5897 3.222242453553494 4.842112489802281 9.908305757600996 8 -8 -3
495 1 1 0.5897 8.881007037539232 6.235086911534034 9.390106003000538 -1 0 -2
114 1 1 0.5897 4.872100337328898 1.8170429081980641 6.051557177029803 -4 -3 3
113 1 1 0.5897 3.907358086618359 2.9510900074046758 6.325374907209379 -4 -3 3
637 1 2 -1.1794 6.9280295004790435 1.785795125117854 8.74806749345337 -8 3 3
40 1 2 -1.1794 6.274157562236935 4.455100798045423 8.812572889840686 -3 1 2
516 1 1 0.5897 1.503231867145121 3.5670587061032744 9.499648848764481 -3 -2 -1
493 1 2 -1.1794 8.620134360931276 5.523757213155752 9.975069205375517 -1 0 -2
685 1 2 -1.1794 3.9246111274264557 5.478433589866068 9.774300555373793 8 -8 -3
123 1 1 0.5897 8.504110464745814 2.5048851978217432 8.881792830335812 -1 -2 -3
204 1 1 0.5897 4.203813696162971 1.8596134408089753 8.094356760301263 -5 4 0
112 1 2 -1.1794 4.7257841451757585 2.5623689205113704 6.634017107893458 -4 -3 3
687 1 1 0.5897 3.4917989906115263 6.2330968958354 9.375120288034566 8 -8 -3
235 1 2 -1.1794 2.113681253420129 3.130718370041328 5.801769333741011 2 0 -4
143 1 1 0.5897 7.503318819749331 3.255104352217054 14.053635002804638 1 6 3
628 1 2 -1.1794 1.2053902371560057 2.3709213057840413 12.655975980250503 -1 -5 5
358 1 2 -1.1794 3.6898259492322305 2.733565512275418 13.406230542650425 1 0 -4
772 1 2 -1.1794 5.705110340923196 6.568469764555757 15.002873795750556 -1 -3 1
594 1 1 0.5897 8.344678734291774 5.8353607751434255 14.000616228030731 -3 1 -2
55 1 2 -1.1794 7.126824651106422 3.816095070757579 12.421765969713833 -1 0 1
57 1 1 0.5897 6.406578454756705 3.352730862573373 11.994296093390107 -1 0 1
773 1 1 0.5897 4.8701034161353896 6.53423353611322 15.469555351847442 -1 -3 1
774 1 1 0.5897 5.517231920485866 6.184746177494339 14.14633340698715 -1 -3 1
267 1 1 0.5897 3.0094909144607564 6.333647229355073 14.792106758418765 -2 -3 0
142 1 2 -1.1794 7.735386364066196 3.1718051944683125 14.97851368972335 1 6 3
592 1 2 -1.1794 8.294705038479332 5.807093526567613 14.956071432186269 -3 1 -2
144 1 1 0.5897 8.053628398152535 4.0401618559198775 15.225221953441585 1 6 3
382 1 2 -1.1794 5.7093181015800845 1.6736677945289196 16.155027914526244 -11 -3 0
360 1 1 0.5897 3.862748587394045 2.927146263980058 14.327538047053505 1 0 -4
499 1 2 -1.1794 2.463761616395219 5.428798503861795 13.102362584715987 0 1 -3
383 1 1 0.5897 6.174997923127833 2.0487530263270086 15.407597398342014 -11 -3 0
501 1 1 0.5897 2.9671048440832672 4.629783758217881 12.94611341350124 0 1 -3
264 1 1 0.5897 8.677576590455441 1.6496930301499568 15.722982171033536 4 -2 6
500 1 1 0.5897 1.5625191070088498 5.191141329167969 12.88450969701879 0 1 -3
56 1 1 0.5897 7.069542955683039 4.710610823894543 12.085988608683184 -1 0 1
629 1 1 0.5897 1.431114523981745 2.79410760536822 11.827629378293873 -1 -5 5
593 1 1 0.5897 7.462359014013599 6.230827893324638 15.165470049172788 -3 1 -2
719 1 1 0.5897 4.826208259793485 5.867874517756309 11.325246690711356 6 6 1
359 1 1 0.5897 2.744555233638431 2.5889323420287216 13.364717154122408 1 0 -4
718 1 2 -1.1794 5.357150999189147 6.043125351351076 12.102143809578553 6 6 1
787 1 2 -1.1794 5.3968351866675395 1.9214666555465767 11.448241670954522 5 -1 4
788 1 1 0.5897 4.771008542585746 2.221695703755004 12.10733043568761 5 -1 4
595 1 2 -1.1794 3.8159359244792417 3.840821946833795 16.100702489072297 2 -5 1
410 1 1 0.5897 8.737499071426464 2.6276787758168423 11.902854374471845 3 5 -4
266 1 1 0.5897 2.1291784150180124 5.9803261917467445 15.972000148359237 -2 -3 0
265 1 2 -1.1794 2.967821193556264 6.38320673417155 15.74711904403511 -2 -3 0
597 1 1 0.5897 3.409501281718747 4.686607345445092 15.911913805890654 2 -5 1
571 1 2 -1.1794 5.6854160211822835 4.657446429066924 18.076710874981806 3 -4 -5
380 1 1 0.5897 8.111009531232417 2.1786851938722265 20.19268156195114 7 3 0
598 1 2 -1.1794 0.6557264599456689 5.31208991438468 16.447630654409274 2 -2 -3
755 1 1 0.5897 1.4662645723233094 1.6776571568530319 20.42918746769101 -4 0 -5
795 1 1 0.5897 8.428652720503434 5.205683581616652 21.65638565541485 -4 3 5
22 1 2 -1.1794 5.70242177420143 3.190218997693453 20.379541431233022 -2 2 1
260 1 1 0.5897 8.09329764665166 6.512023094280767 17.51211938418536 -2 -2 5
606 1 1 0.5897 1.9238300266990775 1.7127194961674492 17.23643612895664 -4 2 -1
573 1 1 0.5897 5.682641062431351 4.117699097619564 18.867184477336707 3 -4 -5
24 1 1 0.5897 5.155422736667214 2.444580055282244 20.132537027480062 -2 2 1
782 1 1 0.5897 1.2707140663328733 4.912386832689199 20.47867636664232 0 0 0
381 1 1 0.5897 8.614683423318214 3.002432569589331 21.35866925050535 7 3 0
23 1 1 0.5897 6.418856231214388 2.8054716196202927 20.88440748890477 -2 2 1
259 1 2 -1.1794 8.287535853812852 5.715631167246891 18.006319605828587 -2 -2 5
229 1 2 -1.1794 7.784602049239539 6.4660969785199445 20.561669822772544 2 4 -1
703 1 2 -1.1794 3.8387869596343647 6.225196957250745 19.11746460032301 2 -3 -4
572 1 1 0.5897 6.604509641466085 4.892860019581825 17.950085298768883 3 -4 -5
191 1 1 0.5897 8.293736855469872 2.3220557541502824 18.03956586188123 6 5 -5
783 1 1 0.5897 2.4242444715241422 5.875019029803169 20.292973196459457 0 0 0
261 1 1 0.5897 8.111636764098073 5.949778984186134 18.917602728587184 -2 -2 5
781 1 2 -1.1794 1.721841223306113 5.64356908170904 20.90062746195867 0 0 0
432 1 1 0.5897 0.39724113457048504 3.19618176951972 19.523708009546574 -5 -3 -4
754 1 2 -1.1794 0.598333443220897 1.9446029212865406 20.731868083770387 -4 0 -5
379 1 2 -1.1794 8.36404658900093 2.11181640776947 21.11337808128797 7 3 0
190 1 2 -1.1794 7.620802870472913 1.7130153533793153 18.343557777663655 6 5 -5
705 1 1 0.5897 4.4595813322334426 5.680936014210643 18.6331190850334 2 -3 -4
384 1 1 0.5897 6.3141140033875125 1.774913012497895 16.889978232959493 -11 -3 0
605 1 1 0.5897 3.4228302837010096 1.868305301211736 17.09306693494183 -4 2 -1
596 1 1 0.5897 4.499270780056466 4.040437264388303 16.740553919318202 3 -5 1
540 1 1 0.5897 0.8436167231548127 7.47488211298748 2.7586566131707135 1 -3 1
601 1 2 -1.1794 4.6948413564434945 11.573959472537211 0.9026981786556283 2 5 -3
248 1 1 0.5897 6.016837272045318 10.401408050489742 0.5291411316259664 -3 5 -2
526 1 2 -1.1794 2.243005316254125 8.476265258273422 2.517816447621059 -3 -3 1
210 1 1 0.5897 7.553367665587038 9.02454933486954 1.590081362042969 1 -1 1
485 1 1 0.5897 7.33945221375999 10.706620683137832 2.9240374621639615 -1 2 0
209 1 1 0.5897 8.560789220980121 8.89935222693588 2.713117271351661 1 -1 1
484 1 2 -1.1794 7.296611575736892 11.662824706313005 2.9282954966529564 -1 2 0
100 1 2 -1.1794 4.473531789865299 11.47438496368088 3.5638977833170196 7 -4 0
208 1 2 -1.1794 7.630026178764789 8.794413443912939 2.516010781107754 1 -1 1
476 1 1 0.5897 2.7671678270898767 8.96390278828739 0.886580662456932 5 -4 0
528 1 1 0.5897 2.038544409497206 9.363166640916948 2.814113969974547 -3 -3 1
336 1 1 0.5897 7.3392637208089075 7.286472394954541 3.678367960697137 4 0 2
355 1 2 -1.1794 4.660306662091683 7.297581813700601 2.905330196046011 -1 -3 3
527 1 1 0.5897 3.1512065120715644 8.337016228082827 2.7861394138757083 -3 -3 1
357 1 1 0.5897 5.089580623238401 7.13965774024365 2.0645194877975372 -1 -3 3
154 1 2 -1.1794 1.286118505467038 11.005103126125539 2.867793761422464 2 6 -4
102 1 1 0.5897 4.174808148036858 10.705392171821257 4.049294114535943 7 -4 0
603 1 1 0.5897 4.376892538829892 11.499940475817855 1.80248672400826 2 5 -3
156 1 1 0.5897 0.6853817445438183 11.401829686493986 3.4985887260858552 2 6 -4
300 1 1 0.5897 7.324100231997509 11.81452536910249 4.984393755854714 -6 -2 0
643 1 2 -1.1794 3.1841386863445407 9.659748579334233 5.353923289272094 3 -2 0
155 1 1 0.5897 1.4119937126890105 11.678923764827687 2.1997367098062455 2 6 -4
699 1 1 0.5897 2.455394523857471 8.044369525385253 5.715576360713472 0 4 -2
644 1 1 0.5897 2.8092232356887026 10.44151382588159 5.759483426332885 3 -2 0
477 1 1 0.5897 3.6300306846078034 10.129061979551544 0.4511088001284236 5 -4 0
426 1 1 0.5897 9.073051578316953 9.689527281634888 6.073202128717553 9 -4 1
362 1 1 0.5897 5.529471992577149 7.332154256944144 6.485916890853736 4 -2 -2
780 1 1 0.5897 2.296066744151675 7.313140901104542 7.6886280310774575 -2 -1 -1
779 1 1 0.5897 1.4813199744749423 7.292626280475317 8.964379319506403 -2 -1 -1
159 1 1 0.5897 5.741534106047842 9.251104263632666 7.989907265027029 -1 3 -1
274 1 2 -1.1794 8.721802595292539 9.936480196703679 9.081657304842764 -2 4 -4
158 1 1 0.5897 5.3857721336604 10.402451848658488 8.906206941577526 -1 3 -1
157 1 2 -1.1794 6.0265151215358985 9.701820282436211 8.784780234751034 -1 3 -1
408 1 1 0.5897 2.747825156179527 10.558800598037273 8.648660233126662 -2 -2 1
406 1 2 -1.1794 3.030774512102634 10.084580143076645 9.430475848546152 -2 -2 1
424 1 2 -1.1794 8.222331322346385 9.327377950405253 6.320800870439868 9 -3 1
425 1 1 0.5897 8.359171201240173 8.972057037696546 7.198981346380871 9 -3 1
407 1 1 0.5897 2.9285294954838816 9.160950769072006 9.201041700220717 -2 -2 1
361 1 2 -1.1794 5.471917048000624 8.287167821442262 6.514687404105495 4 -2 -2
197 1 1 0.5897 6.087428463482152 8.831626449675646 10.677516958847715 -2 -2 0
299 1 1 0.5897 7.5587169463303665 10.9543303395299 6.207824982603991 -6 -2 0
778 1 2 -1.1794 2.345434510578046 7.52080030274006 8.621703350448602 -2 -1 -1
187 1 2 -1.1794 2.877068469554598 11.700820675137406 7.230024326246583 -2 5 -1
275 1 1 0.5897 7.782813390786678 9.919564835359617 8.896745652113058 -2 4 -4
697 1 2 -1.1794 1.782363963043081 7.388391680689408 5.89698725959749 0 4 -2
620 1 1 0.5897 8.389679950602224 10.994910262854377 10.689499179140942 4 -2 4
5 1 1 0.5897 1.588753169391279 10.160568603371331 10.48656045180165 2 0 -1
363 1 1 0.5897 6.294363056174827 8.58889159964896 6.12899239084183 4 -2 -2
698 1 1 0.5897 0.9547696248481081 7.853930698940658 5.776289078168036 0 4 -2
276 1 1 0.5897 8.97604011306498 9.0143727851954 9.11720358095126 -2 4 -4
4 1 2 -1.1794 0.7824962619987793 10.421510310474424 10.93161296597799 2 0 -1
645 1 1 0.5897 3.923554078240331 9.428828030020846 5.916194044224734 3 -2 0
444 1 1 0.5897 0.7724986886799314 8.709390513696958 14.048360680806208 6 4 -2
277 1 2 -1.1794 1.4321851661067089 11.537290822883332 15.431578160127126 -1 2 1
216 1 1 0.5897 6.288030980222615 8.441003893310203 14.44217295362814 -1 0 3
196 1 2 -1.1794 6.265928413060769 8.707648225641048 11.609693716262125 -2 -2 0
198 1 1 0.5897 5.600723232061751 9.233730799864817 12.05345819948969 -2 -2 0
150 1 1 0.5897 3.186408023403274 10.95665769760909 15.476170353591769 -3 -1 5
49 1 2 -1.1794 1.8877202350891618 8.08749229484342 12.857958394726408 5 0 0
148 1 2 -1.1794 4.1152940935638735 10.726282694230072 15.458225199321895 -3 -1 5
215 1 1 0.5897 7.162002026756255 9.015699233342794 15.536566376575907 -1 0 3
6 1 1 0.5897 0.9684543772633993 11.296797994819 11.271435608411336 2 0 -1
130 1 2 -1.1794 3.996507713449734 9.840671758305858 12.736749607153335 -6 2 -1
51 1 1 0.5897 2.2335773871190856 7.214124221938298 13.041779300427333 5 0 0
50 1 1 0.5897 2.6635943917600784 8.622659850304467 12.691241785792027 5 0 0
696 1 1 0.5897 8.203954202316911 9.046488199854181 12.211875484758592 2 0 0
214 1 2 -1.1794 6.700819952608319 9.254342172550672 14.732480744319467 -1 0 3
138 1 1 0.5897 6.704865890665767 10.992775668924972 14.189668615988229 7 -6 2
278 1 1 0.5897 0.9476957420609923 10.765670684562691 15.138218867790776 -1 2 1
132 1 1 0.5897 4.231507436062131 10.224590787762306 13.58148754564328 -6 2 -1
131 1 1 0.5897 3.6606993028346344 10.57594361304327 12.224076404058014 -6 2 -1
149 1 1 0.5897 4.263993838928232 10.264385358385368 16.28329084776095 -3 -1 5
619 1 2 -1.1794 8.031036364168074 11.515043106196737 11.40854395000771 4 -2 4
720 1 1 0.5897 5.6994320169364405 6.926386380997851 11.964656220527011 6 6 1
768 1 1 0.5897 0.9930893020477306 7.616053466452655 11.17813430727958 -1 -2 0
374 1 1 0.5897 8.39240649016454 8.926999557758727 17.31277743924118 3 5 -1
740 1 1 0.5897 5.3775152379015925 10.509275108307774 18.858366568480612 -1 1 2
249 1 1 0.5897 6.480143957374423 9.612400415998977 20.673311638728144 -3 5 -3
287 1 1 0.5897 2.1190191708554544 11.095447561141775 19.69035483710723 2 1 3
664 1 2 -1.1794 1.241913926654639 9.628316114708174 18.778563113430984 3 2 2
741 1 1 0.5897 5.0017742672568275 9.06255612220935 18.618382986474295 -1 1 2
739 1 2 -1.1794 5.737133267378165 9.622273946168418 18.867693060840573 -1 1 2
103 1 2 -1.1794 9.02644485581355 11.724906883167346 21.18862450016472 4 -1 5
475 1 2 -1.1794 3.341344771613579 9.257843317255556 21.52965195422616 5 -4 -1
11 1 1 0.5897 3.0191213357084408 8.146329106709647 16.79432979427476 -2 2 5
704 1 1 0.5897 3.6623547127379834 6.964140228221942 18.535192763148025 2 -3 -4
104 1 1 0.5897 8.252819290282668 11.33961847492643 21.6000152815431 4 -1 5
10 1 2 -1.1794 3.3931531420817267 8.620539023633757 17.536901291427625 -2 2 5
626 1 1 0.5897 4.564093996621589 6.7638812342531045 20.95998912400365 -3 -2 2
375 1 1 0.5897 6.997051712462116 8.75141890519816 17.873071249535663 3 5 -1
231 1 1 0.5897 8.41971789832543 7.179707360145779 20.62153431486349 2 4 -1
666 1 1 0.5897 0.9364689015150267 9.152280830317414 19.550767035613113 3 2 2
247 1 2 -1.1794 6.75487611354658 9.89048893790064 21.547042186256654 -3 5 -3
12 1 1 0.5897 2.6380568162711393 9.009471080644968 17.978204548357866 -2 2 5
373 1 2 -1.1794 7.577901434070197 8.442720988067997 17.177727291913513 3 5 -1
548 1 1 0.5897 0.7511692296566976 7.159526283283137 20.495532017608028 8 -4 3
230 1 1 0.5897 6.982622567837742 6.826237498163075 20.940292396729184 2 4 -1
625 1 2 -1.1794 5.230407843439581 7.086056261997417 21.56697526551175 -3 -2 2
627 1 1 0.5897 4.951525970882301 7.97689631178481 21.778713071908896 -3 -2 2
665 1 1 0.5897 0.44093167259014265 9.872888016740607 18.315076190539102 3 2 2
105 1 1 0.5897 8.796380402979697 11.793710269666317 20.262055797683864 4 -1 5
749 1 1 0.5897 8.891686920204373 11.717313710890636 16.653183702927578 4 5 0
468 1 1 0.5897 3.942030999340988 14.619921098718624 4.305515144932409 5 -3 5
194 1 1 0.5897 8.701097370226478 12.743626574169946 2.925478196387524 3 -2 2
810 1 1 0.5897 8.527445520943049 16.326274934031495 4.683031070343573 4 -1 -2
681 1 1 0.5897 6.511762145208287 14.737950408636658 1.2101669763260143 -4 -6 1
427 1 2 -1.1794 0.5983384622237338 14.231562908903442 4.213391921392457 1 0 -3
467 1 1 0.5897 2.483289038586573 14.286691554303367 4.075546931127132 5 -3 5
217 1 2 -1.1794 3.255046140541253 14.713509527838994 1.3544073546104167 6 -2 -1
218 1 1 0.5897 2.6096789365329363 14.059286704030093 1.0866657589014208 6 -2 -1
73 1 2 -1.1794 1.3909426706056862 12.850307437714505 0.8435866202560077 3 0 3
679 1 2 -1.1794 5.8956900670900385 14.02566089275252 1.0390496083249645 -4 -6 1
1 1 2 -1.1794 5.258334198124195 16.00338830275819 4.8724864480684476 1 -8 4
809 1 1 0.5897 8.692353911658088 15.064677516018717 3.862673220012318 4 -1 -2
667 1 2 -1.1794 7.619944322867337 16.132810073732976 1.5775843975336656 -6 -4 2
3 1 1 0.5897 6.208014326135167 15.956450989110044 4.762406785726666 1 -8 4
2 1 1 0.5897 4.9886194069410825 16.736751352572455 4.319663303703022 1 -8 4
466 1 2 -1.1794 3.369266282162609 13.978643639608475 3.884902777892 5 -3 5
808 1 2 -1.1794 8.02774070982941 15.63314259367752 4.251694673776759 4 -1 -2
669 1 1 0.5897 7.708171387992595 16.129018744096392 2.5306745743924046 -6 -4 2
101 1 1 0.5897 3.886839852321972 12.17725110726691 3.843124782088808 7 -4 0
219 1 1 0.5897 3.3736098115371265 14.563809040387369 2.2923364659029835 6 -2 -1
680 1 1 0.5897 5.03236768345726 14.420465319021536 1.1614863038053829 -4 -6 1
668 1 1 0.5897 8.462617994856227 16.457052490906612 1.2598596370956576 -6 -4 1
602 1 1 0.5897 5.207099285611127 12.382492690203922 0.8949428444112226 2 5 -4
74 1 1 0.5897 0.4539510298427717 12.719192402074704 0.6985232060059163 3 0 3
428 1 1 0.5897 0.4405235306919799 15.144339144266235 4.454472288010582 1 0 -3
486 1 1 0.5897 6.368306555509278 11.861999905568403 2.8067796320141767 -1 2 0
635 1 1 0.5897 1.6296053699289854 15.38567476874916 7.522897028315787 -7 0 2
29 1 1 0.5897 8.454936352350748 15.858710129069834 9.108715887883234 -8 -2 4
179 1 1 0.5897 6.144967173787349 12.539902696989214 7.152752006860824 -6 2 -3
832 1 2 -1.1794 6.710049741621142 13.4870549282848 10.042791784952056 2 1 0
636 1 1 0.5897 3.0859965265557268 15.611947645072563 7.868595787436451 -7 0 2
653 1 1 0.5897 2.591793443067785 15.250604139961283 10.034010915233138 -1 -1 1
180 1 1 0.5897 5.9410805184927 12.910157651088609 8.606418079257399 -6 2 -3
521 1 1 0.5897 5.151068034526192 14.506963593465175 7.660948570382123 -3 -1 -2
833 1 1 0.5897 7.286420876578269 14.24813117240822 9.973926672751663 2 1 0
298 1 2 -1.1794 7.433248956391941 11.862905562530921 5.934093690604411 -6 -2 0
520 1 2 -1.1794 4.832929680578886 15.409548665784882 7.643225633387508 -3 -1 -2
834 1 1 0.5897 6.127813577703781 13.69235606462252 10.77426815707181 2 1 0
188 1 1 0.5897 3.650855254281857 12.207569007183968 7.476275092918428 -2 5 -1
178 1 2 -1.1794 5.468135963070623 12.78472650418617 7.783744934145733 -6 2 -3
189 1 1 0.5897 2.1461321648615805 12.308182916614806 7.34416316399732 -2 5 -1
522 1 1 0.5897 4.972654713827622 15.695564322415546 6.7405292079120525 -3 -1 -2
634 1 2 -1.1794 2.198078571022502 15.829662318579555 8.15211096174496 -7 0 2
284 1 1 0.5897 8.904853115726654 15.347639950373022 6.991241821855599 6 0 -1
561 1 1 0.5897 8.74315718639355 12.915691499952025 6.617337258494207 2 1 2
621 1 1 0.5897 7.4867637195043315 12.17502489016534 10.979132882012657 4 -2 4
434 1 1 0.5897 4.295116250268874 16.38201717082174 10.378978489419303 3 3 -3
28 1 2 -1.1794 8.492646491896444 15.686268784135454 10.049478060617623 -8 -2 4
435 1 1 0.5897 5.006531471738342 16.47631106601618 9.046001715741369 3 3 -3
283 1 2 -1.1794 8.514550387694298 16.15072426105597 7.336100178398424 6 0 -1
30 1 1 0.5897 8.07661253425039 16.44948589668261 10.450225218507981 -8 -2 4
652 1 2 -1.1794 2.773069040126896 15.398721973985221 10.962146225299657 -1 -1 1
133 1 2 -1.1794 0.5874343304281848 13.292681304683002 6.938002555351193 3 -4 -4
64 1 2 -1.1794 8.526427816804643 15.740104041040679 13.520157754931475 4 -2 -5
388 1 2 -1.1794 1.841002371292669 15.644591091239594 14.1743694528903 3 5 4
329 1 1 0.5897 0.7190373561701258 13.400611451336252 12.484300375740945 4 5 2
415 1 2 -1.1794 4.504122253510925 16.130754886074804 14.11225408272164 0 -1 -1
417 1 1 0.5897 3.579441344544733 15.92018040074595 14.241948972085927 0 -1 -1
59 1 1 0.5897 4.895010707369026 12.421401957702686 15.607401147173462 7 -2 -1
390 1 1 0.5897 1.7130225533797234 16.58953238398894 14.091291758794984 3 5 4
757 1 2 -1.1794 7.276845075924992 14.784924084481178 15.844976987856576 -1 2 -1
65 1 1 0.5897 7.915853725904147 16.045330027037686 12.849173898637465 4 -2 -5
732 1 1 0.5897 5.763783653173913 13.3168677605686 13.243121509713811 0 2 -6
389 1 1 0.5897 2.00829979495329 15.506115251181747 15.106580585645059 3 5 3
416 1 1 0.5897 4.846854918557111 16.261090692981526 14.996422053133433 0 -1 -1
759 1 1 0.5897 7.464934140301749 14.947930515170837 14.92072755596959 -1 2 -1
730 1 2 -1.1794 5.461947433435875 13.964672237334838 12.606391459756711 0 2 -6
731 1 1 0.5897 4.984913062973803 14.60989576240332 13.128222170606938 0 2 -6
742 1 2 -1.1794 3.459076602071304 12.394112068537504 11.582070775795968 -3 0 2
60 1 1 0.5897 5.904644859583328 13.509913882878779 15.90332920294222 7 -2 -1
750 1 1 0.5897 8.343730707935899 11.907780111554226 15.254882141716926 4 5 0
743 1 1 0.5897 4.105866371434814 13.078434484915185 11.753958027471938 -3 0 2
58 1 2 -1.1794 5.0322174699202264 13.200248827724804 16.1466213087799 7 -2 -1
758 1 1 0.5897 6.688961797714536 15.496194058553028 16.09932050251566 -1 2 -1
279 1 1 0.5897 1.0899710698237464 12.253318307825522 14.896381255406704 -1 2 1
136 1 2 -1.1794 6.828843045274439 11.906516759318025 13.932963305867148 7 -6 2
654 1 1 0.5897 2.178394683915089 16.105560998320748 11.213003044934354 -1 -1 1
66 1 1 0.5897 8.881228465953193 14.92372320490973 13.168273703965156 4 -2 -5
330 1 1 0.5897 1.4369042816280078 14.1840943141925 11.40605733832185 4 5 2
328 1 2 -1.1794 0.9509988709080385 13.373182705910347 11.556060422511555 4 5 2
744 1 1 0.5897 2.624940126580522 12.860482738068873 11.527770718735662 -3 0 2
137 1 1 0.5897 7.332666991023367 11.861261459170848 13.120370734795342 7 -6 2
752 1 1 0.5897 3.4665425774263467 14.521509638441541 16.421662596286424 3 0 -1
558 1 1 0.5897 3.2440331951288095 16.041780321991116 20.065864732792555 5 -1 0
81 1 1 0.5897 8.895899746919035 14.986964497761495 16.75257469285833 1 -1 -4
469 1 2 -1.1794 4.798247183909891 16.248697101631578 19.121967731412738 1 -7 0
239 1 1 0.5897 4.9437079628587055 12.3591358526599 17.817372227264038 -8 -4 0
823 1 2 -1.1794 1.1208888174713332 13.067993269763777 17.68968926434139 1 4 1
96 1 1 0.5897 7.955880801894153 13.189225881195279 18.555858508679336 -2 2 0
240 1 1 0.5897 5.582221159183574 12.66749909922056 19.154908507889672 -8 -4 0
557 1 1 0.5897 2.710558509736467 15.613107268445539 21.41620842437679 5 -1 0
490 1 2 -1.1794 6.880195282050626 14.171329879017046 19.873323220213813 1 1 3
824 1 1 0.5897 1.6970081908280379 12.744356488354548 18.38217204387496 1 4 1
580 1 2 -1.1794 5.598284740537571 16.82081182690694 16.533363214938852 -3 -4 2
491 1 1 0.5897 6.566827372681 14.04093481286963 20.768327183367518 1 1 3
492 1 1 0.5897 7.60458637208816 14.79087809333648 19.960590101844367 1 1 3
581 1 1 0.5897 5.222413266122542 16.550440734191632 17.37110563580829 -3 -4 2
753 1 1 0.5897 2.1975450583476634 14.389380962413517 17.23649455914793 3 0 -1
94 1 2 -1.1794 8.5797514469655 12.47859158744748 18.407582008606084 -2 2 0
286 1 2 -1.1794 2.4158292908073804 11.998641419886113 19.80140732086508 2 1 3
556 1 2 -1.1794 2.432308315489775 15.950695156848047 20.56485745989832 5 -1 0
471 1 1 0.5897 5.183677359683544 16.872217584483955 19.73748241983529 1 -7 0
751 1 2 -1.1794 2.6887451107378513 15.007585121155795 16.695435923790193 3 0 -1
736 1 2 -1.1794 9.014879029365218 15.755919728186772 19.747854000506003 5 -1 1
75 1 1 0.5897 1.8049029724884456 12.531228619301604 21.391948077184942 3 0 2
470 1 1 0.5897 5.3629527823322505 15.477731900209848 19.176137485303578 1 -7 0
825 1 1 0.5897 1.3641378067481307 12.557797496617482 16.91718563370739 1 4 1
238 1 2 -1.1794 4.891430301156936 12.144118500499799 18.748624761494604 -8 -4 0
288 1 1 0.5897 3.3065851306744105 12.003318801642301 19.451091397109828 2 1 3
843 1 1 0.5897 0.5788949977776738 15.756763800890388 20.59051952463639 -2 0 -1
458 1 1 0.5897 2.8789073413442625 18.36720620578142 5.069395827950831 2 -2 -1
690 1 1 0.5897 0.9304218085122571 17.21500455514271 4.76489183542085 3 -2 4
797 1 1 0.5897 8.147637569903566 21.53295974465498 5.315628323045325 -2 -4 -1
512 1 1 0.5897 8.92029227564028 19.476597949600567 4.228657310535953 -3 2 -4
724 1 2 -1.1794 4.96452017064842 17.98238157209805 2.992764762851008 -3 -3 3
457 1 2 -1.1794 2.3853999193790143 18.315830200422127 4.2508382077958595 2 -2 -1
677 1 1 0.5897 4.414529669598446 20.999682849536136 4.164078521530806 6 -2 -4
647 1 1 0.5897 3.51876221636383 20.724944814629907 1.6906500393253354 -5 -2 1
422 1 1 0.5897 7.988146329722278 21.65826150478209 3.001666491381226 -2 0 4
726 1 1 0.5897 5.715709945514834 18.431684781846513 3.380107439629473 -3 -3 3
437 1 1 0.5897 7.1420453175338965 18.604507659972754 5.3103260339379235 -2 5 0
459 1 1 0.5897 3.0497254190057697 18.16041318745556 3.5794818905398667 2 -2 -1
141 1 1 0.5897 0.6158438721815823 18.775409522748397 3.17410501858398 -2 -1 0
646 1 2 -1.1794 3.773541593220668 21.28225468061202 2.4259610960353486 -5 -2 1
567 1 1 0.5897 6.280996569673739 17.06148490385381 0.8272804536030338 -1 6 -5
129 1 1 0.5897 2.1141175220647552 21.624306302784788 3.517908196957743 1 0 -4
127 1 2 -1.1794 1.3055102146492916 22.00884371819791 3.8562590892327555 1 0 -4
725 1 1 0.5897 5.128631756006652 18.00941504305701 2.050145971375753 -3 -3 3
436 1 2 -1.1794 7.038022700135899 19.028346312471186 4.458431851997042 -2 5 0
438 1 1 0.5897 6.6446546960884065 19.87753369270915 4.659320886119148 -2 5 0
676 1 2 -1.1794 4.914910643703205 20.892119097933865 4.972939901279892 6 -2 -4
307 1 2 -1.1794 6.703006417517043 20.6100417577599 1.7187876323465927 -1 5 -3
309 1 1 0.5897 6.755126641772073 19.718941036284143 1.3732422189112203 -1 5 -3
308 1 1 0.5897 5.767573311609911 20.760205107263126 1.8552008274234142 -1 5 -3
678 1 1 0.5897 4.408244970543463 20.26322464714916 5.486719492158129 6 -2 -4
617 1 1 0.5897 0.4087208173190362 21.222576584781862 5.352635099570493 -3 2 -1
184 1 2 -1.1794 3.225265071665914 19.637775937841063 0.5262663957564158 -2 7 3
21 1 1 0.5897 1.697277300202654 20.015964214454335 8.468769130786544 -4 -5 0
305 1 1 0.5897 7.020723244408385 17.62167952878074 7.59324634484059 6 0 -7
682 1 2 -1.1794 2.523310532946257 18.520933561286192 8.920717631176943 4 1 -4
544 1 2 -1.1794 3.879941683290654 18.812593849161594 6.4776206911427785 -4 3 5
684 1 1 0.5897 3.246405456561787 18.2685972026849 9.494860735377806 4 1 -4
545 1 1 0.5897 3.4135480311811555 18.874345976287366 7.311206193204692 -4 3 5
304 1 2 -1.1794 6.485516399602223 18.230982784184512 7.08481498626906 6 0 -7
203 1 1 0.5897 3.1406995850364097 21.536029999879382 8.627668778551916 -5 3 0
455 1 1 0.5897 5.6555004229197126 19.41595754161213 9.800820454243869 1 -1 2
19 1 2 -1.1794 1.3911972147418972 20.891836485458313 8.233483728172045 -4 -5 0
456 1 1 0.5897 6.302535741797843 20.598758233296984 9.11227093362523 1 -1 2
454 1 2 -1.1794 6.427745703900125 19.667407982058776 9.29425084652553 1 -1 2
546 1 1 0.5897 4.757640053896543 18.513652995400257 6.715275117135209 -4 3 5
683 1 1 0.5897 2.1309682001133554 17.69090789325967 8.649968114088354 4 1 -4
306 1 1 0.5897 6.686166404466825 19.09143075974975 7.4529887659452125 6 0 -7
798 1 1 0.5897 8.808836438834478 20.90277038187574 6.5228885276449855 -2 -4 -1
714 1 1 0.5897 7.880518488800104 19.940357089130444 10.321397398109301 -8 -3 3
20 1 1 0.5897 0.7861085985386874 21.131212244398746 8.935448081915291 -4 -5 -1
710 1 1 0.5897 0.5150232854072707 17.42907364412911 10.361804953313364 -5 -7 -2
796 1 2 -1.1794 7.957100803826792 21.17834471218709 6.18407764574061 -2 -4 -1
433 1 2 -1.1794 4.791636002568016 16.98620268149211 9.827037090189018 3 3 -3
618 1 1 0.5897 0.37536727696754646 20.962676499439688 6.843647955679697 -3 2 -1
638 1 1 0.5897 7.207944854471599 22.063237437735836 7.896449417810405 -8 2 3
202 1 2 -1.1794 3.9047439651404265 22.045715575866637 8.897178392806426 -5 3 0
712 1 2 -1.1794 8.432836003078798 20.05356891258767 11.094901394857283 -8 -3 3
365 1 1 0.5897 1.6902724361805141 19.379937686627706 11.23590469170483 4 5 6
47 1 1 0.5897 4.931542816469281 20.591700351952028 11.513646222597732 3 -2 1
786 1 1 0.5897 7.499673779593736 18.40854883442249 11.842195779195443 6 6 3