LAMMPS (30 Jul 2021)
  using 1 OpenMP thread(s) per MPI task
package omp 0
using multi-threaded neighbor list subroutines
echo both

include		in.partitions
variable        pid world 0
include		in.temp
variable        temperature equal 247.61
variable	tempDamp equal 100.0
include		in.pressure
variable        pressure equal 5000.0
variable        pressureDamp equal 1000.0 # This is 1 ps
include		in.seed
variable        seed world 745823

units		real
atom_style	full
read_restart    restart.lmp.${pid}
read_restart    restart.lmp.0
Reading restart file ...
  restart file = 30 Jul 2021, LAMMPS = 30 Jul 2021
  restoring atom style full from restart
  triclinic box = (-3.3349757 0.0030111744 -0.20448906) to (14.944975 22.576988 19.434487) with tilt (-0.15119579 -7.0654172 0.062932429)
  4 by 4 by 4 MPI processor grid
  restoring pair style lj/cut/tip4p/long/omp from restart
  restoring bond style harmonic/omp from restart
  restoring angle style harmonic/omp from restart
  1008 atoms
  672 bonds
  336 angles
Finding 1-2 1-3 1-4 neighbors ...
  special bond factors lj:    0        0        0       
  special bond factors coul:  0        0        0       
     2 = max # of 1-2 neighbors
     1 = max # of 1-3 neighbors
     1 = max # of 1-4 neighbors
     2 = max # of special neighbors
  special bonds CPU = 1.194 seconds
  read_restart CPU = 1.482 seconds

include 	in.setup
variable	out_freq equal 1000
variable	out_freq2 equal 10000
variable	out_freq3 equal 1000

timestep	2.0

neigh_modify    delay 7 every 1

include		in.tip4p
# This is TIP4P/Ice

# create groups ###
group ox type 2
336 atoms in group ox
group hy type 1
672 atoms in group hy

# set charges - beside manually ###
set group ox charge -1.1794
Setting atom values ...
  336 settings made for charge
set group hy charge 0.5897
Setting atom values ...
  672 settings made for charge

# ### TIP3P Potential Parameters ###
pair_style lj/cut/tip4p/long/omp 2 1 1 1 0.1577 8.5
pair_coeff 1 1*2 0.000 0.000
pair_coeff 2 2 0.21084 3.1668
bond_style  harmonic
bond_coeff  1 450 0.9572
angle_style harmonic
angle_coeff 1 55 104.52
kspace_style pppm/tip4p/omp 1.0e-5
pair_modify tail yes

thermo          ${out_freq}
thermo          1000
thermo_style    custom step temp pe etotal epair emol press lx ly lz vol pxx pyy pzz pxy pxz pyz enthalpy

restart 	${out_freq3} restart.lmp.${pid} restart2.lmp.${pid}
restart 	1000 restart.lmp.${pid} restart2.lmp.${pid}
restart 	1000 restart.lmp.0 restart2.lmp.${pid}
restart 	1000 restart.lmp.0 restart2.lmp.0


include         in.dump
dump            myDump all atom ${out_freq2} dump.water.${pid}
dump            myDump all atom 10000 dump.water.${pid}
dump            myDump all atom 10000 dump.water.0
dump            myDump2 all dcd ${out_freq2} dump.dcd
dump            myDump2 all dcd 10000 dump.dcd
dump_modify     myDump append yes
dump_modify     myDump2 append yes


variable natoms 	equal  "count(all)"                        # NUMBER ATOMS
variable H      	equal  "enthalpy/v_natoms"                 # ENTHALPY-per-atom
variable Vol      	equal  "vol/v_natoms"                 # volume-per-atom
fix AVG all 		ave/time ${out_freq} 1 ${out_freq} v_Vol v_H file vol_enthalpy.dat
fix AVG all 		ave/time 1000 1 ${out_freq} v_Vol v_H file vol_enthalpy.dat
fix AVG all 		ave/time 1000 1 1000 v_Vol v_H file vol_enthalpy.dat



fix 		1 all shake 1e-6 200 0 b 1 a 1
       0 = # of size 2 clusters
       0 = # of size 3 clusters
       0 = # of size 4 clusters
     336 = # of frozen angles
  find clusters CPU = 0.081 seconds
fix             2 all nph tri ${pressure} ${pressure} ${pressureDamp}
fix             2 all nph tri 5000 ${pressure} ${pressureDamp}
fix             2 all nph tri 5000 5000 ${pressureDamp}
fix             2 all nph tri 5000 5000 1000
fix             3 all temp/csvr ${temperature} ${temperature} ${tempDamp} ${seed}
fix             3 all temp/csvr 247.61 ${temperature} ${tempDamp} ${seed}
fix             3 all temp/csvr 247.61 247.61 ${tempDamp} ${seed}
fix             3 all temp/csvr 247.61 247.61 100 ${seed}
fix             3 all temp/csvr 247.61 247.61 100 745823


run             250000
PPPM initialization ...
  extracting TIP4P info from pair style
  using 12-bit tables for long-range coulomb (../kspace.cpp:340)
  G vector (1/distance) = 0.37918174
  grid = 24 27 36
  stencil order = 5
  estimated absolute RMS force accuracy = 0.0024341888
  estimated relative force accuracy = 7.3304873e-06
  using double precision FFTW3
  3d grid and FFT values/proc = 4050 480
Last active /omp style is kspace_style pppm/tip4p/omp
Neighbor list info ...
  update every 1 steps, delay 7 steps, check yes
  max neighbors/atom: 2000, page size: 100000
  master list distance cutoff = 10.8154
  ghost atom cutoff = 10.8154
  binsize = 5.4077, bins = 5 5 4
  1 neighbor lists, perpetual/occasional/extra = 1 0 0
  (1) pair lj/cut/tip4p/long/omp, perpetual
      attributes: half, newton on, omp
      pair build: half/bin/newton/tri/omp
      stencil: half/bin/3d/tri
      bin: standard
Per MPI rank memory allocation (min/avg/max) = 9.328 | 9.338 | 9.354 Mbytes
Step Temp PotEng TotEng E_pair E_mol Press Lx Ly Lz Volume Pxx Pyy Pzz Pxy Pxz Pyz Enthalpy 
 8000000    243.68987   -4810.4982   -4323.0884   -4810.4982            0    3915.0669     18.27995    22.573977    19.638976    8104.0466    2925.8898    4821.8122    3997.4986    -448.9679     1262.404    305.45038   -3860.3697 
 8001000     246.6773   -4852.7591    -4359.374   -4852.7591            0    4885.8442    18.450952    22.486265    19.451776    8070.4058     3488.419    5720.8226    5448.2911   -2254.4944    775.70912   -875.88334   -3784.3171 
 8002000    256.36079   -4858.8036   -4346.0503   -4858.8036            0    4574.8654    18.398543    22.647247    19.388077    8078.5531    3734.9325    4270.6566    5719.0072    35.976868   -1282.5038    731.28346   -3807.0515 
 8003000    252.73076   -4867.7866   -4362.2939   -4867.7866            0    3460.2856    18.246022    22.687062    19.563831    8098.4213    3459.5867    3801.1624    3120.1076    236.51468   -1398.2454      770.232   -3953.6093 
 8004000    241.88475    -4875.855   -4392.0556    -4875.855            0    4021.2314     18.24743    22.765109    19.412652    8064.1075     4873.922    3549.4247    3640.3476    557.05998   -2083.2268   -708.36746   -3919.1317 
 8005000    235.28145   -4825.0118   -4354.4198   -4825.0118            0    5686.6646    17.975519      22.9472    19.480538    8035.4848    5045.3391    5411.0382    6603.6167    376.45147   -319.13181   -1445.5031   -3688.0036 
 8006000    239.05165   -4815.0178    -4336.885   -4815.0178            0    6015.0893    18.123151    23.047302    19.227275    8031.0355    4655.1955    6605.3875    6784.6851   -1085.5991    937.20311    572.85318   -3632.3711 
 8007000    255.10248   -4867.1359   -4356.8994   -4867.1359            0    5723.5231    18.021937    22.958524    19.386832    8021.4389     5945.976    5829.5009    5395.0924   -586.92031   -265.74554    209.83763   -3687.3362 
 8008000    250.82801   -4849.8324   -4348.1454   -4849.8324            0    5840.5431    18.082216    22.850111    19.360503     7999.385    7004.0389     5237.409    5280.1814   -701.29843    66.084111   -736.67195   -3666.7711 
 8009000    249.07259   -4819.5839   -4321.4079   -4819.5839            0      5822.77    18.203711    22.813554    19.418528    8064.3466    7395.1479    5701.1011    4372.0609    576.05659    -478.9936    964.26157   -3636.5906 
 8010000    244.25515   -4828.6851   -4340.1447   -4828.6851            0    3363.2719    18.204676     22.86492     19.52382    8126.7601    3183.5564    3509.2678    3396.9915   -1442.1872   -101.72297   -977.83454   -3941.5281 
 8011000    241.03117   -4836.2021     -4354.11   -4836.2021            0    6374.3053    17.974921    22.837707    19.557776    8028.5837    8210.5407    6277.0362     4635.339    454.17731    477.88209    2402.6195   -3607.7511 
 8012000    250.35256   -4797.3448   -4296.6088   -4797.3448            0    4593.2491    18.192731    22.964406    19.309102    8067.0581    5299.0927    3187.9201    5292.7345    12.649534   -760.28193   -977.75014   -3756.2141 
 8013000    260.57738   -4834.4395   -4313.2525   -4834.4395            0    5161.6269    17.961441    22.850795     19.63891    8060.4609    5649.7328    5215.8125    4619.3354   -652.50272     626.3519   -210.45699   -3706.4849 
 8014000    244.34896   -4848.6176   -4359.8894   -4848.6176            0    4669.5537    18.092795    23.085033    19.354766     8083.959    6515.9012    4274.0972    3218.6626   -1554.9978   -526.82675     645.9654   -3809.3666 
 8015000    254.07281   -4853.5455   -4345.3685   -4853.5455            0    6079.4007    18.112902    22.893797    19.348244    8023.1964    6765.2298    4937.3678    6535.6046   -1077.7029   -1340.3378   -738.04754   -3634.0173 
 8016000    239.97289   -4823.1369   -4343.1615   -4823.1369            0    6179.5653    18.054087    22.782097    19.545301    8039.1774     4700.658    7449.1578    6388.8801   -51.010694   -437.86432    749.84105   -3618.6497 
 8017000    249.25461   -4848.7099   -4350.1699   -4848.7099            0    5371.9298    18.236259    22.839245    19.345921    8057.6222     4094.412    6089.6773       5931.7    186.34143   -863.15833    799.94988   -3718.9028 
 8018000    250.27114    -4877.845   -4377.2718    -4877.845            0    3677.0866    18.151556    22.917814    19.527744    8123.4238    3177.0151    3386.6058    4467.6389   -295.82612   -981.23903   -1905.5566   -3941.6407 
 8019000     243.4853   -4841.7821   -4354.7814   -4841.7821            0    4721.0394    18.064487    22.685739    19.651442     8053.284    2708.5802    5956.7048    5497.8331    384.19973   -727.03785    -303.6493   -3800.3006 
 8020000    254.83404   -4864.4325   -4354.7329   -4864.4325            0     4713.356    18.156335    22.818053    19.341595    8013.0721    4569.6708    5875.2481     3695.149   -1171.9023    5.8709706   -336.38002   -3803.9187 
 8021000    249.63248   -4872.6761   -4373.3803   -4872.6761            0    4698.3202    18.032481    22.887399    19.527176    8059.1893    6086.0154      4367.22    3641.7253    1125.1698   -1160.2778   -122.55839   -3821.1632 
 8022000    247.50759   -4848.5588    -4353.513   -4848.5588            0    4132.8164    18.133287    23.037671    19.395998    8102.6531    2938.0975    5506.5439    3953.8078    998.40073    604.08082    635.06226   -3865.1427 
 8023000    240.18196   -4868.8268   -4388.4332   -4868.8268            0    3649.2835    18.257979    23.112113     19.18044    8093.7711    1118.1311    3636.7085    6193.0109    894.07512     567.0516   -879.04039   -3957.6741 
 8024000    262.94321   -4835.5244   -4309.6055   -4835.5244            0    6395.3863    18.000135    22.941698    19.427131     8022.505    7576.3558    5676.0321     5933.771    300.71977    390.98858    -1106.209   -3561.3453 
 8025000    249.07231   -4821.0944   -4322.9191   -4821.0944            0    4717.3752    17.993215    23.248321    19.263121    8057.9958    6343.6859    3666.7493    4141.6903   -1844.2813     1254.696   -274.92012   -3768.5444 
 8026000    248.08547   -4829.9437   -4333.7421   -4829.9437            0    2713.3408    18.078412    23.243727    19.389052    8147.4675    2539.0195     2720.103       2880.9   -533.75813   -666.16337    189.79903   -4011.3363 
 8027000    252.56998   -4820.9595   -4315.7884   -4820.9595            0    4929.0893    17.910425    23.487181    19.208227    8080.2364    6124.8852    3271.4283    5390.9545   -332.70941     -809.192   -687.96204   -3734.9348 
 8028000    236.45935   -4839.9415   -4366.9936   -4839.9415            0    3639.3187    17.980981    23.070147    19.512794    8094.3728    4002.3526    3779.8087    3135.7948   -582.06251   -674.19076   -107.58326   -3937.3788 
 8029000    237.57306   -4831.9386   -4356.7631   -4831.9386            0    4682.3646    18.214129    22.833634    19.387771    8063.2725    4538.3665    4575.7877    4932.9397   -1408.1323   -644.35265   -789.17817   -3806.1425 
 8030000    252.95172   -4839.7069   -4333.7722   -4839.7069            0    4820.5115    18.203954    22.602137    19.587852    8059.3878    6137.9179    4782.1107     3541.506    451.39816   -877.73842   -1014.4207   -3767.1794 
 8031000    251.75032   -4822.8944   -4319.3627   -4822.8944            0    4790.8953     18.18865    22.725775    19.516387    8067.1218    4625.0821     5539.161    4208.4429    441.22933    217.12448    191.67966   -3755.7105 
 8032000    249.26207    -4837.414    -4338.859    -4837.414            0    4894.9566    18.410479    22.735562    19.276109    8068.4508    3084.7603    5640.1411    5959.9684    415.62716    447.63507   -53.491028   -3762.8691 
 8033000    244.46265   -4835.2619   -4346.3064   -4835.2619            0    5758.4946    18.162816     22.66053    19.490067     8021.703    5908.6555    6375.6479    4991.1803    526.99096    7.2483451    548.75026   -3672.6299 
 8034000     231.7729   -4851.2225   -4387.6481   -4851.2225            0    4385.9626    18.194358    22.950984    19.393519    8098.3152     5225.561    2693.7468    5238.5802     2293.304   -513.44937    1376.3352   -3869.6412 
 8035000    247.01088   -4876.6302   -4382.5779   -4876.6302            0    5079.8849    18.000088    22.960269    19.347665    7996.1357    4614.3078    5971.5236    4653.8233    367.38076    440.84941   -1039.0777   -3790.1849 
 8036000    245.48944   -4872.3747   -4381.3655   -4872.3747            0     5076.476    17.978267    23.095207    19.394684    8052.9018    4648.2165     4814.778    5766.4334   -2483.1171    305.10362   -2661.2947   -3785.1673 
 8037000    244.58103   -4835.3296   -4346.1373   -4835.3296            0    5449.5932    17.971197    23.092738    19.359333    8034.2038    7015.7546    4223.3536    5109.6715       403.89   -1392.3384    2557.9386   -3707.6051 
 8038000    250.71043   -4854.9006   -4353.4488   -4854.9006            0    5138.3488     18.11582    23.064547    19.273615     8053.156    3885.0591    4854.8554    6675.1318   -910.19369    271.29523    570.01397   -3749.9651 
 8039000    244.88906   -4847.8174   -4358.0091   -4847.8174            0    3414.2871     18.10354    22.972661    19.479902    8101.4277    3602.2329    3217.7728    3422.8556   -72.251336    823.17661    312.55946   -3954.6076 
 8040000    258.99336   -4863.6093   -4345.5905   -4863.6093            0    5144.7385    18.259493    22.911038    19.268467    8060.8462    5175.3964    5407.9191    4850.9001   -306.80702    837.72591   -980.76897   -3740.7793 
 8041000    236.09532   -4815.0442   -4342.8244   -4815.0442            0    4636.0471    18.208306     22.81963    19.509243    8106.2231    5297.1267    4489.4811    4121.5335    1247.9077    451.38196    190.73651   -3794.7465 
 8042000    257.84076   -4857.9134   -4342.2001   -4857.9134            0    6456.5778     18.27513    22.510111    19.407441      7983.74    6409.5212    7723.4447    5236.7675   -404.11657   -344.35146   -1428.5131   -3590.4306 
 8043000     243.2996   -4813.3227   -4326.6934   -4813.3227            0    6060.5832    18.185487     22.77216    19.364667    8019.3505    6965.2519    5965.5459    5250.9516   -1356.1462   -400.11086   -1186.9837    -3617.884 
 8044000    253.03164   -4880.2731   -4374.1785   -4880.2731            0    6234.7455    17.984353    22.867709    19.480281    8011.4789    7982.9544    5337.5692    5383.7129    269.62968   -1141.6339    1417.2683   -3645.7158 
 8045000    245.52549   -4872.7771   -4381.6957   -4872.7771            0    5390.7646     18.15842    22.959017    19.366171     8073.747    6122.3115    4851.3113    5198.6711   -168.48441    256.87266    217.87787   -3746.9477 
 8046000    249.00799    -4871.327   -4373.2803    -4871.327            0    5094.7911    18.034961    22.958534    19.447398    8052.3172     4724.489    4949.4279    5610.4564     131.4929     653.4245    100.56329   -3774.9746 
 8047000    254.65125   -4860.2706   -4350.9366   -4860.2706            0    6117.5828    18.082581    23.011433    19.296506    8029.3939    7235.2786    5355.2272    5762.2427    1108.5198    127.58051    1027.6551   -3634.5648 
 8048000    235.72043     -4847.11     -4375.64     -4847.11            0    5751.4032    18.029609    23.060761    19.370222    8053.6834    3749.4144    6698.2505    6806.5447   -467.18343    909.34513   -694.23151   -3700.1106 
 8049000    254.95091   -4837.5229   -4327.5895   -4837.5229            0    6353.7952     17.87668    23.109167    19.356243    7996.3582    4947.1796    6565.6527    7548.5533    48.493794   -372.92167    324.28186   -3586.6183 
 8050000    238.54595    -4850.027   -4372.9056    -4850.027            0    4661.5904    17.968431    23.227888     19.24668    8032.9622    6605.6847    3423.0058    3956.0807   -563.02322   -51.140453    -20.17969   -3826.7886 
 8051000    261.57923   -4810.9575   -4287.7667   -4810.9575            0    2574.3758    17.968588    23.312541    19.579729    8201.8199     2626.209     2481.484    2615.4344    1002.0994   -512.26907    439.11891   -3979.8324 
 8052000    240.62084   -4857.5235   -4376.2521   -4857.5235            0    5666.6218    18.097315    22.925964    19.410977    8053.5832    6367.1315    5815.0667    4817.6671    554.33808    327.35097    421.33142    -3710.689 
 8053000    247.76834   -4881.2755   -4385.7082   -4881.2755            0    6179.9493    18.187232    22.816024    19.274333     7998.083    7203.0767    5871.2852    5465.4859   -790.05704   -233.13408   -866.28024   -3664.8552 
 8054000    254.75879   -4830.1434   -4320.5943   -4830.1434            0    4338.8066    18.045817    22.927178    19.575527    8099.1719    6118.9259    4991.6231    1905.8708    636.42903     375.5848    482.06209   -3808.1027 
 8055000    249.88447    -4831.239   -4331.4392    -4831.239            0    5254.4902    18.105669    23.037695    19.276834    8040.6158    5639.9087    5631.5827    4491.9793   -737.18852    -45.51743   -393.85484    -3715.276 
 8056000    259.73674   -4830.6376    -4311.132   -4830.6376            0     4851.818    18.012922    23.158026    19.392052    8089.2724    6102.6001    3692.0687    4760.7851   -901.02211    78.040634   -1351.1772   -3738.7449 
 8057000    243.19928   -4867.4846    -4381.056   -4867.4846            0    4719.3651    18.054193    23.007893    19.363926    8043.5609    5431.9553     3927.457    4798.6831    705.34092    331.84803   -760.46406   -3827.4411 
 8058000    250.18741   -4853.9223   -4353.5166   -4853.9223            0    3555.4545    18.370073    22.974029    19.252088    8125.0471    3081.3219    2499.6821    5085.3595   -1367.6418    188.18545   -1293.8182   -3932.2113 
 8059000    249.25428   -4852.8922   -4354.3528   -4852.8922            0    5433.8774    18.098308    22.694455    19.566332    8036.5041    4733.5327    6258.5994    5309.5001    877.12021    173.52473   -77.131662   -3717.4797 
 8060000    237.82159   -4832.3719   -4356.6993   -4832.3719            0    4543.6712    18.111121    22.984122    19.376667    8065.8907    4426.8505    5535.4351    3668.7279   -554.54665    343.90741    -1435.922   -3822.2148 
 8061000    252.56451   -4833.2207   -4328.0605   -4833.2207            0    4006.5183     18.05437    22.997512    19.393746     8052.392    2594.8523    4871.9566    4552.7461    793.65644    31.038001    480.76702   -3857.5515 
 8062000     266.2185   -4829.1681   -4296.6983   -4829.1681            0     5335.501    18.029198    23.049469    19.345737    8039.3809    6862.7435    4910.8203    4232.9393   -1646.7275    140.27582    264.24512   -3671.1314 
 8063000    248.46569   -4824.3268   -4327.3648   -4824.3268            0    3622.8931    17.997616     23.12794    19.505958    8119.3118    3365.2214    3703.2099    3800.2479     525.7514    922.44074    1158.0899   -3898.3714 
 8064000     248.4554   -4855.8094   -4358.8679   -4855.8094            0    4220.8822    18.153906    23.043001    19.294237    8071.1747    5083.5442    4097.2233    3481.8791    154.36406   -570.00039    2897.3474   -3862.0287 
 8065000    241.62903   -4853.6103   -4370.3224   -4853.6103            0    5721.5077    17.874835    22.866357    19.624667    8021.2364    7817.9783    5673.1347    3673.4102   -1652.3752    616.96441    171.02054   -3701.0118 
 8066000    259.15237   -4837.7912   -4319.4544   -4837.7912            0    5030.3363    18.286991     22.96408    19.215205    8069.3083    3939.8841    4235.5399    6915.5848   -1557.1635   -240.79361   -124.98903   -3727.4714 
 8067000    249.24224    -4870.663   -4372.1478    -4870.663            0    4359.1984    18.072164     23.08071    19.338974    8066.6415    3778.3212    4753.5031    4545.7709   -104.15276    1357.7645    49.554402   -3859.3156 
 8068000    253.19225   -4849.0901   -4342.6743   -4849.0901            0    6243.0422    17.955651    22.977187     19.31847    7970.2281     4884.156    6038.2907      7806.68   -800.34465   -349.11944    553.34409   -3616.9981 
 8069000    247.40353   -4878.4853   -4383.6477   -4878.4853            0    4982.9525    18.175959    22.885008    19.344742      8046.58    3947.1395     5180.687    5821.0311    1026.3206   -70.919909    855.58449   -3798.8927 
 8070000    248.55082   -4840.5494   -4343.4171   -4840.5494            0    4728.2281    18.064904    22.806759    19.631907     8088.383     6097.002    4719.4679    3368.2143    845.44699    -1262.369   -349.52189   -3785.6716 
 8071000    247.19248   -4843.4619   -4349.0464   -4843.4619            0    5353.8515    18.247091    22.636523    19.463211    8039.2925    4004.3635    7120.0309    4937.1601    190.99748   -347.71321    2742.3037   -3721.3349 
 8072000      258.056   -4818.8962   -4302.7523   -4818.8962            0    5073.8239    18.154932     22.92805    19.450173    8096.2746    5469.2977    4893.6426    4858.5314    156.87362    377.22252   -613.51368   -3703.6562 
 8073000    232.56659   -4860.0692   -4394.9073   -4860.0692            0    5286.7114     18.17221    22.928362    19.325202    8052.0198     4228.791    6048.7001    5582.6432    974.97605     724.4676   -966.29521   -3774.0864 
 8074000     237.1084   -4861.5808   -4387.3347   -4861.5808            0    4701.9995    18.111366    22.938734    19.316564    8025.1017    4015.6642    4568.5038    5521.8306    1624.3105    244.76023   -990.72612   -3837.0227 
 8075000    245.41168   -4849.0047    -4358.151   -4849.0047            0    6119.7376    18.031548    22.901104    19.482353    8045.0891    9075.0648    5565.5853    3718.5626    10.747132   -335.57258    -1323.714    -3640.126 
 8076000    261.22972   -4869.4091   -4346.9174   -4869.4091            0    3399.4618     18.17646    22.974458    19.404554    8103.2314    3652.9705      3142.72    3402.6948   -328.56345    386.83059    132.15322   -3945.1781 
 8077000    244.05216   -4879.3503   -4391.2159   -4879.3503            0    6132.1615    17.978128    23.021931    19.307161    7991.0643    4694.0499     6836.586    6865.8486    836.98674    96.784973    785.81536   -3676.5647 
 8078000    251.19746   -4808.8132   -4306.3873   -4808.8132            0    5628.4247    18.030469    22.878102    19.535805    8058.5764    6239.1075    4802.9528    5843.2137    809.54225   -953.84922    936.39779   -3644.9007 
 8079000    242.70363    -4853.544   -4368.1067    -4853.544            0    6182.8237    18.237204    22.811838    19.319444    8037.3554    6587.7081    6628.0726    5332.6904    606.52871    812.35419    383.91819   -3643.3773 
 8080000    261.03689   -4840.0764   -4317.9704   -4840.0764            0    4537.4641    18.063871    22.928923    19.527834    8088.1379    5260.1545     4144.205    4208.0328    875.05799    723.40608   -4.7668489   -3782.7439 
 8081000     247.7014   -4841.7252   -4346.2918   -4841.7252            0    4557.4219    18.219271     23.00777    19.263729    8075.0619    3976.8992      3902.31    5793.0564    -1032.479    575.43511   -243.96515   -3809.5802 
 8082000    240.83141   -4863.8568   -4382.1642   -4863.8568            0    4063.2282    18.038228    23.048361    19.441285    8082.7453    3247.1768    4375.9403    4566.5673    8.6021795   -438.33553   -1326.6369   -3903.1968 
 8083000     245.8384   -4821.3781   -4329.6709   -4821.3781            0    4619.6059    18.128287    23.036936     19.35818    8084.3664    5322.1244    3924.1534    4612.5399   -32.066037   -593.89248    480.52424   -3785.0093 
 8084000    259.68052   -4834.9501    -4315.557   -4834.9501            0    4589.7043    18.080589    22.897697    19.508359     8076.536    5000.7113    4971.9216    3796.4801   -688.68497   -853.45437    114.29963   -3774.9449 
 8085000    247.81153   -4857.1849   -4361.5312   -4857.1849            0    5497.2733    18.214547    22.796619    19.427932     8067.062    6718.5887    4590.6842    5182.5469   -38.498945   -1374.7147    876.55423   -3714.7779 
 8086000    247.52362   -4856.3933   -4361.3155   -4856.3933            0    5253.0354    18.169394    22.618802    19.568332    8041.9959    5271.0086    5543.3586    4944.7391   -473.64945   -1147.8801   -101.15084   -3745.2171 
 8087000    244.43755   -4855.1777   -4366.2724   -4855.1777            0    4698.0453    18.153158    22.730144    19.594018      8084.96    5400.6767    5475.7167    3217.7425   -1482.0531    754.54693    -2488.646   -3812.3219 
 8088000    255.23306   -4861.1437   -4350.6461   -4861.1437            0    3666.5125    18.116874    22.879529    19.523247    8092.4938    3563.7752    5016.2325    2419.5298   -744.51328    565.93949   -256.47658   -3917.9216 
 8089000    241.17782   -4879.5406   -4397.1551   -4879.5406            0    6888.4012     18.10143    22.982956    19.219285     7995.691    6523.0324    4782.6645    9359.5067   -1045.1407    1018.6171   -1389.5854   -3593.9059 
 8090000    245.16564   -4852.9383   -4362.5768   -4852.9383            0    5536.2523    17.960147    23.014559    19.480669    8052.2341    5879.3881    5141.8403    5587.5286   -733.90652    501.29346    186.78031   -3712.4349 
 8091000     253.8198   -4875.3262   -4367.6553   -4875.3262            0    4971.3315    18.138052    22.879967    19.450488    8071.9144    6157.6478    4777.2363    3979.1104    -1134.281   -38.454164     -1523.83   -3782.4272 
 8092000    239.22927   -4839.6902   -4361.2021   -4839.6902            0     5312.928    18.073167    22.902474    19.423453    8039.7607    5043.1916    4891.6784     6003.914    113.41931   -112.44364     637.7014   -3738.2524 
 8093000    256.82519   -4849.9583   -4336.2762   -4849.9583            0    3837.1874    17.979272    22.896676    19.623101     8078.155    4918.6189    3985.5713    2607.3722   -165.94433   -295.49399    1190.5114    -3884.211 
 8094000    237.83721   -4831.8936   -4356.1898   -4831.8936            0    3821.1442    18.205534    22.999558    19.340313    8098.1609    3084.4292    3582.4407    4796.5626     775.0751    411.10825   -1466.9245   -3904.8998 
 8095000    234.80463   -4864.4464   -4394.8081   -4864.4464            0    5411.1048    18.029501    22.978097    19.389904    8032.9198    4813.9678    5208.6086     6210.738     639.1161    292.32863   -747.57771   -3760.8869 
 8096000    262.48759   -4871.8165   -4346.8089   -4871.8165            0     5339.212    18.224742    22.994402    19.217163      8053.28    4985.5591    4058.8618    6973.2152    238.90772   -268.52637   -426.77848   -3719.7247 
 8097000    249.50411    -4857.975    -4358.936    -4857.975            0    4726.7284    18.023101    23.010435    19.411807     8050.453    4092.7719    5766.9771    4320.4362    1428.4071    1303.6147    903.05248   -3803.9821 
 8098000    241.98787   -4839.4188   -4355.4131   -4839.4188            0    5028.5365    18.175774    22.964188    19.391206    8093.7322    4726.6924    4898.3433    5460.5737    1435.2402   -124.70217    1748.2717   -3761.8508 
 8099000    243.88179    -4855.561   -4367.7673    -4855.561            0    4351.0285    18.156215    22.994049    19.378636    8090.2877    3967.4217    5907.5509    3178.1129    480.35568     833.1158   -175.26804   -3854.3957 
 8100000    248.01033   -4852.8752   -4356.8239   -4852.8752            0    4923.1461    18.053878    22.956153    19.376547    8030.5632    4466.6287    4904.7448    5398.0648    723.27378   -362.75894   -858.85308   -3780.2372 
 8101000     232.4293   -4865.6847   -4400.7973   -4865.6847            0    1724.2524    18.103628    23.050183     19.50432    8138.9954    4049.2248    625.33672    498.19581    989.55006   -940.74732    1025.7926   -4196.1305 
 8102000    237.90416    -4823.655   -4347.8173    -4823.655            0    6964.3377    18.240099    22.630838     19.42916    8020.1381     5223.663    8027.1304    7642.2197    330.51985    1034.1232    1177.6579   -3533.2301 
 8103000    252.82555   -4849.8513    -4344.169   -4849.8513            0    5153.1555    18.068506    22.902973    19.522674    8078.9216    6768.4031    5042.3029    3648.7603   -59.851135    760.51177    1930.2884   -3737.0098 
 8104000    253.58943   -4848.4571   -4341.2469   -4848.4571            0    4812.4625    18.096701    23.033734     19.33857    8060.9846    5862.7674    3278.2288    5296.3912   -2145.8186    524.15223   -935.78489   -3775.4881 
 8105000    246.45335   -4798.9564   -4306.0193   -4798.9564            0    5211.4376    18.057352     23.08294    19.336286    8059.6881    4130.6676      5662.05    5841.5952   -1671.2968    587.17152   -881.59622    -3693.455 
 8106000    238.36528   -4859.1726   -4382.4126   -4859.1726            0    4067.5388     18.08762    22.942241    19.476346    8082.1099    4430.3863    3624.4392    4147.7908   -1661.1561   -475.34316   -1615.6397   -3902.9748 
 8107000    255.18731   -4861.2677   -4350.8615   -4861.2677            0    4860.7333    18.231671    22.836715    19.385551    8071.2028    4058.2768    5723.4754    4800.4477   -1663.7924   -1014.1886   -1085.4363   -3778.7036 
 8108000     254.8788   -4837.3911    -4327.602   -4837.3911            0     6067.851    17.921268    22.726589    19.728649    8035.2677    7400.3825    6355.0827     4448.088    -18.73635   -85.514651    178.64497   -3616.5339 
 8109000     234.2427   -4831.0893    -4362.575   -4831.0893            0    5251.3183    18.181428    22.976186    19.244296    8039.1094    4113.2744    4918.5722    6722.1083    166.43959   -319.85891    1111.8148    -3746.899 
 8110000     249.3222   -4824.9727   -4326.2975   -4824.9727            0    5798.8495    18.045054    22.920771    19.540337    8082.0114    6013.0226    6472.4591    4911.0669    1453.9392    1128.4541    681.38794   -3642.7996 
 8111000    269.06116    -4852.621   -4314.4655    -4852.621            0    5136.3649    18.034317    22.987632    19.411746    8047.4546    4924.9893    5211.2754    5272.8299   -1488.4665    400.50841   -1677.8671   -3711.6418 
 8112000    250.45315   -4844.5052    -4343.568   -4844.5052            0    5110.3565    18.054681    22.961905    19.396532    8041.2175    4992.7534    5219.4429    5118.8731    1117.9024   -204.37787    145.27123   -3744.2616 
 8113000    244.96991   -4864.7369   -4374.7668   -4864.7369            0    5979.9759    18.042472     22.90202    19.438492    8032.1604    7467.6631    5271.4798    5200.7848    994.63897   -203.82345   -465.77012   -3674.2675 
 8114000    260.32313   -4863.6504    -4342.972   -4863.6504            0     4503.639    18.316361    22.956514    19.264205    8100.2091    3485.1318     4700.572    5325.2133    155.65137    1761.2303   -330.35496   -3810.9425 
 8115000    241.27444   -4839.9118   -4357.3331   -4839.9118            0    4350.9958    18.106049    22.867723    19.529352    8086.0132    4890.8454     4063.072    4099.0699   -694.53133    909.85881   -3.7760324   -3844.2367 
 8116000    237.73477   -4853.8234   -4378.3245   -4853.8234            0    4834.5879    18.075369    23.009126     19.34893    8047.1899     5103.812    5404.8086    3995.1432    761.08177   -1031.5399   -1823.7078   -3810.9372 
 8117000     240.4513     -4864.07   -4383.1377     -4864.07            0    4077.8346     18.08647    23.171493    19.325738    8099.2334    3456.4544    3394.5291    5382.5203    420.21678   -194.23586    1846.7854   -3901.4679 
 8118000    240.16036   -4850.6576   -4370.3072   -4850.6576            0    5753.9898    17.843475    23.106244    19.457157     8022.102    6166.7757    6321.4643    4773.7295   -1138.5694   -387.68219   -270.39551   -3697.1242 
 8119000    240.93634   -4865.8388   -4383.9363   -4865.8388            0    5259.6098    18.089307     23.00316    19.341667    8048.2847    4935.1121     4397.676    6446.0414   -1308.4908   -914.47408   -1178.3201   -3766.5845 
 8120000    239.97649   -4837.1998   -4357.2172   -4837.1998            0    4891.7894    18.226518    22.814464    19.391949    8063.7198    3709.4995    6003.4109    4962.4579    341.64312   -481.77831    1499.3872   -3781.9374 
 8121000    243.00479   -4864.9942   -4378.9546   -4864.9942            0    2986.9327    18.089065     22.79885    19.666924    8110.8339    3437.0115      2846.45    2677.3365   -3149.4677   -238.25374   -1421.6163   -4025.6358 
 8122000    249.35394   -4826.7622   -4328.0235   -4826.7622            0    4588.6269    18.297227    22.834602    19.313596    8069.4113    3685.0691    4474.9804    5605.8313    1533.0128    96.332212    1983.3563   -3788.0151 
 8123000       245.09   -4847.6816   -4357.4714   -4847.6816            0    5539.8211     18.03437    22.921261    19.478695    8051.9184    5431.1934    5870.3491    5317.9207   -269.74817    205.77193   -1424.5519   -3706.9359 
 8124000     259.8947   -4852.1311   -4332.3096   -4852.1311            0    4925.4825    18.174017    22.835881    19.377797    8042.1667    4132.1593    5566.0758    5078.2126    436.36123    467.63837    3.2856815   -3754.6157 
 8125000    252.92159   -4831.7742   -4325.8998   -4831.7742            0    6182.9373    18.102256    22.995393    19.271854    8022.2652    4564.0378    7525.3198    6459.4545   -690.04605   -134.48827   -105.38319   -3602.5177 
 8126000    244.78489   -4851.6494   -4362.0494   -4851.6494            0    5552.0165    17.850752    23.063861    19.491507    8024.7952     5941.236    5369.2379    5345.5757   -939.71282    367.12222    1124.2154    -3712.278 
 8127000    241.08614   -4847.5653   -4365.3632   -4847.5653            0    4434.2414    18.180769    22.982554    19.352072    8086.0798    3389.9845    4250.8601    5661.8796    789.44956    157.87581     1976.107   -3842.4457 
 8128000    245.06209   -4866.9074    -4376.753   -4866.9074            0    4765.2883    18.103765    22.779061     19.55208    8063.0192    5143.4694    4496.8468    4655.5486   -626.63489   -348.20166   -182.24668   -3816.3986 
 8129000    258.42688     -4826.86   -4309.9743     -4826.86            0    3843.5607    18.287949    22.775903     19.46976    8109.6332    4262.2772    3424.4793    3843.9256    864.84297   -765.88404    38.291322   -3855.3937 
 8130000    228.98907   -4849.6593   -4391.6529   -4849.6593            0    4803.3046    18.181321    22.698403    19.542702     8065.018    3420.7071    5860.0104    5129.1964   -53.551315   -555.98484     840.8592   -3826.6881 
 8131000    246.87622   -4885.2739    -4391.491   -4885.2739            0    5750.3171    18.090456    22.871209    19.393854    8024.2186    5331.0706    6017.3662    5902.5145   -1623.4251    1435.7737   -737.60958   -3718.5601 
 8132000    257.07042    -4843.486   -4329.3134    -4843.486            0    2321.0813     18.27982    22.980655    19.420525    8158.2178    1269.1594    2690.3388    3003.7458    1124.3305    818.59645    1486.9267   -4053.1529 
 8133000    249.96907   -4825.6846   -4325.7156   -4825.6846            0    5847.4116    17.979208    22.964974    19.393187    8007.2922    6928.9051    5591.9253    5021.4043    1157.0621   -282.30155   -354.55193   -3642.8657 
 8134000    240.43541    -4862.114   -4381.2135    -4862.114            0    4699.1339    18.164024    22.974093    19.253769    8034.6358    4012.6632     4593.471    5491.2674    -1177.286   -72.625676   -623.51563   -3830.5834 
 8135000    233.41618   -4839.5005   -4372.6393   -4839.5005            0    5009.8437    17.948067    22.844876    19.635916    8051.1452    6123.6575    5419.5508    3486.3228     1603.024   -188.84471    793.90791    -3784.395 
 8136000    241.62271   -4819.2048   -4335.9295   -4819.2048            0    6014.5061     18.28009    22.917406      19.1962    8041.9073    4663.8602    6075.7614    7303.8967    181.24372   -627.72355   -784.37294   -3630.5304 
 8137000    241.34556   -4840.0092   -4357.2883   -4840.0092            0    8488.1738    17.992506    22.734263    19.484033    7969.8728    8212.0576    8904.5188    8347.9451   -138.94947    249.64571    -62.34177   -3370.6873 
 8138000    250.00058   -4857.8172   -4357.7851   -4857.8172            0    4708.1966    18.026984    22.994476    19.384014    8035.0819    5448.4943    4156.8695    4519.2261    287.24339   -530.04281    542.91424   -3806.0625 
 8139000    238.54368   -4866.2636   -4389.1468   -4866.2636            0    4297.0581    18.064188    23.056519    19.334426    8052.7365    4747.7732    4171.7365    3971.6647   -874.29879    830.16698   -2044.9304   -3884.4964 
 8140000    260.45744   -4857.0668   -4336.1197   -4857.0668            0    6184.7918    17.953836     22.96976    19.438099    8016.1807    6253.5686     6802.597      5498.21    1013.9495    178.32657    881.58366   -3613.0695 
 8141000    247.21974   -4860.1612   -4365.6911   -4860.1612            0    3753.5337    18.198766    23.004026    19.361882    8105.7529    3056.0346    3763.9943    4440.5721    44.121261   -942.27862   -562.13681   -3921.9706 
 8142000    231.51577   -4819.8633   -4356.8032   -4819.8633            0    5328.5131    18.005286    23.047135    19.456855    8074.0163    5221.9869    6254.6016    4508.9508    1096.1147    154.25964   -413.76753   -3729.3641 
 8143000    242.67955   -4850.8689   -4365.4799   -4850.8689            0    5947.1353    17.956332    23.180248    19.325688    8043.9742    5323.0091    6765.4735    5752.9233    2661.3514    488.47651    265.27144   -3667.8029 
 8144000    254.41207   -4865.6251   -4356.7695   -4865.6251            0     4719.925     18.04717    23.023674    19.334747    8033.8222     5666.007    4582.1952    3911.5727   -1056.2348    618.67102   -1443.9538   -3803.7592 
 8145000    237.17273   -4836.4635   -4362.0887   -4836.4635            0    3378.8759    18.098618    23.062863    19.505591    8141.7495    4835.5295    2465.2023     2835.896    1621.6626    194.92039    100.29292   -3960.8841 
 8146000    250.16459   -4863.5831    -4363.223   -4863.5831            0    6068.4307    18.060233    22.991541     19.23848     7988.444     4973.879     6149.518    7081.8952   -154.08874    1042.2516    723.63668    -3656.231 
 8147000    240.14567   -4864.3855   -4384.0645   -4864.3855            0    4405.3272    18.000189    23.126896    19.371452    8064.1129    4152.3381    4151.5026     4912.141   -381.30231   -29.488414   -93.179811    -3865.968 
 8148000    248.85635   -4865.8393   -4368.0958   -4865.8393            0    2840.5763    18.193628    22.947514    19.394738    8097.2749     2859.427    2290.2588    3372.0429    89.002815   -815.81037    160.31573   -4032.6509 
 8149000    250.10031   -4829.9141   -4329.6826   -4829.9141            0    5812.2148    18.127367    22.653662    19.607687    8051.9211    5834.6174     6127.406    5474.6209   -1582.8453   -57.444765   -1238.2419     -3647.16 
 8150000    239.54057   -4852.6776   -4373.5669   -4852.6776            0    3786.8903    18.237544    22.903005    19.403692    8104.8164    2893.5333    3534.5081    4932.6294   -192.14036   -594.75563    1223.6186   -3925.9548 
 8151000    251.52152   -4816.9562   -4313.8821   -4816.9562            0     4352.214    18.054082    22.971902    19.488805    8082.7208    4444.9134    4180.8866    4430.8421     655.3249   -32.107188   -530.70491    -3800.851 
 8152000    254.98535   -4863.8562    -4353.854   -4863.8562            0    5334.8593    17.983744    22.990726    19.391523    8017.6061    5653.3226    5697.4416    4653.8137   -509.23486   -104.62868   -1874.7765   -3730.0566 
 8153000    251.43785   -4835.2934   -4332.3866   -4835.2934            0     7061.731    18.083278    22.890009     19.29424    7986.3951    7706.1878    6436.1315    7042.8736    1841.2632   -455.00054    1680.4937   -3509.8829 
 8154000    247.33222   -4854.3534   -4359.6584   -4854.3534            0    3180.5529    18.060142    23.150031    19.380422    8102.8156    4392.0526    2125.0224    3024.5838   -393.38279   -379.50079   -2030.1436   -3983.8085 
 8155000     236.4617   -4832.7653   -4359.8127   -4832.7653            0    5080.0325    18.269723    23.099146    19.159926    8085.7762    3797.0041    5396.2588    6046.8346    924.80209   -227.23665    3051.3999   -3760.7613 
 8156000    247.43561   -4887.3649   -4392.4631   -4887.3649            0    3820.6883    18.030922    23.066144    19.413118    8073.9906    4321.5488     3040.809     4099.707    634.44367   -850.48402    287.61763   -3942.5737 
 8157000    234.51832   -4828.7832   -4359.7175   -4828.7832            0    4495.5464    18.174106    22.893822    19.462936    8098.0364    3609.1099    5051.2259    4826.3033   -857.24628    114.19158    766.45852   -3828.7865 
 8158000    237.86133   -4858.6834   -4382.9313   -4858.6834            0    6032.2906      18.1421    22.861147    19.341211    8021.7522    5494.8875     5298.621    7303.3632    381.45372    401.51173    1115.0982   -3677.2195 
 8159000    247.03588    -4871.764   -4377.6617    -4871.764            0    4525.7887    18.121413    22.868872    19.463436    8065.9645    5395.5023    3712.6418    4469.2219   -2325.3938    23.685327   -79.635689   -3845.2759 
 8160000    265.93585   -4876.2505    -4344.346   -4876.2505            0    6650.3925    18.114019    22.758088    19.395457     7995.592    6697.5972    6740.7434    6512.8368   -34.672549    1032.7054     847.3285   -3568.8603 
 8161000    245.22157   -4868.1253   -4377.6519   -4868.1253            0     5267.206    18.075912      22.8454    19.542876    8070.2588    7733.3122     4228.498    3839.8079   -1329.4285    993.06408    -421.0417   -3757.7205 
 8162000    237.95209   -4830.8689   -4354.9354   -4830.8689            0    3261.7523    18.176407    23.124994    19.337808    8128.2472     2516.884    3040.9343    4227.4386    53.114928   -674.03279   -357.70411   -3968.2802 
 8163000    243.34039   -4852.4689    -4365.758   -4852.4689            0    5763.4659    17.942734     23.03954    19.408085    8023.1537    6342.3203    5489.3725    5458.7048   -729.83627    127.56839    474.71904    -3691.378 
 8164000      243.762   -4849.9309   -4362.3767   -4849.9309            0    5235.1409    17.945995    23.117309    19.339565    8023.2717    6830.8044    3900.4145    4974.2038    1265.5225   -1259.0446   -750.18121   -3749.8067 
 8165000     247.9667   -4870.8212   -4374.8572   -4870.8212            0    1797.6716     18.15422    23.138789    19.385904    8143.3719     2596.863    1819.2628    976.88908    888.81771   -943.60798   -1614.5545   -4161.3608 
 8166000     252.8012   -4826.0083   -4320.3747   -4826.0083            0    4143.9897    17.996488    23.117273    19.426716    8082.0917    3510.8127    3294.6037    5626.5526   -601.68581    262.83399   -1077.5574   -3831.9267 
 8167000     244.6131   -4858.8472   -4369.5908   -4858.8472            0      5417.36    18.107327    23.033016     19.27539    8039.1166    5393.5472    4890.5279    5968.0049    985.85887    500.40748    533.71385   -3734.4472 
 8168000    247.10464   -4826.1283   -4331.8885   -4826.1283            0    6095.6169    18.144486    22.815022     19.47812     8063.296    5306.7136    6542.6918    6437.4452    1253.5546    1038.0232   -391.00215   -3615.0751 
 8169000    255.80302   -4830.9905   -4319.3528   -4830.9905            0    3976.4783    18.225836    22.864754    19.470731    8114.0233    4171.3532    3330.0289     4428.053   -394.77144   -660.25427    -751.9468   -3848.7974 
 8170000    250.10782   -4845.2873   -4345.0408   -4845.2873            0      7622.68     18.00249    22.921126    19.377282    7995.7903    8085.2052    6902.9971    7879.8378   -406.55936     521.6438    419.69429    -3456.157 
 8171000    250.50339   -4832.0487    -4331.011   -4832.0487            0    5546.4356    17.998162     23.20273    19.238765    8034.2335    5079.3822    4008.5278    7551.3968   -1751.6892   -1138.4527    461.83543   -3681.1293 
 8172000    238.71504   -4844.9519   -4367.4924   -4844.9519            0    6346.6396    17.928468    23.045706    19.348809    7994.4291    5972.8387    6968.4775    6098.6026   -960.44374    1787.6131    6.2461518   -3627.5342 
 8173000    237.21922   -4854.5399   -4380.0721   -4854.5399            0    5937.0271    17.974004    23.149995    19.333166    8044.4937    8158.9084     4291.378    5360.7948    692.67055   -116.59518    1156.5561    -3683.536 
 8174000     249.4857   -4870.9757   -4371.9735   -4870.9757            0    4409.3823    18.291147    22.900695    19.314742    8090.5585    4864.1903    4177.0623    4186.8944   -1396.5196    417.96724   -1053.0465   -3851.6995 
 8175000    253.71678   -4874.3612   -4366.8963   -4874.3612            0    4942.7557    18.052417     22.62794    19.635595    8020.9246    6397.5931    5499.4184    2931.2557   -711.14647    867.80977   -1518.7085   -3788.7078 
 8176000     244.6162    -4852.364   -4363.1014    -4852.364            0    5333.1713    18.233191    22.644307    19.393523    8007.1582    4683.8392    5167.0562    6148.6186   -1556.6004   -406.89576    759.42729    -3740.314 
 8177000    248.78175   -4833.8318   -4336.2376   -4833.8318            0    3772.5529    18.263489    22.952732    19.369563     8119.662    2133.6514    4293.0507    4890.9567    670.85997    968.87482    596.00756   -3889.5034 
 8178000    245.17129    -4838.448   -4348.0751    -4838.448            0    4343.6644    18.018421    22.987686     19.52645    8087.8907    6055.5015    4581.9268     2393.565   -541.73456   -55.821612    1472.6011   -3835.7243 
 8179000    247.24039   -4828.5014     -4333.99   -4828.5014            0    5248.1937    18.278041    22.813577    19.410155    8093.7923     3850.017    6197.6996    5696.8646    3.4161108    293.80545    31.737786    -3714.495 
 8180000    255.38345   -4858.6066   -4347.8081   -4858.6066            0     4394.436    18.089082    22.855356    19.540628     8078.729     5422.097      4048.01    3713.2009   -491.18376    -1975.284    790.82927   -3830.0558 
 8181000    240.26591   -4861.7659   -4381.2044   -4861.7659            0    5328.8402    18.031523    22.825203    19.526985    8036.7829    5996.3844     5528.196    4461.9402   -60.492258   -19.887929     894.5003   -3756.6205 
 8182000    253.05671   -4847.9074   -4341.7627   -4847.9074            0    5775.3302    18.240234    22.702702    19.362755    8018.1668    3495.6372    5788.4869    8041.8666   -804.58223   -738.56254   -366.88819   -3666.4144 
 8183000    242.47419   -4852.0979   -4367.1195   -4852.0979            0    4653.0261    18.004761    22.711335     19.70813    8058.8939    5978.4141    5495.8157    2484.8486   -872.39004   -783.44544     447.3859   -3820.2461 
 8184000    238.64784   -4867.4926   -4390.1674   -4867.4926            0    3604.3463    18.192176    22.880578    19.459901    8100.1347    3812.5572    4197.4799    2803.0019    247.93222    713.03397   -269.70269   -3964.3782 
 8185000    250.36814   -4829.8847   -4329.1175   -4829.8847            0    5471.1102    18.001926    23.138681    19.341445     8056.501    4940.4951    5022.7753    6450.0601   -228.32795   -518.57444    1494.9869    -3686.285 
 8186000    245.11198    -4828.008   -4337.7538    -4828.008            0    5031.1514    17.936349    23.382869    19.177685    8043.1841    5995.7388    2895.4441    6202.2714   -324.19628   -1720.4625    -1511.836   -3747.5917 
 8187000    247.83882   -4873.4271   -4377.7189   -4873.4271            0    3005.1061    17.956129    23.199334    19.433315    8095.3409    4768.8376    977.68091    3268.7997   -250.91526   -1420.3303   -28.122477   -4022.9293 
 8188000    249.39468   -4832.6698   -4333.8496   -4832.6698            0    5775.5787    18.021111    23.197115    19.213128    8031.8131    5070.9665    5108.5705     7147.199    64.477646     112.3223   -1548.0796   -3657.3228 
 8189000    246.14393   -4883.1267   -4390.8084   -4883.1267            0    4980.4422    18.182142     22.87787    19.375808    8059.7292    3812.2804    6307.0736    4821.9726   -321.81462     881.4343   -2809.3371   -3805.3929 
 8190000    262.58516   -4833.9526   -4308.7498   -4833.9526            0    4967.6102    18.099662    22.952195    19.389112      8054.76    5916.6455    3889.9298    5096.2554    2071.4857   -224.34473   -252.34651   -3725.2026 
 8191000    257.85151   -4848.4432   -4332.7083   -4848.4432            0    6553.4487    17.979376    22.959339    19.424478    8018.3193    5482.5404    7365.6901    6812.1155    919.05358   -49.887421   -875.39612   -3566.3549 
 8192000    254.05247   -4850.3041   -4342.1677   -4850.3041            0    4487.2044    18.123548    23.075494    19.314302    8077.4309    4130.9963    3885.7944    5444.8223    1788.0333   -294.86829    695.95634   -3813.5704 
 8193000    244.64004   -4842.4839   -4353.1736   -4842.4839            0    5057.3556    18.150675    22.857954    19.370289    8036.4866    4399.4559    5667.8641    5104.7469    1335.8892   -548.83298   -793.42407   -3760.4317 
 8194000    237.04975   -4825.5127   -4351.3839   -4825.5127            0    4335.4771    18.162413    22.872514    19.464581    8085.9774    6797.0181    3037.2301     3172.183    833.01985   -1105.5259    72.359255   -3840.1198 
 8195000    250.08688   -4859.2985   -4359.0938   -4859.2985            0    5293.6835    18.184857    22.830719    19.468606    8082.8463    5012.5057    5357.2706    5511.2743    440.97272    993.63135    173.08338   -3735.0743 
 8196000    255.05462    -4885.706   -4375.5652    -4885.706            0    4168.7538    18.129651    22.982035     19.40093    8083.5193    2803.0082    4681.8074    5021.4458   -677.54405    10.608138   -803.69099   -3884.1115 
 8197000    252.19482   -4862.9307   -4358.5099   -4862.9307            0    5391.7644    17.985462    22.933565    19.474596    8032.7017     6521.613    4619.9257    5033.7545   -105.95682    472.99833    1111.5026   -3726.8717 
 8198000    240.91159   -4827.3207   -4345.4677   -4827.3207            0    3756.7935    18.118246    23.037929    19.487523    8134.2261    3079.7775    4775.4729    3415.1302   -868.57367    288.02386   -727.98478   -3899.8018 
 8199000    247.01623   -4827.0064   -4332.9434   -4827.0064            0    5978.0241    18.075034     22.91584    19.472566    8065.6263    5315.5742    5818.5521    6799.9459    1312.4697    146.38395     1514.626   -3629.7551 
 8200000    250.56562   -4858.6948   -4357.5326   -4858.6948            0    4535.0824    18.096167    22.964504    19.347974    8040.4281    4649.8772    4591.5213    4363.8485   -590.31234    416.31575   -1690.8282   -3825.7425 
 8201000    239.99353   -4839.5037    -4359.487   -4839.5037            0    5637.9581    18.079111    23.062199    19.304597    8048.9373    5914.3308    5200.4779    5799.0658   -135.71582    824.19629   -980.28201   -3697.6725 
 8202000    248.90546    -4855.701   -4357.8593    -4855.701            0    5274.5764    18.036668    23.095791    19.293061     8036.932    5886.2563    4761.7921    5175.6808    754.52796    340.07534    1069.3099    -3739.624 
 8203000    238.42973   -4856.9432   -4380.0543   -4856.9432            0    5485.0588    18.110212    22.891051    19.373926    8031.6895    5898.1329    3993.7435       6563.3   -151.35231   -478.93009   -278.96933   -3737.5677 
 8204000    232.31488   -4845.0388   -4380.3803   -4845.0388            0    4991.0953    18.136697    22.936863    19.339741    8045.3119    4746.4553    5207.9201    5018.9105    1207.4392    572.85162    2525.1621   -3794.7621 
 8205000    243.63656   -4877.7805   -4390.4773   -4877.7805            0         4098    18.083882    22.924799    19.482317    8076.7714    4715.4276    4309.0073     3269.565   -1211.3533   -77.941954   -787.96059   -3907.7681 
 8206000    246.73901   -4866.4749   -4372.9664   -4866.4749            0      6026.72    18.139787    22.790192     19.37915    8011.5194    4944.3109    6056.4921     7079.357   -1195.7229    667.10642    538.40488   -3668.8057 
 8207000    241.74526    -4840.321   -4356.8006    -4840.321            0    4546.7904    18.142933    22.787771    19.582613    8096.1767    5615.6161    4063.2742    3961.4809     349.0341    80.886147   -2723.2246   -3819.9409 
 8208000    246.18716   -4826.3781   -4333.9734   -4826.3781            0    5830.8276      18.1359    22.778965    19.490308    8051.7786    5574.7252    6225.0801    5692.6776    150.81962    78.332754   -228.52005   -3649.2772 
 8209000    244.46069   -4843.2544   -4354.3028   -4843.2544            0    4413.7941    18.075684    22.790586    19.565538    8060.1297    4955.4227    5118.1248    3167.8347   -617.42485    16.672657   -1264.3605   -3835.4669 
 8210000    248.05072   -4832.8844   -4336.7523   -4832.8844            0    4086.3382    18.121485    23.066961    19.346705    8087.0693    1213.7524    5705.0068    5340.2553    399.16905    2129.9656    1080.4067    -3854.803 
 8211000    246.88697   -4844.3532   -4350.5488   -4844.3532            0    5327.2027    18.039987    23.061064    19.338803    8045.3538    6197.5724    4878.3219     4905.714   -1111.8548    146.75989   -719.27687   -3725.4909 
 8212000    244.51142   -4840.3334   -4351.2804   -4840.3334            0    5710.6727     18.03904     23.13661    19.225372    8023.9445    6059.5635    4931.6011    6140.8534    -62.43276   -947.34408   -539.53383   -3683.0118 
 8213000    246.58278   -4849.7914   -4356.5953   -4849.7914            0    5793.9329    18.009823    23.073895    19.343842    8038.4644    4572.0585    6101.1729    6708.5671    56.785709    550.73836    913.59215   -3677.3566 
 8214000     253.2169   -4867.3497   -4360.8847   -4867.3497            0    4176.5452    18.076488    23.205219    19.380812    8129.6468    4141.8737    2952.9067    5434.8551   -1625.1758    518.68104   -802.04141   -3865.7028 
 8215000    241.30211   -4885.8792   -4403.2452   -4885.8792            0     4830.001    18.093891    22.936972    19.437835     8067.072     4393.709    5208.1136    4888.1803   -1099.2325    62.741187    1626.6573   -3834.9957 
 8216000    244.42305   -4848.1075   -4359.2312   -4848.1075            0    5059.2708    18.217483    22.726242    19.422658    8041.2706    5213.0654    4788.3723    5176.3746    1182.7666   -230.62942    1116.4064   -3765.9119 
 8217000    238.48665   -4867.7198    -4390.717   -4867.7198            0    4801.3604    18.217857    22.690074    19.462845    8045.2497    5143.9128    6189.6107    3070.5578   -577.39752    779.01489    1745.3367   -3827.3652 
 8218000    257.67626   -4851.5345   -4336.1501   -4851.5345            0    5844.8933    18.259355    22.606583    19.486096    8043.5026    5162.3963    6633.0171    5739.2664    492.87974   -159.61959    1118.8911   -3650.5077 
 8219000     244.6791   -4852.0265   -4362.6381   -4852.0265            0    4439.6069    18.139722    22.918011    19.368515    8052.0017    5099.3763    4016.7604     4202.684   -1381.3711    296.44787    974.83287   -3841.2942 
 8220000    230.74198    -4850.463   -4388.9505    -4850.463            0    5962.9002    18.087468    22.874561    19.388014     8021.653    5127.6828    6201.3663    6559.6513   -121.97992    195.26399    -842.2002   -3691.3653 
 8221000    251.48943   -4863.5959    -4360.586   -4863.5959            0    6422.8408    18.062274    22.803354    19.505191    8033.8064    6524.7129    6399.0777    6344.7319    1013.0779    256.28332   -560.58088    -3608.055 
 8222000     238.8114   -4874.3557   -4396.7034   -4874.3557            0     3484.481    18.112208    22.945815    19.519356    8112.2324    4051.8323    2777.2119    3624.3988   -754.58286   -1057.5762   -391.06702   -3984.4593 
 8223000    232.22294   -4855.7353   -4391.2607   -4855.7353            0    3533.6578     18.06773    23.164201      19.3408    8094.5994    3646.7054    3289.4623    3664.8057    231.67041    -720.6028   -413.00901   -3974.1073 
 8224000    253.98201    -4858.581   -4350.5856    -4858.581            0    5074.8965     18.00657    23.042387    19.359049    8032.3475    5979.1781    5829.3761    3416.1351   -905.51268     626.0633    313.53037   -3756.0942 
 8225000    235.96886   -4848.1904   -4376.2235   -4848.1904            0    5380.7747    18.072892    23.125845    19.278176    8057.3313    5047.9447     5432.902    5661.4775    1841.0871   -528.70024    1268.5366   -3743.9399 
 8226000    244.26656   -4856.5824   -4368.0191   -4856.5824            0    3485.1666    18.344837    22.891596    19.306612    8107.6693    2517.3585    3702.8328    4235.3084   -307.87177   -923.17963    655.33437   -3955.9259 
 8227000    258.00274   -4816.0189   -4299.9815   -4816.0189            0    6097.2077    18.002162    22.887074    19.573225    8064.4978     7743.405    6052.5423    4495.6759   -1169.5019    318.24378   -1016.0276   -3582.8741 
 8228000    249.77192   -4832.1286   -4332.5539   -4832.1286            0    3963.3652    18.179474    23.049914     19.33142    8100.5478    2870.6707     3935.214    5084.2107    840.52488   -658.17858   -1721.3924   -3864.3292 
 8229000      248.711   -4837.4284   -4339.9757   -4837.4284            0    3657.1042    17.960175    23.249699    19.404999    8102.9195    5891.2455    2375.8472    2704.2198   -438.91486   -1120.1113   -336.09757   -3907.8056 
 8230000    265.87817   -4841.7663   -4309.9771   -4841.7663            0    6131.3974    17.998117    23.106557    19.305636    8028.7222    6920.8707    5159.7158    6313.6055    226.66959   -1329.4282   -728.10555   -3592.0476 
 8231000    246.92936   -4816.5286   -4322.6394   -4816.5286            0    6313.2566    18.097791    22.964174    19.296601    8019.6836    5867.2303    6729.2135    6343.3259   -938.98166   -405.63254    1112.1823   -3584.2481 
 8232000    241.59328   -4838.7995   -4355.5831   -4838.7995            0    3111.1251    18.009083    23.109444    19.489712    8111.2262    6218.4635    2250.7319    864.18002   -681.12157   -114.97995   -1840.6122   -3987.5559 
 8233000    244.33386   -4854.6519    -4365.954   -4854.6519            0     7449.042    18.060599    22.888192    19.249071    7957.0744    7364.6926    7086.4988    7895.9346   -1753.7873    324.82541    619.00094   -3501.5242 
 8234000    251.66754    -4844.852   -4341.4858    -4844.852            0    4716.2732    18.179427    23.085537    19.369033    8128.8312    3502.6534    4760.8026    5885.3635    308.32451    577.12294    407.94557   -3782.3685 
 8235000    231.37353   -4844.6607   -4381.8851   -4844.6607            0    5885.7324    17.955127    22.958727    19.473683     8027.575    6499.2215     5366.739    5791.2366   -376.62372    1076.5518    60.925473   -3692.8192 
 8236000    253.39646   -4871.6075   -4364.7833   -4871.6075            0    3193.2795    18.297425    22.951782    19.311905    8110.1988    3104.3467    3322.6404    3152.8516   -71.115824    -42.39073    68.670053   -3987.0856 
 8237000    238.74573   -4852.3178   -4374.7968   -4852.3178            0    4937.7437    18.046263    22.849933    19.576134    8072.3345    6167.8776     3782.158    4863.1955    232.32315   -1076.9085   -2256.1361   -3793.4925 
 8238000    260.44941   -4854.3412   -4333.4102   -4854.3412            0    5794.2553    18.033666    22.784501    19.461038    7996.3086    6257.2369    5845.2063    5280.3227    111.38467   -447.26261    283.61975    -3657.696 
 8239000    246.52232   -4844.1909   -4351.1158   -4844.1909            0    6083.9869     18.09942    22.909215    19.333261    8016.4115    4854.5105    7335.3954    6062.0549    -965.0384    137.63052   -2112.7776   -3639.8299 
 8240000    255.16724   -4853.4313   -4343.0653   -4853.4313            0    3881.7226    18.066133     23.12725    19.276596     8054.147    2484.2216    4464.8636    4696.0827    434.99783    248.25581   -390.88055   -3887.1124 
 8241000    240.52632   -4859.7616   -4378.6793   -4859.7616            0    5085.6847    18.106033    23.013502     19.36598    8069.4789    5461.2804    4450.8564    5344.9172    339.30281    67.572289   -1582.5563   -3780.1701 
 8242000     261.4175   -4887.8747   -4365.0074   -4887.8747            0    3451.8694    18.208344    23.051113    19.340292    8117.5575    3399.3226    2613.4663    4342.8193     317.6823    69.968402    848.19303   -3956.3536 
 8243000    256.41343   -4834.3714   -4321.5129   -4834.3714            0      5838.94    17.954728    23.060543    19.484228    8067.3624    6338.1676    5069.0183    6109.6342   -90.068939    560.29506   -1276.9307    -3634.537 
 8244000    246.84924   -4827.0319   -4333.3029   -4827.0319            0    3851.6525    17.970398    23.208927    19.408483    8094.7668    3523.1202    3930.0063    4101.8311   -793.70142    428.13972    86.625022   -3878.6004 
 8245000     263.4771   -4851.4693   -4324.4825   -4851.4693            0    2744.0651    18.078034    23.054018     19.49288    8124.0732    4173.1057    1938.6489    2120.4408   -136.10037   -441.64967    1332.5495   -3999.3622 
 8246000    248.86659    -4856.686   -4358.9221    -4856.686            0     5362.647    18.231074     22.84368    19.255438    8019.2125    5149.6912    5552.3423    5385.9073   -1700.8862    233.26376   -69.301514   -3731.7498 
 8247000    252.46081   -4858.7791   -4353.8263   -4858.7791            0    4254.9024    18.290764     22.88838    19.357575    8103.9707    3880.7549    4102.5783    4781.3739   -1312.8585    -308.3694   -143.22345   -3850.9475 
 8248000    246.43267   -4825.4836   -4332.5878   -4825.4836            0    6095.5154    18.169449    22.787251     19.42632    8043.1138    4209.2391    8188.9968    5888.3102   -141.12658    1165.1488   -363.08954   -3617.5804 
 8249000    245.69613   -4859.6173   -4368.1947   -4859.6173            0    6405.2739    18.056217    22.911273    19.414935    8031.7822    6635.6145    6640.7679    5939.4394    747.29302    1058.0402    574.54862    -3617.911 
 8250000    261.81398   -4842.5736   -4318.9133   -4842.5736            0    4901.3801    18.159354    23.082146    19.226179     8058.785    5806.8688    3894.2532    5003.0182   -1716.1589   -27.138071    1704.4655   -3742.8584 
Loop time of 550.656 on 64 procs for 250000 steps with 1008 atoms

Performance: 78.452 ns/day, 0.306 hours/ns, 454.004 timesteps/s
99.2% CPU use with 64 MPI tasks x 1 OpenMP threads

MPI task timing breakdown:
Section |  min time  |  avg time  |  max time  |%varavg| %total
---------------------------------------------------------------
Pair    | 28.488     | 31.811     | 35.576     |  29.8 |  5.78
Bond    | 0.28497    | 0.29575    | 0.31193    |   0.9 |  0.05
Kspace  | 254.06     | 263.24     | 275.98     |  30.4 | 47.81
Neigh   | 3.9224     | 4.6148     | 5.6068     |  19.0 |  0.84
Comm    | 105.07     | 117.48     | 128.51     |  49.5 | 21.33
Output  | 1.393      | 1.3944     | 1.3996     |   0.1 |  0.25
Modify  | 117.52     | 121.97     | 127.13     |  22.2 | 22.15
Other   |            | 9.846      |            |       |  1.79

Nlocal:        15.7500 ave          21 max          11 min
Histogram: 2 0 6 7 9 20 11 5 3 1
Nghost:        2480.39 ave        2511 max        2440 min
Histogram: 2 2 3 8 8 8 15 11 1 6
Neighs:        5192.47 ave        6847 max        3581 min
Histogram: 2 0 7 7 11 18 10 5 3 1

Total # of neighbors = 332318
Ave neighs/atom = 329.68056
Ave special neighs/atom = 2.0000000
Neighbor list builds = 8762
Dangerous builds = 0

unfix		3
unfix		2
unfix		1

write_data	data.final.${pid}
write_data	data.final.0
System init for write_data ...
PPPM initialization ...
  extracting TIP4P info from pair style
  using 12-bit tables for long-range coulomb (../kspace.cpp:340)
  G vector (1/distance) = 0.38219859
  grid = 24 30 32
  stencil order = 5
  estimated absolute RMS force accuracy = 0.0020678133
  estimated relative force accuracy = 6.2271583e-06
  using double precision FFTW3
  3d grid and FFT values/proc = 4080 384
Last active /omp style is kspace_style pppm/tip4p/omp
WARNING: Not all mixed pair coeffs generated from mixing. Use write_data with 'pair ij' option to store all pair coeffs. (../write_data.cpp:312)

write_restart   restart.lmp.${pid}
write_restart   restart.lmp.0
System init for write_restart ...
PPPM initialization ...
  extracting TIP4P info from pair style
  using 12-bit tables for long-range coulomb (../kspace.cpp:340)
  G vector (1/distance) = 0.38219859
  grid = 24 30 32
  stencil order = 5
  estimated absolute RMS force accuracy = 0.0020678133
  estimated relative force accuracy = 6.2271583e-06
  using double precision FFTW3
  3d grid and FFT values/proc = 4080 384
Last active /omp style is kspace_style pppm/tip4p/omp
Total wall time: 0:09:12
