LAMMPS data file via write_data, version 30 Jul 2021, timestep = 4750000

1296 atoms
2 atom types
864 bonds
1 bond types
432 angles
1 angle types

-10.811485506296348 12.791485506296349 xlo xhi
-9.21749918595355 12.20749718595355 ylo yhi
-0.0364170918759843 21.896416091872254 zlo zhi
-9.35311292679917 1.8896723798233312 2.8508735001041416 xy xz yz

Masses

1 1.008
2 15.999

Pair Coeffs # lj/cut/tip4p/long/omp

1 0 0
2 0.21084 3.1668

Bond Coeffs # harmonic/omp

1 450 0.9572

Angle Coeffs # harmonic/omp

1 55 104.52

Atoms # full

280 94 2 -1.1794 -9.70469477918187 -4.602003110472385 1.2154157612437546 1 1 0
270 90 1 0.5897 -8.654317012207432 -7.345672963347585 1.8204527469324443 1 1 0
269 90 1 0.5897 -9.430182456914801 -6.083180187509656 2.1299938845770314 1 1 0
268 90 2 -1.1794 -9.287640120307591 -6.978516855250746 2.4371135424655015 1 1 0
298 100 2 -1.1794 -5.989315553540552 -7.403290838695649 3.9478893428389696 1 1 0
314 105 1 0.5897 -8.864135085707458 -6.816708825524895 4.424938607652366 1 1 0
299 100 1 0.5897 -6.720709472929068 -8.008884047696636 4.068877207144135 1 1 0
163 55 2 -1.1794 -7.315468307014353 -7.934134033912241 0.8101893055329651 1 1 0
164 55 1 0.5897 -6.444578000056319 -8.237176991190728 1.0670413367451697 1 1 0
260 87 1 0.5897 -7.0279536615435525 -6.2417453640887395 0.5195768955137823 1 1 0
275 92 1 0.5897 -10.804359266916869 -7.78096734142734 3.2609171827733148 1 1 0
201 67 1 0.5897 0.2351521097729723 -8.465285712937568 0.22221815354694985 1 1 0
165 55 1 0.5897 -7.555728814623244 -8.492843853612207 0.07108435708975194 1 1 0
73 25 2 -1.1794 -8.538719133136235 -3.7358166521873057 4.877264702879469 1 0 0
1 1 2 -1.1794 -0.8039656696910296 -3.7057207291385037 4.703505770771487 0 0 0
241 81 2 -1.1794 -0.9814390564495863 -6.564198085705968 5.377965978104385 0 1 0
324 108 1 0.5897 -7.3857408283058135 -4.587099394230122 3.5245729547354765 1 1 0
242 81 1 0.5897 -0.8459709150834129 -6.841816558637774 4.472002721636189 0 1 0
318 106 1 0.5897 -2.623566939610779 -4.027244049078287 1.7610906623853753 1 1 0
199 67 2 -1.1794 0.4780808170627662 -7.863359330575863 0.9256466183080776 1 1 0
300 100 1 0.5897 -5.211973990620226 -7.920720571936352 4.158211418878854 1 1 0
261 87 1 0.5897 -6.7755435022402715 -5.049908140789596 1.418169165740953 1 1 0
305 102 1 0.5897 -1.79450324424697 -6.328367711434022 2.456900519516559 1 1 0
323 108 1 0.5897 -6.328380306964084 -5.662269366177453 3.391282505022421 1 1 0
322 108 2 -1.1794 -6.536737586205463 -4.767911312608605 3.121165864788163 1 1 0
311 104 1 0.5897 -2.9060479387797793 -8.301826232389546 3.406256810172358 1 1 0
306 102 1 0.5897 -1.047216500500145 -7.569696434633609 2.0183776552200454 1 1 0
316 106 2 -1.1794 -1.8287290818088504 -4.5439922030375435 1.6291834822500408 1 1 0
304 102 2 -1.1794 -1.6466409007882419 -7.24485406476433 2.6902074580410704 1 1 0
282 94 1 0.5897 -10.559795943130853 -4.176550165247292 1.2785407509913895 1 1 0
243 81 1 0.5897 -0.9363106359128697 -5.608628597091663 5.345321293750403 0 1 0
315 105 1 0.5897 -8.774068563134481 -5.488832034789987 5.146244136288664 1 1 0
281 94 1 0.5897 -9.081678411225063 -3.8790089823481644 1.1417251504540524 1 1 0
293 98 1 0.5897 -4.961996214674645 -4.0011213663054255 2.5350451044258064 1 1 0
313 105 2 -1.1794 -8.779562289390613 -6.433895861690939 5.298136969594414 1 1 0
3 1 1 0.5897 -1.6415345317393673 -3.2826891367994806 4.5143780032961365 0 0 0
317 106 1 0.5897 -1.1281451306387247 -3.8948007537216185 1.5655683090248247 1 1 0
259 87 2 -1.1794 -6.914305835998007 -5.291476519198486 0.502420113988801 1 1 0
404 135 1 0.5897 -5.817153334434957 -3.741358426623095 5.423627163785587 1 0 0
1141 381 2 -1.1794 -10.6491743555654 -8.874291415283311 -0.031141392288115254 0 0 1
420 140 1 0.5897 -9.390365772468174 -6.453255349118912 9.752774674632612 1 0 0
618 206 1 0.5897 -7.521900750698354 -7.999816859351338 6.500446843198345 1 1 0
413 138 1 0.5897 -7.730021424067139 -3.7569019617255925 7.702514755559285 1 0 0
419 140 1 0.5897 -9.20460265754239 -5.486050132342392 8.602898762658914 1 0 0
418 140 2 -1.1794 -9.848329435551042 -6.06942634795829 9.004948190954863 1 0 0
414 138 1 0.5897 -6.93723407355076 -5.046465944737651 7.686092504154947 1 0 0
427 143 2 -1.1794 -5.927996063671422 -7.17042347706211 9.429562399684869 1 0 0
350 117 1 0.5897 -7.68704789697305 -4.013657163188628 9.909169877762224 0 0 0
412 138 2 -1.1794 -7.61539692675 -4.581085907557666 8.17567545423053 1 0 0
429 143 1 0.5897 -6.342716797849056 -7.296926591561066 8.57620027732083 1 0 0
356 119 1 0.5897 1.1448769141059163 -7.419323714280749 10.176461309618086 0 0 0
428 143 1 0.5897 -6.658861412603082 -7.105527795586637 10.044290615587947 1 0 0
633 211 1 0.5897 -6.169031954618541 -6.154046015417304 5.5682484789979165 1 1 0
359 120 1 0.5897 -4.995239405498702 -3.18582008691764 8.504099396173341 0 0 0
357 119 1 0.5897 1.380685056831643 -7.426375616261872 8.681030959231691 0 0 0
631 211 2 -1.1794 -5.798968036570571 -5.589994933513545 6.247272688298545 1 1 0
74 25 1 0.5897 -8.189741219365168 -3.1825382759373966 5.576022002017161 1 0 0
335 112 1 0.5897 -4.744001497707231 -5.676865060366509 9.57262568854063 0 0 0
632 211 1 0.5897 -5.0168799726893205 -6.054510630323002 6.545291626841377 1 1 0
348 116 1 0.5897 -1.347520008981542 -6.372789427127681 9.597638885548326 0 0 0
554 185 1 0.5897 -3.001935265142956 -6.712204352275983 7.698606404911566 0 1 0
347 116 1 0.5897 -1.0431673262662997 -5.246621434913468 8.632592031771333 0 0 0
336 112 1 0.5897 -3.3903470336261794 -5.024570954806263 9.387582585040235 0 0 0
555 185 1 0.5897 -2.868665602983345 -6.996518136993991 6.217639169745952 0 1 0
546 182 1 0.5897 0.027769009491221297 -7.788745177304469 6.470815077637141 0 1 0
346 116 2 -1.1794 -1.7648400328555756 -5.768324455440304 8.983828489336602 0 0 0
334 112 2 -1.1794 -4.318312547737743 -4.822071388356045 9.506440355069781 0 0 0
553 185 2 -1.1794 -3.5058260554539276 -6.985122627031697 6.931903708053514 0 1 0
627 209 1 0.5897 -10.525701601566066 -6.7436535515093965 6.1393303075196 1 1 0
669 223 1 0.5897 -4.5691220248145985 -3.628487138838711 10.795623323501513 0 0 0
351 117 1 0.5897 -7.290686367655258 -2.79141670310256 10.709595176976519 0 0 0
349 117 2 -1.1794 -7.562467821733844 -3.704118558524863 10.806305881781993 0 0 0
326 109 1 0.5897 -3.44940332803358 -7.689740059461875 10.851941793032012 0 0 0
652 218 2 -1.1794 -5.868717717881279 -5.246677481258136 12.868929604015307 0 0 0
780 260 1 0.5897 -7.359252574432009 -4.0440600826500175 15.475182155566726 0 0 0
779 260 1 0.5897 -6.995878560634707 -3.3324007932575785 14.18922150752559 0 0 0
778 260 2 -1.1794 -7.745427541263174 -3.649207291005558 14.693347930674971 0 0 0
768 256 1 0.5897 -9.550170035175 -2.8519857735710614 14.574208421151525 0 0 0
654 218 1 0.5897 -6.314484934181072 -4.507292582755461 12.455592989776296 0 0 0
653 218 1 0.5897 -6.561876022658808 -5.715437966305958 13.333844760638422 0 0 0
662 221 1 0.5897 -8.887788148580526 -4.449118469385666 13.282502457578405 0 0 0
661 221 2 -1.1794 -9.51355396324934 -4.512452774727218 12.56093406230131 0 0 0
663 221 1 0.5897 -8.979573083792623 -4.422402554303082 11.771598432208643 0 0 0
682 228 2 -1.1794 -8.125959538567985 -6.834535120546437 13.835070957492245 0 0 0
684 228 1 0.5897 -8.834081822034346 -6.540526922398368 14.408071187518312 0 0 0
740 247 1 0.5897 -10.916756394170857 -3.302176090553866 12.119635841989473 1 0 0
787 263 2 -1.1794 -4.0277910976066345 -4.60181023665565 14.957135242791564 0 0 0
657 219 1 0.5897 -0.20103970549133443 -7.381812328632948 11.867878904010492 0 0 0
729 243 1 0.5897 -8.386689966049063 -7.246590521931787 11.989253295925549 1 0 0
689 230 1 0.5897 1.4559409489162487 -6.1428933237897425 13.04732218228254 0 0 0
739 247 2 -1.1794 -11.693864680098176 -2.8903490890369365 11.74179574431592 1 0 0
816 272 1 0.5897 0.10660440923575898 -3.8413366089054444 14.83191883173113 0 0 0
788 263 1 0.5897 -4.643728000352766 -4.418541910651432 15.666539344646397 0 0 0
802 268 2 -1.1794 -2.5153365737718865 -2.1398796010205867 15.210877259219828 0 0 0
678 226 1 0.5897 -4.225049843885278 -5.917351794877003 12.293240445743521 0 0 0
789 263 1 0.5897 -4.581630144375903 -4.845803874207131 14.215575035149781 0 0 0
766 256 2 -1.1794 -10.302385547114527 -2.2679805207468657 14.670595449871023 0 0 0
718 240 2 -1.1794 -0.02923231985619168 -6.966762956950902 13.727497331548298 0 0 0
676 226 2 -1.1794 -3.3905741678479053 -6.381561442034769 12.22712796436923 0 0 0
667 223 2 -1.1794 -4.327037862077418 -2.9364823971329566 11.410984524932811 0 0 0
814 272 2 -1.1794 -0.24393768857640907 -3.181773024639755 14.233259658582485 0 0 0
803 268 1 0.5897 -3.1687790244136576 -2.803835583557145 14.990789789530535 0 0 0
804 268 1 0.5897 -1.6786495489530164 -2.537131086047096 14.969302749878931 0 0 0
795 265 1 0.5897 -2.60662647380304 -5.669516334272793 15.40642054717037 0 0 0
720 240 1 0.5897 -0.5718460624361121 -6.4809817993081245 14.348579432144318 0 0 0
698 233 1 0.5897 -1.2831787861883441 -3.7901558210641237 12.835295272263101 0 0 0
668 223 1 0.5897 -3.439967432766754 -3.163135086133785 11.69027055365791 0 0 0
699 233 1 0.5897 -1.031226331128659 -4.333534686488141 11.444970742758136 0 0 0
697 233 2 -1.1794 -1.734140616616786 -4.068776517958266 12.0382920717268 0 0 0
677 226 1 0.5897 -2.7308950672785457 -5.688166210515149 12.20929421042276 0 0 0
793 265 2 -1.1794 -1.7592635904523952 -5.9955607170195675 15.709625621527909 0 0 0
758 253 1 0.5897 -9.770608258444067 -5.507932986540173 16.361157538272394 0 0 0
794 265 1 0.5897 -1.4331500373932702 -5.310292795668471 16.29291115056482 0 0 0
727 243 2 -1.1794 -8.34182223222516 -7.4068868389503635 11.046645160698821 1 0 0
655 219 2 -1.1794 -0.38195502095733147 -7.684534994103982 10.978045748850073 0 0 0
1123 375 2 -1.1794 1.1278053434319943 -4.861371013666949 16.173855275336642 0 0 0
767 256 1 0.5897 -11.049374648607607 -2.855571848386891 14.784919019943958 0 0 0
1124 375 1 0.5897 1.1591723716446811 -5.79685700929369 16.37418341235461 0 0 0
1150 384 2 -1.1794 -6.298523353363793 -4.293864529091005 19.315681586381885 0 0 0
1152 384 1 0.5897 -6.944853314059059 -3.94723756470522 19.930742302571012 0 0 0
1227 409 1 0.5897 -9.31423753934878 -3.1510384928229307 20.801528375307818 0 0 0
1109 370 1 0.5897 -8.894058924433505 -3.6543207566201765 17.689547179002382 0 0 0
1089 363 1 0.5897 -6.595782795110502 -4.635767874311687 17.662067618429212 0 0 0
1151 384 1 0.5897 -5.978539032412928 -5.09516871910685 19.73016703847491 0 0 0
1225 409 2 -1.1794 -8.415131353423828 -3.425275752862844 20.982235929074967 0 0 0
1179 393 1 0.5897 -0.5410045072960141 -5.175895588367766 21.725491315549682 0 0 0
1144 382 2 -1.1794 -1.5797631326807249 -3.976703629808858 17.6535285105658 0 0 0
1087 363 2 -1.1794 -6.54035110154131 -4.914704099731058 16.74811787190682 0 0 0
1188 396 1 0.5897 0.994327270166254 -3.967151512001064 19.633818702990403 0 0 0
1129 377 2 -1.1794 -7.852196308901609 -2.039137468887203 17.948555367288762 0 0 0
1108 370 2 -1.1794 -9.550912264070726 -4.346897786328322 17.617751313260996 0 0 0
1133 378 1 0.5897 -1.2165558308094706 -5.693089976564364 18.657413843493167 0 0 0
1178 393 1 0.5897 -0.8071112198975818 -6.412597766590437 20.8939711500199 0 0 0
1097 366 1 0.5897 -9.077168365307962 -5.710491969691308 18.696147607897906 0 0 0
1262 421 1 0.5897 0.34175702939186436 -2.8616199788781387 21.750334148495234 0 0 0
1132 378 2 -1.1794 -0.9774410081255489 -6.569998211615966 18.957588212710434 0 0 0
1248 416 1 0.5897 -5.9768853819574925 -1.6294894209365474 20.875115495179664 0 0 0
1142 381 1 0.5897 -8.847434913869504 -6.391589310857431 21.022550187602725 0 0 0
1187 396 1 0.5897 1.6267012177154392 -5.309871677343656 19.33574909907866 0 0 0
1121 374 1 0.5897 -4.918028373316155 -3.4356718244378124 18.701204358484596 0 0 0
1177 393 2 -1.1794 -0.7898834410259639 -6.097372373962655 21.79758467641961 0 0 0
1261 421 2 -1.1794 -0.04604113615358685 -3.440238080947587 21.09383711315968 0 0 0
1263 421 1 0.5897 -0.9633660359238689 -3.170669067576009 21.048110276314304 0 0 0
1122 374 1 0.5897 -4.428865063812144 -2.349619198996928 17.76662792992849 0 0 0
1145 382 1 0.5897 -1.0601734469033186 -3.177673757167554 17.742096862322462 0 0 0
1146 382 1 0.5897 -2.4642003716829297 -3.7178839261895256 17.91241633561242 0 0 0
1257 419 1 0.5897 -3.064299109542742 -2.3277211398669113 19.936645581986944 0 0 0
1255 419 2 -1.1794 -2.583357307325743 -2.1822341283747217 20.751361520683567 0 0 0
1256 419 1 0.5897 -3.2497534768017022 -2.236534223558616 21.436385561859574 0 0 0
1120 374 2 -1.1794 -4.137276613461684 -2.934000983990133 18.466478760110306 0 0 0
1125 375 1 0.5897 1.188284518890109 -4.4312439462925735 17.026787549973847 0 0 0
1219 407 2 -1.1794 -10.760847088031309 -1.8998422323099398 20.617029922780524 0 0 0
1088 363 1 0.5897 -6.656683207411991 -5.864268989389526 16.779632242343567 0 0 0
1110 370 1 0.5897 -10.38847850362465 -3.883604010968238 17.610787500043507 0 0 0
1131 377 1 0.5897 -7.2388586182765255 -2.0141531104018338 17.21406333049321 0 0 0
1143 381 1 0.5897 -8.65545687459247 -5.082719087143275 21.758520241619117 0 0 0
1134 378 1 0.5897 -0.19372368883767344 -6.79046603395043 18.454188487255237 0 0 0
1130 377 1 0.5897 -7.378354260197279 -1.6270299582060623 18.670938399964776 0 0 0
1096 366 2 -1.1794 -8.82135193734959 -6.500909110495597 19.171632943854654 0 0 0
1186 396 2 -1.1794 1.445103835998351 -4.455206355229203 18.944802022213338 0 0 0
1226 409 1 0.5897 -8.153742039518987 -2.9053700055042215 21.7421951563024 0 0 0
68 23 1 0.5897 -11.521069236501997 -2.624721824195942 4.696310131957813 1 0 0
105 35 1 0.5897 -3.3693954691276815 -2.600160931328398 3.1999998360069 1 0 0
84 28 1 0.5897 -8.3493589584045 -0.40956913559698904 4.092293093147945 1 0 0
1285 429 2 -1.1794 -5.772887207131252 -1.844282419275836 0.2336709338813317 0 0 1
26 9 1 0.5897 -4.053066738294358 0.43505249254669565 4.356532290624048 0 0 0
301 101 2 -1.1794 -8.164296819023184 -2.3700189482787843 1.507211522179434 1 1 0
258 86 1 0.5897 -12.742240781680287 -2.780546073661446 1.291518202031046 1 1 0
67 23 2 -1.1794 -10.784502117060155 -2.4979029781631112 4.098231826304746 1 0 0
99 33 1 0.5897 -11.876564334250421 1.6391879572868522 4.936327567076851 1 0 0
69 23 1 0.5897 -11.164730241292855 -2.59534141664206 3.225205753471485 1 0 0
98 33 1 0.5897 -12.323544988465574 0.3206210068533615 4.3419192994622895 1 0 0
53 18 1 0.5897 -12.760600480558427 0.8873515657072044 2.2100675072248768 1 0 0
272 91 1 0.5897 -9.416154125287969 -1.0095976359821979 1.240855294752174 1 1 0
52 18 2 -1.1794 -12.560508629937605 -0.03507252640176084 2.369144233746676 1 0 0
54 18 1 0.5897 -11.71618627517478 -0.17478869516646967 1.9403758294029114 1 0 0
82 28 2 -1.1794 -9.245610004110938 -0.07557154046408243 4.054872089320063 1 0 0
83 28 1 0.5897 -9.77774613614318 -0.8401931845579469 3.8348376673717577 1 0 0
271 91 2 -1.1794 -10.292947779247294 -0.7223366180163922 0.9859710211555441 1 1 0
256 86 2 -1.1794 -12.441409790003165 -3.298625302424421 2.038117605981575 1 1 0
97 33 2 -1.1794 -12.18550594051663 0.7659635860684944 5.177848555510356 1 0 0
90 30 1 0.5897 -4.117758270058582 -0.1806054400006527 2.044914727825524 1 0 0
294 98 1 0.5897 -4.721336490308849 -2.999276135479633 1.4257353275867501 1 1 0
88 30 2 -1.1794 -4.794126825489426 0.2611372793159674 2.5582942175301517 1 0 0
94 32 2 -1.1794 -6.74197184159282 -1.1530275609900897 3.8206541079766487 1 0 0
103 35 2 -1.1794 -2.9760414664512336 -2.219650357554243 3.985286136456426 1 0 0
303 101 1 0.5897 -7.3272559643222195 -2.2506927030496513 1.0583952786725375 1 1 0
104 35 1 0.5897 -3.622466273347338 -2.3709646114083016 4.674891781641525 1 0 0
96 32 1 0.5897 -6.28519425698793 -1.7506139791296729 4.412715931565911 1 0 0
302 101 1 0.5897 -7.960966350406864 -2.238425930818167 2.4332568763647004 1 1 0
95 32 1 0.5897 -6.043218277719389 -0.6560331502497867 3.3951033995257403 1 0 0
89 30 1 0.5897 -4.895548113879044 1.1148601886839984 2.13738048736061 1 0 0
292 98 2 -1.1794 -4.268634257343671 -3.5027452786699858 2.1023770618444058 1 1 0
107 36 1 0.5897 -9.436756947757598 1.670334549312825 3.247035066897038 1 0 0
1287 429 1 0.5897 -5.717196812388558 -0.8952482256709136 0.12197503536704865 0 0 1
307 103 2 -1.1794 -2.6785605284461393 -0.9144847820083672 0.944833188653113 1 1 0
309 103 1 0.5897 -2.9456764213731246 -1.480590026354153 0.22072971073752512 1 1 0
25 9 2 -1.1794 -4.028174489640804 0.765743601718718 5.254413137420968 0 0 0
27 9 1 0.5897 -3.9360696001934246 1.7136609655910497 5.158463699399291 0 0 0
75 25 1 0.5897 -9.260982786177962 -3.228205832314238 4.507230468713084 1 0 0
1010 337 1 0.5897 -13.043570779620847 1.3256799587331969 0.1582958651730241 0 -1 1
273 91 1 0.5897 -10.61514959319862 -1.4162699229621856 0.4108197203727594 1 1 0
465 155 1 0.5897 -1.830936194204634 -0.07627441742519281 8.738340830797652 0 0 0
435 145 1 0.5897 -7.512745259004475 -0.7460961189881914 9.893070791628539 0 0 0
402 134 1 0.5897 -11.078946411833641 -0.40666189241729356 6.2569062018418435 1 0 0
401 134 1 0.5897 -11.397647618295428 -1.218316385794175 7.494587995415455 1 0 0
526 176 2 -1.1794 -12.969997769705522 1.0118350100146447 9.205072973997725 1 0 0
400 134 2 -1.1794 -10.66665059717557 -0.8493395686954255 6.998762020567132 1 0 0
528 176 1 0.5897 -12.505775046625951 0.5428868539782528 9.898527911464175 1 0 0
426 142 1 0.5897 -8.961392771593143 -1.6178910560120876 6.994960379948898 1 0 0
536 179 1 0.5897 -9.712687661729236 -0.13897741816304254 10.061907115071303 1 0 0
537 179 1 0.5897 -9.537677117396427 0.11429673485019798 8.579583744247271 1 0 0
424 142 2 -1.1794 -8.109799466620338 -2.0349463640296417 7.125661698435108 1 0 0
535 179 2 -1.1794 -9.098153198594868 0.22227541182771304 9.423018920584617 1 0 0
527 176 1 0.5897 -12.278322836121578 1.4384506623522135 8.699214845924157 1 0 0
339 113 1 0.5897 -5.621716409841622 0.20822973124655242 6.1707368086598855 0 0 0
330 110 1 0.5897 -3.218389566620858 -0.33656256219440905 6.602364853250967 0 0 0
444 148 1 0.5897 -6.393135787122077 2.1070753071460793 9.454964987333211 0 0 0
425 142 1 0.5897 -7.491194915606343 -1.3063329350764414 7.177979846706379 1 0 0
405 135 1 0.5897 -5.417084362818456 -2.724764372906047 6.471539109339735 1 0 0
338 113 1 0.5897 -5.631655497909984 0.3420752850317541 7.678679789544185 0 0 0
416 139 1 0.5897 -7.941304087821299 1.2308374608206947 6.526080992711386 1 0 0
415 139 2 -1.1794 -8.708690858864781 1.6208763542848743 6.107450040896876 1 0 0
442 148 2 -1.1794 -7.278657750484584 2.4556925415869717 9.557668608503647 0 0 0
464 155 1 0.5897 -1.8955654993152002 0.08807562873563413 10.241909779729232 0 0 0
443 148 1 0.5897 -7.852271822634886 1.7108273685282 9.37769411925158 0 0 0
328 110 2 -1.1794 -2.92184504398075 -0.8300350369698055 7.3671279477044695 0 0 0
329 110 1 0.5897 -3.6457261317344276 -1.4244054462685112 7.564757858471461 0 0 0
455 152 1 0.5897 -3.976632145732478 1.6509884955215721 8.70092118632328 0 0 0
360 120 1 0.5897 -5.683049762368006 -1.9019443613863256 8.916702782972088 0 0 0
454 152 2 -1.1794 -4.740248032811848 1.2949940082082438 9.155346689558286 0 0 0
358 120 2 -1.1794 -5.208813865832014 -2.30697516731495 8.190606432912226 0 0 0
337 113 2 -1.1794 -6.207696010672129 0.19965409764672692 6.927593208885559 0 0 0
456 152 1 0.5897 -4.372971138562546 0.7594493460275302 9.858633053029983 0 0 0
433 145 2 -1.1794 -6.692590953335896 -1.154744029999378 10.169835081833797 0 0 0
434 145 1 0.5897 -6.352858976539524 -0.5740592266250246 10.850685032316456 0 0 0
411 137 1 0.5897 -13.47925231712988 0.3996710555544709 6.304153558562603 1 0 0
522 174 1 0.5897 -9.94924725622975 2.2654980956646185 7.518934834918423 1 0 0
410 137 1 0.5897 -13.875876703424698 0.35951316412747225 7.76465274008206 1 0 0
403 135 2 -1.1794 -5.378266783650085 -2.8974884851427536 5.530873135107603 1 0 0
520 174 2 -1.1794 -10.673874889497103 2.5399031912752843 8.080920506981503 1 0 0
417 139 1 0.5897 -8.991719680236297 0.9670506766508264 5.46826101732642 1 0 0
865 289 2 -1.1794 -12.914422544475418 1.2594728119277914 15.729918677263434 0 0 0
763 255 2 -1.1794 -3.619142810277441 -0.20703096678423805 11.241955989308233 0 0 0
888 296 1 0.5897 -10.877739384719007 3.1059924214249186 15.181905913826192 0 0 0
762 254 1 0.5897 -8.885740524152075 2.0374107461752473 11.951126666131092 0 0 0
764 255 1 0.5897 -3.8529164657725214 -1.135089238014963 11.225152030423219 0 0 0
760 254 2 -1.1794 -8.670999795484583 1.698478304134749 12.82022121839406 0 0 0
791 264 1 0.5897 -10.74607355020671 -0.6538270928791867 14.130792599605448 0 0 0
761 254 1 0.5897 -9.490297844461177 1.3201147911509388 13.13949397284266 0 0 0
837 279 1 0.5897 -11.086326968628057 -0.005545884982813831 11.956881574473513 1 0 0
790 264 2 -1.1794 -10.984563394442679 0.17939007659551365 13.724415287599031 0 0 0
792 264 1 0.5897 -11.69773495156642 0.5155505473169182 14.267158665920501 0 0 0
771 257 1 0.5897 -12.045460549347998 2.8285764127909623 11.535209665003794 0 0 0
769 257 2 -1.1794 -12.706821433320771 2.7480635302582037 12.222530810894247 0 0 0
896 299 1 0.5897 -8.24090805934271 2.565847287516908 15.654455071071222 0 0 0
835 279 2 -1.1794 -11.283728668199304 -0.3723045993078262 11.095081526205446 1 0 0
786 262 1 0.5897 -7.123342800590876 0.9658863424928867 12.27615119527036 0 0 0
773 258 1 0.5897 -5.943492579949039 -0.9532221561731724 13.492064523376408 0 0 0
895 299 2 -1.1794 -7.465489395652817 2.6595455444757317 15.101057937318132 0 0 0
901 301 2 -1.1794 -5.170586064333027 1.164864523558716 15.743140099526425 0 0 0
805 269 2 -1.1794 -4.779994790792515 2.93549927702354 12.58201131120048 0 0 0
784 262 2 -1.1794 -6.246018026022034 0.5844533657036646 12.308282786776179 0 0 0
826 276 2 -1.1794 -3.12517370596402 0.3719132155058542 13.991199696871917 0 0 0
807 269 1 0.5897 -4.10218303502523 2.8728914805467873 11.909018500735243 0 0 0
903 301 1 0.5897 -6.028530115273991 1.4939232536653773 15.474974535875562 0 0 0
770 257 1 0.5897 -12.251279180500092 3.0028323062292586 13.024891039126196 0 0 0
828 276 1 0.5897 -3.8546572665336836 0.7695725515008434 14.466502153922766 0 0 0
765 255 1 0.5897 -3.443801266999122 -0.02047729012621069 12.1642667806133 0 0 0
785 262 1 0.5897 -5.6803675722131 1.3061569603578782 12.582840997826477 0 0 0
827 276 1 0.5897 -2.9624228986229593 -0.4532661426650666 14.448207743076884 0 0 0
897 299 1 0.5897 -7.707995379402128 2.2406865617739484 14.27527900110322 0 0 0
819 273 1 0.5897 -5.361675707692792 -0.5738011353218653 16.32773670051973 0 0 0
797 266 1 0.5897 -1.68956843721943 1.1798575020974873 13.242440801240265 0 0 0
924 308 1 0.5897 -3.04637557181874 3.0950054729677667 15.480549504689117 0 0 0
836 279 1 0.5897 -11.489235995322895 -1.2913023037308644 11.266800789035406 1 0 0
1101 367 1 0.5897 -10.479101583212886 -1.0103866317787578 16.295595686328582 0 0 0
818 273 1 0.5897 -5.5652557859879295 -1.7542542048665632 15.402138153280735 0 0 0
772 258 2 -1.1794 -5.729562568882091 -1.8763480779416621 13.627319962830166 0 0 0
774 258 1 0.5897 -5.330529824439056 -2.153430110655062 12.802589796054008 0 0 0
817 273 2 -1.1794 -5.543316660389348 -1.5136048337414358 16.328317860287314 0 0 0
1195 399 2 -1.1794 -9.73954379421178 2.114155127134108 16.411311009046322 0 0 0
1233 411 1 0.5897 -1.9113027310092168 2.4254333964827133 17.658706011301895 0 0 0
1217 406 1 0.5897 -12.333477714645095 3.580506893299109 18.038975389656656 0 0 0
1206 402 1 0.5897 -11.642717068387743 -0.04412352132566966 18.063576149086472 0 0 0
1234 412 2 -1.1794 -8.647603484907705 0.14009147526700083 20.74854759794406 0 0 0
1047 349 1 0.5897 -4.393381169201904 3.916805245346648 20.69024512453651 0 -1 0
1046 349 1 0.5897 -3.4423634474962173 4.31874162739437 21.79745431942365 0 -1 0
1197 399 1 0.5897 -9.712250551766912 2.535089574425321 17.270514896077493 0 0 0
1258 420 2 -1.1794 -9.549387212395876 2.690114743545937 19.410334401447322 0 0 0
1236 412 1 0.5897 -7.8580144199421476 -0.3972665747942532 20.685290569312002 0 0 0
1100 367 1 0.5897 -9.404552463945363 -1.1119311811892167 17.357210162341225 0 0 0
1009 337 2 -1.1794 -11.427849135835007 3.7766422359400327 21.265779730817982 0 -1 0
1099 367 2 -1.1794 -10.168897051058583 -0.5959576910968547 17.10070732174755 0 0 0
1216 406 2 -1.1794 -12.943498024191493 2.842999218252615 18.054772003434152 0 0 0
1235 412 1 0.5897 -9.368302661160655 -0.47556695641979374 20.614970411648017 0 0 0
1260 420 1 0.5897 -10.186310514685115 3.067142211057835 20.017263389597396 0 0 0
1259 420 1 0.5897 -9.350176863816953 1.8283737238773092 19.776361879643908 0 0 0
1251 417 1 0.5897 -11.648108832956082 1.824272986172769 21.484186172256116 0 0 0
1254 418 1 0.5897 -5.617778423133101 3.134321555562236 18.05942567687196 0 0 0
1045 349 2 -1.1794 -3.674417137295798 3.5851211649943835 21.228161813965478 0 -1 0
1246 416 2 -1.1794 -6.32899902374434 -1.077508934775956 20.176805784102704 0 0 0
1294 432 2 -1.1794 -1.5843586268310101 2.732913066943645 19.446607046202352 0 0 0
1295 432 1 0.5897 -1.7160811569810015 1.8094995879539777 19.661599412522058 0 0 0
1205 402 1 0.5897 -12.401577725739564 1.1992470103194073 18.47567848533619 0 0 0
1241 414 1 0.5897 -4.2603773154575695 1.37367334409711 19.060904586195434 0 0 0
1272 424 1 0.5897 -0.3352619526060412 0.13252884839885226 20.742059699910293 0 0 0
1229 410 1 0.5897 -8.015307346854406 3.5187986095238486 18.905421243347035 0 0 0
1250 417 1 0.5897 -11.897378540672042 0.5718832242048819 20.671147204112152 0 0 0
1240 414 2 -1.1794 -4.191360164717209 0.5036904545346168 19.454170442336647 0 0 0
1136 379 1 0.5897 -1.4202349479225198 -0.965536495415801 17.846029352556066 0 0 0
1286 429 1 0.5897 -3.863004864052731 0.6585516754316814 21.275080151201514 0 0 0
1137 379 1 0.5897 -2.4809667324114155 -1.1514732932649387 16.781972939072695 0 0 0
1252 418 2 -1.1794 -4.70567960170408 2.8540800516913443 17.98339200677306 0 0 0
1242 414 1 0.5897 -3.4878392057625573 0.07519421324540687 18.966693931044993 0 0 0
1270 424 2 -1.1794 -1.283189385388182 0.26338813833798014 20.718039260577157 0 0 0
1247 416 1 0.5897 -5.570112867320819 -0.5983797812599114 19.84382773877382 0 0 0
1271 424 1 0.5897 -1.6496598689694775 -0.6108640019024154 20.850919655397895 0 0 0
1135 379 2 -1.1794 -2.292205159115076 -0.6681260108747153 17.586275575783603 0 0 0
1231 411 2 -1.1794 -1.7791969031251238 2.1126282723402845 16.763786220808434 0 0 0
1296 432 1 0.5897 -2.323418787768654 3.1824135100341877 19.856396127384706 0 0 0
1232 411 1 0.5897 -1.998749832550999 1.1816537244543124 16.80022611748582 0 0 0
1249 417 2 -1.1794 -11.732417008480471 0.874162371819132 21.564235467234447 0 0 0
1196 399 1 0.5897 -9.817977382077132 1.1798764510596644 16.604275144502772 0 0 0
1253 418 1 0.5897 -4.196152514714559 3.646650312790701 18.152071451982735 0 0 0
902 301 1 0.5897 -4.930333958595102 1.7059402291350096 16.495253347524184 0 0 0
44 15 1 0.5897 -8.415872955123026 3.892140637157315 21.85154270753857 1 0 -1
866 289 1 0.5897 -12.87198565333941 1.8650667169939918 16.469897686028375 0 0 0
40 14 2 -1.1794 -15.495432229204287 3.6332748343218135 1.6882255177049033 1 0 0
177 59 1 0.5897 -14.450888107818864 4.532724379408391 2.9937294869318345 1 0 0
56 19 1 0.5897 -12.936633622113643 6.281550753985588 1.2559444932005175 1 0 0
66 22 1 0.5897 -13.804859434224756 2.994521807029228 1.6056464157295123 1 0 0
65 22 1 0.5897 -12.339245852823403 3.2661778511452084 1.3405782595715803 1 0 0
64 22 2 -1.1794 -12.953226278281345 2.561472425650857 1.5473408951774326 1 0 0
191 64 1 0.5897 -12.578926528304287 6.251821146173052 3.747018225491506 1 0 0
183 61 1 0.5897 -12.315696832360839 3.7284064263562247 4.148272744130165 1 0 0
175 59 2 -1.1794 -13.923652496861216 4.782054250921563 3.752730172350917 1 0 0
106 36 2 -1.1794 -9.659790077800224 2.3947189544736993 2.662370844747736 1 0 0
176 59 1 0.5897 -14.504802805877755 4.651209483892767 4.502031972646707 1 0 0
42 14 1 0.5897 -16.064698783096258 4.107712058067392 1.0823206988884544 1 0 0
167 56 1 0.5897 -16.744579128183528 6.057551453384077 3.372302695299797 1 0 0
181 61 2 -1.1794 -11.471981966717978 3.3502426713111557 4.396045261445952 1 0 0
108 36 1 0.5897 -10.322950109925966 2.8930318670848187 3.1399327191085873 1 0 0
192 64 1 0.5897 -11.132732333711179 6.539128355270025 4.090556478672969 1 0 0
55 19 2 -1.1794 -13.696611580668417 6.457458625057765 0.7011872169791502 1 0 0
86 29 1 0.5897 -10.602270292034344 5.056582443997266 2.2177475615217968 1 0 0
87 29 1 0.5897 -10.502847636315739 4.952202464997573 0.7107181189491928 1 0 0
160 54 2 -1.1794 -15.6253319041572 7.083532343784157 2.6227754701481567 1 0 0
85 29 2 -1.1794 -11.136369975796864 5.032719201699953 1.4237575236195084 1 0 0
190 64 2 -1.1794 -11.999352774800965 6.944677072332873 4.063664856835952 1 0 0
45 15 1 0.5897 -10.00447654834981 2.1109264043379685 0.946742023441652 1 0 0
198 66 1 0.5897 -7.113413620258544 6.915215202654945 1.9199653004881851 1 0 0
204 68 1 0.5897 -9.06711984051975 5.415642357122586 4.349189014300829 1 0 0
212 71 1 0.5897 -6.71998671761585 4.840689817637273 4.463682932369699 1 0 0
211 71 2 -1.1794 -6.001260612769028 4.982291476728834 3.847499368974768 1 0 0
76 26 2 -1.1794 -7.448165770425243 3.8189144622200875 1.9463272694074711 1 0 0
77 26 1 0.5897 -8.139788476957523 3.3184191440150634 2.3793621873718758 1 0 0
78 26 1 0.5897 -7.881463663001995 4.229208322089406 1.197862649127549 1 0 0
203 68 1 0.5897 -8.857044480914466 6.4427167681486335 3.2568546243946925 1 0 0
202 68 2 -1.1794 -9.532487720428952 5.905710962602649 3.6712778330943254 1 0 0
100 34 2 -1.1794 -5.065295552413419 2.655700651071072 1.1517677307262597 1 0 0
213 71 1 0.5897 -6.331456638692131 4.649288726929431 3.013072639298435 1 0 0
102 34 1 0.5897 -5.894593108758918 3.096167402617173 1.3374074120573036 1 0 0
111 37 1 0.5897 -4.520101531073184 3.961142043173929 4.323233697067548 0 0 0
206 69 1 0.5897 -15.197632923211795 7.285129787767364 4.713813345600651 1 0 0
162 54 1 0.5897 -15.067142258880612 6.813074688703324 1.8937520666018934 1 0 0
43 15 2 -1.1794 -10.216887118002214 1.9887778146668555 0.021434855227052595 1 0 0