#include		in.partitions
include		in.temp
variable        temperature equal 15.49
variable	tempDamp equal 100.0
include		in.pressure
variable        pressure equal 9071.6
variable        pressureDamp equal 1000.0 # This is 1 ps
include		in.seed
variable        seed equal 745823

units		real
atom_style	full
read_restart	restart.lmp.${pid}
read_restart	restart.lmp.1
Reading restart file ...
  restart file = 30 Jul 2021, LAMMPS = 30 Jul 2021
  restoring atom style full from restart
  orthogonal box = (0.086844338 0.067930348 0.081696997) to (24.643157 24.662071 22.728303)
  4 by 4 by 2 MPI processor grid
  restoring pair style lj/cut/tip4p/long/omp from restart
  restoring bond style harmonic/omp from restart
  restoring angle style harmonic/omp from restart
  1920 atoms
  1280 bonds
  640 angles
Finding 1-2 1-3 1-4 neighbors ...
  special bond factors lj:    0        0        0       
  special bond factors coul:  0        0        0       
     2 = max # of 1-2 neighbors
     1 = max # of 1-3 neighbors
     1 = max # of 1-4 neighbors
     2 = max # of special neighbors
  special bonds CPU = 0.003 seconds
  read_restart CPU = 0.007 seconds
include 	in.setup
variable	out_freq equal 1000
variable	out_freq2 equal 10000
variable	out_freq3 equal 1000

timestep	2.0

neigh_modify    delay 7 every 1

include		in.tip4p
# This is TIP4P/Ice

# create groups ###
group ox type 2
640 atoms in group ox
group hy type 1
1280 atoms in group hy

# set charges - beside manually ###
set group ox charge -1.1794
Setting atom values ...
  640 settings made for charge
set group hy charge 0.5897
Setting atom values ...
  1280 settings made for charge

# ### TIP3P Potential Parameters ###
pair_style lj/cut/tip4p/long/omp 2 1 1 1 0.1577 8.5
pair_coeff 1 1*2 0.000 0.000
pair_coeff 2 2 0.21084 3.1668
bond_style  harmonic
bond_coeff  1 450 0.9572
angle_style harmonic
angle_coeff 1 55 104.52
kspace_style pppm/tip4p/omp 1.0e-5
pair_modify tail yes

thermo          ${out_freq}
thermo          1000
thermo_style    custom step temp pe etotal epair emol press lx ly lz vol pxx pyy pzz pxy pxz pyz enthalpy

restart 	${out_freq3} restart.lmp.${pid} restart2.lmp.${pid}
restart 	1000 restart.lmp.${pid} restart2.lmp.${pid}
restart 	1000 restart.lmp.1 restart2.lmp.${pid}
restart 	1000 restart.lmp.1 restart2.lmp.1


include         in.dump
dump            myDump all atom ${out_freq2} dump.water.${pid}
dump            myDump all atom 10000 dump.water.${pid}
dump            myDump all atom 10000 dump.water.1
dump            myDump2 all dcd ${out_freq2} dump.dcd
dump            myDump2 all dcd 10000 dump.dcd
dump_modify     myDump append yes
dump_modify     myDump2 append yes


variable natoms 	equal  "count(all)"                        # NUMBER ATOMS
variable H      	equal  "enthalpy/v_natoms"                 # ENTHALPY-per-atom
variable Vol      	equal  "vol/v_natoms"                 # volume-per-atom
fix AVG all 		ave/time ${out_freq} 1 ${out_freq} v_Vol v_H file vol_enthalpy.dat
fix AVG all 		ave/time 1000 1 ${out_freq} v_Vol v_H file vol_enthalpy.dat
fix AVG all 		ave/time 1000 1 1000 v_Vol v_H file vol_enthalpy.dat




fix 		1 all shake 1e-6 200 0 b 1 a 1
       0 = # of size 2 clusters
       0 = # of size 3 clusters
       0 = # of size 4 clusters
     640 = # of frozen angles
  find clusters CPU = 0.001 seconds
fix             2 all nph aniso ${pressure} ${pressure} ${pressureDamp}
fix             2 all nph aniso 9071.6 ${pressure} ${pressureDamp}
fix             2 all nph aniso 9071.6 9071.6 ${pressureDamp}
fix             2 all nph aniso 9071.6 9071.6 1000
fix             3 all temp/csvr ${temperature} ${temperature} ${tempDamp} ${seed}
fix             3 all temp/csvr 15.49 ${temperature} ${tempDamp} ${seed}
fix             3 all temp/csvr 15.49 15.49 ${tempDamp} ${seed}
fix             3 all temp/csvr 15.49 15.49 100 ${seed}
fix             3 all temp/csvr 15.49 15.49 100 745823


run             250000
PPPM initialization ...
  extracting TIP4P info from pair style
  using 12-bit tables for long-range coulomb (../kspace.cpp:340)
  G vector (1/distance) = 0.37564726
  grid = 30 30 30
  stencil order = 5
  estimated absolute RMS force accuracy = 0.0031335624
  estimated relative force accuracy = 9.4366302e-06
  using double precision FFTW3
  3d grid and FFT values/proc = 5400 960
Last active /omp style is kspace_style pppm/tip4p/omp
Neighbor list info ...
  update every 1 steps, delay 7 steps, check yes
  max neighbors/atom: 2000, page size: 100000
  master list distance cutoff = 10.8154
  ghost atom cutoff = 10.8154
  binsize = 5.4077, bins = 5 5 5
  1 neighbor lists, perpetual/occasional/extra = 1 0 0
  (1) pair lj/cut/tip4p/long/omp, perpetual
      attributes: half, newton on, omp
      pair build: half/bin/newton/omp
      stencil: half/bin/3d
      bin: standard
Per MPI rank memory allocation (min/avg/max) = 10.57 | 10.57 | 10.58 Mbytes
Step Temp PotEng TotEng E_pair E_mol Press Lx Ly Lz Volume Pxx Pyy Pzz Pxy Pxz Pyz Enthalpy 
13250000    15.568768   -10091.701   -10032.345   -10091.701            0    8959.4076    24.556312     24.59414    22.646606    13677.223    8999.1455     9025.134    8853.9435    16.839871    -88.56969    159.96897   -8245.2278 
13251000    15.708871   -10095.996   -10036.107   -10095.996            0    9013.7729    24.546981    24.593947    22.663965    13682.398    9179.2671    9179.1704    8682.8812   -105.12487    -225.3378    -16.07494   -8237.4646 
13252000    15.524126   -10094.186   -10035.001   -10094.186            0    8942.8795    24.532984    24.578441    22.691884    13682.809    9292.4594     8948.334    8587.8451   -49.021563   -142.58395   -92.381998   -8250.4523 
13253000    15.644044   -10093.921   -10034.279   -10093.921            0    9192.4891    24.571863    24.600867     22.61977    13673.405    9013.5273    9188.2986    9375.6413   -397.73919   -48.106072    243.48736   -8201.1806 
13254000    15.124882    -10094.09   -10036.427    -10094.09            0    9109.6908    24.548582    24.588877    22.653711     13674.28     9074.848    9305.4172    8948.8071   -129.09185   -324.91767   -90.975896   -8219.7237 
13255000    15.423035   -10092.142   -10033.342   -10092.142            0    9092.2305     24.58486    24.581869    22.625106    13673.297    8876.4787    9266.1616    9134.0512   -139.76296   -206.18352   -150.10424   -8220.2513 
13256000    15.354117   -10089.837     -10031.3   -10089.837            0    9209.9481    24.564073    24.592323    22.635237    13673.666    9357.6779    9141.0481    9131.1183   -36.202738   -7.4309382    140.06942   -8194.6852 
13257000    15.296787   -10091.686   -10033.368   -10091.686            0    9293.4085    24.554603     24.61898    22.604865    13664.851    9319.2235    9015.6148    9545.3873   -76.719164   -188.09508    271.61829   -8181.3044 
13258000    15.089164   -10093.587    -10036.06   -10093.587            0    9092.0017    24.559803    24.600379    22.638819    13677.932    9019.7493    9018.2739     9237.982   -209.09158   -13.526995    188.51696   -8222.4002 
13259000    16.037425   -10091.436   -10030.294   -10091.436            0    9269.9155    24.539238    24.610325    22.633187    13668.603    9705.0211    8948.4317    9156.2936   -32.108518    111.84069    393.23116   -8182.4051 
13260000    15.392343   -10092.085   -10033.402   -10092.085            0    9237.9114    24.538294    24.612198    22.632072    13668.444     9431.383    9061.5711    9220.7801    -165.5434   -283.24333    104.68287   -8191.9144 
13261000    16.077764   -10096.441   -10035.146   -10096.441            0    9014.0945     24.60252    24.573044    22.622011    13676.336    8514.9556     9144.498    9382.8298    -331.1091   -50.703221    408.48706   -8237.2365 
13262000    16.071011   -10092.575   -10031.304   -10092.575            0    9047.8414    24.573368    24.601765    22.618516    13673.984    9115.0171    9005.2454    9023.2616   -145.36464    -15.28898    223.96322   -8226.9747 
13263000    15.398874   -10090.906   -10032.198   -10090.906            0    9117.1663    24.555851     24.59375    22.636859    13670.862     9146.028    9178.2866    9027.1844   -258.05365   -55.846075    126.67202   -8214.4588 
13264000    15.339143   -10097.894   -10039.414   -10097.894            0    8844.2492     24.54443     24.57068    22.690413    13683.983    9145.0283    9043.8615    8343.8579   -64.011497   -228.12826    195.93333   -8274.3954 
13265000    15.402377   -10094.585   -10035.864   -10094.585            0    8873.5344    24.551629    24.594897    22.659319    13682.711    9049.7552    9087.2081    8483.6399    139.39711   -188.04488    242.29667    -8265.165 
13266000    15.451053   -10094.812   -10035.905   -10094.812            0    8760.7751    24.603719    24.578734    22.628864    13684.314    8718.1077    8910.3298    8653.8877   -241.02233   -214.34894    96.546558   -8287.5026 
13267000    15.862939    -10093.96   -10033.483    -10093.96            0    8964.0788    24.587446     24.58265    22.627378    13676.543    8624.5469    9256.8744     9010.815   -305.20616   -305.14908    231.60862   -8245.5223 
13268000    15.489087   -10095.754   -10036.702   -10095.754            0    9077.2039     24.55729    24.615937    22.619673    13673.608    9225.2004    8941.2739    9065.1374    -55.33381    83.950004    232.82629   -8226.5665 
13269000     15.83606   -10096.233   -10035.858   -10096.233            0    9043.4134    24.587285     24.58946    22.621016    13676.396    8845.1234     9098.627    9186.4897    196.24441   -116.88184    9.2336336   -8232.0935 
13270000    15.727022   -10096.547   -10036.589   -10096.547            0    9124.6375     24.54565    24.624756    22.627768    13676.916    9320.6235    8839.3758    9213.9133   -21.549588   -404.90267    188.25989   -8216.5539 
13271000    15.482842   -10092.406   -10033.378   -10092.406            0    9337.1663    24.576786    24.581854    22.616736    13663.742    9101.6478     9546.815    9363.0362   -8.3818465   -167.50185    161.11082   -8172.7453 
13272000    15.767104   -10093.225   -10033.114   -10093.225            0    9118.4131    24.581123    24.584083    22.625622    13672.762    8987.9084    9345.4991    9021.8318   -57.643873    14.630295   -98.231127   -8214.8729 
13273000    15.407185   -10095.757   -10037.018   -10095.757            0     8982.378     24.55599    24.620573    22.621138    13676.345    8999.5807    8964.6026    8982.9506   -149.70522   -210.98457    105.90697   -8245.4333 
13274000    15.908466   -10093.019   -10032.369   -10093.019            0    8894.9287    24.582488    24.580388    22.645576    13683.524     8672.636    9350.0946    8662.0556   -334.04172   -173.78089    702.73076   -8257.2956 
13275000    15.527167   -10093.112   -10033.915   -10093.112            0    9052.9449    24.560223    24.594852    22.647484    13680.327    9379.2266    8946.2644    8833.3437   -51.833553    -276.1013     7.386582   -8227.7304 
13276000    16.097766   -10093.758   -10032.386   -10093.758            0    8950.5674    24.532914    24.612368    22.657178    13680.701     9108.937    8992.5079    8750.2573   -342.13054   -299.38255    385.99962   -8246.5779 
13277000    15.484781   -10093.484   -10034.449   -10093.484            0    9119.8036    24.590458      24.5832    22.623773    13676.345    8812.4009    9282.2191    9264.7909   -456.82607   -68.590393    134.87707   -8215.4542 
13278000    15.561304    -10094.52   -10035.193    -10094.52            0    9108.3751    24.555082    24.583024     22.65544    13675.688    9132.0239    9417.8031    8775.2983   -381.28017   -169.92367    255.84922   -8218.5654 
13279000    15.012685   -10092.648   -10035.413   -10092.648            0    9215.4398     24.56414     24.59576    22.626702    13670.459    9289.9233    9353.4969    9002.8994   -363.71603   -344.62367    422.86781   -8198.1344 
13280000    15.550041   -10092.214    -10032.93   -10092.214            0    9009.7435    24.575861    24.597764    22.624244    13676.609    8893.9729    9052.8053    9082.4524   -13.461693   -200.20145    163.36383   -8235.8528 
13281000    16.294928   -10093.629   -10031.506   -10093.629            0    9091.5676    24.555631    24.586557    22.656695    13678.717    9347.2107    9019.5641    8907.9281   -212.41163   -426.52942    180.09527   -8217.8282 
13282000    15.494891   -10090.541   -10031.468   -10090.541            0     9054.628    24.584259    24.591667    22.613432    13671.356    8870.4633     9230.947    9062.4738   -283.22361   -98.538655    216.25987   -8226.1314 
13283000    15.597416   -10094.328   -10034.863   -10094.328            0     8853.551    24.580696    24.613384    22.615474    13682.681    8994.3449    8846.2462    8720.0617   -198.05471   -51.616635    350.20618   -8268.1559 
13284000      15.6042   -10096.459   -10036.968   -10096.459            0     9031.691    24.573289    24.613382     22.61091    13675.796      8795.66    8929.7436    9369.6694   -206.01994   -83.758565    208.96456   -8235.6205 
13285000    15.164934   -10095.553   -10037.738   -10095.553            0    9062.6423    24.579534    24.612133    22.604133    13674.478    9008.2066    8932.6502    9247.0701   -190.00531   -207.96636     292.9046    -8230.391 
13286000    15.225993   -10091.802   -10033.754   -10091.802            0    9195.4926    24.596351    24.563017    22.626508    13670.044    8899.6044    9467.6884    9219.1851   -253.18532    -291.8336    76.219049   -8200.5077 
13287000    15.406159   -10091.386    -10032.65   -10091.386            0    9327.4657    24.560312    24.585164    22.631589     13665.39     9529.671    8894.9399    9557.7863    129.73462   -262.15463   -73.686132   -8173.7266 
13288000    15.732773   -10091.504   -10031.524   -10091.504            0    9268.4584    24.541492    24.594281    22.644143     13667.56     9236.411    9297.5982    9271.3662   -311.38393    -133.4053    170.93224   -8184.0663 
13289000    14.693515   -10092.035   -10036.016   -10092.035            0    8835.3285    24.563917    24.598488    22.639274    13679.447    9065.7103    8972.1636    8468.1116   -165.79685   -204.82876     458.4054   -8273.3621 
13290000    15.500444   -10093.591   -10034.496   -10093.591            0    9197.3623    24.591809    24.592019    22.594901    13664.543    8950.3133    9393.0001    9248.7736   -147.70399   -472.95255   -35.760716   -8201.6151 
13291000    14.932236   -10095.145   -10038.217   -10095.145            0    9012.6358    24.592543    24.569138    22.634603    13676.225    8648.3991    9283.6064     9105.902   -203.39528   -252.17647     32.96598   -8240.6132 
13292000    16.177643   -10095.987    -10034.31   -10095.987            0    9149.3175    24.565116    24.581678    22.642461     13672.69    9183.4608    9174.2984    9090.1932    -204.5753   -345.99992    215.19669   -8209.9168 
13293000    15.361786   -10092.376    -10033.81   -10092.376            0    9193.5258    24.536834    24.646616    22.609664    13673.192    9369.2859    8794.7401    9416.5514    107.90536   -56.692178    215.66303   -8200.5339 
13294000     15.63543   -10093.668   -10034.059   -10093.668            0    9100.7348    24.559949    24.591052     22.63813    13672.412    9242.8309    9080.5575    8978.8161   -268.30607   -103.65286    204.85187   -8219.3898 
13295000    14.925435   -10095.025   -10038.123   -10095.025            0    9089.6526    24.566173    24.572707    22.654203    13675.377    9045.5353    9476.9743    8746.4483   -110.28703   -278.89966    130.99669     -8225.27 
13296000    16.132739   -10092.777   -10031.272   -10092.777            0    9190.7729    24.547865    24.577981    22.657722    13670.241    9252.9977    9469.8666    8849.4544   -78.662108   -269.60062   -251.37735   -8198.9399 
13297000     15.50911   -10095.919   -10036.791   -10095.919            0    9045.4377    24.581919    24.622057    22.595822    13676.289    8823.8827    8879.2925     9433.138   -150.54337   -236.97076    327.54024   -8232.6367 
13298000    15.124576   -10092.834   -10035.172   -10092.834            0    9177.1214    24.551451    24.587752    22.654337     13675.63     9242.721    9465.5748    8823.0684    122.99415   -143.03031    309.55718   -8204.8405 
13299000    15.816888   -10093.078   -10032.777   -10093.078            0    9120.8181    24.554635    24.597318     22.63995    13674.035    8927.0936    9380.5702    9054.7905   -217.85821    26.684663   -17.113091   -8213.8869 
13300000    15.525687    -10093.23   -10034.039    -10093.23            0    9032.8368    24.573427    24.581401    22.643479    13677.777    8723.1273    9449.4387    8925.9444   -298.52285   -94.169024   -122.33284   -8232.2014 
13301000    15.501599   -10094.298   -10035.199   -10094.298            0    9017.5192    24.584528    24.584123    22.632982    13679.127     9018.932    9135.3764    8898.2493   -57.499846   -129.70017    461.19522   -8236.2392 
13302000    15.716128   -10094.997    -10035.08   -10094.997            0    9005.6616    24.550524    24.622577    22.625135     13676.83    9177.2216    8814.9543     9024.809   -402.28627   -310.26477    224.25429   -8238.7882 
13303000    15.260228   -10093.781   -10035.602   -10093.781            0    9044.9915    24.562136    24.596012    22.644588    13680.288    9399.8866    8806.2282    8928.8596   -165.94232   -208.13044    103.05753   -8231.0092 
13304000    15.671488   -10093.139   -10033.392   -10093.139            0    8953.2864    24.548409    24.620246    22.627053    13675.516    9116.5628    9009.0055     8734.291   0.27799607    104.22781    133.61596   -8247.7183 
13305000    15.957789   -10094.996   -10034.158   -10094.996            0    8863.9498    24.547395    24.601924    22.662361    13686.098    9065.3336    8914.6971    8611.8187   -295.48424   -232.13688    -74.18945   -8264.9338 
13306000     15.72992   -10090.896   -10030.926   -10090.896            0    9107.5763    24.601032    24.560219    22.628104    13672.052    8702.3935    9564.9672    9055.3682   -118.21174   -87.716763    257.20475   -8214.9405 
13307000    15.825826   -10095.708   -10035.373   -10095.708            0    8936.3012    24.555047    24.619802    22.625517    13678.039    8983.4516    8738.1195    9087.3326   -94.787846    -297.2127    154.29005   -8252.7581 
13308000    15.319172     -10094.7   -10036.296     -10094.7            0    9027.9222    24.537714    24.631406     22.63096    13678.116    9201.7927    8892.1786    8989.7953   -497.55649   -331.85853    123.80748   -8235.3947 
13309000    15.714689   -10094.639   -10034.728   -10094.639            0    9049.9782    24.574476    24.557476    22.669117     13680.52    9019.7037    9481.0694    8649.1616   -200.91819   -508.83046   -72.149788   -8229.1089 
13310000    15.627956   -10097.106   -10037.525   -10097.106            0    9006.7564    24.534622    24.628223    22.633552    13676.191    9318.4899     8752.812    8948.9673   -199.33537   -292.71805    206.48073   -8241.0987 
13311000    15.382037   -10094.187   -10035.543   -10094.187            0    9080.4985     24.57072    24.591042    22.632268     13674.86    8887.3292     9210.666    9143.5001   -172.77379    43.455647    30.161749   -8224.5848 
13312000    15.388897   -10093.728   -10035.059   -10093.728            0    9062.4666    24.581295     24.60798    22.605539        13674    8706.6911    9055.8936     9424.815   -233.46519    -206.5831   -3.5716698     -8227.81 
13313000    15.317945   -10091.822   -10033.423   -10091.822            0    8839.5225    24.545542    24.611763    22.661828    13690.216    8834.6103     8855.047    8828.9101    39.156013   -502.36517    237.79657    -8268.544 
13314000    15.838699   -10093.523   -10033.139   -10093.523            0    9022.5188    24.557163    24.558646    22.676554    13676.018    8823.6108    9585.2437     8658.702    -301.8884   -206.54806   -162.03404   -8233.5909 
13315000    14.983956   -10094.829   -10037.704   -10094.829            0    8978.8697    24.553638    24.631378     22.61464    13677.107    8987.0629    8989.5272     8960.019    -128.7622   -52.582503     177.6208   -8246.7193 
13316000    16.088534   -10091.844   -10030.507   -10091.844            0    9082.9773    24.577276    24.586713     22.62878    13673.993    9108.6992     9078.396    9061.8366   -220.38362   -62.715016    361.41675   -8219.1692 
13317000    15.322749   -10094.798   -10036.381   -10094.798            0    9094.9527    24.591788    24.587067     22.61227    13672.282    8804.0936    9389.9286     9090.836   -433.35818    316.50262     263.1263   -8222.8819 
13318000    15.222915   -10094.978   -10036.941   -10094.978            0    9048.7964    24.555327    24.641339    22.600266    13674.881    9235.6603    8652.4298    9258.2992   -168.22454   -202.15625   -22.986942   -8232.3025 
13319000    15.776776    -10096.48   -10036.332    -10096.48            0    9113.6973    24.565909    24.603953    22.621344    13672.758    8943.3813    9082.7809    9314.9298   -124.47296   -234.09087    255.36471   -8219.0316 
13320000    15.405619   -10095.062   -10036.328   -10095.062            0    8953.1944    24.563375    24.587679    22.644586    13676.342     9140.264    9035.8297    8683.4894   -199.20026    -326.2575    224.17518   -8250.5652 
13321000     15.36453   -10093.508   -10034.931   -10093.508            0    9039.6949    24.545373    24.627763    22.628183    13678.683    9234.4696    8761.8955    9122.7197    -80.45529     26.44849    79.184588   -8231.6063 
13322000    16.194455    -10094.99   -10033.249    -10094.99            0    9022.6724    24.558396    24.611971    22.626204    13675.968    8884.9436    9216.3599    8966.7136    25.714185   -22.830985    131.47584   -8233.6774 
13323000    14.682808   -10095.355   -10039.377   -10095.355            0    8946.0922    24.596251     24.57621    22.624775    13676.284    8989.9332    8839.9871    9008.3563   -114.33651   -209.06925    16.134431   -8255.0384 
13324000    15.535888   -10092.163   -10032.933   -10092.163            0    9110.0577    24.548635    24.618969    22.623498    13672.784    9233.0572    9063.4144    9033.7015   -180.66451    -393.4061    37.918574   -8216.3556 
13325000    15.475452   -10090.247   -10031.248   -10090.247            0    9167.1051    24.575446    24.587231    22.625219    13671.112    9099.0617    9229.1884    9173.0653   -396.15128   -119.33823    83.833651   -8203.5181 
13326000    16.114493   -10095.043   -10033.607   -10095.043            0    9163.5197    24.544249    24.565471    22.674202    13671.207    9179.6696    9332.9914    8977.8979   -36.175414   -326.11618    58.009071   -8206.5801 
13327000    15.263628   -10093.801   -10035.609   -10093.801            0    9300.1936    24.528491    24.589238    22.657277     13665.44    9669.8886    9117.0331     9113.659   -38.218507   -186.37468    147.16786   -8182.1137 
13328000    16.023017   -10093.516   -10032.429   -10093.516            0    8976.4679    24.568466    24.616101    22.615869    13677.622    8986.8437    8900.5415    9042.0184    54.289213   -241.00298    322.56957   -8241.8559 
13329000    15.288143   -10092.543   -10034.258   -10092.543            0    8986.4532    24.550329    24.621159    22.621596    13673.795    9078.1713    8901.7506    8979.4378   -359.27895   -421.96231    75.593262   -8242.1948 
13330000    15.402606   -10093.655   -10034.933   -10093.655            0    9188.2685    24.568319    24.579813    22.636256    13669.688    9206.9524    9149.1731    9208.6798   -196.50909   -294.85909    307.77055   -8203.1751 
13331000    15.632339    -10091.99   -10032.393    -10091.99            0     9025.986    24.538751    24.573041    22.686696    13679.891    9218.9344    9273.4674    8585.5563    -39.50841   -241.60493    93.232168   -8231.6438 
13332000    15.359424   -10093.636   -10035.079   -10093.636            0    8937.6209    24.527865    24.637716    22.637628    13680.158    9144.8353     8798.493    8869.5345   -225.53307   -95.836014    220.54367   -8251.9243 
13333000    15.026831   -10094.527   -10037.238   -10094.527            0     9207.691    24.586755    24.589427    22.610014    13669.432    8899.2946    9309.1856    9414.5927   -80.497804   -440.01513    335.74015   -8201.6419 
13334000    15.977992   -10093.499   -10032.583   -10093.499            0    8895.0145    24.538547    24.638376    22.627312    13680.246    9254.6206    8720.2071    8710.2159   -188.10793   -236.39562   -103.00899   -8257.9179 
13335000     15.06253   -10093.504   -10036.079   -10093.504            0    9019.2275    24.537927    24.598464     22.65998    13677.458    8987.7536    9185.0408     8884.888   -158.21707   -469.23734    117.54871   -8236.9985 
13336000    15.384794   -10093.863   -10035.209   -10093.863            0    9106.5623    24.599155    24.594363    22.599302     13672.59    9033.4701    8916.3883    9369.8285   -397.60907   -543.17924    394.00614   -8219.3537 
13337000    15.356003   -10093.395   -10034.851   -10093.395            0    9184.1957    24.548491    24.603714    22.637578    13672.736    9299.9059    9152.5576    9100.1234   -233.07699   -509.39717    254.28994   -8203.4963 
13338000    16.149311   -10093.445   -10031.876   -10093.445            0    9112.8721    24.576947    24.617237    22.600135    13673.455    9118.2645    8765.5433    9454.8083     6.400673   -304.02444    256.55695   -8214.6484 
13339000    14.518102    -10093.57   -10038.221    -10093.57            0    9027.3455    24.569512      24.5928    22.637062    13678.061    8880.7704    9302.2276    8899.0384   -192.38788   -38.013716    116.01385   -8237.4412 
13340000    15.459026   -10092.314   -10033.377   -10092.314            0     9017.941    24.566106     24.57905    22.656647    13680.345    8827.5735     9282.113    8944.1364   -39.354197   -95.572181    59.871874   -8234.1737 
13341000    15.028616   -10093.872   -10036.576   -10093.872            0    8946.8972    24.589083    24.625652    22.590092    13678.803    8860.1419    8761.2105    9219.3391   -412.48912   -188.63704    92.691429   -8251.7475 
13342000    15.682573   -10093.281   -10033.492   -10093.281            0    9156.9049    24.593414    24.565741    22.627713    13670.656    8744.2058    9389.6045    9336.9042   -156.04581   -113.48005    182.00634   -8207.8572 
13343000    15.374401   -10092.775   -10034.161   -10092.775            0    9092.9581    24.551947    24.604734     22.63565    13674.063    9405.2859    8915.8323    8957.7561   -114.95772    -177.8668    390.95987   -8220.8236 
13344000    15.477705   -10094.044   -10035.036   -10094.044            0     8899.595    24.569667    24.624011    22.619349    13684.792    9016.5917    8571.7195    9110.4738   -188.76181   0.99279131    183.89398   -8258.8671 
13345000    14.881042   -10094.366   -10037.633   -10094.366            0    9079.8931    24.584072    24.576733    22.633155    13674.865    8849.5346     9289.201    9100.9437   -309.48421   -618.76923   -2.7569568   -8226.7944 
13346000    15.378386   -10092.218   -10033.589   -10092.218            0    9079.0738    24.555961    24.628123    22.608883    13673.112    9246.3014    8790.8573    9200.0626   -88.672946    37.858699    206.94452   -8223.1459 
13347000    15.602448   -10091.076   -10031.592   -10091.076            0    9203.9437     24.58095    24.571706    22.628042    13667.244     9170.523    9399.7777    9041.5304   -230.17166   -120.64817    321.40469   -8197.0366 
13348000    14.872247   -10094.763   -10038.063   -10094.763            0    9136.7094    24.589417    24.581309    22.624335    13675.054     8751.836    9299.9324    9358.3596   -86.426928   -141.77326     247.5515   -8215.8685 
13349000    15.796173   -10093.752   -10033.529   -10093.752            0    8988.5391    24.574346    24.579649    22.645539    13678.558    8969.1416    9182.0804    8814.3953   -109.30578   -214.18788    140.01306    -8240.426 
13350000    15.349131    -10096.11   -10037.592    -10096.11            0    9009.4708    24.572577     24.58456    22.643369    13678.995    8924.8402    9079.1343     9024.438   -31.690838   -461.48506    105.32335   -8240.2557 
13351000     15.21591   -10092.849   -10034.839   -10092.849            0    9185.1078    24.624428    24.583936    22.583446    13671.236     8680.232    9170.8981    9704.1933   -7.1974592   -336.45497   -373.08134   -8203.5034 
13352000    15.958897   -10094.069   -10033.227   -10094.069            0    9088.8523    24.566723    24.634347    22.598879    13676.506    9183.1142    8667.9402    9415.5025   -316.38377   -313.66441    225.58703   -8220.3843 
13353000    15.712491    -10093.43   -10033.527    -10093.43            0    9191.7992    24.556687    24.584023    22.642694    13669.443    9558.5955     8937.887    9078.9152   -48.149628   -262.31352    174.34707   -8201.0979 
13354000    15.667152   -10095.367   -10035.636   -10095.367            0    8907.8983    24.569277    24.590619    22.641287    13679.271    8674.8449    9131.5462    8917.3039   -172.11937   -258.98186   -39.667458   -8258.5273 
13355000    15.612074   -10093.966   -10034.446   -10093.966            0    8936.3838    24.548266    24.607286    22.646958    13680.262    9284.2259    8942.2979    8582.6274   -319.77059    94.271229   -70.958118   -8251.5245 
13356000    15.224727   -10095.806   -10037.763   -10095.806            0    9054.1873    24.589466    24.580569    22.631976    13679.288    8943.6636    9073.2436    9145.6547   -172.85756   -235.42871    383.25158    -8231.467 
13357000    15.481986   -10093.993   -10034.969   -10093.993            0    9011.3927    24.576056    24.626948    22.597027    13676.472    8906.6309    9067.1202    9060.4271   -75.736118   -473.16812    73.360889   -8237.5808 
13358000    15.192282   -10091.496   -10033.576   -10091.496            0    9246.5293    24.543943    24.616614    22.622104    13668.021    9635.1626    9004.5559    9099.8694   -296.28487    -288.3601    144.30287   -8190.4277 
13359000    15.626917   -10094.356   -10034.779   -10094.356            0    9175.2598    24.583403    24.577786    22.624313    13669.737    8867.9259    9425.5539    9232.2994   -229.70985   -347.10811    381.79114   -8205.6071 
13360000    15.616936     -10095.8   -10036.261     -10095.8            0    9088.6805    24.553559    24.608019     22.63366    13675.584     9256.626    8933.7581    9075.6573     -117.967    85.498353    116.86065   -8223.5753 
13361000    15.529918   -10094.111   -10034.904   -10094.111            0     9008.918    24.544872    24.643193    22.610894    13676.516    9296.8597     8525.863    9204.0312    -346.5736    -101.1756    7.1909976   -8238.0032 
13362000    15.448487   -10091.856   -10032.959   -10091.856            0    9224.8917    24.574134    24.573999     22.63647    13669.818    8799.7263    9705.3129    9169.6357    -347.4598   -388.82081    80.014654   -8193.8823 
13363000    15.926336   -10095.857   -10035.138   -10095.857            0    8924.1353    24.580492    24.567522    22.654904    13680.884    8755.9653    9281.5886    8734.8521   -281.67626   -595.31352    304.55596   -8254.5801 
13364000    15.999911   -10092.526   -10031.527   -10092.526            0    8924.5865    24.544283    24.618519    22.642791    13681.769    8993.9532    8749.6829    9030.1235   -215.56463    35.409407    174.57071   -8250.7632 
13365000     15.96461   -10092.081   -10031.217   -10092.081            0    9068.6927    24.565029    24.596337     22.63357    13675.423    8985.2201    9231.9816    8988.8764   -205.35579   -12.016543    190.53978   -8222.5387 
13366000    15.542653   -10094.929   -10035.673   -10094.929            0    8957.0228    24.539148    24.585276     22.67381    13679.149    9216.8965    9058.7034    8595.4685   -76.018617   -156.01861    229.02352     -8248.78 
13367000    14.706759   -10093.626   -10037.557   -10093.626            0    9117.4009    24.549382    24.603754    22.634241    13671.239      9251.81    9053.5718    9046.8209   -44.082034   -453.98283    266.90578   -8219.7206 
13368000    14.843298   -10093.788   -10037.198   -10093.788            0    9085.9695     24.61088    24.570305    22.614572     13674.96    8595.9288    9407.0423    9254.9374   -478.67765    104.21588    468.66962   -8225.1355 
13369000    15.523808   -10092.901   -10033.717   -10092.901            0    9162.3952     24.56354    24.601008    22.619496    13668.687    9418.7069    9189.4883    8878.9905    2.7441145   -57.241923    295.68298   -8207.2502 
13370000     15.29334   -10094.836   -10036.531   -10094.836            0    8845.6068    24.555569    24.616581    22.636755    13683.333    8845.8056    8824.1955    8866.8194   -208.87097    -572.9629    66.536406   -8271.3249 
13371000    15.521003   -10094.335   -10035.162   -10094.335            0    9088.5018    24.605137    24.580902    22.606035    13672.502    8676.2232    9235.7039    9353.5784    153.03516   -233.32981   -45.032201   -8222.9203 
13372000    15.461499   -10092.105   -10033.159   -10092.105            0    8998.0735    24.554573    24.606021    22.640347    13679.078    9123.8276    9036.1634    8834.2294   -91.708303   -178.18386    139.35525   -8238.0854 
13373000    14.961038   -10093.961   -10036.923   -10093.961            0     9074.781    24.575322    24.601902    22.622018    13677.265    9082.7619    9089.7917    9051.7894   -253.66761   -226.65373    321.73293   -8226.7865 
13374000    15.527747   -10091.459    -10032.26   -10091.459            0    8991.5464     24.55779    24.615446    22.627464    13678.323    8969.6615    8900.1683    9104.8094    20.170143   -142.96781    57.572072   -8238.5875 
13375000    15.995794   -10093.008   -10032.025   -10093.008            0    8883.2796    24.540223    24.620851    22.647504    13683.648    9300.2826    8678.2169    8671.3392   -320.33126   -295.53712    73.249576   -8259.2598 
13376000    15.754358   -10094.367   -10034.304   -10094.367            0    9098.8298    24.574495    24.548583    22.668146     13674.99    8829.5734    9677.9174    8788.9986   -290.98307   -448.81993    161.88841   -8219.6723 
13377000    15.786763   -10093.817   -10033.631   -10093.817            0    9005.1422    24.548602    24.623832    22.625859    13676.894    9306.9214    8692.2887    9016.2164   -90.018586   -555.06341   -155.09599   -8237.4337 
13378000    15.545497     -10094.3   -10035.033     -10094.3            0    9106.6747     24.57902    24.600762    22.608832    13670.716    8884.4529    9187.8815    9247.6896    12.183622   -49.813857    373.17629   -8219.4049 
13379000    15.306153   -10092.329   -10033.975   -10092.329            0    9019.0713     24.56479    24.571583    22.660042    13677.506    9004.9297    9391.4666    8660.8176   -125.74442   -180.04314    51.041908   -8234.9196 
13380000    15.420756   -10095.298   -10036.507   -10095.298            0    9143.2981    24.531787    24.634413    22.617528    13668.364    9639.2868    8722.4143    9068.1933   -83.254736   -256.25479    248.75877   -8213.8903 
13381000    15.027063    -10093.97    -10036.68    -10093.97            0    9053.8011    24.551188    24.576498    22.663627     13674.83    9150.2935    9264.5621    8746.5475   -86.183351   -26.642264    130.48832   -8231.0504 
13382000    15.209872   -10093.464   -10035.477   -10093.464            0    9046.6048    24.579528    24.590566    22.624474    13674.786    9066.4422    9258.2623    8815.1099     -371.445   -57.731855      297.193   -8231.2875 
13383000    15.491788   -10094.705   -10035.643   -10094.705            0    9057.4556    24.550197    24.614986    22.633095    13677.242    9149.1782    9072.5559    8950.6327   -241.39291   -75.348756   -140.03613   -8228.9654 
13384000    15.692844   -10096.326   -10036.498   -10096.326            0    9099.7886    24.586694    24.603378    22.593748    13667.313    9125.8588    9125.8024    9047.7046   -80.670944   -215.92895    85.666622   -8222.6941 
13385000    15.407346   -10097.151   -10038.411   -10097.151            0    8968.7511    24.545836    24.611029    22.643172    13678.701    9133.5536    8795.6644    8977.0352   -93.775757   -269.28866   -22.285903   -8249.2368 
13386000    15.337744   -10091.932   -10033.458   -10091.932            0    9158.9002    24.571083    24.589458    22.630114     13672.88    8958.6215    9250.9158    9267.1632   -186.13974    -407.1692   -75.000036   -8207.1281 
13387000    15.507025   -10094.933   -10035.813   -10094.933            0    9209.7535    24.593448    24.596584    22.598287    13670.039    9019.2431    9167.2406    9442.7769   -3.5834701   -318.95354    178.65006   -8199.7248 
13388000    15.481241   -10094.035   -10035.013   -10094.035            0    9038.2723    24.566148    24.617939    22.613324    13675.813     9002.142    8881.2656    9231.4092   -105.23512    -334.4363    78.310275   -8232.3504 
13389000    15.048195   -10093.628   -10036.257   -10093.628            0    9017.7676     24.57818    24.602026    22.613408    13673.718    9041.5285    8864.9788    9146.7955   -234.58634    52.948253    186.29054   -8237.9598 
13390000    15.920062   -10095.121   -10034.426   -10095.121            0    9095.0404    24.568892    24.580713    22.636389    13670.587    9072.8108    9144.0474    9068.2629   -241.46379   -115.93772   -523.64437   -8221.1345 
13391000    15.376588   -10096.035   -10037.413   -10096.035            0      8856.96    24.579989    24.622337     22.60773    13682.578    8926.8158    8702.3651    8941.6991    89.056514   -285.17528    393.80522   -8270.0388 
13392000    15.218285   -10095.425   -10037.406   -10095.425            0    9073.2728    24.585035    24.565902    22.642575    13675.064    9012.0711    9211.1814    8996.5659   -276.60538   -45.449829    198.72457   -8227.8613 
13393000    15.498825   -10094.666   -10035.577   -10094.666            0    9007.7699    24.545303    24.622327    22.632699    13678.354    9086.2497    8927.4563    9009.6036   -27.044357    62.702576    53.137491   -8238.6641 
13394000    15.790938   -10097.392   -10037.189   -10097.392            0     8726.021    24.551652    24.624535    22.638145    13686.412     9115.866    8658.7193    8403.4777    63.279776   -423.73949   -20.935174   -8295.4557 
13395000    16.115012   -10093.657   -10032.219   -10093.657            0    9021.3393    24.597704    24.576128    22.626344    13677.994    8707.1945     9429.429    8927.3945    -313.1541   -514.50201    340.30568   -8232.6466 
13396000    15.552006   -10092.968   -10033.677   -10092.968            0    9177.2579    24.549728    24.608126    22.628902    13670.635    9075.7231    9167.6717    9288.3788    105.12481    72.658282    44.639798   -8203.9867 
13397000    15.592172   -10093.861   -10034.416   -10093.861            0    9066.9678    24.569398    24.557595    22.660073    13672.302    9141.9405    9471.0433    8587.9194   -316.79559    125.76794   -28.133405   -8226.4946 
13398000    15.338727   -10095.659    -10037.18   -10095.659            0    9048.1335    24.551742    24.583062    22.656679    13674.597    9263.3013    8960.7581     8920.341   -190.48859   -108.80164    86.509755   -8232.7115 
13399000    15.400888   -10093.782   -10035.066   -10093.782            0    9011.2267    24.557582    24.615445    22.628572    13678.877    9049.9778    8980.1423    9003.5601   -200.40303    74.473783   -170.95295   -8237.3953 
13400000    15.499249   -10094.249   -10035.159   -10094.249            0    9264.7312    24.549088    24.578465    22.653593    13668.701    9331.3996    9334.2362    9128.5579   -173.03259   -141.84997    -102.7712   -8188.2905 
13401000    15.564874   -10093.733   -10034.393   -10093.733            0    9032.3963     24.55638    24.613551    22.622401    13673.425    9289.3193    9110.7782    8697.0914   -344.89853   -219.37254    105.86684   -8233.2164 
13402000    15.485053   -10096.412   -10037.376   -10096.412            0    8907.6995    24.578739    24.581892    22.645261    13682.083    8695.2793    9244.4546    8783.3647   -30.152609   -464.08414    405.98841   -8259.9416 
13403000    15.917941   -10092.532   -10031.846   -10092.532            0    9275.1584     24.56309    24.601415    22.616346    13666.759    9053.9276    9233.6818    9537.8659   -472.10853   -110.02131    86.398771   -8183.1614 
13404000    14.984949   -10094.945   -10037.815   -10094.945            0    8913.2864    24.528632     24.62162    22.659446    13684.825    9578.3456    8623.6377    8537.8761   -157.60839    89.435562    216.69555   -8258.9095 
13405000    15.776379   -10094.935   -10034.788   -10094.935            0    9159.0558    24.577031    24.604052    22.613163    13674.056    8997.0618    9123.9802    9356.1255    49.499402   -114.47602    271.90434   -8208.2703 
13406000    14.777527   -10096.267   -10039.928   -10096.267            0    9149.9469    24.544943    24.592005     22.64942    13671.402    9226.7442     9185.777    9037.3194   -498.85741   -255.11955    196.86218   -8215.5809 
13407000     15.35452   -10093.345   -10034.807   -10093.345            0    9048.0086    24.579928    24.582692    22.632437    13675.442    9180.4687    9076.8279    8886.7291    50.479231   -292.09813     278.7933   -8230.2511 
13408000    15.463656   -10092.883   -10033.929   -10092.883            0    9173.6208    24.577248    24.582039    22.626885    13670.233    9118.7696    9343.5077    9058.5852    31.081314    -346.1374    332.05296   -8205.0179 
13409000    15.222968   -10090.924   -10032.887   -10090.924            0    9164.3894    24.591483    24.594016    22.612037    13675.835    9171.4569    8978.0766    9343.6349   -327.16232    -186.3276    337.60349   -8205.0672 
13410000    15.181529   -10093.547   -10035.668   -10093.547            0    8885.7743    24.516383     24.64087    22.654237    13685.538    9406.0289    8624.3866    8626.9075   -147.93616     -52.6424    243.73185   -8262.1609 
13411000    15.505542   -10096.296   -10037.182   -10096.296            0    9272.5132    24.575369    24.549106    22.654122    13667.307    8910.5842    9658.3242    9248.6313   -199.58687   -353.43054    204.57334   -8188.9507 
13412000    15.501513   -10095.424   -10036.325   -10095.424            0    8927.8352    24.542023    24.609819     22.64734    13678.421    8925.2136     8999.154    8859.1379   -316.35063   -185.21945    68.531023   -8255.3494 
13413000    15.317106   -10092.265   -10033.869   -10092.265            0    9080.7568    24.532889    24.610058    22.650039    13675.093    9294.9407    8815.9679    9131.3618    -305.5674   -50.766863    227.68159   -8222.8285 
13414000    15.169746   -10093.767   -10035.933   -10093.767            0    9068.6669    24.595142    24.571734    22.626576    13674.264    8986.9536     9292.067      8926.98   -224.62776    25.746204    385.17495   -8227.4128 
13415000     15.59023   -10094.466   -10035.029   -10094.466            0    9146.6536    24.540924     24.61977    22.629814    13672.751    9561.5978    8917.3147    8961.0482   -223.16633   -187.58589    230.04922   -8211.1586 
13416000     15.51434   -10092.601   -10033.453   -10092.601            0    9058.2997     24.55427    24.621491    22.621656    13676.211    9163.4121    9053.7343    8957.7526   -10.653153   -392.23716   -27.677345   -8226.7438 
13417000    15.002438    -10095.64   -10038.443    -10095.64            0    9008.8405    24.564205    24.604423    22.623043    13673.098    9239.4104    8641.5099    9145.6012   -65.702582   -157.34765    115.22131   -8242.0076 
13418000    15.363207   -10089.775   -10031.203   -10089.775            0    9197.5285    24.533718    24.624398    22.633727    13673.669    9223.5074    9163.1213    9205.9567    77.289622   -337.11505    250.27618   -8197.0648 
13419000     14.84847   -10090.769    -10034.16   -10090.769            0    9048.9003    24.571747    24.595275    22.629697    13676.232    9181.7973    8913.8624    9051.0412      -136.88    -218.8182    210.38812   -8229.3225 
13420000    15.693887   -10096.759   -10036.927   -10096.759            0    8937.9943    24.607508    24.577447    22.620693    13680.763    8692.4704    9149.1401    8972.3725   -162.80758   -11.805691   -105.82633   -8253.6192 
13421000    15.168513    -10092.61   -10034.781    -10092.61            0    9248.9716    24.555325    24.629551    22.598427    13667.226    9540.0616    8690.2292    9516.6239   -124.89344   -515.06471    218.39082   -8191.2531 
13422000    15.281276   -10094.627   -10036.368   -10094.627            0    9003.9905    24.597421    24.590634     22.61336    13678.057    8591.3172    9206.6351    9214.0192   -17.242385   -191.14947    41.418418   -8240.2484 
13423000    15.316285   -10092.754   -10034.361   -10092.754            0    9230.6544    24.563804    24.640549    22.583745    13669.164    9299.0856     8581.694    9811.1836   -138.82091   -318.17471   -92.893455   -8194.2232 
13424000    15.744625   -10095.866    -10035.84   -10095.866            0    9143.7927    24.588197    24.594829    22.607355    13671.628    8812.7149    9155.0935    9463.5697   -222.92253   -94.148233    272.49773   -8212.6896 
13425000    15.616642   -10095.885   -10036.347   -10095.885            0    9040.1988    24.548557    24.580424    22.669943     13679.36     9316.332    9179.2429    8625.0216   -193.93483   -226.86607    276.17579   -8232.8324 
13426000    14.900206   -10092.627    -10035.82   -10092.627            0    9221.2669    24.578825    24.597756    22.614941     13672.63    8982.0769    9452.9148     9228.809   -461.79856   -555.19307    39.562804   -8197.0878 
13427000     15.35414   -10092.397    -10033.86   -10092.397            0    9103.0831    24.565896    24.606502    22.619649    13673.143    8972.2093    9075.6883    9261.3517   -263.78652   -330.86936    135.46151   -8218.6255 
13428000    15.331833   -10092.205   -10033.753   -10092.205            0     9125.807    24.614736    24.586018    22.584511    13667.657     8919.266    9244.0799    9214.0751   -306.85183   -286.02401    249.11838   -8214.7173 
13429000    15.394331   -10094.334   -10035.644   -10094.334            0    9112.7603    24.541401    24.590928    22.658745    13674.458     9311.757    9017.0352    9009.4887   -418.73581   -130.41309    229.99331   -8218.3047 
13430000    15.200679   -10094.036   -10036.084   -10094.036            0    9049.3762    24.542327    24.608008    22.645654    13676.566     9139.186    9109.4965     8899.446   -258.26245   -307.86891     9.185919    -8231.107 
13431000     15.53663   -10093.531   -10034.298   -10093.531            0    9094.6673    24.603682    24.579792    22.604414    13670.096    9013.9357    9252.7227    9017.3434   -205.48586   -372.02161    239.75867   -8221.1456 
13432000    15.782563   -10091.993   -10031.823   -10091.993            0    9330.1973    24.551082    24.582869    22.644808    13666.957    9445.0168    9421.9871     9123.588   -217.97051    146.81295      29.8387   -8172.1414 
13433000    15.469185   -10094.872   -10035.897   -10094.872            0    9031.0973    24.584191    24.609127    22.604322    13675.512    8731.9305    9103.4565    9257.9049   -184.73511   -270.50289    239.71211   -8234.7048 
13434000     15.68002   -10093.223   -10033.444   -10093.223            0     9174.409    24.559749    24.587623    22.642018    13672.742    8998.4125    9204.3221    9320.4925   -120.67573   -300.83572    252.70512   -8204.0398 
13435000    15.996848   -10093.038   -10032.051   -10093.038            0    9143.0063    24.546502     24.61005    22.632425    13672.036    9403.9252    8909.5842    9115.5094   -127.26456   -128.41474    610.98208   -8209.0031 
13436000     15.87594   -10092.766    -10032.24   -10092.766            0    9234.8189    24.544618    24.565307    22.679275     13674.38    9152.0386    9575.4825    8976.9357   -201.16144    221.68201    213.31992   -8190.5695 
13437000    15.250144   -10094.862   -10036.721   -10094.862            0    9230.8662    24.588741    24.576802    22.616185    13667.246    8929.8506    9477.7608    9284.9872   -309.49758    22.575987     133.8016   -8196.7994 
13438000    16.029447   -10094.706   -10033.594   -10094.706            0    8803.6357    24.551258    24.629547     22.62902     13683.46    9122.1087    8598.6511    8690.1473   -2.0136968   -489.95283     69.70222   -8276.7473 
13439000    15.616448    -10096.36   -10036.823    -10096.36            0     9256.796    24.575687    24.571159    22.635575    13668.562    9360.9638    9460.7307    8948.6936   -174.28092   -79.849525    221.51768   -8191.5548 
13440000    15.974057     -10093.8     -10032.9     -10093.8            0    9053.2658    24.578987    24.557287    22.663514    13679.543    9058.1552    9402.8247    8698.8175   -189.80088   -172.44386    280.37589   -8226.7541 
13441000    15.624331   -10093.365   -10033.798   -10093.365            0    9181.3443    24.560156    24.609505    22.616164    13669.509    8791.4862    9424.4656     9328.081    -145.0302   -152.59315    50.758654   -8203.4438 
13442000    15.626632   -10092.875   -10033.299   -10092.875            0    9257.8909    24.596467    24.581068     22.60575    13667.604    8844.1604     9465.613    9463.8993    56.329367   -59.447018    7.8164724   -8187.9427 
13443000    15.124475   -10092.241    -10034.58   -10092.241            0    9028.5932    24.557422    24.606663    22.632429    13676.239    9082.1628     9049.664    8953.9528   -160.72717   -569.06013    228.32083   -8233.7914 
13444000    15.090358   -10092.947   -10035.416   -10092.947            0    9164.5103    24.574699    24.623668    22.594223    13672.199      9289.56    8809.4339     9394.537    68.322448   -137.57491    281.26569   -8208.0585 
13445000    15.600978   -10093.853   -10034.375   -10093.853            0    9174.3065    24.586552    24.579829    22.620266    13670.179    8797.5435    9413.1897    9312.1862   -348.43296    44.747982   -140.59341   -8205.3346 
13446000    15.692078   -10093.232   -10033.407   -10093.232            0    9117.2468    24.566421    24.576337       22.645    13671.978    9150.6881    9181.3528    9019.6996    192.63561   -299.46289     165.4536   -8215.5029 
13447000    15.128151   -10092.276   -10034.601   -10092.276            0    9212.5312    24.542003    24.596028    22.645282    13669.503    8962.5423    9649.2496    9025.8016   -124.30702   -179.20104    253.79036   -8198.0304 
13448000    16.066095   -10095.285   -10034.034   -10095.285            0    9103.7074    24.570016    24.610924    22.615225    13675.218    9324.4609    8605.6252     9381.036   -279.81663   -186.32621    274.65719    -8218.399 
13449000    15.635767   -10092.636   -10033.025   -10092.636            0    9082.6637    24.574809    24.569076    22.651135     13676.31    8839.3285    9473.4161    8935.2464   -28.060913   -147.53684   -17.619241   -8221.4428 
13450000    15.448057   -10092.966   -10034.071   -10092.966            0    9176.0853    24.536642    24.614929    22.631922     13668.95    9536.8422    9087.0934    8904.3204   -154.25604   -186.72261   -139.15189   -8204.8402 
13451000     15.87829   -10093.687   -10033.152   -10093.687            0     8997.128    24.594882    24.594944    22.607212    13675.323    8740.4453    9017.0897    9233.8488   -230.58155   -35.088657    116.58718   -8238.7593 
13452000    15.374516    -10093.37   -10034.756    -10093.37            0    9235.2672    24.582164     24.59321    22.605054    13665.983    9065.9833    9194.2592    9445.5591   -79.128566   -131.59122    75.749146   -8194.1268 
13453000    15.195032    -10096.23     -10038.3    -10096.23            0    8939.0137    24.543374    24.648024    22.610969    13678.408    9297.0194     8400.277    9119.7445   -149.25689   -327.19442   -35.567748   -8255.0958 
13454000    15.874573   -10093.996   -10033.475   -10093.996            0      9064.96    24.588163    24.601975    22.604269    13673.715    8911.8096     8914.832    9368.2384    -61.29046   -127.39824    149.37037   -8225.7665 
13455000    15.652913   -10095.856    -10036.18   -10095.856            0    9221.0496    24.574214    24.591633    22.616539    13667.628    9156.1226    9264.3783    9242.6479   -71.216978   -602.77806    142.23688   -8198.1636 
13456000    14.458363   -10093.807   -10038.685   -10093.807            0    9285.9464    24.556554    24.568877    22.654924    13668.327     9278.575    9353.7712    9225.4929   -221.11199    -34.61656    365.90741   -8187.6384 
13457000    15.481727   -10093.495   -10034.472   -10093.495            0    9113.5246    24.586418    24.590315    22.612365    13671.159    8958.8372    9170.4775    9211.2589   -292.85238   -164.81253    244.42114   -8217.4186 
13458000    15.461192   -10093.963   -10035.018   -10093.963            0    9190.2126     24.58703    24.593288    22.607594    13670.267    8997.7713    9266.1468    9306.7197    41.718434   -316.30112    196.34818   -8202.7946 
13459000    15.671567   -10091.363   -10031.616   -10091.363            0      9041.52    24.557399    24.586273    22.651243    13676.252    9231.3645    8955.0196    8938.1758   -77.684259   -462.29403    21.379068   -8228.2473 
13460000    15.715828   -10093.808   -10033.893   -10093.808            0    9178.1448    24.554625    24.562972    22.667804    13671.736    9120.5888    9735.4387    8678.4068   -59.668868   -239.29546    301.18007   -8203.8784 
13461000    15.849906   -10093.624   -10033.197   -10093.624            0    9131.8447    24.577145    24.643492    22.574504    13672.625    9142.1623    8598.2416    9655.1303    28.582746   -189.52099    333.97883   -8212.2963 
13462000    15.114629   -10092.943   -10035.319   -10092.943            0    8962.9975    24.554096     24.57565     22.66841    13678.863    9041.0472    9286.1897    8561.7555   -92.455424    1.8837998   -106.37794   -8247.2714 
13463000    15.480251   -10095.296   -10036.279   -10095.296            0    9145.6332    24.573207    24.602739    22.616981    13673.508    9266.2591    9048.3548    9122.2856   -173.26782    156.40197    395.12962   -8212.5106 
13464000    15.794967    -10094.39   -10034.172    -10094.39            0    9120.3142    24.556497    24.617392    22.613718    13670.374    8874.5971    9149.5848    9336.7606   -196.38303    54.191563    136.19965   -8215.8696 
13465000    14.874952    -10091.66    -10034.95    -10091.66            0    9176.8192    24.587674    24.604175    22.596652    13670.058    8970.7574    9279.2201    9280.4803    -155.8126    81.264938   -210.37689   -8205.4248 
13466000    15.335075    -10095.04   -10036.576    -10095.04            0    8985.2786    24.547265    24.599968    22.649096    13676.927    9107.1768    9024.4219    8824.2372   -334.64297   -24.051734    342.14107   -8244.3369 
13467000    15.515442   -10092.041   -10032.889   -10092.041            0    9227.6534     24.57459    24.588439    22.622588    13669.717    9120.3527    9194.8375    9367.7699   -51.210411   -401.79298    313.83321   -8193.2755 
13468000    14.890034   -10092.205   -10035.437   -10092.205            0    8972.3097    24.581128     24.59283    22.627794    13678.943    8771.0189    9245.8739    8900.0363   -133.74735   -396.61368    65.739419    -8245.521 
13469000     14.82346   -10093.558   -10037.044   -10093.558            0    9010.5429    24.544406    24.606707    22.648359    13678.635    9388.7477    8844.5663    8798.3146   -380.49832    81.463681    8.6704457    -8239.541 
13470000     15.52366   -10093.966   -10034.783   -10093.966            0    9115.7944    24.568567    24.565927    22.650336    13670.602    8961.9072     9311.925     9073.551   -147.20248    143.48636   -111.75462   -8217.3517 
13471000    15.398245   -10093.663   -10034.958   -10093.663            0    9230.0858     24.57449    24.600722    22.614365    13671.519    9092.2751     9222.126    9375.8562    15.770344   -55.845323   -288.20773   -8194.6163 
13472000    14.919446   -10093.959   -10037.079   -10093.959            0    8945.4704    24.581024    24.618578    22.602755    13678.054    8975.2791    8890.1347    8970.9974   -111.06768   -243.61432    200.16031   -8252.6335 
13473000    15.680046   -10094.746   -10034.967   -10094.746            0    9009.3416    24.551239    24.574203    22.669062    13676.861    9114.6344    9247.8445    8665.5459   -252.42543   -199.99249    132.68535   -8237.9365 
13474000    15.956304   -10093.414   -10032.581   -10093.414            0    8892.0416    24.562399    24.603417    22.641396    13682.625    9052.9215    8719.0302     8904.173   -237.18019   -215.19104   -21.536499   -8258.2007 
13475000    15.146493    -10095.04   -10037.294    -10095.04            0    9021.8435    24.587489    24.613252    22.606046    13680.683    8995.7468    8812.4723    9257.3115   -96.511759   -466.72225     296.3483   -8237.2675 
13476000    15.727572   -10094.769   -10034.808   -10094.769            0    9009.3568    24.584253    24.591049    22.624634    13677.781    8768.3347    9238.9229    9020.8127    19.663164    -31.90725    451.82691    -8237.654 
13477000    15.740799   -10092.541    -10032.53   -10092.541            0    9176.9472    24.542724    24.591272    22.650255    13670.263    9332.0588    8893.6685    9305.1142   -228.09805   -353.33293    400.92714   -8202.9514 
13478000    15.911323   -10092.312   -10031.651   -10092.312            0    9122.9811    24.567286    24.609191    22.606981    13667.751    9146.5416    8918.3656     9304.036   -301.26413    208.38422    117.31046   -8213.1661 
13479000    15.312994   -10093.858   -10035.478   -10093.858            0    9055.9655    24.557805    24.590099    22.644115    13674.303     9173.943    9112.7495    8881.2038   -129.31758   -412.03169   -221.82601   -8229.4855 
13480000    15.671098   -10094.786    -10035.04   -10094.786            0      8981.61    24.572565    24.579952    22.647894    13679.157    8918.1492    9112.6077    8914.0731   -86.418387   -7.0061246    8.6928273   -8243.2409 
13481000    15.621033   -10090.697   -10031.143   -10090.697            0    9176.9884    24.546176    24.602276    22.642638    13673.703    9104.9941    9273.5415    9152.4295   -142.50674   -421.42885    49.821153   -8201.0959 
13482000    15.801548   -10093.197   -10032.955   -10093.197            0     9250.403    24.585324    24.565783    22.632796    13669.252    9012.5939     9333.534    9405.0811   -116.02206   -21.303285     49.81232    -8188.868 
13483000     16.15852   -10094.849   -10033.245   -10094.849            0    9109.7854    24.561651    24.618028    22.621522    13678.316    9111.5163    8881.2107    9336.6293   -82.995022   -49.694741    416.52011   -8215.9866 
13484000    15.841816   -10092.727    -10032.33   -10092.727            0    9200.9271    24.563037    24.583615    22.637224    13669.448     8819.152    9595.3399    9188.2892    -443.9737   -100.91643   -108.28108   -8198.0807 
13485000    15.058738    -10094.04    -10036.63    -10094.04            0    9122.8182    24.584494    24.595002    22.610799    13671.748    9082.1531    9112.2478    9174.0537   -70.396246   -300.50459     388.7219   -8217.6454 
13486000    15.684942   -10094.197   -10034.399   -10094.197            0    8982.7134    24.557319    24.598359     22.64741    13680.615    9129.3054     8905.006    8913.8289   -130.23467   -307.49777    355.51286   -8242.1878 
13487000    15.520042   -10094.832   -10035.663   -10094.832            0    9104.0487    24.585725     24.59484    22.611611    13672.834    8834.0508    9220.9725    9257.1227   -94.698672    23.528922    358.73966   -8220.2767 
13488000    16.077382   -10092.333   -10031.038   -10092.333            0    9141.5589    24.575982    24.610192    22.606976    13673.143    8833.4066    9029.4898    9561.7804   -124.90589   -14.669556    310.17964   -8208.1313 
13489000    15.526941   -10093.244   -10034.049   -10093.244            0    8919.4744     24.55158    24.606082    22.645942    13680.826    8911.2319    9045.0733    8802.1181   -235.70161    2.7852591    12.699483   -8254.4278 
13490000    15.810149   -10093.247   -10032.971   -10093.247            0    9025.3431    24.542933    24.614663      22.6426    13678.758    9158.2344    9053.7551    8864.0397   -314.93097   -345.23076   -35.462192   -8232.4997 
13491000    15.779251   -10093.926   -10033.768   -10093.926            0    9186.2725    24.560933    24.601267    22.629578    13673.472    9280.6588    8994.8128    9283.3458   -339.32146   -156.42837   -103.66869   -8201.9011 
13492000    14.911082   -10089.506   -10032.658   -10089.506            0     9045.195     24.57649    24.583954    22.636706    13676.811    9090.1736     9092.896    8952.5152    10.062352   -184.32488    121.17972   -8228.4831 
13493000    15.390458   -10093.934   -10035.258   -10093.934            0     9249.037    24.527105    24.604952    22.651529    13669.931    9338.3837    9070.0481    9338.6793   -21.489454   -222.75305    236.78941   -8191.3526 
13494000    15.333086   -10094.342   -10035.886   -10094.342            0    9055.2429    24.555703    24.626021    22.614535    13675.219    9044.1246    8913.8219    9207.7821   -356.28961   -126.06517    146.65923   -8229.9166 
13495000    15.701596   -10095.119   -10035.257   -10095.119            0    9082.7666    24.580178    24.575034    22.640845      13676.4    8935.1374    9320.8409    8992.3215   -24.239051   -111.88319    311.11172   -8223.6426 
13496000    15.309913    -10094.58   -10036.212    -10094.58            0    9172.4873    24.525393    24.614462    22.652303    13674.727    9340.9558    8978.0713    9198.4348    -270.5245    16.714623     321.9227   -8206.9258 
13497000    15.912866   -10093.225   -10032.558   -10093.225            0    8937.7231    24.580036    24.601723    22.629231     13684.15    8898.1463    8794.0446    9120.9786   -300.81469   -367.04944    250.34505   -8248.8628 
13498000    14.549781   -10093.275   -10037.805   -10093.275            0     8911.459    24.575579    24.603146    22.623742    13679.142    8893.3056    8922.3428    8918.7285    -125.9823   -189.66083   -182.98589    -8260.002 
13499000    15.029313     -10094.7   -10037.401     -10094.7            0    9180.2104    24.550648    24.620086    22.619868    13672.332    9374.8776    8971.6929    9194.0607   -221.68312   -333.79626     212.7892   -8206.8951 
13500000    16.127078   -10095.866   -10034.382   -10095.866            0    8928.9224    24.562894    24.560316    22.680201     13682.34    9354.4862    8803.2685    8629.0124   -322.69403   -2.5822969    362.89403    -8252.679 
Loop time of 516.035 on 64 procs for 250000 steps with 1920 atoms

Performance: 83.715 ns/day, 0.287 hours/ns, 484.463 timesteps/s
196.2% CPU use with 32 MPI tasks x 2 OpenMP threads

MPI task timing breakdown:
Section |  min time  |  avg time  |  max time  |%varavg| %total
---------------------------------------------------------------
Pair    | 72.86      | 74.109     | 76.961     |  10.5 | 14.36
Bond    | 0.87398    | 1.013      | 1.2606     |   7.3 |  0.20
Kspace  | 239.46     | 245.1      | 251.11     |  18.3 | 47.50
Neigh   | 0.1331     | 0.14174    | 0.15369    |   1.3 |  0.03
Comm    | 73.995     | 81.071     | 87.112     |  35.5 | 15.71
Output  | 0.65577    | 0.65612    | 0.65864    |   0.1 |  0.13
Modify  | 89.692     | 94.101     | 98.248     |  23.7 | 18.24
Other   |            | 19.84      |            |       |  3.84

Nlocal:        60.0000 ave          62 max          58 min
Histogram: 1 0 3 0 0 24 0 3 0 1
Nghost:        3721.06 ave        3741 max        3691 min
Histogram: 2 0 1 1 5 5 5 8 2 3
Neighs:        22228.9 ave       22855 max       21295 min
Histogram: 1 0 0 3 3 8 9 4 2 2

Total # of neighbors = 711324
Ave neighs/atom = 370.48125
Ave special neighs/atom = 2.0000000
Neighbor list builds = 250
Dangerous builds = 0

unfix		3
unfix		2
unfix		1

write_data	data.final.${pid}
write_data	data.final.1
System init for write_data ...
PPPM initialization ...
  extracting TIP4P info from pair style
  using 12-bit tables for long-range coulomb (../kspace.cpp:340)
  G vector (1/distance) = 0.37565425
  grid = 30 30 30
  stencil order = 5
  estimated absolute RMS force accuracy = 0.0031317774
  estimated relative force accuracy = 9.4312545e-06
  using double precision FFTW3
  3d grid and FFT values/proc = 5400 960
Last active /omp style is kspace_style pppm/tip4p/omp
WARNING: Not all mixed pair coeffs generated from mixing. Use write_data with 'pair ij' option to store all pair coeffs. (../write_data.cpp:312)

write_restart   restart.lmp.${pid}
write_restart   restart.lmp.1
System init for write_restart ...
PPPM initialization ...
  extracting TIP4P info from pair style
  using 12-bit tables for long-range coulomb (../kspace.cpp:340)
  G vector (1/distance) = 0.37565425
  grid = 30 30 30
  stencil order = 5
  estimated absolute RMS force accuracy = 0.0031317774
  estimated relative force accuracy = 9.4312545e-06
  using double precision FFTW3
  3d grid and FFT values/proc = 5400 960
Last active /omp style is kspace_style pppm/tip4p/omp
Total wall time: 0:08:36
