LAMMPS data file via write_data, version 30 Jul 2021, timestep = 750000

1296 atoms
2 atom types
864 bonds
1 bond types
432 angles
1 angle types

-10.656365081854053 12.636365081854054 xlo xhi
-9.360864422041168 12.350862422041168 ylo yhi
-0.017098794705747267 21.877097794705612 zlo zhi
-9.128325464929864 1.6915616530852284 2.8769880634247125 xy xz yz

Masses

1 1.008
2 15.999

Pair Coeffs # lj/cut/tip4p/long/omp

1 0 0
2 0.21084 3.1668

Bond Coeffs # harmonic/omp

1 450 0.9572

Angle Coeffs # harmonic/omp

1 55 104.52

Atoms # full

293 98 1 0.5897 -4.909058817946622 -3.791772313851757 2.4708778109562943 1 1 0
242 81 1 0.5897 -0.9916695594732481 -6.619165651543865 4.247236510399914 0 1 0
280 94 2 -1.1794 -9.824676743624059 -4.522963838648427 1.2810232501972387 1 1 0
323 108 1 0.5897 -6.381368707492034 -5.631145487031484 3.5861732782180713 1 1 0
199 67 2 -1.1794 0.4015778470510529 -8.064843275039454 0.7317095879844999 1 1 0
282 94 1 0.5897 -10.681402482928101 -4.118117156680942 1.4169419671751657 1 1 0
270 90 1 0.5897 -8.484261121918516 -7.432677044925465 2.417437879104073 1 1 0
269 90 1 0.5897 -9.163000942384258 -6.083262550376155 2.3145033969922317 1 1 0
268 90 2 -1.1794 -9.146596584113128 -6.884385136880592 2.8381185144563155 1 1 0
281 94 1 0.5897 -9.244466583389467 -3.791587905447556 1.0696705016114514 1 1 0
305 102 1 0.5897 -1.6758791726076456 -6.091528971283198 2.1800382343312124 1 1 0
298 100 2 -1.1794 -5.815786440636664 -7.198503972492924 4.192750411349479 1 1 0
310 104 2 -1.1794 -3.603599343635511 -8.443863777056068 3.398328295489952 1 1 0
314 105 1 0.5897 -8.621636185053832 -6.635253870886984 4.591668478276059 1 1 0
299 100 1 0.5897 -6.392594893880359 -7.960425627673877 4.137785599624299 1 1 0
261 87 1 0.5897 -6.766605926140109 -4.94428968252415 1.2666582282254848 1 1 0
241 81 2 -1.1794 -1.0398864963819179 -6.378409082146314 5.172346911985289 0 1 0
304 102 2 -1.1794 -1.5301991974600515 -7.008737197207989 2.412001329625246 1 1 0
324 108 1 0.5897 -7.061050390857774 -4.292637753476135 3.78261254982045 1 1 0
163 55 2 -1.1794 -7.329260866672399 -8.104633743227593 1.0714600608242453 1 1 0
300 100 1 0.5897 -4.96424794648872 -7.520280205404235 3.8966712867587163 1 1 0
322 108 2 -1.1794 -6.341601710967054 -4.7146173166524745 3.3129343100089397 1 1 0
164 55 1 0.5897 -6.560713189075738 -8.658993350499077 1.2072161859238364 1 1 0
311 104 1 0.5897 -2.832945265498565 -8.092777037470846 2.9521914051608174 1 1 0
260 87 1 0.5897 -6.8554268047996185 -6.357661154689808 0.731459253742707 1 1 0
306 102 1 0.5897 -0.8661078054668909 -7.310553285743028 1.7922423474762414 1 1 0
316 106 2 -1.1794 -2.0310937909045528 -4.638272596737945 1.142506072150802 1 1 0
73 25 2 -1.1794 -8.583734095411234 -3.824235355733445 4.9068110641437 1 0 0
165 55 1 0.5897 -7.761365905138149 -8.47735916391822 0.3029668555392731 1 1 0
317 106 1 0.5897 -1.3048203680342265 -4.014849714021898 1.1542414875974967 1 1 0
275 92 1 0.5897 -10.479976774507072 -7.972357832305111 3.1879849266633102 1 1 0
318 106 1 0.5897 -2.8100239042863127 -4.102201083618549 1.2917180991100528 1 1 0
259 87 2 -1.1794 -6.7165377568599895 -5.451396569679643 0.4564208182476335 1 1 0
243 81 1 0.5897 -0.8080740610319754 -5.449881527558109 5.191112649953598 0 1 0
201 67 1 0.5897 -0.00429758429904048 -8.787442607837331 0.2528301155735065 1 1 0
655 219 2 -1.1794 -0.46933859370801834 -7.866557101728567 10.76922440128429 0 0 0
627 209 1 0.5897 -10.337404335883926 -7.136812980686308 6.1952478335622505 1 1 0
428 143 1 0.5897 -6.517209850671167 -7.333837799197253 10.039170165559351 1 0 0
420 140 1 0.5897 -9.195410484484631 -6.426871680937729 9.80322627195156 1 0 0
618 206 1 0.5897 -7.552103505731285 -7.609370088041685 6.523563497032855 1 1 0
334 112 2 -1.1794 -4.346644966214362 -4.951165233281689 9.792316741736629 0 0 0
413 138 1 0.5897 -7.3567627173217005 -3.7862618661501912 7.712679304429164 1 0 0
419 140 1 0.5897 -8.919005304375421 -5.4746328761651615 8.659324134607896 1 0 0
418 140 2 -1.1794 -9.626469094183225 -5.952155462514952 9.092508684485683 1 0 0
414 138 1 0.5897 -6.751718867211309 -5.168112007077279 7.584110983785128 1 0 0
427 143 2 -1.1794 -5.8299795196565105 -7.143485057075688 9.400697718663332 1 0 0
350 117 1 0.5897 -7.265040537678365 -4.524791295187054 9.993222887986205 0 0 0
412 138 2 -1.1794 -7.374577666983476 -4.659804893574746 8.103646139165031 1 0 0
349 117 2 -1.1794 -7.3163580618982476 -4.044020939066555 10.819282036169275 0 0 0
631 211 2 -1.1794 -5.27477050932109 -5.548801362900608 6.327733569576113 1 1 0
359 120 1 0.5897 -4.5450172918825595 -3.060547779678682 9.069794526578661 0 0 0
404 135 1 0.5897 -4.8976231874610185 -3.8159077091365905 5.895754249338907 1 0 0
632 211 1 0.5897 -4.503583044751842 -5.959044166945063 6.719366665746379 1 1 0
555 185 1 0.5897 -2.6185701372446104 -6.673201388458955 6.120592516301336 0 1 0
554 185 1 0.5897 -2.7034906406296617 -6.929000069698688 7.610203804448947 0 1 0
553 185 2 -1.1794 -3.17352313702587 -7.074645902066552 6.789183293232092 0 1 0
429 143 1 0.5897 -6.216655456259016 -7.374328554124832 8.556071021321056 1 0 0
348 116 1 0.5897 -1.5143003167655564 -6.5068658724320585 9.8613030044822 0 0 0
347 116 1 0.5897 -1.112445955967404 -5.586754030178497 8.728340675254522 0 0 0
346 116 2 -1.1794 -1.8753031648924168 -5.995898789190111 9.136826462634382 0 0 0
336 112 1 0.5897 -3.439595266904446 -5.211315118452586 9.631238150242618 0 0 0
546 182 1 0.5897 -0.1826202279227136 -7.406638080138178 6.331432188224002 0 1 0
335 112 1 0.5897 -4.84983819447949 -5.758945305748915 9.689665823829982 0 0 0
616 206 2 -1.1794 -7.177887499470275 -8.187746890770411 7.188196697860898 1 1 0
544 182 2 -1.1794 0.29627884008793437 -8.009560292620222 6.900175659827438 0 1 0
633 211 1 0.5897 -5.407344360333101 -6.022119826802778 5.506417412213587 1 1 0
356 119 1 0.5897 1.021428865370119 -7.416434958706974 9.84970520593984 0 0 0
626 209 1 0.5897 -10.493760798306049 -7.030964484699275 7.697211387032329 1 1 0
386 129 1 0.5897 0.12144324394650852 -4.325965033420954 9.980505964654691 0 0 0
74 25 1 0.5897 -8.112541448443888 -3.3883849882632253 5.616911877725762 1 0 0
351 117 1 0.5897 -7.1085135825390715 -3.139746059243972 10.584051118195955 0 0 0
315 105 1 0.5897 -8.983278031659044 -5.502006457441572 5.528051415408636 1 1 0
313 105 2 -1.1794 -8.774035788250726 -6.436012161618432 5.515347702239521 1 1 0
652 218 2 -1.1794 -5.961829147890585 -5.4304587560666375 12.697339996219048 0 0 0
780 260 1 0.5897 -7.493946772506215 -4.453013245358674 15.310171973694057 0 0 0
779 260 1 0.5897 -7.344014048107464 -3.472972429305484 14.166143684138772 0 0 0
778 260 2 -1.1794 -8.001580698445649 -3.9078638733236586 14.708961546269391 0 0 0
768 256 1 0.5897 -9.572560985283618 -2.8999904355790944 14.99328878381547 0 0 0
654 218 1 0.5897 -6.408372057917362 -5.005854883550615 11.964808183617878 0 0 0
653 218 1 0.5897 -6.6466001690607515 -5.935995823710814 13.135194159788156 0 0 0
657 219 1 0.5897 -0.5610000239388864 -7.67781475141534 11.703078355316867 0 0 0
662 221 1 0.5897 -8.998073504177261 -4.476473322886486 13.431262715774832 0 0 0
767 256 1 0.5897 -11.025572682252424 -3.2425727048071282 14.741140542579709 0 0 0
663 221 1 0.5897 -8.886530217494307 -4.701488138760439 11.938440798240958 0 0 0
661 221 2 -1.1794 -9.519110047599385 -4.687961530849501 12.65663797493768 0 0 0
682 228 2 -1.1794 -7.973496723822733 -6.9178991414125335 13.75114651185512 0 0 0
729 243 1 0.5897 -8.077637052639783 -7.139330705401209 11.960928132413292 1 0 0
818 273 1 0.5897 -5.652793506301701 -2.103909468732267 15.208896697154346 0 0 0
774 258 1 0.5897 -5.353576591906174 -2.800816906162237 13.030233840542989 0 0 0
684 228 1 0.5897 -8.596971033613682 -6.606123635778717 14.407082696126729 0 0 0
740 247 1 0.5897 -10.949697266033008 -3.72924343924021 12.005253201882377 1 0 0
676 226 2 -1.1794 -3.232439928109968 -6.877548297952334 12.14917591818545 0 0 0
667 223 2 -1.1794 -4.00502665427056 -3.3722459656725885 12.097546046989796 0 0 0
788 263 1 0.5897 -4.887233751575862 -5.129952211429545 15.441117963896353 0 0 0
727 243 2 -1.1794 -8.008482783179181 -7.389902821224878 11.03976171237432 1 0 0
678 226 1 0.5897 -3.9986162779318057 -6.31284972050868 12.046728303755632 0 0 0
816 272 1 0.5897 0.4953863994931975 -4.184909342394366 15.574678701317481 0 0 0
814 272 2 -1.1794 -0.1490824271347133 -3.689930842379665 15.068680332136127 0 0 0
804 268 1 0.5897 -1.9025133944621615 -2.933310846670236 15.238727135213848 0 0 0
803 268 1 0.5897 -3.302218052033476 -3.4041015322633177 14.905048587517829 0 0 0
757 253 2 -1.1794 -9.829413024063877 -5.9266903760433625 15.868956198208108 0 0 0
795 265 1 0.5897 -2.8173034973276447 -6.176043593663916 15.408304125956377 0 0 0
787 263 2 -1.1794 -4.226813646626958 -5.005588814156766 14.75955122837612 0 0 0
793 265 2 -1.1794 -1.9854837020666931 -6.477964492758885 15.773410206029832 0 0 0
720 240 1 0.5897 -0.8360705420090717 -7.192765568018155 14.299819803193396 0 0 0
698 233 1 0.5897 -1.3045551753519682 -4.491550299984874 13.650720585746734 0 0 0
668 223 1 0.5897 -3.1736758233535722 -3.633710796571455 12.493645993382415 0 0 0
789 263 1 0.5897 -4.677412152911179 -5.229378670840116 13.945237647524378 0 0 0
699 233 1 0.5897 -0.9053116171345632 -4.49463882507011 12.190540344480446 0 0 0
697 233 2 -1.1794 -1.6211090301278048 -4.731991039518025 12.779990783150032 0 0 0
677 226 1 0.5897 -2.5158862357937988 -6.2757015770027245 12.350720226723094 0 0 0
802 268 2 -1.1794 -2.7442560798798006 -2.626339506522945 14.901608665818404 0 0 0
766 256 2 -1.1794 -10.441007226344965 -2.5048675570876036 14.91532474455318 0 0 0
689 230 1 0.5897 0.95923620733371 -6.484704155661449 12.493836282176076 0 0 0
817 273 2 -1.1794 -5.670008474526556 -1.9049597107148237 16.144972627428317 0 0 0
669 223 1 0.5897 -4.072536226400127 -3.906808468812071 11.306440775650886 0 0 0
772 258 2 -1.1794 -6.00658096002303 -2.2888549857147664 13.50746959342317 0 0 0
1120 374 2 -1.1794 -4.31108620601656 -3.0869724445308506 18.268028246332136 0 0 0
1188 396 1 0.5897 0.5735833364403469 -4.03017627420089 19.812420312617768 0 0 0
1143 381 1 0.5897 -8.609475308899018 -5.316981799567129 21.677790839872955 0 0 0
1150 384 2 -1.1794 -6.4381746758575 -4.809325792601488 19.292518278899593 0 0 0
1087 363 2 -1.1794 -6.31915506017851 -5.321427315719369 16.570445239262526 0 0 0
1121 374 1 0.5897 -5.031302940468899 -3.551233591955743 18.694591408118555 0 0 0
1108 370 2 -1.1794 -9.47683489274758 -4.378816736864101 18.195142359749475 0 0 0
1152 384 1 0.5897 -7.067898984538228 -4.4055941022767415 19.889725357391875 0 0 0
1225 409 2 -1.1794 -8.221995028761603 -3.6074480883702886 21.065888914069518 0 0 0
1257 419 1 0.5897 -3.565981457236111 -2.1942241261595408 19.682071492199796 0 0 0
1227 409 1 0.5897 -8.945256257390875 -3.392138967757459 20.47690786993018 0 0 0
1248 416 1 0.5897 -6.088442158264776 -1.745147600332027 20.847970023564756 0 0 0
1219 407 2 -1.1794 -10.402189795230665 -2.05739858996151 20.252312936393288 0 0 0
1109 370 1 0.5897 -8.9080034094913 -3.609626499569613 18.1631734638503 0 0 0
1088 363 1 0.5897 -6.629400425830236 -6.200992268005253 16.785741090671728 0 0 0
1089 363 1 0.5897 -6.338014654607898 -4.849733554171009 17.403090746769664 0 0 0
1124 375 1 0.5897 1.194184667674362 -6.097983453803629 16.848562757542872 0 0 0
1262 421 1 0.5897 -0.6407207160306321 -2.971071953508317 21.652944094817776 0 0 0
1151 384 1 0.5897 -6.302940146232791 -5.688976333655541 19.6449640322936 0 0 0
1122 374 1 0.5897 -4.732183607141913 -2.570548116012592 17.580819681149706 0 0 0
1179 393 1 0.5897 -1.150313643042379 -5.206622578621443 21.291704234975555 0 0 0
1144 382 2 -1.1794 -1.8887345088839957 -4.455573099385239 17.80537506745769 0 0 0
1145 382 1 0.5897 -1.2227976588698564 -3.789201266684014 17.974885813246154 0 0 0
1226 409 1 0.5897 -8.307243751428548 -2.985012638935636 21.788025311275554 0 0 0
1261 421 2 -1.1794 -0.9393759672808937 -3.4526219056592184 20.881508889581852 0 0 0
1097 366 1 0.5897 -9.136777286493906 -5.971056036668112 18.84541649286011 0 0 0
1110 370 1 0.5897 -10.35512025784719 -4.022403112126854 18.329137888061005 0 0 0
1263 421 1 0.5897 -1.7240640425257752 -2.984808679033385 20.59544601176833 0 0 0
1146 382 1 0.5897 -2.719659422008327 -4.016018260263955 17.98625198903678 0 0 0
1133 378 1 0.5897 -1.4661356199419266 -6.140237053515132 18.46982612014994 0 0 0
1255 419 2 -1.1794 -3.1586382098915182 -1.9122399197411042 20.501075776354526 0 0 0
1256 419 1 0.5897 -3.8197670610487027 -2.087642148516684 21.17062297262885 0 0 0
1165 389 2 -1.1794 -0.2577029923660916 -2.061914203208633 17.878218091396988 0 0 0
1129 377 2 -1.1794 -7.792002699151671 -2.2228372590256855 17.942583912425448 0 0 0
1131 377 1 0.5897 -7.129233599411963 -2.1134607803446768 17.260725255369344 0 0 0
1130 377 1 0.5897 -7.351414843833694 -1.9580293837636074 18.750033859328887 0 0 0
1166 389 1 0.5897 0.23087655807176688 -1.7143298927166342 18.62434471634844 0 0 0
1187 396 1 0.5897 1.408229494643118 -5.28817825646747 19.926619832502034 0 0 0
1186 396 2 -1.1794 1.430531252109322 -4.393075044196728 19.588157478175006 0 0 0
1141 381 2 -1.1794 -8.554778318506525 -6.270547437193661 21.741135935452164 0 0 0
1221 407 1 0.5897 -10.871064955498278 -2.2778338764597947 19.447459384698007 0 0 0
1177 393 2 -1.1794 -1.3419133012566729 -6.1265303443452765 21.47419097288938 0 0 0
1142 381 1 0.5897 -8.418598216251166 -6.563510535661868 20.840176383160838 0 0 0
758 253 1 0.5897 -9.710473496048541 -5.3073117094052735 16.588963697154995 0 0 0
1178 393 1 0.5897 -1.4132153433916894 -6.532778807565091 20.610466357546706 0 0 0
794 265 1 0.5897 -1.7430959741059358 -5.8036522398420365 16.408039968114323 0 0 0
96 32 1 0.5897 -6.0856302578161054 -2.1400112359059085 4.288453465833848 1 0 0
69 23 1 0.5897 -11.173648228303644 -2.884576857238293 3.06604298885366 1 0 0
53 18 1 0.5897 -12.385233859132395 0.8893877567703967 2.102308852892193 1 0 0
272 91 1 0.5897 -9.668927023360826 -1.4212173950601539 0.8434116946870169 1 1 0
271 91 2 -1.1794 -10.422940541411089 -0.9574693362535065 0.4789800361658079 1 1 0
292 98 2 -1.1794 -4.266837860453122 -3.3916954189399062 1.8846743445830014 1 1 0
54 18 1 0.5897 -11.624077843336021 -0.37417562961337225 1.7614808578117562 1 0 0
105 35 1 0.5897 -3.116282678750121 -2.2167488576730516 2.999680832480989 1 0 0
82 28 2 -1.1794 -9.070095525078813 -0.1535233193765535 3.9918939292932656 1 0 0
83 28 1 0.5897 -9.790951118713306 -0.7792780965953909 4.062967512643955 1 0 0
258 86 1 0.5897 -12.770523154809158 -2.727400089945996 1.2557284915567042 1 1 0
98 33 1 0.5897 -12.040889253479481 0.5288444444315648 4.268913825737671 1 0 0
52 18 2 -1.1794 -12.150597433191322 0.029512116423248358 2.4514019543135497 1 0 0
67 23 2 -1.1794 -10.841888958683429 -2.590903314569009 3.914495251694164 1 0 0
68 23 1 0.5897 -11.59752667249802 -2.645596364003455 4.499484636108524 1 0 0
256 86 2 -1.1794 -12.27305383408614 -3.3520660061966367 1.7836158976219672 1 1 0
90 30 1 0.5897 -3.757413458694967 -0.2605547790804881 2.1862451949403328 1 0 0
84 28 1 0.5897 -8.296932809501275 -0.6950839049641946 3.832850755968765 1 0 0
301 101 2 -1.1794 -8.125344558528187 -2.1909492650658526 1.3361012205075937 1 1 0
3 1 1 0.5897 -1.438203168312457 -3.1518364905483525 4.343764659759117 0 0 0
302 101 1 0.5897 -7.6268488792912255 -2.258736067196697 2.1504527830991016 1 1 0
107 36 1 0.5897 -9.637138396324 1.608682707569523 3.0763376829940228 1 0 0
104 35 1 0.5897 -3.5491835046185454 -2.317116391123137 4.446767048103736 1 0 0
294 98 1 0.5897 -4.791814942822497 -2.8965683737725643 1.255741833445699 1 1 0
103 35 2 -1.1794 -2.865415548451935 -1.952632935584508 3.8848228242931944 1 0 0
303 101 1 0.5897 -7.45966120085468 -2.102515773221092 0.6540517638054484 1 1 0
94 32 2 -1.1794 -6.543223721190376 -1.6897430124340858 3.5784066489776127 1 0 0
95 32 1 0.5897 -5.94432990572536 -0.9925251247666971 3.3111433099233976 1 0 0
26 9 1 0.5897 -3.763280656156926 0.6947116862418774 4.4387284976918515 0 0 0
88 30 2 -1.1794 -4.566687523798506 0.10386116195867601 2.544830771977874 1 0 0
89 30 1 0.5897 -4.670693997029741 0.9437329700234898 2.0975365755633066 1 0 0
97 33 2 -1.1794 -11.79435914276358 0.6956304016357464 5.178620565828291 1 0 0
75 25 1 0.5897 -9.376472103858164 -3.30091334812506 4.788025576348343 1 0 0
309 103 1 0.5897 -3.133468044377225 -1.526761929126998 0.41356657078686215 1 1 0
44 15 1 0.5897 -10.144436648412078 0.8549250188608237 0.3329086871777109 1 0 0
307 103 2 -1.1794 -2.5902004651981922 -1.0807185658212735 1.0633049560547145 1 1 0
99 33 1 0.5897 -11.885645585290886 1.6428456871071386 5.282182850204609 1 0 0
27 9 1 0.5897 -3.86294851330758 1.8606591774568457 5.399182029645427 0 0 0
25 9 2 -1.1794 -4.031151842003112 0.9209293581002154 5.329333090188803 0 0 0
59 20 1 0.5897 -13.70505124508267 -0.7477967923196047 2.923311469545227 1 0 0
536 179 1 0.5897 -9.658408532215805 -0.021061081832648654 10.26878790287633 1 0 0
403 135 2 -1.1794 -4.809099836881928 -2.8831228630681833 5.699951263259487 1 0 0
527 176 1 0.5897 -12.154567898633712 1.745135551292364 8.847990366937067 1 0 0
526 176 2 -1.1794 -12.804627622261338 1.1145222720314933 9.157777443302376 1 0 0
426 142 1 0.5897 -8.532117751581044 -1.6604676911411032 7.101988393293717 1 0 0
402 134 1 0.5897 -10.450077964797206 -0.2734451180951414 6.61670796179512 1 0 0
401 134 1 0.5897 -11.097868358874663 -1.198465589499751 7.624867752448666 1 0 0
400 134 2 -1.1794 -10.252105117775521 -0.8295819957879953 7.370199122997793 1 0 0
537 179 1 0.5897 -9.381152248921214 -0.04083729529702396 8.780744117347421 1 0 0
405 135 1 0.5897 -4.959095447040877 -2.4465659580235997 6.538427348596989 1 0 0
535 179 2 -1.1794 -9.119607948590886 0.39139706361338256 9.59372704594362 1 0 0
528 176 1 0.5897 -12.313819932472114 0.526459739298593 9.731905841735621 1 0 0
465 155 1 0.5897 -1.8062215056394564 -0.05772745726055817 8.599046728063625 0 0 0
424 142 2 -1.1794 -7.624060849605675 -1.9426304083423842 6.991604112394982 1 0 0
358 120 2 -1.1794 -4.605571191153693 -2.2086274019946828 8.637560730136007 0 0 0
411 137 1 0.5897 -13.494166380247037 0.4198963313672017 6.0087983801813705 1 0 0
415 139 2 -1.1794 -8.667383484152872 1.5317959279976812 6.37543484548514 1 0 0
435 145 1 0.5897 -7.625848635113494 -0.9099658357086362 9.966166789634082 0 0 0
425 142 1 0.5897 -7.109272971202374 -1.1431532822894361 7.1015485692973535 1 0 0
328 110 2 -1.1794 -2.4878382899053104 -0.7039842173317812 6.889992903594916 0 0 0
433 145 2 -1.1794 -6.831112755056655 -1.3333073653654353 10.291116066244504 0 0 0
360 120 1 0.5897 -5.342559868751289 -1.7736384875395714 9.066423159170396 0 0 0
456 152 1 0.5897 -4.340238725522589 0.4551572343769621 9.572628960630054 0 0 0
455 152 1 0.5897 -4.02394401931224 1.7373585264786549 8.832526704413937 0 0 0
454 152 2 -1.1794 -4.70428509364534 1.0723221440754038 8.937910263389165 0 0 0
416 139 1 0.5897 -7.828270941597603 1.183136569278938 6.676663400362999 1 0 0
443 148 1 0.5897 -7.847510867694151 1.8668776519466554 9.402593756318536 0 0 0
330 110 1 0.5897 -2.946157782577056 0.03178996724498262 6.483876829112095 0 0 0
329 110 1 0.5897 -3.1856760333667955 -1.2561531792966196 7.242605553662233 0 0 0
339 113 1 0.5897 -5.589632324766528 0.35656970531775833 6.013347288310108 0 0 0
444 148 1 0.5897 -6.335472730279313 1.7947577213772092 9.374857281692172 0 0 0
338 113 1 0.5897 -5.57595392930736 0.5084586469609409 7.519452460035318 0 0 0
337 113 2 -1.1794 -6.1506659120885105 0.28956326582819614 6.785927277608234 0 0 0
417 139 1 0.5897 -8.858237232173575 1.0409145964295234 5.576201217335099 1 0 0
442 148 2 -1.1794 -7.0618498367915015 2.398941202975113 9.528797218511029 0 0 0
464 155 1 0.5897 -2.0948945460640456 -0.011002452574148336 10.084306264916556 0 0 0
522 174 1 0.5897 -10.03657649850703 2.221484031204911 7.704709264037191 1 0 0
835 279 2 -1.1794 -11.186520405604957 -0.7493504191774996 10.833179721386204 1 0 0
458 153 1 0.5897 -10.309527464825662 2.7083810003695543 10.090650711774382 0 0 0
819 273 1 0.5897 -5.37861703161521 -0.9949854110160352 16.2023472462812 0 0 0
805 269 2 -1.1794 -4.5865338770538475 2.7709701692521627 12.3923918856724 0 0 0
797 266 1 0.5897 -1.782603635113258 1.1333581925107037 13.338757638948623 0 0 0
762 254 1 0.5897 -9.222536000593056 2.185030632871598 12.0823163804943 0 0 0
761 254 1 0.5897 -9.316562114976547 0.7751728614348821 12.625824497395914 0 0 0
760 254 2 -1.1794 -8.686526430779326 1.4626158763022907 12.40970017663912 0 0 0
837 279 1 0.5897 -11.26892047754391 -0.3724908489592682 11.709144841972263 1 0 0
791 264 1 0.5897 -10.811049628426721 -0.9059897541140849 13.91839465327444 0 0 0
790 264 2 -1.1794 -10.9320631073307 -0.1041610386370273 13.409774642949007 0 0 0
792 264 1 0.5897 -11.545319466157858 0.41800288808254393 13.926979733495562 0 0 0
901 301 2 -1.1794 -5.301455193536331 1.0036315043036943 15.845478264095858 0 0 0
806 269 1 0.5897 -4.3074357507192165 2.822029676116472 13.306543000643961 0 0 0
828 276 1 0.5897 -3.8810477720004997 0.41351152639043676 14.380778425392355 0 0 0
763 255 2 -1.1794 -3.2896683568049596 -0.8199449354312804 11.291906096948903 0 0 0
769 257 2 -1.1794 -12.514092113357385 2.2219765811794847 12.386849643569873 0 0 0
896 299 1 0.5897 -8.248510966033239 2.1606636293851054 15.543513268093578 0 0 0
924 308 1 0.5897 -2.8276306578931365 2.9516728566379697 15.203418074112184 0 0 0
765 255 1 0.5897 -3.4769494574549906 -0.4761749497934247 12.165329002623965 0 0 0
895 299 2 -1.1794 -7.639405177708071 2.4447826739247542 14.862036294459466 0 0 0
827 276 1 0.5897 -2.947098654682252 -0.7743002316961913 14.285548776179496 0 0 0
826 276 2 -1.1794 -3.0921764329646244 0.10462117715374752 13.93520308220806 0 0 0
764 255 1 0.5897 -3.551276512751242 -1.7397009068260338 11.334765277534558 0 0 0
773 258 1 0.5897 -5.861112678212508 -1.3872389662327063 13.220816481015106 0 0 0
866 289 1 0.5897 -12.486865205052265 1.5675373262193588 15.95624913248061 0 0 0
897 299 1 0.5897 -8.059543877027359 2.1861844983170133 14.041778208219371 0 0 0
785 262 1 0.5897 -5.588079344362159 1.2334111166363773 12.341398066629642 0 0 0
784 262 2 -1.1794 -5.993375670158512 0.3751748970689004 12.465486945983821 0 0 0
786 262 1 0.5897 -6.931181732358874 0.5349676348652661 12.358774988709389 0 0 0
903 301 1 0.5897 -6.128110625463043 1.2870916013133549 15.454718605308665 0 0 0
865 289 2 -1.1794 -12.875356722532349 0.937788695902416 15.349024449039335 0 0 0
888 296 1 0.5897 -10.623851597453008 2.9981494977785843 14.882327006501685 0 0 0
807 269 1 0.5897 -3.7934379070586806 2.954458303599374 11.888859852253397 0 0 0
771 257 1 0.5897 -11.916885846961485 2.6298513562409003 11.75984295263736 0 0 0
770 257 1 0.5897 -12.269888601114388 2.600057124180829 13.231595387774435 0 0 0
1195 399 2 -1.1794 -9.738971793136795 1.6446767372485063 16.280099302590976 0 0 0
434 145 1 0.5897 -6.54109393004831 -0.7767770732267607 11.01386547967884 0 0 0
836 279 1 0.5897 -11.269988330528047 -1.6931864511421466 10.969102733576733 1 0 0
1260 420 1 0.5897 -9.853454527253609 3.153305853575045 19.737501267319608 0 0 0
1259 420 1 0.5897 -9.163803395567378 1.8134066731943008 19.59187391013706 0 0 0
1258 420 2 -1.1794 -9.3909801801849 2.6049062772910183 19.103802615843108 0 0 0
1099 367 2 -1.1794 -10.263827053779831 -0.8177298284340466 17.283454989165925 0 0 0
1296 432 1 0.5897 -2.319968214974198 3.0809828018561944 19.78779585657537 0 0 0
1236 412 1 0.5897 -8.066000343513348 -0.32654676322711396 20.25304692634912 0 0 0
1046 349 1 0.5897 -3.6441442820741488 4.063075660199077 21.83604280969056 0 -1 0
1235 412 1 0.5897 -9.55439640546235 -0.5787808818098341 20.138020525883107 0 0 0
1217 406 1 0.5897 -11.631186422167596 3.760747356919131 17.695781477708167 0 0 0
1234 412 2 -1.1794 -8.916179709393038 0.10315498938797774 20.34755587957161 0 0 0
1197 399 1 0.5897 -9.687155466595643 2.177012478116911 17.073883735364902 0 0 0
1233 411 1 0.5897 -2.047778565065162 2.473445793770985 17.544409389066736 0 0 0
1196 399 1 0.5897 -9.9067381404286 0.7571047951855903 16.596815003324096 0 0 0
1100 367 1 0.5897 -9.342454118231998 -0.9741902637327602 17.490809288147922 0 0 0
1216 406 2 -1.1794 -12.211245596731505 3.0702015047922746 17.374927029012 0 0 0
1246 416 2 -1.1794 -6.539506733950814 -1.1614230788392383 20.237945897471448 0 0 0
1249 417 2 -1.1794 -11.984272540311343 1.5203190293336188 21.789151497840855 0 0 0
1251 417 1 0.5897 -11.720323610790524 2.4239731775813045 21.61598559128347 0 0 0
1287 429 1 0.5897 -4.081635618494059 1.7770531307983752 21.60493056867263 0 0 0
1205 402 1 0.5897 -12.007852520479435 1.4448908210657088 18.595673653287875 0 0 0
1045 349 2 -1.1794 -3.774990803895351 3.5547568911069334 21.03562914049764 0 -1 0
1009 337 2 -1.1794 -11.065454376153953 4.019812361072756 20.96633854917146 0 -1 0
1272 424 1 0.5897 -0.4764805762851321 0.13454694455295524 20.40845477352375 0 0 0
1206 402 1 0.5897 -11.500964671705855 0.018310632826654683 18.587429776925553 0 0 0
1286 429 1 0.5897 -3.7564827472997457 0.396617576726479 21.07514543788635 0 0 0
1270 424 2 -1.1794 -1.3790780196242327 0.22045818012395202 20.715341973611757 0 0 0
1271 424 1 0.5897 -1.736247898255323 -0.665976910484682 20.661437631518588 0 0 0
1229 410 1 0.5897 -8.142791356897074 3.4971112906754716 18.294883464529214 0 0 0
1247 416 1 0.5897 -5.835998102844973 -0.7426438843899383 19.742078894141457 0 0 0
1242 414 1 0.5897 -4.026434013635358 -0.2647197896233795 18.31598764292479 0 0 0
1232 411 1 0.5897 -1.8830498580800228 1.1393718374991302 16.847969559310513 0 0 0
1253 418 1 0.5897 -4.250506076160219 3.3012757006657107 17.817668918005175 0 0 0
1240 414 2 -1.1794 -4.566461114873925 0.15425881447373158 18.986063676959546 0 0 0
1241 414 1 0.5897 -4.750177217234776 1.0259984842395298 18.63589658378566 0 0 0
1252 418 2 -1.1794 -4.940883452398489 2.6385400115096385 17.838164302360987 0 0 0
1135 379 2 -1.1794 -2.5593183835440865 -0.7133451068512038 17.243226888698608 0 0 0
1136 379 1 0.5897 -1.7400408518057748 -1.0352342103200343 17.61949726953803 0 0 0
1231 411 2 -1.1794 -1.9267978505510293 2.080724901609205 16.679967125944536 0 0 0
1254 418 1 0.5897 -5.755701462199598 3.139412064674607 17.798134372371273 0 0 0
1295 432 1 0.5897 -1.5274127050323045 1.7938760281580652 19.702137507450075 0 0 0
1137 379 1 0.5897 -2.6970502192803227 -1.2569730767402145 16.46755875032253 0 0 0
1218 406 1 0.5897 -13.093576654070056 3.3952034810016336 17.554440766265294 0 0 0
1204 402 2 -1.1794 -12.16673602671769 0.5828712849419979 18.980255391064688 0 0 0
1294 432 2 -1.1794 -1.5942673824027178 2.6686151068095594 19.319228007316262 0 0 0
1047 349 1 0.5897 -4.566348164931594 3.924048791103923 20.6434739751466 0 -1 0
1250 417 1 0.5897 -12.103613999909031 1.134625319680982 20.92131124737078 0 0 0
1101 367 1 0.5897 -10.500915496292148 -1.5310094459139556 16.690803760874672 0 0 0
273 91 1 0.5897 -9.088561836121851 1.3196187486194741 21.718378494754994 1 1 -1
902 301 1 0.5897 -5.130406322619635 1.6440173980697814 16.536013666828268 0 0 0
1285 429 2 -1.1794 -4.076833541247276 0.8526425718228534 21.853329881067125 0 0 0
40 14 2 -1.1794 -15.14489185837602 3.9662840347776314 1.603210974399069 1 0 0
42 14 1 0.5897 -15.687760219760275 4.428403544639828 0.9644210324359207 1 0 0
45 15 1 0.5897 -9.944372069727262 2.180895223113316 1.035535706606541 1 0 0
177 59 1 0.5897 -14.159436723411883 5.21458291186315 2.9190237442693463 1 0 0
87 29 1 0.5897 -10.35797747769998 4.813488866489434 0.6738742512056436 1 0 0
91 31 2 -1.1794 -5.678573408758152 6.176475191976047 0.6880856667078427 1 0 0
56 19 1 0.5897 -12.538646278271065 6.019801956282853 1.0293987010820718 1 0 0
192 64 1 0.5897 -11.28527610819943 6.804608419030451 3.941853306718139 1 0 0
66 22 1 0.5897 -13.534487070706861 2.987499242626134 1.5619644530201602 1 0 0
65 22 1 0.5897 -12.02627528863549 3.1095627294973607 1.511102306125213 1 0 0
64 22 2 -1.1794 -12.736126297435685 2.469568402245704 1.458290902451236 1 0 0
181 61 2 -1.1794 -11.851132454665589 3.4863606385992565 4.315870858190429 1 0 0
167 56 1 0.5897 -16.626282814999193 6.156993009792199 3.326431767229715 1 0 0
191 64 1 0.5897 -12.796535213939688 6.8557434987171675 3.8661248803370745 1 0 0
183 61 1 0.5897 -12.434189889245527 4.212402523416271 4.093884989610797 1 0 0
106 36 2 -1.1794 -9.669664772295594 2.548278203543928 2.8963904899842854 1 0 0
176 59 1 0.5897 -14.503539897143984 5.024276518086186 4.380847639417735 1 0 0
175 59 2 -1.1794 -13.826890429927358 5.375415900044992 3.802041019363233 1 0 0
108 36 1 0.5897 -10.461208937538668 2.8507380107351725 3.3416099151994523 1 0 0
204 68 1 0.5897 -9.448188777553984 4.972082928974334 4.077905012717857 1 0 0
85 29 2 -1.1794 -11.061776588168605 4.889517029725829 1.3181131931065893 1 0 0
212 71 1 0.5897 -6.4798194632149 4.6307876411292295 4.588244292240929 1 0 0
190 64 2 -1.1794 -12.018283454669927 7.412655482583467 3.8449910741410656 1 0 0
211 71 2 -1.1794 -5.805362994964675 4.897181589981422 3.963506288898913 1 0 0
55 19 2 -1.1794 -13.378055826204612 6.416442159087481 0.7959883400611111 1 0 0
86 29 1 0.5897 -10.643877193712731 5.281761241632715 2.08474467259116 1 0 0
76 26 2 -1.1794 -7.218494884102229 3.7514527031075584 1.911025646244913 1 0 0
77 26 1 0.5897 -8.059046784413036 3.4531208955230728 2.2584538180628813 1 0 0
78 26 1 0.5897 -7.450578089353893 4.392720921529516 1.239335781342196 1 0 0
203 68 1 0.5897 -8.923985580920181 6.117494057688775 3.2382481432161305 1 0 0
202 68 2 -1.1794 -9.733811043319829 5.737074923540771 3.5783909159624976 1 0 0
100 34 2 -1.1794 -4.765853821863621 2.4747384546053883 1.192754159013554 1 0 0
213 71 1 0.5897 -6.145344312875969 4.622658394850566 3.111894249386165 1 0 0
102 34 1 0.5897 -5.678981539298177 2.7441721536422783 1.2926204142238393 1 0 0
111 37 1 0.5897 -4.416470321296499 3.903907326917027 4.2872547547209265 0 0 0
198 66 1 0.5897 -7.047799459494765 6.951920325554397 2.091964640907081 1 0 0
43 15 2 -1.1794 -9.928519680440282 1.7730826312203067 0.1697550324109958 1 0 0
182 61 1 0.5897 -11.334419560011145 3.810385362129665 5.053612229686767 1 0 0