LAMMPS data file via write_data, version 30 Jul 2021, timestep = 500000

864 atoms
2 atom types
576 bonds
1 bond types
288 angles
1 angle types

0.37379633877664453 17.833776061225436 xlo xhi
1.531813982690739 22.097363817310303 ylo yhi
0.45603066022096783 21.757165139777644 zlo zhi

Masses

1 1.00794
2 15.9994

Pair Coeffs # lj/cut/tip4p/long/omp

1 0 0
2 0.21084 3.1668

Bond Coeffs # harmonic/omp

1 450 0.9572

Angle Coeffs # harmonic/omp

1 55 104.52

Atoms # full

199 1 2 -1.1794 2.4909852473321585 1.9710044265264473 3.7243713893402552 2 -3 0
36 1 1 0.5897 1.797100974439796 5.936433501092572 3.9952627160503327 -4 2 -1
201 1 1 0.5897 2.6922198348407633 1.6751982087503383 2.8365238856120483 2 -3 0
249 1 1 0.5897 1.6163020870344305 6.024158599255615 1.4106206468441316 -3 3 -3
34 1 2 -1.1794 1.7496991214951754 5.208465866134242 3.375524411542998 -4 2 -1
739 1 2 -1.1794 3.031350857023183 1.6818749036172422 1.10982616994866 -2 0 2
733 1 2 -1.1794 4.534940686425194 4.722961295164484 4.559495751930592 -2 1 -2
741 1 1 0.5897 3.21390402863701 2.5440225156248086 0.7361639237630084 -2 0 2
191 1 1 0.5897 1.122944903887828 1.9603144619976414 0.863417459612676 5 5 -4
35 1 1 0.5897 2.545317941410735 4.701981443106536 3.5389248543511838 -4 2 -1
522 1 1 0.5897 4.496671731791645 6.2491230918158545 5.564249860640125 -2 0 -2
200 1 1 0.5897 1.5346154644507322 1.986183752546877 3.7612786176651554 2 -3 0
15 1 1 0.5897 4.412663320349502 4.954007523273328 1.377250401277056 0 -4 -3
578 1 1 0.5897 3.902902689167516 1.6160482973116252 4.78253235790455 1 2 -1
839 1 1 0.5897 3.226717984245713 3.9316886017728216 5.642876872311251 -3 -2 -3
563 1 1 0.5897 3.026441393768207 5.662534865184156 10.261473448373783 2 2 4
18 1 1 0.5897 0.6505211876058894 2.2571065131921735 7.42398122000049 -2 3 2
840 1 1 0.5897 2.181382393577098 2.981223014677596 6.186751290322954 -3 -2 -3
838 1 2 -1.1794 2.6624133445582356 3.7805215456915744 6.401135394101535 -3 -2 -3
254 1 1 0.5897 0.7526701593394263 5.691652724658142 9.772268776006138 3 7 -7
283 1 2 -1.1794 3.947525008830653 2.851127488148536 10.055059049828305 6 0 -2
56 1 1 0.5897 1.2839510554623872 4.950931062741628 6.658714401328494 -1 1 1
562 1 2 -1.1794 2.353546342823807 5.14870202073177 10.708038339612814 2 2 4
285 1 1 0.5897 3.042314413391079 3.008406166016771 10.323557759775873 6 0 -2
361 1 2 -1.1794 3.6291086033973343 6.597185063128715 8.685976475709385 3 -3 -1
57 1 1 0.5897 0.5659691589375407 5.8496222894840075 7.643005377342318 -1 1 1
284 1 1 0.5897 4.109691879532382 3.49732392344665 9.367750116343322 6 0 -2
55 1 2 -1.1794 0.6010632844982065 5.619367915923667 6.714559751894232 -1 1 1
16 1 2 -1.1794 0.4299563523168288 1.9098350572797542 6.559696682539446 -2 3 2
273 1 1 0.5897 3.947407919338321 4.028200014885521 13.46213431778337 -1 3 3
398 1 1 0.5897 0.9078457577867359 4.223702288694678 13.33288359310832 7 3 -6
756 1 1 0.5897 2.62292888500961 3.9319191890021608 15.54012689889422 -3 -2 -4
271 1 2 -1.1794 4.6939094258637315 3.8840250538914325 12.880590699389165 -1 3 3
829 1 2 -1.1794 1.5378213314454467 2.213403250317201 11.550895242604293 4 4 4
272 1 1 0.5897 4.30447989753883 3.577326232643105 12.061722317188405 -1 3 3
830 1 1 0.5897 1.1438085784429886 3.0493534374070244 11.800374280508532 4 4 4
754 1 2 -1.1794 2.137166393419723 3.6905071412658113 14.751373859695263 -3 -2 -4
449 1 1 0.5897 3.196979850911479 6.255537879576595 15.515102054191573 5 -1 -4
755 1 1 0.5897 1.6987167807349914 2.8711624930007393 14.980913384158914 -3 -2 -4
564 1 1 0.5897 2.137100434996655 5.661739367521072 11.486610861214361 2 2 4
219 1 1 0.5897 3.89953060453392 1.833163925506394 13.96260127880895 5 0 -2
831 1 1 0.5897 0.913714508675254 1.55399737253882 11.854094161196361 4 4 4
256 1 2 -1.1794 3.7574889200397186 5.121629895814987 16.763508866396347 -1 -2 0
258 1 1 0.5897 3.471332280203551 4.86598703240569 17.640438591117984 -1 -2 0
844 1 2 -1.1794 3.419245185536805 4.026666762542567 20.778255263853513 0 1 3
861 1 1 0.5897 0.9593960324851728 4.290912316790746 19.408384395706513 -2 -3 -1
257 1 1 0.5897 4.579378248948288 5.5910029050076 16.906585761584147 -1 -2 0
860 1 1 0.5897 1.4672860223564066 5.699189961524966 19.183215238950556 -2 -3 -1
659 1 1 0.5897 3.672784128413748 1.9912166237953939 17.272060929269564 0 -1 2
859 1 2 -1.1794 1.476068129787168 4.821313572549146 18.801788458570034 -2 -3 -1
846 1 1 0.5897 2.9392509091429586 4.26238679962126 19.984339742970384 0 1 3
658 1 2 -1.1794 3.593464935614034 2.0393641965574343 18.224754382744145 0 -1 2
845 1 1 0.5897 4.339111981810185 4.033687129307868 20.51353439118498 0 1 3
782 1 1 0.5897 0.4696896120672512 5.299684645982915 17.09048613039387 -3 0 1
660 1 1 0.5897 4.495567752848998 2.003269831135105 18.5428049072955 0 -1 2
465 1 1 0.5897 1.3476251832196957 9.151935960485888 3.035763821164877 6 2 -1
463 1 2 -1.1794 2.0046959700072358 9.843684920299662 2.958423792262714 6 2 -1
821 1 1 0.5897 3.5110822504476022 9.630251488833913 3.8709899435932216 2 1 5
464 1 1 0.5897 1.4975310576448808 10.639712682931682 2.7991631164922635 6 2 -1
229 1 2 -1.1794 1.9243736013644395 7.302023267665405 5.09072629016003 3 4 1
822 1 1 0.5897 4.152633377947652 8.58563776910913 4.759341795566897 2 1 5
596 1 1 0.5897 2.411343661494936 10.487226840555998 0.8007817875025607 2 -4 2
820 1 2 -1.1794 4.3600750385717495 9.332759727686573 4.19802864987683 2 1 5
231 1 1 0.5897 1.8062603993421738 8.157960723870744 5.502615366405554 3 4 1
248 1 1 0.5897 2.5948262177388433 7.1269839804980615 1.066833314347985 -3 3 -3
230 1 1 0.5897 1.4372646199755432 6.697163741754633 5.650281916040241 3 4 1
246 1 1 0.5897 4.42983169793854 8.553215135590047 1.0401297216897147 -4 4 -1
247 1 2 -1.1794 1.690716079804053 6.846099616300338 0.9256939964232354 -3 3 -3
862 1 2 -1.1794 1.5542430473589697 8.987694131569338 9.421108586056647 0 -1 2
362 1 1 0.5897 3.9941456666651884 7.322508749972707 9.192834764187783 3 -3 -1
864 1 1 0.5897 2.4083136625856163 8.676349282844221 9.720885388099715 0 -1 2
798 1 1 0.5897 3.8388175739101627 10.503188127317369 6.958732244036354 0 -5 -2
3 1 1 0.5897 1.5887597594760459 10.504043546862404 6.513751855116861 1 -6 3
535 1 2 -1.1794 4.157797803153658 8.647163267802988 10.694592769891296 6 6 4
1 1 2 -1.1794 1.6700456129416448 9.553743976844974 6.594779399986774 1 -6 3
541 1 2 -1.1794 1.5587549162504521 11.386891553014278 10.919020142535421 -5 1 3
2 1 1 0.5897 1.4418311141144757 9.370196322949115 7.506082448319472 1 -6 3
863 1 1 0.5897 1.442681493049954 9.834853616567925 9.852518659559747 0 -1 2
363 1 1 0.5897 3.5458468446167752 6.943295151490294 7.797425502316387 3 -3 -1
537 1 1 0.5897 4.4427045751624075 9.517453262302498 10.415812304263259 6 6 4
796 1 2 -1.1794 4.588591154700556 10.987777948050757 7.304046808885891 0 -5 -2
520 1 2 -1.1794 4.718734999941226 7.083203659563469 5.978045766804528 -2 0 -2
631 1 2 -1.1794 1.2731971269371807 11.492503359109099 15.084738753500986 5 5 4
100 1 2 -1.1794 1.8091736307078545 7.5969141649768055 12.20623247460773 6 -5 -1
101 1 1 0.5897 2.005178670490611 7.2635092804232535 13.081832042708365 6 -5 -1
102 1 1 0.5897 0.8806895425251439 7.82725392032691 12.239422709367743 6 -5 -1
324 1 1 0.5897 2.231231339526185 10.588766237303942 12.414159515121106 7 -1 -2
322 1 2 -1.1794 2.8000815629166045 10.108342608287955 13.015772166924817 7 -1 -2
323 1 1 0.5897 2.844925355382485 9.22497487823048 12.649844688520277 7 -1 -2
184 1 2 -1.1794 0.7494366215246173 8.223876013959718 15.689628012248177 1 6 4
536 1 1 0.5897 4.281607903023319 8.646709255830494 11.643762802141367 6 6 4
185 1 1 0.5897 1.5317142750266424 7.759494845411921 15.391861012596898 1 6 4
632 1 1 0.5897 1.8290463785670228 10.845532227814006 14.650350249887031 5 5 4
450 1 1 0.5897 3.4356959922681947 7.732249948620029 15.282216523147033 5 -1 -4
134 1 1 0.5897 4.243528725484339 11.19434731607645 13.828963585160713 1 -5 -2
448 1 2 -1.1794 3.039992008050833 6.957295314752478 14.883340902805632 5 -1 -4
814 1 2 -1.1794 4.208732295972114 9.34547359501996 15.88306629790214 -4 7 -4
542 1 1 0.5897 0.7432210572080513 10.943092554089528 11.152036925607826 -5 1 3
597 1 1 0.5897 2.006263055919664 10.774942956095058 20.67187049072492 1 -4 1
792 1 1 0.5897 1.2729367094743176 7.385057269090434 20.48682623427874 2 5 -1
683 1 1 0.5897 2.1873123579788505 10.351702530787879 18.18683297158738 5 0 -5
682 1 2 -1.1794 2.3193565943955043 9.475679793447199 17.824333120853858 5 0 -5
684 1 1 0.5897 2.2307960572802696 8.889216028650228 18.575630020618057 5 0 -5
790 1 2 -1.1794 1.302849642413586 7.5491383146281335 19.544266433325333 2 5 -1
815 1 1 0.5897 3.7378490685963253 9.47500271932257 16.70630803757213 -4 7 -4
595 1 2 -1.1794 2.0175405898744145 10.080188731457278 21.330239375109343 1 -4 1
245 1 1 0.5897 3.511046424164995 8.839420353897381 21.172585225582168 -4 4 -2
244 1 2 -1.1794 4.107958109462496 8.177603065605602 21.521782942076396 -4 4 -2
791 1 1 0.5897 0.5270564371246067 8.081631952318226 19.368628094619055 2 5 -1
186 1 1 0.5897 1.0331070938535958 8.693414015729932 16.47404473205118 1 6 4
12 1 1 0.5897 0.47355884454828595 12.440182024234328 1.6386156994158394 -3 0 5
725 1 1 0.5897 2.393483614846341 14.045292804168295 4.041151879711468 2 -5 4
724 1 2 -1.1794 1.4789906815116616 13.964189600342625 4.3120349399634375 2 -5 4
618 1 1 0.5897 3.1967383693017863 13.230479081352675 1.4538071211113943 -2 2 1
726 1 1 0.5897 1.102784667439956 13.331172548016097 3.700476198469976 2 -5 4
466 1 2 -1.1794 0.948695583960847 16.140667344360125 1.640242404208671 5 -3 6
617 1 1 0.5897 3.8871542473600886 12.595672455359868 2.642183398045414 -2 2 1
616 1 2 -1.1794 3.5171896333003083 12.390907494141294 1.783446142025003 -2 2 1
220 1 2 -1.1794 4.218263820106685 13.976715809792571 3.9432858747798702 2 -3 3
318 1 1 0.5897 1.9619945833456962 15.022059327399953 0.7279734306764978 -4 -5 1
467 1 1 0.5897 0.8958122900050033 16.13605675431765 2.5959852298380763 5 -3 6
794 1 1 0.5897 0.5544476251551131 15.5862067349822 4.409230003546655 -5 1 5
221 1 1 0.5897 4.6955325318921135 13.574174900435398 4.668824304948188 2 -3 3
10 1 2 -1.1794 0.4276501105461179 12.073991396409145 2.5218092962267225 -3 0 5
580 1 2 -1.1794 4.455766781121799 15.59047349598425 7.635871530478198 -2 -2 0
588 1 1 0.5897 1.6753171427648796 12.659825326553541 7.338322596873212 0 1 5
553 1 2 -1.1794 2.4952269163395404 13.893316692695388 8.370992240874966 -5 -6 3
346 1 2 -1.1794 1.2871943869219846 16.408984283639207 7.470137655770258 -3 3 -3
347 1 1 0.5897 0.3796044554033955 16.562874554409962 7.207766344668272 -3 3 -3
582 1 1 0.5897 4.00679366051759 16.259853972495815 7.119555031931864 -2 -2 0
554 1 1 0.5897 2.4006375812952676 13.78358803549258 9.317191624303971 -5 -6 3
555 1 1 0.5897 1.7416125939918676 14.424837714670932 8.114503032826732 -5 -6 3
586 1 2 -1.1794 1.137433181353988 12.270134225180207 6.649082228525932 0 1 5
348 1 1 0.5897 1.8068605757663139 16.71081118646574 6.725095359259764 -3 3 -3
581 1 1 0.5897 3.7572226204232604 15.006299755789758 7.930858606235921 -2 -2 0
587 1 1 0.5897 1.4193519626608586 12.710048700615376 5.84706465054862 0 1 5
386 1 1 0.5897 1.09226697830093 16.952443651003275 12.969726438193982 -4 0 1
672 1 1 0.5897 3.605387348278952 14.24218149575832 11.113789370553953 5 2 1
671 1 1 0.5897 2.550109991551995 15.126710357687355 11.74298734049696 5 2 1
670 1 2 -1.1794 2.666359562983501 14.289806152264694 11.2931995897043 5 2 1
628 1 2 -1.1794 0.7243643617938866 13.244242280487939 13.113656136071295 -1 -3 3
387 1 1 0.5897 2.291523599102018 16.82995852269765 13.885537970357506 -4 0 1
359 1 1 0.5897 3.562972238435828 14.796390110928739 15.026505501161333 3 0 -4
385 1 2 -1.1794 1.8839435935743032 16.4343964851938 13.115049075543748 -4 0 1
360 1 1 0.5897 4.610235367488649 13.777382938681503 14.630473462480499 3 0 -4
630 1 1 0.5897 1.4781186563966613 13.800414386093953 12.916787469003085 -1 -3 3
358 1 2 -1.1794 4.464390817222823 14.719742396659726 14.713719067205437 3 0 -4
277 1 2 -1.1794 2.4562930785650683 16.272657599288834 16.06364000912054 -1 0 1
633 1 1 0.5897 0.966264648202192 12.059100278914874 14.376921175265794 5 5 4
59 1 1 0.5897 2.14858065068811 12.833708895885072 15.840299067096462 4 -2 -3
278 1 1 0.5897 2.34908482930432 15.335760651269549 16.227901388777177 -1 0 1
58 1 2 -1.1794 2.5520590699318424 13.516841586713639 16.37580934620295 4 -2 -3
543 1 1 0.5897 1.4976198433872516 12.241212455024199 11.346394985777394 -5 1 3
60 1 1 0.5897 3.3321178095137283 13.102813291030321 16.745199174585437 4 -2 -3
182 1 1 0.5897 2.3582665966061036 12.730092390750128 18.643421250504083 -2 2 -2
116 1 1 0.5897 0.45694359550055735 14.540721151712345 18.053618530300994 -1 -4 3
760 1 2 -1.1794 2.03207488835427 15.091421714646554 19.131275570924355 0 -3 -1
768 1 1 0.5897 4.580959173223002 12.942609718016925 21.362349339277426 -1 -1 2
762 1 1 0.5897 2.2318323508621565 14.727598667563502 19.9938062065404 0 -3 -1
181 1 2 -1.1794 2.0575065340150123 12.020028629355716 19.210503358769905 -3 2 -2
761 1 1 0.5897 1.7595179974585076 15.99184074400818 19.307876261577537 0 -3 -1
317 1 1 0.5897 3.367442307493412 15.30848344455211 21.544774023435572 -4 -5 -1
183 1 1 0.5897 1.3945827376945892 12.424331501481504 19.77023724277303 -3 2 -2
316 1 2 -1.1794 2.754447513006192 14.59169235044242 21.70811283998257 -4 -5 0
279 1 1 0.5897 3.232175314030419 16.517478750224363 16.567937362007108 -1 0 1
577 1 2 -1.1794 4.522171061256725 21.563009474484744 5.169956628961254 1 1 -1
287 1 1 0.5897 2.6051030495232665 18.661766086207166 2.5657607211618054 3 0 1
225 1 1 0.5897 2.0915144496748823 20.035289688683765 1.065524018135382 2 0 -6
281 1 1 0.5897 1.5235989834807346 20.481126702756413 3.653448956528666 -3 -1 3
280 1 2 -1.1794 1.181954214519322 20.121960945268494 2.8345819156591863 -3 -1 3
288 1 1 0.5897 3.065876507764307 17.268269420063564 2.1945546797678626 3 0 1
807 1 1 0.5897 3.212822045153807 17.29415008513579 4.7024154027423535 2 -2 -3
286 1 2 -1.1794 3.2134289691250255 17.970744207066538 2.8278033826871307 3 0 1
805 1 2 -1.1794 3.324135974271945 17.239346217785588 5.651539964433592 2 -2 -3
740 1 1 0.5897 3.854240922580323 21.76708715281386 1.0183471597349625 -2 -1 2
639 1 1 0.5897 2.2875978948505553 19.95677548642407 7.013298117923656 -6 0 4
784 1 2 -1.1794 4.061081645010856 17.98125555023749 10.88143405309378 5 4 3
667 1 2 -1.1794 0.7750176621058167 19.630208952544713 10.294864016692475 -6 -3 -1
292 1 2 -1.1794 1.5394866931014621 17.0134724604446 10.108384294175321 -2 -1 1
843 1 1 0.5897 3.4942334216802884 21.532518150306913 9.142955254477222 -2 1 1
669 1 1 0.5897 1.4850109646584317 20.14360451090285 9.909413092055035 -6 -3 -1
841 1 2 -1.1794 3.0288979410063748 20.75960351020847 8.82310876416694 -2 1 1
842 1 1 0.5897 3.6753417988182386 20.292089295606072 8.294164818111547 -2 1 1
806 1 1 0.5897 3.336605774436786 18.150467045196642 5.944709484887559 2 -2 -3
668 1 1 0.5897 1.153522003544011 18.761646100253003 10.431178724844631 -6 -3 -2
517 1 2 -1.1794 4.576226445712952 19.474331625118744 6.953367547701959 -1 -2 -4
519 1 1 0.5897 4.2995577570810575 20.12198169644034 6.305112898869685 -1 -2 -4
294 1 1 0.5897 2.4112259733652492 17.305815641410405 10.374645428849984 -2 -1 1
637 1 2 -1.1794 1.851788433799165 20.163395273120823 6.186478586273498 -6 0 4
638 1 1 0.5897 1.1753171009064687 19.492058158474745 6.0974315747979135 -6 0 4
17 1 1 0.5897 0.858612237315236 21.620100627577738 6.528161376265995 -2 2 2
786 1 1 0.5897 4.162510765754915 18.9213210017964 11.030494633170461 5 4 3
293 1 1 0.5897 1.5768589307786822 16.987106200669082 9.152271529962357 -2 -1 1
174 1 1 0.5897 1.0265839300194401 20.582214815992756 15.89777878385247 2 0 -2
785 1 1 0.5897 4.1103366851178045 17.59305547521365 11.75502048906863 5 4 3
217 1 2 -1.1794 3.5246560847259554 21.643103971053563 13.510080683600025 5 -1 -2
156 1 1 0.5897 3.030677825080091 18.734055797405002 15.408526421945142 3 2 -5
440 1 1 0.5897 4.581430504071481 17.62571120296365 13.887067922918845 0 -1 -2
155 1 1 0.5897 3.2113212568420786 19.826701805997534 14.376307080747088 3 2 -5
154 1 2 -1.1794 3.500669379203187 18.942390036559978 14.601072337204123 3 2 -5
749 1 1 0.5897 4.435368447564816 21.0048915962501 12.16940534921119 1 4 0
173 1 1 0.5897 0.8098439560595649 19.091115173983454 16.04474972895381 2 0 -2
172 1 2 -1.1794 1.4233157010644262 19.7921643398387 16.26479174138162 2 0 -2
218 1 1 0.5897 2.7928637350245302 22.002498155121305 13.008516322396806 5 -1 -2
354 1 1 0.5897 0.6037586552920324 17.03871149935884 16.31583067720323 4 2 -2
40 1 2 -1.1794 4.302306376601901 17.79746954160354 17.57166046071592 -1 -1 3
392 1 1 0.5897 1.3275926895080863 18.164427021152164 18.55080746483079 4 -3 -1
585 1 1 0.5897 2.073194961648992 21.651372591055793 19.00986547908921 3 -4 0
393 1 1 0.5897 1.8060755632716792 18.29376635075119 19.98127237607926 4 -3 -1
391 1 2 -1.1794 1.1723462181330218 17.829851415693856 19.43409341099354 4 -3 -1
41 1 1 0.5897 4.1328887641169105 18.519953972805894 18.176275471860503 -1 -1 3
224 1 1 0.5897 2.099954791584511 20.314227618869594 20.87868510882003 2 0 -7
583 1 2 -1.1794 1.2861374256148963 21.211256601107007 19.330936753526583 3 -4 0
223 1 2 -1.1794 2.2239510692913385 19.612705416682445 21.51806233015669 2 0 -7
9 1 1 0.5897 3.6632606841491793 17.824586239226672 21.503365220207083 3 -2 -1
584 1 1 0.5897 0.9387956072298788 21.799555141990847 20.001375404279102 3 -4 0
7 1 2 -1.1794 4.092482983420457 16.969920356590897 21.54275174106809 3 -2 -1
548 1 1 0.5897 7.238849056307085 2.945150594268468 1.0190997957043093 4 1 6
547 1 2 -1.1794 6.596203001243135 2.730583078265997 1.69527032959026 4 1 6
425 1 1 0.5897 8.101303850520253 6.209684258584963 5.0862647830712 6 -3 1
14 1 1 0.5897 5.8033200478424005 5.506981442428265 1.6057711020180523 0 -4 -3
549 1 1 0.5897 6.076326307163793 3.5282114259085033 1.794012435028887 4 1 6
409 1 2 -1.1794 8.285381955630626 2.9215329451393623 3.9176248539514336 3 2 -4
153 1 1 0.5897 9.003216445756141 2.130981459294253 5.584290416133065 1 0 0
735 1 1 0.5897 5.3023907416294564 4.290940156092054 4.934492372712528 -2 1 -2
410 1 1 0.5897 7.711020615683525 2.7999164316043648 3.161605876613314 3 2 -4
424 1 2 -1.1794 8.014130348531566 5.645032696421656 4.318261411366609 6 -3 1
426 1 1 0.5897 7.820884833767504 6.246334904869027 3.599003054329553 6 -4 1
13 1 2 -1.1794 5.16806033119987 4.885394213323703 1.9611687965477262 0 -4 -3
411 1 1 0.5897 8.22685170897614 3.8562425818205477 4.115561353557013 3 2 -4
734 1 1 0.5897 4.805606405455424 4.967297383325803 3.674465218187978 -2 1 -2
579 1 1 0.5897 5.094262577472628 1.5392499534554887 5.713478729107596 1 2 -1
370 1 2 -1.1794 5.826036970848643 4.549040603093172 8.45089901978282 3 7 -1
289 1 2 -1.1794 8.134490015191627 5.32565088206381 9.861111010472806 -7 -4 -6
514 1 2 -1.1794 6.070497836852466 3.1916008777522036 6.177866806035601 -4 -3 0
371 1 1 0.5897 6.545103330318414 4.960865595718269 8.930055016878669 3 7 -1
516 1 1 0.5897 6.161718347936916 3.626382406902979 7.025732458745639 -4 -3 0
151 1 2 -1.1794 8.937092382365847 2.0228152540236857 6.533065123415349 1 0 0
837 1 1 0.5897 6.961336665616147 1.996999994733612 10.40048593465942 0 2 -2
372 1 1 0.5897 5.149192737310885 5.224452816401884 8.406689081368723 3 7 -1
290 1 1 0.5897 8.594164251607967 5.575871264330189 10.662564430302984 -7 -4 -6
291 1 1 0.5897 8.715023556606585 4.692183400374131 9.439288202785603 -7 -4 -6
515 1 1 0.5897 6.966254452511083 2.967823921571907 5.925317163175869 -4 -3 0
836 1 1 0.5897 5.709308450814063 2.144338979579955 9.562259158229459 0 2 -2
835 1 2 -1.1794 6.49366012113773 1.6050086856958288 9.663021207686729 0 2 -2
395 1 1 0.5897 6.837630773911651 3.6374361120542376 12.40853702612388 1 1 5
812 1 1 0.5897 7.961866167335994 4.196020730970499 15.5171183423789 -5 5 -4
539 1 1 0.5897 9.087344561847516 4.758659718424037 13.801547045967736 -2 -3 0
691 1 2 -1.1794 4.93888612018708 1.9751952787176925 15.786390386959564 2 1 3
644 1 1 0.5897 8.014860713643392 5.817833502336291 12.659430080965743 3 -3 0
811 1 2 -1.1794 7.1697305774759705 3.850856610169023 15.928975344330082 -5 5 -4
491 1 1 0.5897 5.582652455809426 5.400975291034015 12.760342552514407 1 3 4
692 1 1 0.5897 5.691253364387965 2.5544154798538603 15.907569391496148 2 1 3
396 1 1 0.5897 7.76202632799346 4.055323218164501 11.28481236631658 1 1 4
490 1 2 -1.1794 6.3128041026356545 6.002399246849216 12.614026686640887 1 3 4
643 1 2 -1.1794 8.942554900435196 6.0177400270305235 12.534302374531007 3 -3 0
394 1 2 -1.1794 7.586409530724371 3.3374891130533593 11.893173598262464 1 1 5
30 1 1 0.5897 8.735063303251026 1.986700107482565 12.897705452244674 -7 1 5
364 1 2 -1.1794 5.980434305422749 4.129542040103402 19.618830112150565 1 5 2
365 1 1 0.5897 6.6628185067421795 4.490237156625064 20.184980140082903 1 5 2
366 1 1 0.5897 6.192859960611112 3.1987485636842155 19.550056293057786 1 5 2
132 1 1 0.5897 8.490961410898493 6.3944802336300635 19.584207203148054 -4 1 0
502 1 2 -1.1794 8.50771404468028 3.6295522528524704 21.0247255676196 -3 1 3
503 1 1 0.5897 8.460004718629623 2.677599239856072 20.93674750773941 -3 1 3
853 1 2 -1.1794 6.256212700003387 6.136657956876949 17.38208030580111 -3 1 0
854 1 1 0.5897 5.95420477174995 5.601233450961367 18.11581712568627 -3 1 0
126 1 1 0.5897 7.83374736285411 2.3215580951799466 16.62062097220136 0 1 3
236 1 1 0.5897 8.788692745498865 6.398111695139815 17.00681747715968 0 -2 -4
125 1 1 0.5897 8.98379783005936 1.7160742787057897 17.396935559003147 0 1 3
75 1 1 0.5897 9.068519066765496 4.272831326384956 19.430103355624325 2 0 2
813 1 1 0.5897 6.86533515446624 4.559843766734184 16.495465951747967 -5 5 -4
717 1 1 0.5897 6.879676072598449 7.636315591294981 1.6630506634588358 4 -6 -3
112 1 2 -1.1794 6.0957064587629555 9.343845226062596 2.0116759068519956 -3 -2 2
736 1 2 -1.1794 6.902893725853835 11.646668013353738 1.0823323671791432 0 -1 1
84 1 1 0.5897 5.935892382888779 9.643528927641102 5.119109209950023 -2 -3 -6
113 1 1 0.5897 5.545691653091681 9.58428424817248 2.7572664799873667 -3 -2 2
742 1 2 -1.1794 8.926763624028634 9.056667719682107 2.8195519263923012 -2 -1 1
743 1 1 0.5897 7.97170221622699 8.992655873109666 2.822214588890855 -2 -1 1
114 1 1 0.5897 6.292612822028246 10.175509517738824 1.5806355563483134 -3 -2 2
476 1 1 0.5897 7.8962985032289295 11.19989607735576 5.198375099511671 5 -3 0
715 1 2 -1.1794 7.279567558468599 6.7763260152511755 1.5335706495678212 4 -6 -3
716 1 1 0.5897 7.616540838699275 6.800709949590102 0.6379618769046129 4 -6 -3
82 1 2 -1.1794 6.5753760681560856 9.861895971645302 5.797059324528264 -2 -3 -6
521 1 1 0.5897 5.637223602751495 6.988752123145794 6.230651270517238 -2 0 -2
46 1 2 -1.1794 6.72365828226533 7.782126361113263 9.414061306159224 3 -2 -1
457 1 2 -1.1794 7.317030875778573 7.56326382747443 6.84672965685563 0 0 -2
459 1 1 0.5897 7.013841937480718 7.599286355012764 7.75398114962588 0 0 -2
732 1 1 0.5897 8.92714180714424 11.455549214624538 9.555425407400381 1 1 -5
48 1 1 0.5897 6.259914764266081 8.086341961356277 10.19421997270965 3 -2 -1
47 1 1 0.5897 7.3678329848755775 7.156928685941321 9.746324821975582 3 -2 -1
797 1 1 0.5897 5.319618887197012 10.731384656642996 6.74182521218472 0 -5 -2
458 1 1 0.5897 8.220810374566241 7.253859321139326 6.907825741526608 0 0 -2
83 1 1 0.5897 6.855783232319553 9.015065396340898 6.144161151364243 -2 -3 -6
88 1 2 -1.1794 5.325492187408731 11.182300621266345 10.163163980383118 7 -1 4
90 1 1 0.5897 5.015299469129368 11.12613256584736 9.259362701150899 7 -1 4
492 1 1 0.5897 6.038711567699282 6.818770683491262 13.031928888829748 1 3 4
203 1 1 0.5897 7.992624493823268 10.81898998400481 13.582649572514867 -6 2 2
202 1 2 -1.1794 8.273433887349405 10.610646434435777 14.47369878537089 -6 2 2
71 1 1 0.5897 6.218123130164616 9.232696006479076 12.873593169550103 4 2 -5
382 1 2 -1.1794 7.27899522914934 10.307873345646954 11.755143084165075 -8 -1 -2
816 1 1 0.5897 5.041552323061423 8.951285136287085 16.142422429074593 -4 7 -4
72 1 1 0.5897 5.351423159668999 9.288146832877462 14.113611689644443 4 2 -5
833 1 1 0.5897 7.328166820073797 9.726245189213838 16.22022594139293 2 -2 0
70 1 2 -1.1794 5.505962100978553 8.77509091223991 13.320430356010428 4 2 -5
384 1 1 0.5897 6.438194434285905 10.608911214325824 11.410670103498495 -8 -1 -2
383 1 1 0.5897 7.932382075606048 10.742737679177212 11.20722815056041 -8 -1 -2
404 1 1 0.5897 8.941511888216054 8.918844656602136 14.141361538821807 5 -2 0
855 1 1 0.5897 6.035534819005508 7.033717963402797 17.632746413064904 -3 1 0
39 1 1 0.5897 8.501199075450192 11.07178220721281 21.227596099826926 0 1 -3
94 1 2 -1.1794 5.492441054682741 8.002477495669675 19.172045596723688 -4 1 -1
96 1 1 0.5897 5.090768565293574 7.90297355492183 20.035181526305973 -4 1 -1
695 1 1 0.5897 5.169946442628777 11.053453508200205 18.354448437173076 2 -2 -1
694 1 2 -1.1794 5.57275206545464 10.761761382763558 19.172307938853255 2 -2 -1
95 1 1 0.5897 5.562880868002208 8.948963208567623 19.047805985598192 -3 1 -1
696 1 1 0.5897 5.418842813630285 11.480590127093931 19.78535984370639 2 -2 -1
215 1 1 0.5897 7.481371963533836 10.880805237212334 18.573830202016094 -2 1 2
216 1 1 0.5897 8.817780816845238 10.907394959584854 19.28460278149308 -2 1 2
131 1 1 0.5897 7.3351660301020996 7.364612078169741 19.70635419967882 -4 1 0
130 1 2 -1.1794 8.119702964261588 7.060582608996746 20.1627592468334 -4 1 0
214 1 2 -1.1794 8.40755472143234 11.080168743585117 18.437194953146665 -2 1 2
832 1 2 -1.1794 6.897506250438049 8.93096681205376 16.533752265286996 2 -2 0
834 1 1 0.5897 7.616903603802837 8.336880065445662 16.747663598797736 2 -2 0
138 1 1 0.5897 7.864458689430759 14.320874062682604 2.743973437772739 6 -6 1
414 1 1 0.5897 6.632849680387494 16.22224366458856 2.245334830134646 0 -2 3
222 1 1 0.5897 4.850500889454618 14.572475342592819 3.5413146751466864 2 -3 3
413 1 1 0.5897 6.807709206018378 16.084061296568155 3.742746456982666 0 -2 3
738 1 1 0.5897 7.484759010000219 12.216095540975916 1.5857603614021498 0 -1 1
137 1 1 0.5897 8.427452517340079 13.09409615170165 3.429499398499701 6 -6 1
136 1 2 -1.1794 8.413249705778654 13.552062401585745 2.5890852582227932 6 -6 1
412 1 2 -1.1794 6.583395470793128 15.584654782561989 2.957565105338915 0 -2 3
327 1 1 0.5897 5.376221076217284 16.876266800662997 5.633749515212817 0 -1 -1
475 1 2 -1.1794 8.107877478101539 12.132977973812437 5.169338141157143 5 -3 0
737 1 1 0.5897 6.2689981130094585 12.243135507153788 0.6840138376186558 0 -1 1
477 1 1 0.5897 7.3167334482742 12.568438967006728 5.486671507227559 5 -3 0
730 1 2 -1.1794 8.715167239153367 12.134528865347525 10.195970871867447 1 1 -5
355 1 2 -1.1794 5.3261377162254755 13.881852193426814 10.584035994342964 1 -2 4
196 1 2 -1.1794 5.450955111517265 13.142115488319975 6.203989334354671 -2 -3 0
85 1 2 -1.1794 7.971429663305778 15.400165409125655 6.37011931032755 -1 6 1
79 1 2 -1.1794 6.150432541293747 16.93854022186621 9.381299035570082 1 1 -4
81 1 1 0.5897 5.644647205038726 16.500654906198285 8.696661540292423 1 1 -4
731 1 1 0.5897 8.245625102182675 12.800317316136137 9.693480529734986 1 1 -5
197 1 1 0.5897 5.366590022515727 13.943028311883369 6.721358594885311 -2 -3 0
198 1 1 0.5897 4.907978772924369 12.501399958101223 6.663251708220144 -2 -3 0
591 1 1 0.5897 7.75982085127978 14.512624735760035 7.971143841461769 2 5 2
590 1 1 0.5897 7.420131099133655 15.278074733560729 9.232328592046576 2 5 2
357 1 1 0.5897 5.870696498121544 14.085177241972298 9.823532028397665 1 -2 4
589 1 2 -1.1794 7.367981593390822 14.407387295305016 8.838102078689815 2 5 2
89 1 1 0.5897 5.1732887839283554 12.0937575787238 10.412913216932214 7 -1 4
87 1 1 0.5897 7.4382234708425665 16.049644617273493 5.911748896950156 -1 6 1
86 1 1 0.5897 8.813515418093003 15.416814179924776 5.915298529372514 -1 6 1
135 1 1 0.5897 5.2083238904656035 12.227135421410336 13.286328844974628 1 -5 -2
803 1 1 0.5897 7.588228394025406 13.706963748345473 13.417681198740185 5 2 -2
408 1 1 0.5897 8.172153172797639 15.447769825057005 15.618041099694459 -6 -2 3
802 1 2 -1.1794 7.294700852876407 13.808441433115926 12.51225747418188 5 2 -2
804 1 1 0.5897 7.98907744867069 14.31455025146664 12.090208343295686 5 2 -2
705 1 1 0.5897 7.8479981823194525 12.40169119860108 15.113670078096611 2 -2 -2
406 1 2 -1.1794 8.480614200755001 16.31526840510709 15.356255904426051 -6 -2 3
356 1 1 0.5897 5.8581725166107725 14.141081220527466 11.336350692835605 1 -2 4
434 1 1 0.5897 8.793846528130263 16.1363055064475 11.806427764558363 0 3 -1
851 1 1 0.5897 5.404785032302691 14.71301300676887 16.136620194546232 -6 0 -3
703 1 2 -1.1794 8.051271724960483 13.3312710597335 15.217648214917515 2 -2 -2
441 1 1 0.5897 4.958246430953934 16.159603370020886 13.864442419225748 0 -1 -2
133 1 2 -1.1794 4.761937207290294 11.956015890466695 14.08850173123761 1 -5 -2
704 1 1 0.5897 9.0051495061086 13.361543458268935 15.291423598188242 2 -2 -2
306 1 1 0.5897 5.0320841068230635 11.894180707033264 16.10187680099716 4 -1 -7
662 1 1 0.5897 6.273148755240045 15.675921936857907 19.901005663986158 -4 -4 0
338 1 1 0.5897 9.099687900614628 16.26764081274839 20.25762262837216 -4 0 2
850 1 2 -1.1794 6.054650450496248 14.701935954248146 16.839323101733772 -6 0 -3
337 1 2 -1.1794 8.20656241986574 16.02913694717811 20.00917189731384 -4 0 2
339 1 1 0.5897 8.316042416344587 15.376212325026032 19.317836825674192 -4 0 2
766 1 2 -1.1794 5.279448333414485 13.036335726449385 20.714520996844215 -1 -1 2
852 1 1 0.5897 5.57750789642326 15.003827571084182 17.612263763855072 -6 0 -3
661 1 2 -1.1794 5.430271081841234 15.493277133113319 19.485731808834775 -4 -4 0
847 1 2 -1.1794 8.581408182124816 14.185360800724743 18.029113650339553 4 -1 4
849 1 1 0.5897 7.801851110468359 14.419972399958981 17.525640298458583 4 -1 4
848 1 1 0.5897 8.550862591395667 13.230432507903663 18.087695481516054 4 -1 4
767 1 1 0.5897 5.042069281738166 13.819015693649247 20.21722311919407 -1 -1 2
305 1 1 0.5897 5.6061572771718104 12.942857234533436 17.030663269315223 4 -1 -7
304 1 2 -1.1794 4.9913126326880795 12.209680931198134 17.004675423631028 4 -1 -7
663 1 1 0.5897 4.915878961464519 16.2880510389622 19.627132853202305 -4 -4 0