LAMMPS (30 Jul 2021)
  using 1 OpenMP thread(s) per MPI task
package omp 0
using multi-threaded neighbor list subroutines
echo both

include		in.partitions
variable        pid world 0
include		in.temp
variable        temperature equal 234.05
variable	tempDamp equal 100.0
include		in.pressure
variable        pressure equal 3250.0
variable        pressureDamp equal 1000.0 # This is 1 ps
include		in.seed
variable        seed world 745823

units		real
atom_style	full
read_restart    restart.lmp.${pid}
read_restart    restart.lmp.0
Reading restart file ...
  restart file = 30 Jul 2021, LAMMPS = 30 Jul 2021
  restoring atom style full from restart
  triclinic box = (-3.2032653 -0.18109145 -0.19152068) to (14.813264 22.761090 19.421519) with tilt (-0.19207945 -6.3289595 0.33556349)
  4 by 4 by 4 MPI processor grid
  restoring pair style lj/cut/tip4p/long/omp from restart
  restoring bond style harmonic/omp from restart
  restoring angle style harmonic/omp from restart
  1008 atoms
  672 bonds
  336 angles
Finding 1-2 1-3 1-4 neighbors ...
  special bond factors lj:    0        0        0       
  special bond factors coul:  0        0        0       
     2 = max # of 1-2 neighbors
     1 = max # of 1-3 neighbors
     1 = max # of 1-4 neighbors
     2 = max # of special neighbors
  special bonds CPU = 0.517 seconds
  read_restart CPU = 0.836 seconds

include 	in.setup
variable	out_freq equal 1000
variable	out_freq2 equal 10000
variable	out_freq3 equal 1000

timestep	2.0

neigh_modify    delay 7 every 1

include		in.tip4p
# This is TIP4P/Ice

# create groups ###
group ox type 2
336 atoms in group ox
group hy type 1
672 atoms in group hy

# set charges - beside manually ###
set group ox charge -1.1794
Setting atom values ...
  336 settings made for charge
set group hy charge 0.5897
Setting atom values ...
  672 settings made for charge

# ### TIP3P Potential Parameters ###
pair_style lj/cut/tip4p/long/omp 2 1 1 1 0.1577 8.5
pair_coeff 1 1*2 0.000 0.000
pair_coeff 2 2 0.21084 3.1668
bond_style  harmonic
bond_coeff  1 450 0.9572
angle_style harmonic
angle_coeff 1 55 104.52
kspace_style pppm/tip4p/omp 1.0e-5
pair_modify tail yes

thermo          ${out_freq}
thermo          1000
thermo_style    custom step temp pe etotal epair emol press lx ly lz vol pxx pyy pzz pxy pxz pyz enthalpy

restart 	${out_freq3} restart.lmp.${pid} restart2.lmp.${pid}
restart 	1000 restart.lmp.${pid} restart2.lmp.${pid}
restart 	1000 restart.lmp.0 restart2.lmp.${pid}
restart 	1000 restart.lmp.0 restart2.lmp.0


include         in.dump
dump            myDump all atom ${out_freq2} dump.water.${pid}
dump            myDump all atom 10000 dump.water.${pid}
dump            myDump all atom 10000 dump.water.0
dump            myDump2 all dcd ${out_freq2} dump.dcd
dump            myDump2 all dcd 10000 dump.dcd
dump_modify     myDump append yes
dump_modify     myDump2 append yes


variable natoms 	equal  "count(all)"                        # NUMBER ATOMS
variable H      	equal  "enthalpy/v_natoms"                 # ENTHALPY-per-atom
variable Vol      	equal  "vol/v_natoms"                 # volume-per-atom
fix AVG all 		ave/time ${out_freq} 1 ${out_freq} v_Vol v_H file vol_enthalpy.dat
fix AVG all 		ave/time 1000 1 ${out_freq} v_Vol v_H file vol_enthalpy.dat
fix AVG all 		ave/time 1000 1 1000 v_Vol v_H file vol_enthalpy.dat



fix 		1 all shake 1e-6 200 0 b 1 a 1
       0 = # of size 2 clusters
       0 = # of size 3 clusters
       0 = # of size 4 clusters
     336 = # of frozen angles
  find clusters CPU = 0.064 seconds
fix             2 all nph tri ${pressure} ${pressure} ${pressureDamp}
fix             2 all nph tri 3250 ${pressure} ${pressureDamp}
fix             2 all nph tri 3250 3250 ${pressureDamp}
fix             2 all nph tri 3250 3250 1000
fix             3 all temp/csvr ${temperature} ${temperature} ${tempDamp} ${seed}
fix             3 all temp/csvr 234.05 ${temperature} ${tempDamp} ${seed}
fix             3 all temp/csvr 234.05 234.05 ${tempDamp} ${seed}
fix             3 all temp/csvr 234.05 234.05 100 ${seed}
fix             3 all temp/csvr 234.05 234.05 100 745823


run             250000
PPPM initialization ...
  extracting TIP4P info from pair style
  using 12-bit tables for long-range coulomb (../kspace.cpp:340)
  G vector (1/distance) = 0.37899519
  grid = 24 27 36
  stencil order = 5
  estimated absolute RMS force accuracy = 0.0024587612
  estimated relative force accuracy = 7.4044864e-06
  using double precision FFTW3
  3d grid and FFT values/proc = 4050 480
Last active /omp style is kspace_style pppm/tip4p/omp
Neighbor list info ...
  update every 1 steps, delay 7 steps, check yes
  max neighbors/atom: 2000, page size: 100000
  master list distance cutoff = 10.8154
  ghost atom cutoff = 10.8154
  binsize = 5.4077, bins = 5 5 4
  1 neighbor lists, perpetual/occasional/extra = 1 0 0
  (1) pair lj/cut/tip4p/long/omp, perpetual
      attributes: half, newton on, omp
      pair build: half/bin/newton/tri/omp
      stencil: half/bin/3d/tri
      bin: standard
Per MPI rank memory allocation (min/avg/max) = 9.327 | 9.338 | 9.354 Mbytes
Step Temp PotEng TotEng E_pair E_mol Press Lx Ly Lz Volume Pxx Pyy Pzz Pxy Pxz Pyz Enthalpy 
 3250000    240.99129   -4858.5168   -4376.5045   -4858.5168            0    3697.9304     18.01653    22.942182    19.613039    8106.8243    4976.3524    3833.0121    2284.4266   -135.42633     126.6478    -1291.115   -3939.2992 
 3251000    232.89829   -4881.8662   -4416.0409   -4881.8662            0     1924.208    18.265482     23.00066    19.482933    8185.1331    574.74324    1793.5597    3404.3212    1668.2487   -1372.3748    1157.9117   -4186.3448 
 3252000    237.06624    -4880.566   -4406.4042    -4880.566            0    2845.0864    18.134679    23.019812    19.449884    8119.4882    2453.7215    3654.3527    2427.1851   -758.88864    294.23097   -506.39785    -4069.505 
 3253000    224.82155   -4860.9723   -4411.3014   -4860.9723            0    2347.8955    18.139143    23.085347    19.450378    8144.8149    2940.3074    2041.3468    2062.0322   -603.11769    507.62344    655.70593   -4132.4095 
 3254000    236.35404   -4920.2452   -4447.5079   -4920.2452            0    2578.8779    18.157956    23.114632    19.345315    8119.5089    2764.1645    2169.3045    2803.1646    248.22459    43.041989   -1629.0771   -4142.1308 
 3255000    225.96278   -4856.8819   -4404.9285   -4856.8819            0    2978.6924    18.014876    23.203517    19.411009    8113.9664     3172.384    2904.0347    2859.6583    -890.0882    949.71823   -116.25628   -4052.4482 
 3256000    237.27772   -4859.6475   -4385.0628   -4859.6475            0    3276.0507    17.817307    23.258232    19.572989    8111.0284    5216.4857    2853.1382    1758.5283     1945.473   -795.52004    1398.7464   -3997.5354 
 3257000    236.25989   -4890.5164   -4417.9675   -4890.5164            0    4204.0864    18.109713     23.03957    19.292322    8049.5287    4087.3376    3342.2603    5182.6613    270.42886   -1007.9942   -1216.4472   -3924.4324 
 3258000    232.84738   -4867.6416   -4401.9181   -4867.6416            0    5690.8209    17.976952    22.867989    19.670205    8086.3569    6767.8383    5861.3722    4443.2522   -219.59518   -669.72727    239.92599   -3730.7926 
 3259000    237.66459   -4853.1372   -4377.7787   -4853.1372            0    3824.8434    18.256982    22.818209    19.435007    8096.4615    4812.5868    3904.8799    2757.0635    425.95165   -360.50973    343.15762   -3926.1466 
 3260000    229.88767   -4858.3025   -4398.4987   -4858.3025            0    2492.4214    18.354477    22.989703    19.399013    8185.6849    1485.0411    1755.5048    4236.7183    -323.5176   -450.31877   -394.69804   -4100.9539 
 3261000     239.1006    -4888.001   -4409.7703    -4888.001            0    3166.5541    18.124157    22.696591    19.704701    8105.6583    4091.7358    4486.6068    921.31959   -5.6404902     234.8138   -949.89553   -4035.4434 
 3262000    239.44858   -4838.8038   -4359.8771   -4838.8038            0    2952.7958    18.306833    22.967807    19.402496     8158.125   -66.358245    4330.1501    4594.5956    1393.0045   -197.67855    1264.3389   -4008.5597 
 3263000    238.66691   -4846.1081   -4368.7448   -4846.1081            0     2127.748    18.090515    22.855384    19.721854    8154.3095    2629.6995    2589.2257    1164.3189    355.62989     415.7018    145.02336   -4115.7082 
 3264000    239.38276   -4892.1385   -4413.3434   -4892.1385            0    2788.6311    18.166102    23.117563    19.362889    8131.5614    3288.8336    1131.1682    3945.8916    1264.1375    -937.1207    1279.9619   -4082.6383 
 3265000    236.35027   -4875.9779   -4403.2482   -4875.9779            0    3016.9822    18.080251    23.213855    19.356397    8124.1184    4330.0423    1971.7602     2749.144    262.60521     910.6603   -1251.1358   -4045.7903 
 3266000     236.6958   -4870.4953   -4397.0744   -4870.4953            0    2238.6118    18.088654    23.139924    19.428648    8132.2509    3884.9683     1366.474    1464.3932    273.96365    -326.9464    1179.8601   -4131.5739 
 3267000    232.59806   -4869.6716   -4404.4467   -4869.6716            0    4188.3568    18.079117    23.150945    19.315624    8084.5283    3672.2446    4201.0584    4691.7673   -303.98076     692.3756   -1213.1703   -3910.6204 
 3268000    228.81136     -4882.81    -4425.159     -4882.81            0    2073.5992    18.071837    22.979904    19.598376    8138.9917    2928.7404     1914.987    1377.0701   -754.52387   -660.80586    208.13433   -4179.0251 
 3269000     231.7841   -4864.8547   -4401.2578   -4864.8547            0    5077.1814    18.351559    22.822546    19.236509    8056.8139    1943.0812    5395.3818    7893.0812   -65.837355    182.35593   -921.29093   -3804.6872 
 3270000    240.97481   -4891.0578   -4409.0784   -4891.0578            0    2685.4299    18.243657    22.689883    19.690351    8150.7508    883.84807    4326.0931    2846.3485    1171.9866      613.267     525.0753   -4089.8604 
 3271000     239.5022   -4904.2832   -4425.2492   -4904.2832            0    2866.0039    18.246225    22.671215    19.653832    8130.0844    1858.4694    3864.3588    2875.1834    987.72082   -1010.4906    791.66136   -4085.4302 
 3272000    241.50565   -4887.8915   -4404.8503   -4887.8915            0    3482.9819    18.199498    23.061178    19.356127    8123.8025    3965.1936    2821.1366    3662.6154   -1068.2706     127.9396   -927.88436   -3992.1959 
 3273000    230.85628   -4894.0118   -4432.2708   -4894.0118            0    4087.7521    17.964577    23.099614    19.459509    8075.2056    4750.7382    3865.4118    3647.1065   -384.02301    458.99313   -263.62626    -3950.862 
 3274000    243.62382   -4850.2948    -4363.017   -4850.2948            0    2792.4093      17.9581    23.466636    19.323445    8143.2126    4157.6131    322.22349    3897.3914    448.02676    -799.9578      1210.76   -4031.3894 
 3275000    233.95321   -4838.2034   -4370.2681   -4838.2034            0    4453.2964    18.105445    23.071204    19.326326    8072.8853    4390.5052    3246.7866    5722.5974   -339.96536   -472.62711   -34.857494   -3845.9603 
 3276000    248.64698   -4880.9902   -4383.6655   -4880.9902            0    1969.8206    18.170908    23.122595    19.479072    8184.2987    2455.9285    2222.5485    1230.9848    889.98969    1314.1038    539.94559   -4148.5485 
 3277000    233.23867   -4839.9833   -4373.4772   -4839.9833            0     2661.429    18.214513     22.96958    19.515038    8164.6958    1878.7674    2594.8444    3510.6751   -703.01654   -402.73252   -396.51572    -4056.571 
 3278000     233.3352   -4888.3834   -4421.6842   -4888.3834            0    2217.6489    18.338518    22.748317    19.589327    8172.0881    2114.8899    3361.4959    1176.5608   -86.322112    -322.6398    939.12073   -4157.3814 
 3279000    240.22225   -4882.3394   -4401.8653   -4882.3394            0    3684.2237     18.08664    22.724092    19.650382    8076.3556    4800.3348    4286.4737    1965.8626   -1350.3381    255.67105   -773.64973   -3967.9177 
 3280000    243.30373   -4861.0006   -4374.3631   -4861.0006            0    4347.8842    18.119061    23.096543    19.353312    8099.1224    3872.2615    4420.3546    4751.0365    568.98014    65.397426    845.10498   -3860.8023 
 3281000    249.93202   -4878.4337   -4378.5387   -4878.4337            0    1737.3782    18.042455    23.244896    19.467349    8164.5084    2765.6712    837.91249    1608.5508    885.18987   -27.482016    -834.2396   -4171.6674 
 3282000    245.94479   -4884.3595   -4392.4395   -4884.3595            0    2901.0891    18.037337    23.233299    19.288833    8083.3099    2705.2249    2516.1575    3481.8848    1148.9675    863.83339   -1621.7897   -4050.4394 
 3283000    238.95581   -4879.3153   -4401.3742   -4879.3153            0     1890.375    18.053915    23.143159    19.544723    8166.2665    1233.9029    2396.6048    2040.6174   -578.66916    358.76027    313.15634   -4176.2369 
 3284000    223.93535   -4881.1085   -4433.2101   -4881.1085            0    2655.0336    18.176765     22.91233    19.487371    8115.9449    3331.4101    2655.0161    1978.6747    508.59054   -63.887759    -1045.028   -4118.9531 
 3285000    236.05124   -4905.4844   -4433.3528   -4905.4844            0     3054.261    18.068368    22.899214    19.522622    8077.5128    2229.9922    4454.9138    2477.8771    134.62234   -708.62392    1344.1734    -4073.554 
 3286000    227.31406   -4884.7508   -4430.0946   -4884.7508            0    3208.7227    18.184046     22.79351    19.590286    8119.7473    3837.4107    2813.5163    2975.2411    -585.2927   -644.57176     418.1494   -4050.1235 
 3287000    235.98991   -4870.5771   -4398.5682   -4870.5771            0    4431.3839    18.205599    22.789553    19.434937    8063.5061    2107.0419    5430.9593    5756.1504   -231.37987    -1512.236    22.640528   -3877.4464 
 3288000    240.49824   -4888.1016   -4407.0754   -4888.1016            0    3063.0387    17.980434    23.003703    19.620896    8115.5273    3767.3485     3867.228    1554.5396     1327.151    1280.9979    -318.7423   -4044.5444 
 3289000    230.85911   -4875.6376   -4413.8909   -4875.6376            0    2483.3568    18.191321    23.069802    19.355923    8123.1034    913.02691     2012.507    4524.5366    476.71325    49.645992   -109.93008   -4119.6947 
 3290000    235.79181   -4870.9623   -4399.3496   -4870.9623            0    1525.0559    18.043716    23.164435    19.551037    8171.7955     2766.035    1052.4557    756.67687    122.78115    52.240146    1201.8907   -4217.5976 
 3291000    245.78758   -4894.1284   -4402.5229   -4894.1284            0    1688.5221    18.162655    23.149498    19.412151    8161.9623    1046.3267    1896.8022    2122.4373    232.64762    811.27608   -1320.2498   -4201.5316 
 3292000    243.09792   -4885.7371   -4399.5112   -4885.7371            0    3561.1607     18.04671    23.144302    19.383244    8095.9641    3104.6695    3453.5008    4125.3117   -998.22731    640.78177   -856.40008   -3979.0402 
 3293000    233.17237   -4851.8149   -4385.4414   -4851.8149            0    3063.2205    17.934068    23.076132    19.626602    8122.4485    4224.6857    3551.4442    1413.5318   -672.38456    359.34102   -349.05702   -4022.5797 
 3294000    226.97814   -4886.5042   -4432.5199   -4886.5042            0    3853.9929    18.106129     23.07787    19.419678    8114.5299     3144.812    3950.2709    4466.8959   -304.06576    381.61996    1957.6454   -3976.4303 
 3295000    236.49134   -4907.4033   -4434.3914   -4907.4033            0    2769.4917    18.242149    22.993377    19.367254    8123.5676    3508.6417    1972.3612    2827.4723    95.417949    494.25957    1653.0844   -4106.2789 
 3296000    229.83467   -4879.6273   -4419.9296   -4879.6273            0    4446.9944    18.007249    22.927258    19.570953    8080.0018    4792.7801    3974.2125    4573.9907    120.06562    -49.40661    151.89563   -3895.9023 
 3297000    238.87171   -4888.1085   -4410.3356   -4888.1085            0    2876.3684    18.252494    23.093682    19.285187    8129.0402    5369.2686    972.77659      2287.06   -118.48685   -456.46641    1261.7716   -4069.3314 
 3298000    234.55071    -4894.202   -4425.0716    -4894.202            0    2254.5812    18.170337    23.003438    19.440048    8125.5556    2059.0235      2219.56    2485.1602   -89.293258    49.930601    170.26439   -4157.8972 
 3299000     234.1795    -4861.441    -4393.053    -4861.441            0    4651.6052    18.025928    22.922977    19.535265    8072.1263     6766.533    3278.0592    3910.2234   -614.21509   -768.71045    2163.0954   -3845.4489 
 3300000    232.48111    -4891.343    -4426.352    -4891.343            0    4745.7111     18.20563    22.894941    19.340873    8061.6011    3838.4558    3724.2436    6674.4337   -244.50244   -68.797618    871.62156   -3868.3979 
 3301000      248.506   -4846.6245   -4349.5818   -4846.6245            0    3136.0195    18.256857    22.814424     19.60064    8164.0521    4225.7235    3005.6221     2176.713     835.9902   -299.74748    234.84285   -3976.1937 
 3302000    233.01607   -4890.6779    -4424.617   -4890.6779            0    3525.8153    18.130558    22.962617    19.473483    8107.2992    5650.1509    2826.2584    2101.0366    1137.0309    375.45209    751.09882   -4007.7364 
 3303000    225.71852   -4893.7004   -4442.2355   -4893.7004            0    4796.0165    18.096775    22.933778    19.404189    8053.2705    3872.8351    4905.6189    5609.5954    -728.5552   -15.627787    856.17457   -3878.9496 
 3304000    244.23811   -4865.2987   -4376.7923   -4865.2987            0    3484.9598    17.995758    22.972953    19.621901    8112.0022    4068.7549    3650.6066     2735.518   -161.01023    -1264.152    242.79158   -3964.5033 
 3305000    234.75952   -4860.3912   -4390.8432   -4860.3912            0    3344.7217    18.272031    23.040025    19.255173    8106.1975    3452.8211    3496.8054    3084.5386   -658.78049    913.85037   -277.10094   -3995.4283 
 3306000    247.75119   -4854.8064   -4359.2734   -4854.8064            0    2251.3013    18.073808    23.076404     19.55047    8154.0805    790.56917    3109.6735    2853.6612    1318.6917    59.420207   -1810.1426   -4091.5511 
 3307000    233.58346    -4905.561   -4438.3653    -4905.561            0    3931.8145     18.17372    23.023164    19.387225    8111.9355    3631.1732    3806.2235    4358.0469    1763.4328    790.81343    1232.3698   -3973.2149 
 3308000    236.77045   -4873.2854   -4399.7152   -4873.2854            0     4106.173    18.126545     23.03778     19.35039     8080.633    3463.8821     3926.841    4927.7959   -54.107562    11.873624   -708.83465    -3915.812 
 3309000     241.2373   -4895.1965   -4412.6921   -4895.1965            0     2057.443    18.239857    22.873405    19.609274    8181.1388     1822.396    2085.5972    2264.3358   -865.51299   -23.091391   -204.59982   -4167.2113 
 3310000    240.43153   -4892.8863   -4411.9935   -4892.8863            0    2954.0424    18.146343    22.982724    19.480314    8124.3115    2923.7623      3713.02    2225.3447      -1185.6    476.58905    36.745151   -4061.9846 
 3311000    234.63598   -4853.2511   -4383.9502   -4853.2511            0    4142.0018    18.106741    23.165507    19.288626      8090.65     3323.885     3948.076    5154.0443    155.13077    488.55661   -51.936925   -3895.2195 
 3312000    249.56287   -4858.2925   -4359.1359   -4858.2925            0    2296.9577    18.094948     23.26782    19.463808    8194.8469    2917.9975    1420.8972    2551.9785    294.09663    381.65181   -18.831314   -4084.6186 
 3313000    242.94999   -4855.3081   -4369.3781   -4855.3081            0    5122.3117      18.0229    23.199124    19.274637    8059.0245    6533.6791    3846.7381    4986.5178   -294.96068   -135.08682    1597.5652   -3767.3394 
 3314000    228.73166   -4873.7771   -4416.2855   -4873.7771            0    2867.9717    18.137706     22.97003    19.501923    8124.9628    2793.1362    3258.8498    2551.9293   -480.12768    192.94221   -1056.2016   -4076.4474 
 3315000    238.76895   -4899.4023   -4421.8349   -4899.4023            0    2859.9256    18.067739    22.859165    19.625405     8105.556    2625.4627     3076.314    2877.9999   -498.61404     412.6901   -1051.2332   -4083.7596 
 3316000    230.32851   -4831.6126   -4370.9271   -4831.6126            0    3645.1813    18.251389    22.876989      19.4281    8111.9472    3672.0405    4072.2674    3191.2362   -301.40357   -524.07406   -175.98918    -3939.686 
 3317000    235.62165   -4889.1785   -4417.9061   -4889.1785            0    2118.7431    18.088717    23.009617    19.515634    8122.6892    3723.9128     1312.205    1320.1113   -714.16663    223.69488     307.4331   -4166.9175 
 3318000    233.55424   -4869.7242   -4402.5869   -4869.7242            0    4646.2318    18.069208    23.106016    19.226517    8027.2134    3457.8836    4577.1466    5903.6652    57.327812   -191.29927   -367.98184   -3858.6587 
 3319000    237.16887   -4915.9513   -4441.5842   -4915.9513            0    2432.3979     18.11333    23.190076    19.362906    8133.3792    2199.5673    1781.7085     3315.918   -587.56892    507.88793   -2173.6672   -4153.0605 
 3320000     226.7684   -4851.4212   -4397.8564   -4851.4212            0     2430.593    18.142823    22.998749     19.62002    8186.6936    2924.0941    3123.9925    1243.6924    206.00673    763.13644    386.42588   -4107.6569 
 3321000    237.21117   -4882.3692   -4407.9175   -4882.3692            0    3835.9785    18.240814    22.722379    19.499376    8081.9978    2481.1587    4386.2454    4640.5315   -1167.2251    529.58166    419.60229   -3955.7798 
 3322000    247.26512    -4846.431   -4351.8702    -4846.431            0    1743.7865    18.299239    22.870754    19.570589     8190.632    1491.5386    1873.6448     1866.176    304.09983    1151.5781    779.99689   -4143.5715 
 3323000    228.36636   -4898.8151   -4442.0542   -4898.8151            0    3647.7419     18.04223    22.917166    19.550404    8083.6383    4510.5409     3308.545    3124.1399   -1399.2493    212.69026   -1467.8295   -4012.0161 
 3324000    228.32255   -4900.3284   -4443.6551   -4900.3284            0    2503.6515    18.077906    23.047609    19.477618    8115.3985     3058.997    2398.3272    2053.6303   -272.84526   -438.72145    1022.0984    -4147.336 
 3325000    228.79939   -4870.0293   -4412.4023   -4870.0293            0    4644.9144    18.063419    23.244227    19.204147    8063.2497    6570.5394     3969.906    3394.2977   -905.97495   -419.23949   -815.30395   -3866.1871 
 3326000    237.04621   -4871.7091   -4397.5874   -4871.7091            0    2746.3959    18.159744    23.052495    19.401684    8122.0767    2097.1862    2535.0132    3606.9885    551.40023   -188.28002   -496.77834   -4072.2708 
 3327000    225.10612   -4899.3582   -4449.1181   -4899.3582            0    2487.3626    18.145405    22.936982    19.471242    8103.9468    1927.7107    2709.0044    2825.3728   -203.34396    635.03772   -1472.1571   -4155.1423 
 3328000    250.11301   -4859.0158   -4358.7589   -4859.0158            0    4580.5889    18.121727    22.973821    19.400707    8077.0055    4427.1175    4438.9196    4875.7296    580.66002    406.58745   -683.53555   -3819.1892 
 3329000    231.99726   -4884.2162    -4420.193   -4884.2162            0    2788.3532    18.124491    23.052393     19.45282    8127.6389    3039.1866    2681.5382    2644.3347    40.566367   -1362.4547    567.02786   -4089.6804 
 3330000    247.32735   -4872.8413    -4378.156   -4872.8413            0    1856.7309    18.140813    22.954992    19.667382     8189.935    2842.0679    2174.2836    553.84131   -974.66935    72.739529   -1701.2692   -4156.3847 
 3331000    235.58961   -4870.6931   -4399.4847   -4870.6931            0    3572.5112    18.250706    22.683906    19.635149    8128.8989    2282.8705    3929.6406    4505.0224    17.373523    157.94708   -37.106502   -3975.9576 
 3332000     227.9795   -4890.4056   -4434.4184   -4890.4056            0    4895.5979    18.344809    22.680512     19.45187    8093.3331    3044.4555    5464.1867    6178.1516    106.67244   -853.38634    823.80269   -3856.5765 
 3333000    239.61055    -4872.979   -4393.7283    -4872.979            0    4622.6953     18.05793    22.722603    19.667844    8070.1722    4435.6665    5498.6119    3933.8074    235.91693   -405.44522   -282.18455   -3849.6593 
 3334000    241.39816   -4849.6778   -4366.8516   -4849.6778            0    2987.7028    18.162453    23.193213    19.299772    8129.9448    4636.5491    1557.7657    2768.7936    1052.7917   -899.27722    1179.0396   -4012.6089 
 3335000    234.16511   -4892.4515   -4424.0924   -4892.4515            0    5033.4212    17.939203    23.160176    19.377129    8050.7147    5215.6747    4479.0105    5405.5785   -545.43365    8.3193456   -695.40594   -3833.1113 
 3336000    231.36281   -4878.9363   -4416.1821   -4878.9363            0    2785.0525    17.904038    23.190892    19.519957    8104.8934    4466.0426     1550.843    2338.2719   -391.05825   -588.63272    564.63013   -4086.9845 
 3337000    230.08197   -4873.7511   -4413.5587   -4873.7511            0    2525.1014    18.274684    23.116179    19.265357    8138.4742    2916.4234     1917.644    2741.2368   -255.89215   -1353.9917   -2285.7044   -4113.8512 
 3338000     239.4291   -4885.7945   -4406.9067   -4885.7945            0    1902.4374    18.177541    22.950118    19.599141    8176.3049    2022.7376    2740.8131    943.76137    1008.7303    257.23957   -508.71947   -4180.0543 
 3339000    229.81042   -4911.2775   -4451.6283   -4911.2775            0     3325.812    18.283281    22.490306    19.759171    8124.9033    3725.7816    3850.1188    2401.5356    554.38983    769.27331   -766.62612   -4057.5416 
 3340000    238.70717   -4901.7625   -4424.3187   -4901.7625            0      3768.69    18.210675    22.930312     19.40038    8101.1418    3180.5827    4436.6341    3688.8532    1001.7665    359.37691      1328.01   -3979.0599 
 3341000    229.37233   -4879.0611   -4420.2881   -4879.0611            0    2278.7448    18.094145    23.041393    19.452113    8109.8645    2003.9549    2312.0768    2520.2026    332.51189    308.95491    -179.3854   -4150.7717 
 3342000    243.33821   -4895.8304   -4409.1239   -4895.8304            0    4738.2823    17.960031    23.214293    19.245632    8024.0704    3686.8054    4214.9167    6313.1247    -619.1908   -522.88616    1682.3109   -3854.6367 
 3343000    235.93442   -4851.7458   -4379.8478   -4851.7458            0    2123.6321    17.965374    23.487363    19.394308     8183.608     3832.391    807.43662    1731.0687   -282.61048   -162.66815    400.12118   -4126.3933 
 3344000    230.42667   -4872.1424   -4411.2606   -4872.1424            0    4413.4405    18.182044    22.934781    19.416989    8096.9078    2223.4131    4376.7124    6640.1959    -882.9728    790.19952    677.27974   -3890.0991 
 3345000    232.61173   -4910.4958   -4445.2436   -4910.4958            0    4484.4612    18.274727     22.64845     19.46967     8058.384    3969.1531    5987.9846     3496.246   -663.19813     1056.298   -479.20725   -3918.2151 
 3346000    230.74077   -4855.2094   -4393.6994   -4855.2094            0    4388.0846    18.219007    22.444699    19.796156    8095.0466    4204.5537    5510.0149    3449.6851    857.15629    55.594873    835.77081   -3875.6511 
 3347000     232.8956   -4879.0348   -4413.2148   -4879.0348            0    3575.8993     18.30197     22.79531    19.399008    8093.2483    3035.9437    3664.7791    4026.9751    255.83733   -180.77175   -1618.9723   -3991.1453 
 3348000    236.88207   -4880.2369   -4406.4435   -4880.2369            0    1993.3677    18.125355    23.027938    19.526483      8150.15     2058.896    2126.4374    1794.7697    19.289797    350.19462    -828.1912   -4169.5087 
 3349000    225.12894   -4865.4298   -4415.1441   -4865.4298            0    2815.9034    18.006874    23.126868    19.427927    8090.6165    4010.9838     1855.566    2581.1604    967.76216   -996.10879     884.4018   -4082.8862 
 3350000    225.31456   -4855.3978   -4404.7409   -4855.3978            0    4058.0109    18.130484    23.330181    19.134862    8093.8069    3211.5355    3352.6538    5609.8434    579.29375   -204.04226    -946.2119   -3925.7338 
 3351000    236.29509   -4918.6006   -4445.9813   -4918.6006            0     3972.996    18.072739    23.012752    19.450425    8089.4988    3535.9666    4501.1764    3881.8451    440.29191    438.22066   -810.44512    -3977.259 
 3352000    224.28907   -4853.0159   -4404.4101   -4853.0159            0     3434.904    18.229632    22.989643    19.332531    8102.1229    4628.2596    2247.6375     3428.815    1116.3219    -651.9209    722.95063   -3998.5378 
 3353000    236.87331    -4861.524   -4387.7481    -4861.524            0    4636.1324      18.0794    22.814605    19.612249    8089.5499    4967.9511    4644.3011    4296.1449    -168.3379     1388.884    325.04605   -3840.7874 
 3354000     236.4304   -4861.0694   -4388.1794   -4861.0694            0    2606.5105    18.279219    22.720501    19.494267    8096.2227    2368.2359    2315.7066     3135.589   -77.951419   -1073.7236   -2115.8085   -4080.4154 
 3355000    236.37951   -4836.7218   -4363.9335   -4836.7218            0    3343.1056    18.088708    22.955507    19.535461    8111.8166    3646.3554    3075.6324     3307.329   -334.60309   -744.18655   -240.75483   -3968.4357 
 3356000    226.14333   -4883.7449   -4431.4303   -4883.7449            0    3346.6352    18.066892    22.984987    19.563779    8124.1971    3465.9903    3832.2266    2741.6886    840.17872   -84.155763    262.85269   -4034.9107 
 3357000     235.7395   -4872.9509   -4401.4428   -4872.9509            0    2637.3017    18.182891    22.992682    19.427752    8122.2271    3366.2778    2906.7056    1638.9215    443.46346    210.27885    -1066.092    -4089.043 
 3358000    238.12185    -4867.578   -4391.3049    -4867.578            0    2173.2721     18.29029    22.899916     19.57831    8200.2987    1005.4183    3106.1229    2408.2751    550.13464    399.84618   -685.56933   -4131.3969 
 3359000    230.70967   -4877.0597   -4415.6119   -4877.0597            0    3635.5651    18.052444    22.900238    19.537241    8076.7987    3573.4487     3956.806    3376.4407   -1373.0428    1205.0806   -1432.7156    -3987.372 
 3360000    242.18756   -4863.0063   -4378.6012   -4863.0063            0    3082.5117    18.139434     23.10523    19.399623    8130.6882    4185.5016     3260.164    1801.8696   -835.78815    473.85539   -1011.8089   -4013.0839 
 3361000    241.44077   -4859.8536   -4376.9422   -4859.8536            0    1498.5414    18.219449    23.050595    19.549501    8210.1867    894.89105    1188.2795    2412.4536   -408.08353    1135.0967    881.93335   -4197.5112 
 3362000    230.55259   -4862.8267    -4401.693   -4862.8267            0    3334.5552    18.086181    22.927688    19.528868      8098.12    3773.1628    4043.8318    2186.6712     1019.811   -526.69694    1957.9771   -4007.8728 
 3363000      226.415   -4880.8581   -4428.0001   -4880.8581            0    6025.7417    18.128319    22.831197    19.379859    8021.1534    7545.9833    5480.8515    5050.3905    1247.9721    143.31247    403.57827   -3723.1071 
 3364000    237.94861   -4864.7595   -4388.8329   -4864.7595            0    3657.0146    18.105423    22.950259    19.489642    8098.4169    3628.9465    4014.2644    3327.8328    766.24134    284.64772    390.54434   -3956.9135 
 3365000    233.84721   -4882.5738   -4414.8505   -4882.5738            0    2631.8925    18.182312    23.118422    19.393844    8152.1318    3442.1192    1951.0294    2502.5289   -664.40904    160.21902   -466.83791   -4101.9435 
 3366000    227.13702   -4889.7779   -4435.4758   -4889.7779            0    3984.6811    18.093178    23.018054    19.376779    8069.8427    3034.7873     2929.574     5989.682    1311.4813    82.569453    974.04256   -3966.5172 
 3367000    227.55352   -4899.2987   -4444.1636   -4899.2987            0    3308.3259    18.128856    22.958774    19.466156    8102.1318    3857.2492    2304.4585    3763.2702   -1523.8476    122.63955   -754.63366   -4053.2475 
 3368000    233.22209   -4895.7926   -4429.3196   -4895.7926            0    4338.9656    18.284873    22.692062    19.381845    8041.9437    4372.4963    4698.8935    3945.5071   -1177.5768   -28.003196   -60.055716   -3920.4305 
 3369000     236.4826   -4903.2796   -4430.2852   -4903.2796            0    3576.7634    18.276261    22.673651    19.561251    8105.9783    3456.6144     2669.812    4603.8639   -406.82085   -683.26557   -98.326443   -4007.4496 
 3370000    247.92666   -4912.6647   -4416.7808   -4912.6647            0    2530.5698    18.185212    22.765631    19.626186    8125.1987     1283.303    3452.6576    2855.7489    97.387457    75.448589   -939.88228   -4116.9141 
 3371000    222.55914   -4870.6195   -4425.4738   -4870.6195            0    4005.4042    18.146276    22.931758    19.401528    8073.4802     3275.519    3879.8472    4860.8463    870.59857   -1486.3158    1636.3527   -3953.8638 
 3372000    231.75169    -4846.751    -4383.219    -4846.751            0    1797.1966    18.243232    23.085019    19.445829    8189.5206    3428.5065     237.9749    1725.1084    802.60924   -462.26587    1460.5089   -4168.5695 
 3373000    234.52547    -4876.715   -4407.6351    -4876.715            0    5207.7593    18.015572    22.945767     19.42641    8030.5111    6501.4602    4364.9686    4756.8493    741.64316       240.13     165.6917   -3797.7191 
 3374000     240.1791   -4878.1529    -4397.765   -4878.1529            0    3183.1691    18.192003    23.058176     19.36148    8121.6453    2672.3329    3388.9166    3488.2577   -625.52022   -132.42497   -687.71857   -4020.7318 
 3375000    248.14847   -4883.6577   -4387.3301   -4883.6577            0    2598.0059    18.202754    22.913993    19.473632    8122.4088    1650.3447    3591.1559    2552.5172    401.67073    1032.4419   -842.09042   -4079.5781 
 3376000    230.38309   -4879.7269   -4418.9322   -4879.7269            0     2754.947    18.056109    23.053023    19.563776    8143.3807     4059.246    2575.7496    1629.8453    1468.9775   -7.4005707    922.21868   -4091.7469 
 3377000    230.45067   -4879.5913   -4418.6615   -4879.5913            0    3185.9406    18.027684    23.173454    19.373747    8093.6484    3755.0156    3170.8376    2631.9686   -431.89979   -479.46117   -324.20345   -4042.6009 
 3378000    228.71541   -4883.1494   -4425.6904   -4883.1494            0    2603.4014    18.059782    23.038254    19.536196    8128.3442     3095.175    2440.0497    2274.9796    917.55558   -1875.9251    253.77346   -4117.0739 
 3379000    235.40553   -4833.6441   -4362.8039   -4833.6441            0     5204.916    18.152293    22.902337    19.446793    8084.6136    5124.1328    5731.5555    4759.0598   -168.92055    412.40058    1378.5525   -3749.1141 
 3380000    231.54355   -4903.0153   -4439.8996   -4903.0153            0    2419.3244    18.288482    22.851774    19.422689    8117.2125    2896.3014    2256.0907    2105.5811   -98.019544   -80.280835   -1457.2802    -4153.497 
 3381000     220.5334   -4883.6966   -4442.6025   -4883.6966            0    2729.8879    18.193312    22.884876    19.565375    8146.0766    1794.2606    2872.3598    3523.0433   -1134.6024    1289.2756    923.93775   -4118.2859 
 3382000    240.96715   -4862.2354   -4380.2713   -4862.2354            0    2297.5878    18.167885     23.01445    19.473785    8142.4546    3500.0138    2134.2555    1258.4941      220.343   -982.37712    77.162983   -4107.4342 
 3383000    231.14026   -4851.1475   -4388.8385   -4851.1475            0    3651.7215     18.31219    22.951159    19.353484    8133.9982    3261.7109    3827.9967    3865.4568    936.66257   -1761.3931    484.22621   -3955.6493 
 3384000    219.83363   -4870.9116   -4431.2172   -4870.9116            0     4226.297    18.133621      22.9392    19.371476    8057.9675    4875.8418    3556.4583    4246.5909    31.448151   -121.29697   -1538.2565   -3934.5546 
 3385000     236.5787   -4891.6545   -4418.4679   -4891.6545            0    3382.3303    18.038944    23.024895    19.485791    8093.3217    2842.1755     3826.627    3478.1885   -1201.2111    124.47286   -1677.0174    -4019.242 
 3386000    238.02492    -4862.451   -4386.3717    -4862.451            0    2694.4069    18.050391     23.36325     19.28258    8131.7687    3289.4997    1964.4444    2829.2765   -285.81114   -1249.9812    59.228987   -4066.8326 
 3387000    240.20863   -4905.0171   -4424.5701   -4905.0171            0    3168.9311      18.0586    23.115079    19.369937    8085.5144    4000.6514    2650.2798    2855.8621    1150.5387   -590.24857    566.98284   -4050.8932 
 3388000    239.94262   -4893.6661   -4413.7512   -4893.6661            0    2824.0371    18.146109    22.813307    19.571578       8102.1    3190.0979     3116.043    2165.9705   -28.283647    236.15637   -788.08056   -4080.0607 
 3389000    231.15162   -4897.9243   -4435.5925   -4897.9243            0    2498.7944    18.220876    22.856064    19.514558    8126.9842    1801.9572     3618.252     2076.174    702.13099    62.779847    964.77749    -4139.426 
 3390000    240.26553    -4869.131   -4388.5703    -4869.131            0    2797.7532    18.194886      22.8452    19.469614    8092.8532    2887.3485    3030.8125    2475.0985   -99.269118   -1460.2941   -946.83348   -4058.3628 
 3391000    234.08422   -4885.0677   -4416.8703   -4885.0677            0    2727.3522    18.078348    22.891787    19.640546    8128.1553    3001.9233    2994.9471    2185.1863    952.91945   -544.69556    1437.0018   -4093.5678 
 3392000    231.55296   -4874.5803   -4411.4458   -4874.5803            0    2046.5405    18.117212    23.083308    19.432923    8126.9492    1965.9441    1081.6202    3092.0572   -1553.8546   -196.55968   -680.85928   -4168.8832 
 3393000    228.05746   -4874.7905   -4418.6474   -4874.7905            0    3886.7954    18.212016    23.059449    19.268944    8092.1676    4870.4617    3820.2119    2969.7126   -1015.0305    467.33705    904.21469   -3959.9435 
 3394000    233.87973   -4865.8867   -4398.0984   -4865.8867            0    3354.2113    17.928249    23.011686    19.687368    8122.2053    4784.7605    3713.5345    1564.3389    742.81779    1048.2332    3368.8127   -4000.7785 
 3395000    233.99973   -4877.3264   -4409.2981   -4877.3264            0     1822.643    18.160516    23.205762    19.393318    8172.8992    3031.6886     698.6744     1737.566   -179.24949    815.16171    1071.6688   -4192.0511 
 3396000    235.36034   -4895.1095   -4424.3597   -4895.1095            0    1460.1302     18.12475    23.176455    19.368004     8135.868    1669.0599    1266.4963    1444.8345   0.15972317   -345.60419    1688.5792   -4251.1105 
 3397000    224.38669   -4895.2588   -4446.4577   -4895.2588            0    1712.9977    18.125621     23.00196    19.549858    8150.8204     1907.935    1603.5283    1627.5297    1398.9235    444.77815    640.81965   -4242.8314 
 3398000    238.87584   -4896.5465   -4418.7653   -4896.5465            0    3036.1572    18.163861    22.862788    19.600008    8139.4228    4212.0779    3099.2049    1797.1889    796.03258   -453.39537    1596.3287   -4058.3578 
 3399000    242.22735   -4868.5512   -4384.0666   -4868.5512            0    2991.9833    18.217187    22.689793    19.618124    8109.0378    3014.2439    3626.2508    2335.4554   -132.89995    232.42494   -743.18807   -4030.2287 
 3400000    235.62004    -4895.445   -4424.1758    -4895.445            0    3824.2313    18.101369    22.961914    19.437128     8078.888    2842.0338     3293.458     5337.202   -53.181016    169.04689   -672.06003   -3973.5961 
 3401000    244.49332     -4859.16   -4370.1432     -4859.16            0    4230.9893     18.15827    22.910461    19.501243    8112.7965    3289.8399    4163.8362    5239.2916    290.32278    522.39763    27.524726    -3869.546 
 3402000    233.50893   -4862.6461   -4395.5993   -4862.6461            0    2698.6358    18.423476    22.726683    19.338346    8097.0529    1271.1158    3575.7392    3249.0526    280.36259   -250.29076    533.60955    -4076.925 
 3403000    249.10751    -4888.751   -4390.5052    -4888.751            0    4417.7572    18.172707      22.8772    19.394809    8063.2105    2555.6612    6145.8655    4551.7448   -1292.1709    1176.6967   -1327.4045    -3871.005 
 3404000    231.73903    -4882.281   -4418.7744    -4882.281            0    3305.4488    17.999542    23.026653    19.490084    8078.0395    3305.7898    4116.9979    2493.5586    933.01926    158.42003    2294.4704   -4029.3597 
 3405000    225.83364   -4873.9883   -4422.2931   -4873.9883            0    2674.8847    18.226776    23.113313     19.31513    8137.1008     897.6505    3098.0115    4028.9921    548.60053   -437.42725   -98.544083   -4104.8611 
 3406000    229.57494   -4899.4028   -4440.2246   -4899.4028            0    2912.1546    17.878925    23.288301      19.4722    8107.6362    3707.1946    2406.0059    2623.2634   -901.04273    381.74936   -217.97655   -4095.8869 
 3407000    231.78147   -4879.3455   -4415.7539   -4879.3455            0    4159.6912    18.126904    23.222729    19.260202    8107.7013    3063.1191     3391.106    6024.8485   -729.27749    1485.4652   -879.93372   -3923.9016 
 3408000    219.41944   -4874.5316   -4435.6656   -4874.5316            0    3386.5207    18.136821    23.073862    19.300977    8077.1982     3330.838    2790.8557    4037.8684    603.64191    557.61849    610.95129   -4036.7415 
 3409000    226.35945   -4886.0774   -4433.3306   -4886.0774            0    2173.4714    18.165916    22.837895    19.641822    8148.8277    3834.3044     1612.276    1073.8337   -530.11392   -1077.9263   -545.24182   -4175.0302 
 3410000    245.20706   -4887.1396   -4396.6951   -4887.1396            0    4127.2191     18.25356    22.599269    19.551996    8065.5332    3244.1125     5353.184    3784.3608   -390.74763    -151.1208    582.88991   -3911.2205 
 3411000    227.29651   -4886.9461    -4432.325   -4886.9461            0    1326.0733    18.306383    22.915941    19.455508    8161.7413    374.17098     1907.653    1696.3959    -536.1715   -452.15439    113.77926   -4274.4816 
 3412000    235.01499   -4869.1329   -4399.0739   -4869.1329            0    2895.1475    17.864793    23.356202    19.437212    8110.2492    2963.5516    1847.7273    3874.1636    173.16683    -161.4567    577.23969   -4056.6368 
 3413000    229.65751   -4877.1114    -4417.768   -4877.1114            0    3757.2887    18.105432    23.320883    19.158194    8089.2536    4362.2279    1877.4045    5032.2338   -709.03974    259.16364    1155.5175   -3974.5077 
 3414000    234.87381   -4888.6847   -4418.9081   -4888.6847            0    4354.4081    18.068694    22.961341    19.447339    8068.3402    4071.6552    4143.4895    4848.0797    1114.2263   -1767.2833     784.9991   -3906.5316 
 3415000    231.88288   -4884.1444     -4420.35   -4884.1444            0    2488.0865    18.234512    22.949324    19.475036    8149.7132    1983.7415      2732.39     2748.128   -620.34336    480.31151   -569.03054   -4124.6279 
 3416000    239.43965   -4839.9708   -4361.0619   -4839.9708            0    5410.0511    18.200194    22.714745    19.439966    8036.7296    6578.3584    4250.6122    5401.1826    743.41262   -605.03407   -958.61551   -3726.9636 
 3417000    227.83752   -4870.2393   -4414.5361   -4870.2393            0    3426.6834    18.055142    23.095109    19.462414    8115.5436    5498.9854    2118.5254    2662.5395   -554.47376   -727.75245    -2030.995   -4008.9646 
 3418000    232.69734     -4848.29   -4382.8666     -4848.29            0    3984.9508    18.094815    23.046754    19.431427    8103.4249    2772.9153    4909.3826    4272.5545    801.17466   -853.37418    1689.6276   -3911.9245 
 3419000    253.76566   -4878.1098   -4370.5471   -4878.1098            0    2718.2993    18.001082    23.072695    19.555463    8122.0381    2012.7403    3556.0798    2586.0779    167.14361   -375.48734   -361.12158   -4048.5602 
 3420000    228.56106    -4849.917   -4392.7667    -4849.917            0    1603.6391    18.252561    23.050284    19.485212    8197.9487    1548.4151    1707.4766    1555.0254   -68.224597   -26.808527   -1263.5364   -4201.0377 
 3421000    235.22812   -4877.2529   -4406.7676   -4877.2529            0    1981.6968    18.089893    22.846298    19.764955    8168.6006    3053.0521    2775.6509    116.38748     808.8206    683.85038    1705.0964   -4170.6868 
 3422000    232.58115   -4886.8007   -4421.6097   -4886.8007            0    4005.9415    18.219024    22.946788     19.30421    8070.4743    2692.4276    3229.1355    6096.2615    1431.0856    60.378974     1037.735    -3950.112 
 3423000    225.12347   -4883.8239   -4433.5492   -4883.8239            0    2641.3162    18.193391    23.165559    19.246425    8111.5999    3065.2422    1632.5282    3226.1783    722.53227    428.76303    52.817647   -4121.0831 
 3424000    230.91288    -4880.662   -4418.8077    -4880.662            0     3099.275    17.886339    22.951283    19.726855    8098.1583    4170.6631    3913.7025    1213.4595   -1100.2065    920.60937   -378.88151    -4052.773 
 3425000     232.6319   -4885.2172   -4419.9247   -4885.2172            0    4550.4503    18.158607    22.989618     19.30771    8060.1859    5442.0996    2855.4631    5353.7882   -274.89386   -1198.4265   -560.55555   -3885.0213 
 3426000    230.96885     -4872.18   -4410.2138     -4872.18            0    3796.8975    18.100721    22.821016    19.488971    8050.4424    3041.9842    3758.8653    4589.8429     154.9862     20.85078    2046.6247   -3964.4297 
 3427000    239.47625   -4863.3459   -4384.3638   -4863.3459            0    4712.6611    18.171485    22.623762    19.721771    8107.7647    6554.7071    4768.0877    2815.1884   -656.43567    822.91144    572.18472   -3827.1226 
 3428000    237.55655   -4873.6851   -4398.5426   -4873.6851            0    3868.1397     18.34524    22.802373    19.393867     8112.746    2080.9766    5001.4434    4521.9991      158.629    803.56915    501.33483   -3940.8795 
 3429000    228.85006   -4851.1182   -4393.3898   -4851.1182            0    3084.1899    18.111127    22.977669    19.572531    8145.1379    3985.6542    3392.1442    1874.7713   -548.03115    882.21989   -298.27446   -4027.0235 
 3430000    232.31757   -4870.0799   -4405.4161   -4870.0799            0    2213.3461    18.141097    23.287902    19.282288    8146.1513    1649.1936    2122.1835     2868.661   -895.86858    753.73841   -784.11101   -4142.4633 
 3431000    226.24504   -4871.3284   -4418.8104   -4871.3284            0    3833.1759    18.124426    23.247361    19.206291    8092.4758    4444.5329     3855.719    3199.2758    252.24027     1321.185     76.15442   -3966.4172 
 3432000    246.98268   -4897.9129    -4403.917   -4897.9129            0    1819.0207    18.036592    23.024226    19.586052    8133.6675    2243.2229    2233.4821    980.35709    1751.8147    1024.8955    175.49223   -4188.1426 
 3433000    214.55665    -4857.962   -4428.8222    -4857.962            0    3867.4729    18.419915    22.785407    19.272409    8088.7316    1968.5216    3672.4093    5961.4878   -257.47213    18.896824   -872.02988   -3972.5924 
 3434000    228.67052   -4892.7069   -4435.3376   -4892.7069            0    2791.4932     18.17542    22.945501      19.4518    8112.2587    2025.8004    2506.6217    3842.0574    269.09298   -316.28437    938.65085   -4105.0789 
 3435000     239.1835   -4861.8477   -4383.4512   -4861.8477            0    2150.7104    18.053403    22.915074    19.694899    8147.6829     3710.671    2149.6239    591.83627    674.00045    359.23617   -72.756318   -4127.8917 
 3436000    238.59634   -4868.9327   -4391.7106   -4868.9327            0    4016.5841    18.131722    22.834002    19.537663    8088.9791    936.97757    5667.4351    5445.3397   -383.87627   -367.00273    703.15886   -3917.8763 
 3437000    228.98051   -4882.6632   -4424.6739   -4882.6632            0    3415.8787    18.229473    22.842215    19.376694     8068.485    3108.2768    4116.4093    3022.9501    924.60607    477.68898    1552.9973   -4022.7255 
 3438000    244.93301   -4883.9878   -4394.0915   -4883.9878            0     1264.597    18.244003    22.802089    19.712346    8200.3628    3111.0672    510.71658    172.00708   -1030.1994   -98.365778   -666.79033   -4242.8535 
 3439000    224.91999   -4892.8224   -4442.9547   -4892.8224            0    4555.5769    18.087621    22.953504    19.397009     8053.139    5252.0972     4693.561    3721.0727    1563.3831    233.81824    852.31158   -3907.9169 
 3440000    228.90173      -4823.7   -4365.8682      -4823.7            0    3339.6211    18.204957    23.155637    19.280918    8127.8203    3572.3915    3002.8381    3443.6336    404.25273    346.48472    14.572873   -3970.0032 
 3441000    227.46398   -4852.6849   -4397.7288   -4852.6849            0    3010.7829    18.045651    23.067365    19.466546    8103.2535    3715.1552    2876.1306    2441.0629   -693.43663    468.97674    -1161.663   -4041.9216 
 3442000      237.703   -4872.9927   -4397.5574   -4872.9927            0    4599.7402    18.138714    22.971864    19.436215    8098.6836    6009.4672    3732.6232    4057.1304   -648.29396   -566.26933    783.21932   -3854.2775 
 3443000    248.54057   -4903.5679    -4406.456   -4903.5679            0    4364.7987    18.000859    22.802878    19.611002    8049.7554    5283.8784    4236.1114    3574.4064    648.65175   -337.80979    1398.4759   -3894.0399 
 3444000    243.47039   -4891.5541   -4404.5833   -4891.5541            0    3119.3432    18.234856    22.852996    19.436252    8099.4962    3944.8845    3086.9448    2326.2004   -663.04974   -311.71972   -1347.4568   -4036.1176 
 3445000     229.9429   -4870.0771   -4410.1629   -4870.0771            0    4722.6816    18.197734    22.832104    19.470021    8089.6488      3777.71     5464.418    4925.9169   -706.86075     355.2755    1633.0416   -3852.9845 
 3446000    234.83492   -4891.9557   -4422.2568   -4891.9557            0    2757.9297    18.241157    22.993688     19.39752    8135.9305    3986.0146    2708.3423    1579.4322    -758.4455    66.426283   -2111.7065   -4095.0169 
 3447000    220.23479   -4847.6175   -4407.1207   -4847.6175            0    1625.2458    18.166268    22.993081    19.602172    8187.7975    2199.4742    2405.7141    270.54892   -674.86511    57.396184    982.20089   -4213.0491 
 3448000    233.88719   -4878.2924   -4410.4891   -4878.2924            0    2484.4177    18.103161    23.000885    19.482793    8112.4155    2783.1788     2133.166    2536.9083   -557.18283   -410.42528    354.13061   -4116.5545 
 3449000    222.82981   -4830.1447   -4384.4576   -4830.1447            0    4299.8526     18.17176    22.899626    19.439398     8089.249    1853.4439    5865.7006    5180.4134   -605.62394    770.42045    207.26651   -3877.1894 
 3450000    240.29596   -4896.1682   -4415.5465   -4896.1682            0    2588.7611    18.046697     23.07138    19.518551    8126.7869    4250.7796    1825.7155    1689.7882    404.36339    215.67993    191.14485   -4108.7244 
 3451000    229.75573   -4869.3029   -4409.7631   -4869.3029            0    4827.0289    17.966877    23.147808    19.427811    8079.9066      6271.99    4500.7064    3708.3904    907.50503    137.50464   -33.592167   -3840.9598 
 3452000     232.1726   -4868.2544   -4403.8805   -4868.2544            0    3437.5411    18.146912    23.194428    19.274579      8112.81    3176.9176    3408.0429    3727.6629    210.68488    272.46905   -403.36397   -3997.1609 
 3453000    225.38182   -4888.2877   -4437.4963   -4888.2877            0    2528.0044    18.128949    23.167199    19.360603    8131.3944    3646.9467    1305.9773    2631.0893   -1017.4211   -496.17428   -82.483504   -4137.7051 
 3454000    226.92346    -4897.535     -4443.66    -4897.535            0    2832.9537     18.18818    22.974046    19.379025    8097.6437    1985.7308    2295.4037    4217.7266    935.26412   -266.67266   -885.91171      -4109.1 
 3455000     230.5247   -4899.4343   -4438.3564   -4899.4343            0    3409.5131    17.976232    22.936606    19.610865    8085.8294    4131.1107    3831.6206    2265.8078   -624.24408    312.41962   -1740.0615   -4036.2946 
 3456000    235.47222   -4893.3267   -4422.3532   -4893.3267            0    2718.7545     18.11222    23.039774     19.48525    8131.2229    4010.2087    1954.4834    2191.5716    346.75781   -257.76005   -716.85981   -4099.9482 
 3457000    239.73031   -4883.9163    -4404.426   -4883.9163            0    2971.1586    18.290824    22.835785     19.39499    8101.0023     3002.402    2762.3997    3148.6741    221.55976   -209.20456     259.5592   -4053.3991 
 3458000    236.79379   -4865.2879   -4391.6711   -4865.2879            0    2745.4491    18.156327    22.949259    19.581002    8158.8993    1778.4337    3350.4106    3107.5031   -247.83004    927.99045    472.66852   -4064.9924 
 3459000    235.43298   -4880.5262   -4409.6312   -4880.5262            0    2469.1263    18.210645    22.999519    19.370661    8113.1316    2198.5433    2296.1776     2912.658   -762.23982    1300.4488    490.29266     -4117.48 
 3460000    225.18611   -4841.8202   -4391.4202   -4841.8202            0    2924.3862    18.141795    23.116011    19.427168    8147.0927    1607.7478    3797.8606    3367.5503    126.66346    822.26004    953.50727   -4043.9534 
 3461000    235.17614   -4876.1906   -4405.8093   -4876.1906            0    1734.6745    18.038825    23.067049    19.581248    8147.8054    1567.7596    2748.6164    887.64745   -1809.8625   -534.74178   -1523.1228   -4199.6824 
 3462000    241.69522   -4892.9956   -4409.5753   -4892.9956            0    3596.8863    18.238075    22.960781    19.369853    8111.3284    4404.8543    3478.4669    2907.3375    1601.5935    247.96044    1107.2996   -3984.0802 
 3463000    230.21233   -4875.0073   -4414.5542   -4875.0073            0    2946.3763    18.145505    23.019451    19.478746    8136.2635    3431.7524    2730.6922    2676.6844   -89.711997    -180.8793   -3221.6298   -4064.9399 
 3464000    218.18541   -4849.9337    -4413.536   -4849.9337            0    3047.9731    17.945502    23.028951     19.65394    8122.3068    3589.1807    3160.8605     2393.878    1470.1788   -823.87497    8.4343879   -4052.4868 
 3465000    225.47241   -4904.7223   -4453.7496   -4904.7223            0    4406.7331    18.314225    22.701131    19.323798     8033.939    3491.4966    4317.7369    5410.9657    634.69394   -5.9673375    766.47136    -3937.427 
 3466000    244.81576   -4904.4315   -4414.7698   -4904.4315            0    2109.5327    18.291655    22.842298    19.466754     8133.666    2957.0232    1879.8181    1491.7568   -626.44151    306.42926      541.307   -4164.5345 
 3467000    229.22374   -4895.3336   -4436.8578   -4895.3336            0    1306.0618    18.234752    22.765279    19.639099    8152.5675     429.8647    2210.2446    1278.0763   -344.16102   -30.787047    -298.8464   -4281.5712 
 3468000    232.46304   -4860.5412   -4395.5864   -4860.5412            0    2721.2981    18.284794    22.903762    19.424604    8134.8409     1338.757    3523.7152    3301.4222   -1070.9473   -18.225215   -982.48561   -4072.7362 
 3469000    230.33079   -4876.8812   -4416.1912   -4876.8812            0    3012.9487    18.094581     23.12395    19.362668    8101.6924    3069.9027    2708.2384     3260.705   -1277.9973    336.67152   -381.28029   -4060.1966 
 3470000     233.7953   -4905.5208   -4437.9013   -4905.5208            0    4259.9627    17.965997    23.159878    19.380597    8064.0788     5631.401    2620.0203    4528.4668     -558.493   -711.26428    -750.9791   -3936.9028 
 3471000    230.08046    -4880.993   -4420.8037    -4880.993            0    3376.6603    18.047758    23.192696    19.377911    8111.1315    3883.1861    2562.5941    3684.2008   -451.38887   -739.34649    1244.9902     -4021.37 
 3472000    226.71309   -4901.2217   -4447.7675   -4901.2217            0    2725.4067    18.247426    22.987973     19.31213    8100.8852     1564.969    3342.0438    3269.2072     1754.151    356.77559    682.51879   -4125.7795 
 3473000     230.3207   -4904.7713   -4444.1015   -4904.7713            0    2382.2154    18.230855    22.850232    19.534262    8137.5686    2758.7176    1989.7016    2398.2271   -498.53104    356.71954    99.349744   -4161.3847 
 3474000    230.30717   -4874.7084   -4414.0656   -4874.7084            0    3440.8334    18.260247    22.866324    19.457159     8124.234    1740.3702    4282.6027    4299.5272   -410.22386    839.50987    757.25272   -4006.3832 
 3475000    230.43339   -4890.0007   -4429.1054   -4890.0007            0    1517.7512    18.257358    22.861397    19.484953    8132.7992    1382.4698    2263.6378    907.14594   -907.94417   -583.85321   -560.64603   -4249.0872 
 3476000    230.14123   -4869.5445   -4409.2336   -4869.5445            0    4557.4171     18.10346    22.761759    19.594134    8074.0881    5622.2261    4500.2696    3549.7556    -336.7813    168.15938    284.75256   -3872.5873 
 3477000    241.14295   -4832.0759   -4349.7602   -4832.0759            0    3266.2638    18.179497    22.901561    19.488804    8113.9465    4851.9776     3248.734    1698.0797   -616.13664   -285.76655     -88.6954   -3963.2515 
 3478000    242.78246   -4867.9032   -4382.3083   -4867.9032            0    3953.1304    18.105274    23.052732    19.411417    8101.8604    5493.3213    2603.0676    3763.0023    2334.3189    -495.3729    364.04009    -3915.217 
 3479000     242.8442   -4875.0622   -4389.3438   -4875.0622            0    2479.8006    17.975111    23.311731     19.45246    8151.1828    3416.2065    1658.3984    2364.7968   -1557.4414    268.60117   -1794.5688   -4094.5534 
 3480000    241.29544   -4851.0144   -4368.3938   -4851.0144            0    3773.8499    18.049013    23.180385    19.369776    8103.9866    3522.6454     3079.136    4719.7681    1712.3169    611.09042    1230.6555   -3922.3687 
 3481000    243.35257   -4874.6767   -4387.9415   -4874.6767            0    2461.5676    18.140532    23.056546    19.494657    8153.7964    2838.3728    1967.2483    2579.0818   -519.21666    1503.7895   -468.54171   -4095.2248 
 3482000     232.0887   -4870.0328   -4405.8267   -4870.0328            0    3309.2268    18.136953     22.92792    19.487549    8103.7529    1788.2174    3432.1659     4707.297    683.61193    342.80751    803.30139    -4014.726 
 3483000    239.14062   -4903.4765   -4425.1657   -4903.4765            0    1495.5953    18.191306    22.887041    19.587355    8155.1007    1177.8305    2584.5048    724.45078   -1301.3227   -73.976272   -1089.7617   -4247.2889 
 3484000    245.15815   -4881.8436    -4391.497   -4881.8436            0    2860.3228    18.121821    22.960213    19.510649    8118.0077      3228.99    3451.7672    1900.2112     1042.001    947.45834    -312.3711   -4052.8554 
 3485000    232.71401   -4894.5731   -4429.1164   -4894.5731            0     3512.727    18.178171    22.894439    19.426826    8085.0376    1901.2737     4998.484    3638.4232    1090.2727    641.16752   -1184.1541   -4014.9238 
 3486000    234.95166   -4888.9976   -4419.0652   -4888.9976            0    2197.7494    18.147267     22.91559    19.569176    8137.9464    3203.9869    1745.9399    1643.3215    1484.4933   -1110.2548    1785.7527   -4158.2284 
 3487000    224.65466    -4864.358   -4415.0209    -4864.358            0    1822.8917    18.184874    23.103048    19.374022    8139.5304    1950.2963     1819.444    1698.9347   -545.11555   -1274.9754    407.93801   -4198.6314 
 3488000    233.40627   -4859.2512   -4392.4098   -4859.2512            0    2753.7089    18.030199    23.155139    19.452229    8121.1454    5174.5152    2577.9191     508.6923    475.38891     188.9248    2576.9352   -4066.2644 
 3489000    227.73865   -4865.4137   -4409.9082   -4865.4137            0    2219.6309    18.150564    22.965655    19.529042    8140.4781    1559.6621    2440.9967    2658.2339   -129.54159    1291.1681   -261.10941   -4146.3925 
 3490000    240.26907   -4866.9652   -4386.3973   -4866.9652            0    5586.0387    18.082087    22.974059    19.280511    8009.4896    6408.9139    4874.1284    5475.0738   -950.16041    727.95242   -372.49159   -3733.8911 
 3491000    217.19601   -4868.4718   -4434.0529   -4868.4718            0     2122.423    18.139002    23.112531    19.487093     8169.735    2984.2328    1554.1974    1828.8388    925.87512    647.16416    225.72263   -4181.1722 
 3492000    237.01088   -4884.5581   -4410.5071   -4884.5581            0    3930.9334    18.117848    22.974664    19.456971    8098.9926    5630.0149    3165.6366    2997.1486     1751.217    99.449283    -485.8356   -3946.2029 
 3493000    240.18883   -4854.9687   -4374.5614   -4854.9687            0    3375.6278    18.220378    22.993809    19.456164    8151.2744    3312.9961    3425.8257    3388.0617   -1632.4185   -297.24873    205.03248   -3973.2736 
 3494000    245.81352    -4882.947   -4391.2896    -4882.947            0    3325.7272    18.115814    22.953082    19.507117    8111.3276    4429.5584    2134.0614    3413.5619    -949.1157   -1366.3072   -86.525455   -3997.8713 
 3495000     249.5586   -4875.5516   -4376.4035   -4875.5516            0    3261.4467    18.264622    22.840232    19.510848    8139.3052      3218.07    3630.0667    2936.2033    291.76092   -700.06365    2151.8186   -3989.2587 
 3496000    235.84155   -4890.1013   -4418.3891   -4890.1013            0    2539.7005    18.303846    22.797301    19.472377    8125.3999    1419.5965    2840.4198    3359.0853   -1523.7822    568.25653   -1154.3227    -4117.433 
 3497000    233.88645   -4875.3645   -4407.5627   -4875.3645            0    2864.9706    18.164093    22.868055    19.531752    8113.0498    3402.1782    3597.4744    1595.2593    578.45308     437.9904    -143.7807   -4068.5779 
 3498000    243.61286   -4874.8586   -4387.6028   -4874.8586            0    1297.4577    18.186644    23.036464    19.526715    8180.8342    1851.2623    318.09317    1723.0175   -312.07121   -736.38067    678.99324   -4232.8044 
 3499000    237.40393   -4896.2233   -4421.3861   -4896.2233            0    2951.2192    18.087563    23.005019    19.464778    8099.3863    3190.9005    2767.7636    2894.9935    275.59122   -338.02562    399.15769   -4072.7845 
 3500000    240.88477   -4858.5853    -4376.786   -4858.5853            0    2126.1616    18.158915     23.05837    19.487112    8159.5457    2887.7663    1448.1255    2042.5931   -949.37188    -655.4352    748.13851   -4123.7757 
Loop time of 520.353 on 64 procs for 250000 steps with 1008 atoms

Performance: 83.021 ns/day, 0.289 hours/ns, 480.443 timesteps/s
99.2% CPU use with 64 MPI tasks x 1 OpenMP threads

MPI task timing breakdown:
Section |  min time  |  avg time  |  max time  |%varavg| %total
---------------------------------------------------------------
Pair    | 27.379     | 31.615     | 35.38      |  33.2 |  6.08
Bond    | 0.27206    | 0.28089    | 0.29534    |   1.0 |  0.05
Kspace  | 240.32     | 251.16     | 265.97     |  46.4 | 48.27
Neigh   | 3.4967     | 4.1373     | 5.1104     |  26.0 |  0.80
Comm    | 94.025     | 108.11     | 119.79     |  74.8 | 20.78
Output  | 1.6411     | 1.6446     | 1.6558     |   0.3 |  0.32
Modify  | 109.75     | 114.32     | 119.46     |  25.7 | 21.97
Other   |            | 9.084      |            |       |  1.75

Nlocal:        15.7500 ave          20 max          11 min
Histogram: 3 2 1 8 15 14 9 6 4 2
Nghost:        2461.78 ave        2492 max        2434 min
Histogram: 2 5 8 8 8 12 13 4 3 1
Neighs:        5129.77 ave        6506 max        3511 min
Histogram: 3 2 1 8 15 14 9 6 2 4

Total # of neighbors = 328305
Ave neighs/atom = 325.69940
Ave special neighs/atom = 2.0000000
Neighbor list builds = 7853
Dangerous builds = 0

unfix		3
unfix		2
unfix		1

write_data	data.final.${pid}
write_data	data.final.0
System init for write_data ...
PPPM initialization ...
  extracting TIP4P info from pair style
  using 12-bit tables for long-range coulomb (../kspace.cpp:340)
  G vector (1/distance) = 0.38234207
  grid = 24 30 36
  stencil order = 5
  estimated absolute RMS force accuracy = 0.0020387767
  estimated relative force accuracy = 6.1397156e-06
  using double precision FFTW3
  3d grid and FFT values/proc = 4320 480
Last active /omp style is kspace_style pppm/tip4p/omp
WARNING: Not all mixed pair coeffs generated from mixing. Use write_data with 'pair ij' option to store all pair coeffs. (../write_data.cpp:312)

write_restart   restart.lmp.${pid}
write_restart   restart.lmp.0
System init for write_restart ...
PPPM initialization ...
  extracting TIP4P info from pair style
  using 12-bit tables for long-range coulomb (../kspace.cpp:340)
  G vector (1/distance) = 0.38234207
  grid = 24 30 36
  stencil order = 5
  estimated absolute RMS force accuracy = 0.0020387767
  estimated relative force accuracy = 6.1397156e-06
  using double precision FFTW3
  3d grid and FFT values/proc = 4320 480
Last active /omp style is kspace_style pppm/tip4p/omp
Total wall time: 0:08:42
