LAMMPS (30 Jul 2021)
Processor partition = 1
  using 2 OpenMP thread(s) per MPI task
using multi-threaded neighbor list subroutines
variable        pid world 0 1
variable        phase world IceIII Liquid

shell cd ${phase}
shell cd Liquid
include Restart.lmp
echo both
log log.lammps
#include		in.partitions
include		in.temp
variable        temperature equal 258.76
variable	tempDamp equal 100.0
include		in.pressure
variable        pressure equal 9125.0
variable        pressureDamp equal 1000.0 # This is 1 ps
include		in.seed
variable        seed equal 745823

units		real
atom_style	full
read_restart	restart.lmp.${pid}
read_restart	restart.lmp.1
Reading restart file ...
  restart file = 30 Jul 2021, LAMMPS = 30 Jul 2021
  restoring atom style full from restart
  orthogonal box = (0.63144369 1.8352885 0.77035983) to (17.576129 21.793889 21.442836)
  2 by 4 by 4 MPI processor grid
  restoring pair style lj/cut/tip4p/long/omp from restart
  restoring bond style harmonic/omp from restart
  restoring angle style harmonic/omp from restart
  864 atoms
  576 bonds
  288 angles
Finding 1-2 1-3 1-4 neighbors ...
  special bond factors lj:    0        0        0       
  special bond factors coul:  0        0        0       
     2 = max # of 1-2 neighbors
     1 = max # of 1-3 neighbors
     1 = max # of 1-4 neighbors
     2 = max # of special neighbors
  special bonds CPU = 0.002 seconds
  read_restart CPU = 0.008 seconds
include 	in.setup
variable	out_freq equal 1000
variable	out_freq2 equal 10000
variable	out_freq3 equal 1000

timestep	2.0

neigh_modify    delay 7 every 1

include		in.tip4p
# This is TIP4P/Ice

# create groups ###
group ox type 2
288 atoms in group ox
group hy type 1
576 atoms in group hy

# set charges - beside manually ###
set group ox charge -1.1794
Setting atom values ...
  288 settings made for charge
set group hy charge 0.5897
Setting atom values ...
  576 settings made for charge

# ### TIP3P Potential Parameters ###
pair_style lj/cut/tip4p/long/omp 2 1 1 1 0.1577 8.5
pair_coeff 1 1*2 0.000 0.000
pair_coeff 2 2 0.21084 3.1668
bond_style  harmonic
bond_coeff  1 450 0.9572
angle_style harmonic
angle_coeff 1 55 104.52
kspace_style pppm/tip4p/omp 1.0e-5
pair_modify tail yes

thermo          ${out_freq}
thermo          1000
thermo_style    custom step temp pe etotal epair emol press lx ly lz vol pxx pyy pzz pxy pxz pyz enthalpy

restart 	${out_freq3} restart.lmp.${pid} restart2.lmp.${pid}
restart 	1000 restart.lmp.${pid} restart2.lmp.${pid}
restart 	1000 restart.lmp.1 restart2.lmp.${pid}
restart 	1000 restart.lmp.1 restart2.lmp.1


include         in.dump
dump            myDump all atom ${out_freq2} dump.water.${pid}
dump            myDump all atom 10000 dump.water.${pid}
dump            myDump all atom 10000 dump.water.1
dump            myDump2 all dcd ${out_freq2} dump.dcd
dump            myDump2 all dcd 10000 dump.dcd
dump_modify     myDump append yes
dump_modify     myDump2 append yes


variable natoms 	equal  "count(all)"                        # NUMBER ATOMS
variable H      	equal  "enthalpy/v_natoms"                 # ENTHALPY-per-atom
variable Vol      	equal  "vol/v_natoms"                 # volume-per-atom
fix AVG all 		ave/time ${out_freq} 1 ${out_freq} v_Vol v_H file vol_enthalpy.dat
fix AVG all 		ave/time 1000 1 ${out_freq} v_Vol v_H file vol_enthalpy.dat
fix AVG all 		ave/time 1000 1 1000 v_Vol v_H file vol_enthalpy.dat


timer           timeout 23:50:00 every 1000
New timer settings: style=normal  mode=nosync  timeout=23:50:00

fix 		1 all shake 1e-6 200 0 b 1 a 1
Finding SHAKE clusters ...
       0 = # of size 2 clusters
       0 = # of size 3 clusters
       0 = # of size 4 clusters
     288 = # of frozen angles
  find clusters CPU = 0.000 seconds
fix             2 all nph iso ${pressure} ${pressure} ${pressureDamp}
fix             2 all nph iso 9125 ${pressure} ${pressureDamp}
fix             2 all nph iso 9125 9125 ${pressureDamp}
fix             2 all nph iso 9125 9125 1000
fix             3 all temp/csvr ${temperature} ${temperature} ${tempDamp} ${seed}
fix             3 all temp/csvr 258.76 ${temperature} ${tempDamp} ${seed}
fix             3 all temp/csvr 258.76 258.76 ${tempDamp} ${seed}
fix             3 all temp/csvr 258.76 258.76 100 ${seed}
fix             3 all temp/csvr 258.76 258.76 100 745823

run             250000
PPPM initialization ...
  extracting TIP4P info from pair style
  using 12-bit tables for long-range coulomb (../kspace.cpp:340)
  G vector (1/distance) = 0.37440889
  grid = 24 24 24
  stencil order = 5
  estimated absolute RMS force accuracy = 0.0031442383
  estimated relative force accuracy = 9.4687803e-06
  using double precision FFTW3
  3d grid and FFT values/proc = 3549 432
Last active /omp style is kspace_style pppm/tip4p/omp
Neighbor list info ...
  update every 1 steps, delay 7 steps, check yes
  max neighbors/atom: 2000, page size: 100000
  master list distance cutoff = 10.8154
  ghost atom cutoff = 10.8154
  binsize = 5.4077, bins = 4 4 4
  1 neighbor lists, perpetual/occasional/extra = 1 0 0
  (1) pair lj/cut/tip4p/long/omp, perpetual
      attributes: half, newton on, omp
      pair build: half/bin/newton/omp
      stencil: half/bin/3d
      bin: standard
Setting up Verlet run ...
  Unit style    : real
  Current step  : 28750000
  Time step     : 2
  Walltime left : 23:49:59.93
Per MPI rank memory allocation (min/avg/max) = 10.20 | 10.20 | 10.20 Mbytes
Step Temp PotEng TotEng E_pair E_mol Press Lx Ly Lz Volume Pxx Pyy Pzz Pxy Pxz Pyz Enthalpy 
28750000    267.80372   -3878.8851   -3419.8787   -3878.8851            0    9177.5905    16.944685    19.958601    20.672476    6991.2702    9700.9523    9206.2494    8625.5696    1384.5698    946.74591   -397.21991   -2484.1269 
28751000     262.8757   -3899.6703   -3449.1104   -3899.6703            0    8994.3833    16.916561    19.925474    20.638164    6956.5161    8396.9456    9486.3627    9099.8415   -890.04552   -1298.9794   -191.89758   -2536.5973 
28752000    257.54316   -3900.6896   -3459.2695   -3900.6896            0    8265.7721    16.938989    19.951891    20.665527    6984.2219    10971.742    7392.5569    6433.0176    233.98817     215.6492    139.94536   -2617.3368 
28753000    255.03844   -3868.5031   -3431.3759   -3868.5031            0    8581.9547    16.903486    19.910073    20.622213    6940.3984    8353.4958    10042.938      7349.43    2047.4186   -329.02086   -164.20891   -2562.7225 
28754000    245.50918   -3915.4219   -3494.6275   -3915.4219            0    9699.8984    16.946367    19.960582    20.674528     6993.352    9934.1076    8803.3967    10362.191   -1056.0859    1010.1211    2111.3847   -2505.3265 
28755000    254.14691   -3894.0877   -3458.4886   -3894.0877            0    8982.0139    16.971265    19.989909    20.704904    7024.2225    8115.0701     9195.237    9635.7346    1188.7462    671.47712     424.9707   -2538.3614 
28756000    268.11179   -3924.4706   -3464.9362   -3924.4706            0    7961.3641    16.983964    20.004867    20.720397    7040.0022    8034.4878     7326.274    8523.3304    1493.1982    530.08672    1841.5941   -2647.5333 
28757000    263.87654   -3873.5768   -3421.3014   -3873.5768            0    8982.8676     16.90457    19.911351    20.623536    6941.7342    9096.3218    6318.6314     11533.65    963.04239    -1026.207   -167.98148   -2511.8932 
28758000    263.93165    -3865.443   -3413.0732    -3865.443            0    8215.5922    16.932752    19.944545    20.657917    6976.5096    8578.9266    8169.1135    7898.7366      422.152   -1003.6723   -684.39129   -2577.1758 
28759000    265.75455   -3861.6923    -3406.198   -3861.6923            0    9878.4173    16.906543    19.913675    20.625943    6944.1651    11309.142    8364.0874    9962.0228    455.94691    366.64512   -331.37233   -2405.7759 
28760000    248.77351   -3854.9742   -3428.5849   -3854.9742            0    8725.3289     16.93601    19.948383    20.661892    6980.5378    8251.5775    10167.162    7757.2475   -1956.6289     833.4693    638.31481   -2540.3117 
28761000    258.93747   -3868.2474   -3424.4375   -3868.2474            0    8071.4068    16.876812    19.878656    20.589672    6907.5947    6990.4802    7921.7916    9301.9487    652.12158   -970.93373    275.25554   -2611.3225 
28762000    275.00068    -3859.524   -3388.1822    -3859.524            0    9393.2262    16.892427    19.897048    20.608722     6926.786    11148.072    7792.5821    9239.0247    404.67137   -1055.9919   -790.56494   -2439.2779 
28763000    258.50742    -3853.709   -3410.6361    -3853.709            0     8235.978    16.920623    19.930259    20.643121    6961.5295    8676.3594    7565.7774     8465.797    864.97928    594.92233    1975.3926   -2574.4639 
28764000    238.78027   -3871.7991   -3462.5378   -3871.7991            0    8188.3766    16.954513    19.970177    20.684466     7003.442    10639.296    7139.3217     6786.512    518.95539   -873.59027   -528.91109   -2626.1933 
28765000    256.63522   -3883.9529   -3444.0889   -3883.9529            0    9242.5256    16.940378    19.953528    20.667222     6985.941    10486.066     6168.823    11072.688    1418.1755   -296.95998    1288.8304   -2502.4347 
28766000    262.89951   -3901.2519   -3450.6511   -3901.2519            0    9982.8377    16.870418    19.871124     20.58187    6899.7461    12717.696    9552.7384    7678.0785    803.25398     622.7702    1234.5093   -2446.1209 
28767000    259.33145   -3903.3854   -3458.9002   -3903.3854            0    11095.006    16.890339    19.894589    20.606175    6924.2177    12705.918    8899.2162    11679.884   -1752.6989    1179.5061    -612.9933   -2338.4975 
28768000    250.95219   -3934.5571   -3504.4336   -3934.5571            0    7246.9288    16.960912    19.977714    20.692273    7011.3748    6951.9162     6602.515    8186.3551   -174.44734   -801.22941    228.94472   -2763.4083 
28769000    252.00798   -3889.8937   -3457.9607   -3889.8937            0     9418.158    16.918573    19.927844    20.640619    6958.9985     8806.927    9434.6049    10012.942    1543.6152    1150.0324    493.68346   -2502.1132 
28770000     248.8603    -3895.912    -3469.374    -3895.912            0    8240.9527    16.923203    19.933297    20.646268    6964.7134    8175.6651    7416.7418    9130.4513   -222.29474    9.0749934   -1089.8234   -2632.3141 
28771000    249.73064   -3875.5031   -3447.4733   -3875.5031            0    9630.2402    16.920261    19.929833    20.642679    6961.0826    10553.832    9839.2442    8497.6449   -1469.7716    -44.35997    123.64971   -2469.8089 
28772000    267.13871   -3872.0401   -3414.1735   -3872.0401            0    9827.7735    16.877077    19.878967    20.589994    6907.9195    10256.914    11543.168    7683.2388    2385.3776    178.15146   -1000.8701   -2424.0753 
28773000    263.94939    -3913.057   -3460.6568    -3913.057            0    8702.4212    16.904066    19.910757    20.622921    6941.1136    8787.5599     9025.912    8293.7917   -1828.3258   -1010.4073   -1861.8853   -2579.7192 
28774000    271.29368   -3842.7969   -3377.8088   -3842.7969            0    9496.9691    16.935311     19.94756     20.66104     6979.674    9994.6528    10043.775    8452.4799   -1079.4222    993.11991    211.91142   -2411.0992 
28775000    251.75146   -3869.0156   -3437.5222   -3869.0156            0    7457.8169    16.966553    19.984358    20.699154    7018.3724    6474.7053    9496.1773     6402.568   -268.77037   -1338.0559   -450.13186   -2674.1717 
28776000    273.48269   -3868.0093   -3399.2693   -3868.0093            0    7373.9848    16.982713    20.003393    20.718871    7038.4468    7557.2322    7276.5378    7288.1845    2470.4537    1375.2835   -1918.3165   -2642.3406 
28777000    258.75744   -3856.3547   -3412.8533   -3856.3547            0    9179.4712    16.907425    19.914713    20.627019    6945.2517    9606.4454    9306.8586    8625.1095    335.65966    87.775496    1519.0233   -2483.0705 
28778000    257.93522   -3891.4163   -3449.3242   -3891.4163            0    7532.2541    17.010269     20.03585    20.752488    7072.7634    7714.0134      7870.54     7012.209   -1309.8892   -596.06499    2591.2081   -2672.3797 
28779000    259.19018   -3926.7653   -3482.5222   -3926.7653            0    10281.315    16.957798    19.974046    20.688474     7007.514    10130.835     11378.94    9334.1693   -798.50704    829.22232    1120.2433   -2431.7985 
28780000    270.76261   -3858.6388    -3394.561   -3858.6388            0    9222.8137     16.94933    19.964072    20.678143    6997.0213    8838.9123    9154.6349    9674.8939   -54.599722    556.56096    244.06981   -2453.4247 
28781000    258.82252   -3841.0913   -3397.4783   -3841.0913            0    7500.7417    17.016647    20.043363     20.76027    7080.7225    7665.0179    8373.3794    6463.8277   -730.40619   -2549.2165    639.46796   -2622.9137 
28782000    265.41343   -3856.2789   -3401.3694   -3856.2789            0    8105.9203    16.943753    19.957503    20.671339    6990.1169    8869.9745     8934.225    6513.5613   -384.97114   -132.66273   -500.87551    -2575.022 
28783000    255.25799   -3838.8261   -3401.3226   -3838.8261            0    8235.1427    16.966557    19.984363     20.69916    7018.3776    9246.3584    10269.509    5189.5607   -38.393694    475.50519   -2034.1196   -2558.4077 
28784000    253.83015   -3870.3931   -3435.3369   -3870.3931            0    9516.3344     16.90066    19.906745    20.618765     6936.918    8189.6604    11137.052    9222.2911   -1566.5037     29.75949   -529.43557   -2472.5899 
28785000    242.77164   -3885.4845   -3469.3823   -3885.4845            0    9806.8372     16.92281    19.932835    20.645789    6964.2292    8923.4908    12042.022    8454.9985    493.73454   -1045.7413    192.36186   -2473.3397 
28786000    259.59994   -3895.3455   -3450.4001   -3895.3455            0    8861.1124    16.888064    19.891909    20.603399    6921.4197    11517.626    7360.6031    7705.1085   -46.849322   -750.50799    451.38903   -2555.9434 
28787000    273.02554   -3875.5099   -3407.5535   -3875.5099            0    8283.5697    16.928615    19.939673    20.652871    6971.3983    8374.7414    9209.0433    7266.9245    1443.1886   -1890.5021    308.98319   -2565.3572 
28788000    248.27466   -3860.6033    -3435.069   -3860.6033            0    10073.941    16.890666    19.894973    20.606573    6924.6193    8747.1734    10036.004    11438.646    1331.3413   -1178.8282    -597.6645   -2417.7172 
28789000    263.42743    -3899.647   -3448.1414    -3899.647            0    10306.858    16.907004    19.914217    20.626505    6944.7324    10092.577    10723.683    10104.315    1638.2863   -11.078883   -1460.7414   -2404.2442 
28790000    255.84688    -3881.375   -3442.8622    -3881.375            0    7849.7416    16.954959    19.970702    20.685011     7003.995    8162.2741    7651.5564    7735.3943   -849.51018   -1254.4116    1848.4856   -2641.0418 
28791000    244.03981   -3859.8542   -3441.5783   -3859.8542            0    9436.9707    16.887329    19.891043    20.602502    6920.5163    10981.382    9495.4221    7834.1078    950.53968   -18.125457    277.42486   -2489.1178 
28792000    252.79215   -3879.3654   -3446.0883   -3879.3654            0    9216.0373     16.91549    19.924213    20.636858    6955.1951    10012.358    7458.5652    10177.188   -287.36844    1246.1639   -1306.7898   -2511.2652 
28793000    253.69616   -3850.3246   -3415.4981   -3850.3246            0    9209.6781    16.922831    19.932859    20.645814    6964.2542    10106.043    8963.9565    8559.0347    869.42573    1009.6269    -889.9306   -2480.1033 
28794000    268.27651   -3878.6612   -3418.8445   -3878.6612            0    11136.114    16.858495     19.85708    20.567325    6885.1276      10580.4    10645.335    12182.606   0.59416131    301.42582   -841.24166   -2300.6392 
28795000    247.63835   -3901.4414   -3476.9977   -3901.4414            0    8592.9656    16.871315     19.87218    20.582965    6900.8466    11304.256    7454.7443    7019.8962    -1277.358    1048.2642    1080.6926   -2612.1865 
28796000    255.00326   -3855.5869   -3418.5201   -3855.5869            0    9052.0263    16.927153     19.93795    20.651087    6969.5913    7780.7195     9332.973    10042.386   -389.79879    -320.7594    1827.9749   -2498.4328 
28797000    255.34805   -3885.5108    -3447.853   -3885.5108            0    9123.6015    16.916342    19.925216    20.637897    6956.2461     8451.302    9565.7996    9353.7029   -720.52736   -1606.5393    548.63834   -2522.2662 
28798000    263.92054   -3861.6799   -3409.3291   -3861.6799            0    9135.4713    16.909064    19.916644    20.629018    6947.2717    9230.2827    7853.8641    10322.267    402.53289   -1709.3258   -59.647165   -2483.7338 
28799000    275.32807   -3874.5829     -3402.68   -3874.5829            0    8015.4049    16.909485     19.91714    20.629532    6947.7911    9896.4829    4847.1288    9302.6029   -341.90991   -1016.7075    896.08046   -2590.5078 
28800000    251.06131   -3877.8125    -3447.502   -3877.8125            0    8917.8522    16.893127    19.897872    20.609575    6927.6465    8108.4625     8482.789    10162.305    122.88912    1280.1947   -3284.8696   -2546.5081 
28801000      253.961   -3848.5952   -3413.3147   -3848.5952            0    10144.722    16.904541    19.911317    20.623501    6941.6988    9246.4964    10871.344    10316.324   -1088.2293   -378.37981     -650.217   -2386.2879 
28802000    262.91921   -3891.3922   -3440.7577   -3891.3922            0    9931.9202    16.880587    19.883101    20.594276    6912.2303    10476.281    10838.434    8481.0458    1041.5393    171.86162    469.44658   -2439.5428 
28803000    250.96305   -3883.0104   -3452.8683   -3883.0104            0    11114.611    16.905317     19.91223    20.624447    6942.6543    10276.621    11917.727    11149.485   -863.56515   -546.84495   -288.81887   -2327.4973 
28804000    266.93945   -3903.5172   -3445.9921   -3903.5172            0    7995.2816    16.960796    19.977577    20.692131    7011.2305    9091.6292    9228.1412    5666.0744    129.94855    1300.0403     1581.994   -2628.4617 
28805000    250.96577   -3884.7453   -3454.5985   -3884.7453            0    8227.7317    16.965503    19.983122    20.697874    7017.0702    7552.4266    7664.2948    9466.4737    1468.6041   -1386.0036    968.77733    -2612.599 
28806000     266.5443   -3861.3371   -3404.4893   -3861.3371            0    9211.1926     16.92527    19.935732    20.648789    6967.2658    10157.575    9091.8678     8384.135    460.50028    245.20436   -2099.5185   -2468.5361 
28807000    261.06774   -3876.6271   -3429.1659   -3876.6271            0    10264.955    16.918988    19.928333    20.641126    6959.5116    13664.542    7816.5622    9313.7595    468.99289    1380.2099   -550.73814   -2387.3003 
28808000    255.68278   -3885.9897   -3447.7582   -3885.9897            0    9179.4229    16.955879    19.971785    20.686132    7005.1345    11014.007    6550.5326    9973.7287   -558.51073    -325.9407    645.63208   -2509.9636 
28809000     257.0408   -3862.9854   -3422.4262   -3862.9854            0    9154.8687    16.909629    19.917309    20.629707    6947.9679    10126.919      9158.65     8179.037   -1854.4411     911.1665    569.71122   -2494.7727 
28810000    254.94973   -3903.6541    -3466.679   -3903.6541            0    7162.7008     16.98475    20.005793    20.721356    7040.9798    7038.3446    6468.1589    7981.5989    912.53596   -936.91082   -909.57624   -2731.1737 
28811000    259.46791   -3873.8829   -3429.1638   -3873.8829            0    10131.275    16.925956    19.936541    20.649627    6968.1139    11023.574     10912.04    8458.2111   -950.31839   -161.83552   -908.70555   -2399.5953 
28812000    273.65056   -3892.3253   -3423.2976   -3892.3253            0    8166.3508    16.908892    19.916442    20.628809    6947.0603    7662.7572    6515.9663    10320.329    1073.7777   -1814.7446    2204.3158   -2595.9176 
28813000    262.16716   -3851.5937   -3402.2481   -3851.5937            0     9782.755       16.901    19.907146    20.619181    6937.3375    9230.2496    9043.5994    11074.416   -1191.1172   -2091.3141    -220.7455   -2412.4882 
28814000    265.01547   -3895.9812   -3441.7537   -3895.9812            0    8524.7495    16.953633     19.96914    20.683393     7002.352     10013.17    6845.9748    8715.1038   -286.41899   -611.55212    2154.8675   -2571.1882 
28815000    251.49126   -3886.3682   -3455.3208   -3886.3682            0    8733.2921    16.912825    19.921074    20.633607    6951.9091     11102.28    7943.6131    7153.9835   -553.72703   -76.713754    1330.7978   -2569.8832 
28816000    267.38448   -3866.6027   -3408.3149   -3866.6027            0    8140.3622    17.010212    20.035783    20.752419    7072.6926    7697.6756    9199.7581     7523.653    1001.5763    16.858431    1403.5759   -2568.6531 
28817000    245.46233   -3883.7996   -3463.0856   -3883.7996            0    9134.1193    16.895475    19.900638     20.61244    6930.5355    8942.2346     9929.911    8530.2124    385.67059    169.54551    1177.7327   -2539.8567 
28818000    260.12542   -3879.4513   -3433.6053   -3879.4513            0    10482.202    16.887652    19.891424    20.602896    6920.9137    11226.586    12024.809    8195.2108    1513.8155    590.06226    1640.0276   -2375.5902 
28819000    260.20601   -3900.9141   -3454.9299   -3900.9141            0     8278.841    16.893792    19.898655    20.610387    6928.4648    10208.086    8578.9176    6049.5193    671.12263    702.37293   -1172.4329   -2618.3982 
28820000    259.91704   -3884.4301   -3438.9412   -3884.4301            0    8021.6222    16.919575    19.929024    20.641842    6960.2351    8902.2919    8152.1998    7010.3749   -826.56647    175.13754   -2945.0871   -2624.6833 
28821000    261.38163   -3894.9565   -3446.9573   -3894.9565            0    7695.8252    16.943397    19.957084    20.670905    6989.6763    9322.4812    7507.3808    6257.6136   -129.27164   -1135.4381   -436.90203    -2662.466 
28822000    271.69378   -3849.0652   -3383.3913   -3849.0652            0    6831.7769    16.980564    20.000861    20.716248    7035.7747    7640.1649    7867.5796    4987.5862   -487.63548    24.981905   -929.86107   -2682.3857 
28823000    243.78912   -3892.4647   -3474.6185   -3892.4647            0     10354.17    16.892277    19.896872    20.608539    6926.6016    10118.001    11568.609    9375.9008     1134.052   -729.55474    695.23413   -2428.6673 
28824000    263.30965   -3901.3392   -3450.0354   -3901.3392            0    10202.842    16.936291    19.948713    20.662235     6980.885    11282.195    11506.341    7819.9911    430.99755    1931.4744   -993.21313   -2411.2938 
28825000    266.23241   -3899.1205   -3442.8072   -3899.1205            0     8461.093    16.917394    19.926455    20.639181    6957.5441    8777.0239    8435.9589    8170.2961    450.15745    163.23593    211.96088   -2584.2716 
28826000    258.54729   -3884.8861   -3441.7449   -3884.8861            0    7526.3849    16.936982    19.949528    20.663079    6981.7404    6974.9656    6883.5849    8720.6043    68.869372      288.453   -113.81847   -2675.3969 
28827000    246.76665   -3874.3975   -3451.4479   -3874.3975            0    8833.6136    16.853437    19.851123    20.561154    6878.9322    10382.239    8052.2213    8066.3801   -426.90333     512.2316    428.21473   -2565.2406 
28828000    262.80829   -3840.6596   -3390.2152   -3840.6596            0    9373.8355    16.851547    19.848897    20.558848    6876.6185    9503.6693    8303.4676     10314.37     302.1655    1.4776605    327.47203    -2450.128 
28829000    265.83352   -3880.9494   -3425.3198   -3880.9494            0    8639.6008    16.829138    19.822502    20.531509    6849.2215     9668.921    8968.6328    7281.2486    48.799649   -592.89936   -731.77616   -2562.3198 
28830000     270.5182   -3829.5418   -3365.8828   -3829.5418            0    11850.855    16.827593    19.820682    20.529624    6847.3352    11061.691    13492.935     10997.94    783.12238    985.63013    835.29105   -2182.4403 
28831000    257.80261   -3854.5466   -3412.6817   -3854.5466            0    10792.504    16.881145     19.88376    20.594958    6912.9167    10088.771    12399.031    9889.7114   -649.50573   -737.67733    929.56538   -2324.6052 
28832000    250.81938    -3894.759   -3464.8631    -3894.759            0    7332.1167    16.964903    19.982414    20.697142    7016.3252    6667.0616    6032.1759    9297.1125     683.3615    774.36336    1026.7824   -2714.5977 
28833000    252.32777   -3921.8816   -3489.4004   -3921.8816            0    9244.7604    16.854346    19.852194    20.562263    6880.0457    8582.9262    8626.6933    10524.662   -635.71121    280.43523   -56.641694   -2561.7959 
28834000    268.36258   -3870.5734   -3410.6092   -3870.5734            0    7045.4763    16.937011    19.949562    20.663114    6981.7763     9109.248    5910.8628    6116.3181   -1265.1774   -741.95241    495.90006   -2693.2243 
28835000    256.39106   -3895.7855   -3456.3399   -3895.7855            0    9975.2367    16.876306     19.87806    20.589054    6906.9733    9725.8371    9150.4434    11049.429   -391.29403    535.04899   -550.14328   -2451.5232 
28836000    262.68152   -3901.2391    -3451.012   -3901.2391            0    9781.1999    16.911427    19.919427    20.631902    6950.1851    11203.454    7090.1932    11049.952    632.90179   -476.41184    -1148.038   -2459.5766 
28837000     256.8577   -3926.1884   -3485.9431   -3926.1884            0     8817.842    16.866136    19.866081    20.576647    6894.4942    9873.9997    7173.5089    9406.0172    175.67273   -436.55257   -718.94681   -2599.3168 
28838000    267.18925   -3876.0114   -3418.0582   -3876.0114            0    9479.4507    16.875611    19.877241    20.588206    6906.1201    11183.878    6695.0752    10559.399    762.49929   -318.63769   -1234.5949   -2463.3005 
28839000    260.36012   -3930.4837   -3484.2353   -3930.4837            0    9077.6472    16.794245    19.781402     20.48894    6806.7068    10443.158    7597.0185    9192.7652   -693.00128    407.24403   -1495.3142   -2583.1078 
28840000    256.27856   -3872.1244   -3432.8717   -3872.1244            0    10620.976    16.831596    19.825397    20.534508    6852.2231    7075.1692    11726.252    13061.507    -1590.426    135.67293   -244.09225   -2371.4894 
28841000    258.50318   -3920.4344   -3477.3688   -3920.4344            0    7439.0831    16.865037    19.864786    20.575306    6893.1465    8139.8935    5471.5682    8705.7876   -613.25247   -936.20869   -1005.6399   -2729.5217 
28842000    260.77862   -3870.9451   -3423.9795   -3870.9451            0    10286.213    16.888963    19.892968    20.604496    6922.5253     8302.891    10024.201    12531.548    298.98909   -1188.5226   -155.61038   -2385.5047 
28843000    252.30041   -3890.4255   -3457.9912   -3890.4255            0    8556.8598    16.911822    19.919892    20.632383    6950.6714    10307.682    6436.2014    8926.6959    695.97495    824.14913   -591.88829   -2590.5959 
28844000     251.3081   -3875.0997   -3444.3662   -3875.0997            0    9615.7366    16.902268     19.90864    20.620728    6938.8991    10614.248     10306.03    7926.9312    1026.9031    656.15172    191.22459   -2471.2852 
28845000    250.94053   -3895.0006   -3464.8971   -3895.0006            0    9142.8568    16.833522    19.827665    20.536857     6854.575    7666.3462    10632.522    9129.7024   -944.11346    1287.3699    700.96174   -2550.9136 
28846000    266.93659   -3898.7396   -3441.2195   -3898.7396            0    9916.8579    16.898498    19.904199    20.616128    6934.2566    10512.847    8911.5784    10326.148    701.57804    874.66485    296.60568   -2438.3374 
28847000    260.42281   -3899.7805   -3453.4248   -3899.7805            0    10468.942    16.925621    19.936145    20.649218    6967.6992    7679.0994    10581.274    13146.452   -803.48536   -293.54084    882.77086   -2389.6049 
28848000    245.35201   -3906.6168   -3486.0918   -3906.6168            0    8268.7285    16.915654    19.924406    20.637058    6955.3973    7848.4794    10990.077     5967.629    260.93359    -577.2252   -46.344277    -2647.334 
28849000    266.21613   -3895.1288   -3438.8434   -3895.1288            0    9003.5108    16.889084     19.89311    20.604643     6922.674    8466.5332     8519.777    10024.222   -392.02682   -138.20579   -362.14756   -2529.8481 
28850000    254.71501    -3884.134   -3447.5612    -3884.134            0    9376.8398    16.909299     19.91692    20.629305     6947.561    7067.8845    10259.903    10802.732    1294.1687   -638.38809    88.304421   -2497.4711 
28851000    253.91205   -3903.7262   -3468.5296   -3903.7262            0    10474.041    16.864586    19.864254    20.574755    6892.5927    10094.934    10151.441    11175.748   -1758.5501    -412.8492   -291.32487   -2415.6644 
28852000    261.96547   -3891.6325   -3442.6326   -3891.6325            0    8590.0081    16.924241     19.93452    20.647534    6965.9954    6510.4044    8355.2468    10904.373    534.45762   -309.27492   -457.62027   -2569.9574 
28853000    245.91559   -3857.0063   -3435.5154   -3857.0063            0    7709.5733    16.965887    19.983574    20.698343    7017.5471    6227.5716      8352.72    8548.4283     830.9229    678.81455    514.45853   -2646.4889 
28854000    276.92328    -3899.316   -3424.6789    -3899.316            0    9022.1309    16.902912    19.909398    20.621514    6939.6922    7839.0006    8624.6751    10602.717    62.105587    582.26644    678.03152   -2511.5645 
28855000     256.3663   -3839.7881    -3400.385   -3839.7881            0    9991.6594    16.888927    19.892926    20.604452    6922.4814    11407.887    9689.2333    8877.8579    2390.4296   -128.50708   -1336.3403   -2391.6541 
28856000    252.24315   -3897.6999   -3465.3638   -3897.6999            0    8457.8425    16.853841    19.851599    20.561647    6879.4272    7446.4814    10865.884    7061.1626   -305.78464    -159.6465   -274.91208   -2616.7936 
28857000    253.92469    -3881.431   -3446.2128    -3881.431            0    9127.8901    16.847765    19.844442    20.554234    6871.9893    9817.0542    9700.4835    7866.1326   -411.33837   -759.59971    2311.2623   -2531.4073 
28858000    261.30887   -3894.0819   -3446.2074   -3894.0819            0    7863.7883    16.933268    19.945153    20.658547    6977.1478    9491.8528    7467.9214    6631.5907   -998.63765   -748.18875   -144.01802   -2646.0312 
28859000    255.32836   -3893.0688   -3455.4447   -3893.0688            0    8118.7848    16.937615    19.950274    20.663851    6982.5231    8394.2392     7739.859    8222.2562   -178.37683   -962.12679   -480.53008    -2628.685 
28860000    257.65479   -3880.4561   -3438.8446   -3880.4561            0    10208.381    16.866789    19.866849    20.577443     6895.294    10652.107    11417.728    8555.3077   -259.19849   -603.34647    47.480962   -2412.2817 
28861000    248.10935   -3857.4823   -3432.2313   -3857.4823            0    7809.8087    16.914287    19.922796    20.635391    6953.7121    8388.2479     6193.813    8847.3651   -901.96987    255.70176    1967.0038   -2640.2171 
28862000    266.90465   -3883.6452   -3426.1798   -3883.6452            0     10121.45    16.889561    19.893672    20.605225    6923.2606    8578.6515    11236.115    10549.582    63.953763   -601.55618     642.2196   -2404.2306 
28863000    246.69513   -3867.7914   -3444.9644   -3867.7914            0    8889.4284    16.881394    19.884052    20.595261    6913.2222     8698.774    10303.091    7666.4199    507.85686     889.3682    555.17016   -2548.7122 
28864000    258.56543   -3826.4205   -3383.2482   -3826.4205            0    10880.515    16.893379    19.898169    20.609883    6927.9569     9710.063     11778.85    11152.631    1064.0092   -1400.9252   -1646.2061    -2283.912 
28865000    263.37415   -3838.4846   -3387.0703   -3838.4846            0    10295.969     16.92244    19.932399    20.645337    6963.7718    10070.726    8717.8895     12099.29    212.34128    1001.6287    18.315944   -2341.4172 
28866000    254.52546    -3859.737   -3423.4891    -3859.737            0    10616.834    16.934675    19.946811    20.660264    6978.8877    9656.4141    12725.811    9468.2768    410.46931   -1925.6158   -339.54997   -2342.9086 
28867000     252.3279   -3900.1088   -3467.6274   -3900.1088            0    9808.9473    16.934401    19.946488     20.65993    6978.5488    10186.988    8701.0799    10538.774    162.11068    1073.4156   -1421.5212    -2469.322 
28868000    255.53725   -3882.3429   -3444.3608   -3882.3429            0    9413.1769    16.889403    19.893485    20.605032    6923.0657    10135.203    9613.4965    8490.8311   -41.057842   -76.827962   -1725.4733   -2493.9518 
28869000    271.50254   -3882.9655   -3417.6194   -3882.9655            0    9554.2698    16.973292    19.992296    20.707377    7026.7394    11863.504    7468.5018    9330.8039   -285.99902   -688.89905    376.47261    -2438.519 
28870000    247.38944   -3860.5325   -3436.5155   -3860.5325            0    8685.9463    16.934077    19.946106    20.659534    6978.1482    9775.1268     6612.019    9670.6932   -898.67781   -12.310934    166.73924   -2552.5542 
28871000    254.90735   -3878.7018   -3441.7994   -3878.7018            0    10150.536    16.873957    19.875293    20.586188    6904.0894    10005.749    11454.422    8991.4369    1854.5237   -1907.6402   -410.16648   -2419.7514 
28872000    271.28374   -3872.6238   -3407.6527   -3872.6238            0    7930.9886    16.927253    19.938068    20.651209    6969.7151    7415.4419    9187.0549     7190.469   -79.864063   -777.86329    1058.1391   -2601.4983 
28873000    255.68183   -3893.1077   -3454.8778   -3893.1077            0    9128.8235    16.915583    19.924323    20.636972    6955.3105    10737.844    9019.8138    7628.8123   -1441.1667    1534.6352   -33.673182   -2528.8858 
28874000    271.41932   -3879.6141   -3414.4106   -3879.6141            0    9505.5117    16.909944    19.917681    20.630093    6948.3569    9243.3769     9578.612    9694.5462   -2205.2325     1326.127    792.32085   -2451.1728 
28875000    269.96792   -3854.3857   -3391.6699   -3854.3857            0    10475.051    16.897905      19.9035    20.615405    6933.5266    10258.955    8481.4594    12684.738    927.70661   -822.78025   -427.98556   -2332.4498 
28876000    274.24759   -3885.3901   -3415.3391   -3885.3901            0     10455.04    16.829719    19.823186    20.532218    6849.9311    9514.8141    12178.577    9671.7305    325.73701    1192.9553    436.04146   -2370.8887 
28877000    260.81407   -3873.1937   -3426.1673   -3873.1937            0    9619.7314    16.887986    19.891816    20.603303    6921.3232    9489.3472     8930.111    10439.736    765.48047    291.21287   -685.80987   -2455.1477 
28878000    251.80387   -3861.3851   -3429.8019   -3861.3851            0    9233.6116    16.833076     19.82714    20.536313    6854.0305    9142.8975    9009.0313     9548.906    978.80982    263.77909   -129.33642   -2506.8193 
28879000    269.91634   -3863.2114    -3400.584   -3863.2114            0    9471.1768    16.826426    19.819307    20.528201    6845.9109    10471.935    9650.3953    8291.1999    197.29707   -716.57284    714.75783   -2454.9761 
28880000    254.52093   -3910.7481   -3474.5079   -3910.7481            0    8994.9675    16.881781    19.884508    20.595734    6913.6978    8871.5094    11193.236    6920.1572    -1725.082    1922.9971    1244.5386   -2567.5527 
28881000    263.30001    -3927.374   -3476.0868    -3927.374            0    8903.8664    16.843831    19.839808    20.549434    6867.1763    7667.0813    9915.5987    9128.9192   -114.26793   -1592.5074    846.02779   -2584.3581 
28882000    264.96338   -3871.6592    -3417.521   -3871.6592            0    8451.2226    16.903614    19.910224    20.622369    6940.5561    8836.5953    7135.7292    9381.3432    571.20221   -467.16672    744.47595   -2562.0807 
28883000    261.38054    -3898.655   -3450.6577    -3898.655            0     9227.251    16.861579    19.860712    20.571086    6888.9063    10080.631    9029.2487    8571.8727    868.46285     485.5057    887.52266   -2523.6176 
28884000    256.88645     -3931.35   -3491.0554     -3931.35            0    8279.1508    16.889317    19.893384    20.604927    6922.9604    7373.0575    9103.2583    8361.1365    965.17189   -461.66707   -1129.4373    -2655.157 
28885000    249.36365   -3924.7955   -3497.3947   -3924.7955            0    6873.3907    16.948565    19.963171     20.67721    6996.0737    5064.5177    7899.2227    7656.4316   -856.23746   -265.77456   -1316.2459   -2796.0988 
28886000    254.01252   -3861.2855   -3425.9168   -3861.2855            0    9622.0203     16.89073    19.895049    20.606652    6924.6987    10315.219    9253.2284    9297.6138    805.09544   -982.89825    1765.2024   -2454.1925 
28887000    251.74991   -3888.4569   -3456.9662   -3888.4569            0    8469.4744    16.886939    19.890583    20.602026    6920.0361    7488.9428    7837.6863    10081.794   -2424.3424   -1396.7843    -688.3464   -2602.2131 
28888000    256.17576   -3860.2957   -3421.2192   -3860.2957            0    8409.7316    16.933968    19.945978    20.659401    6978.0134    8207.4322    8794.4488    8227.3137   -998.12754    60.630949    1012.1873   -2565.3847 
28889000    243.42564   -3899.8958   -3482.6726   -3899.8958            0    10141.993    16.848255    19.845019    20.554832    6872.5891    10923.717    8380.0362    11122.226    475.96147   -848.10139    -527.9084   -2466.1441 
28890000    259.96856   -3878.1329   -3432.5557   -3878.1329            0    9723.8611     16.95083    19.965838    20.679972    6998.8785    9369.5388    10423.891    9378.1537   -263.52841    1283.4423    110.61015   -2440.0269 
28891000    248.61007    -3895.477   -3469.3678    -3895.477            0    10761.032    16.876213     19.87795     20.58894    6906.8589    10940.337    12732.882    8609.8779   -1391.5833    331.75962   -558.65742    -2385.415 
28892000    252.01477   -3906.6101   -3474.6654   -3906.6101            0    8813.2878    16.960814    19.977599    20.692154    7011.2536    9378.2676    7941.0162    9120.5796    4.9787079    1626.0275     235.8568   -2573.4896 
28893000    255.83445   -3876.6639   -3438.1724   -3876.6639            0    10514.927    16.884271    19.887441    20.598772    6916.7577    9137.5033    11234.698     11172.58    1583.4604    1298.8171    932.09101   -2377.4915 
28894000    249.99566   -3863.1565   -3434.6725   -3863.1565            0    9404.3772    16.873353    19.874581    20.585451    6903.3479    10958.284     7488.981    9765.8661    937.70323   -568.39279    538.88707   -2487.8562 
28895000    269.67251   -3864.5137   -3402.3042   -3864.5137            0    9705.5497    16.864593    19.864263    20.574764    6892.6015    10528.979    8325.2023    10262.468   -1379.1263    763.60235    -428.2417   -2426.6876 
28896000    258.25523   -3879.7931   -3437.1525   -3879.7931            0    8758.4099    16.840241     19.83558    20.545055    6862.7871    7395.6527    9082.7742    9796.8027    898.74623   -708.63603   -164.89287    -2560.552 
28897000    248.31652   -3906.7998   -3481.1938   -3906.7998            0    10099.459    16.856856     19.85515    20.565326    6883.1203    10905.582    11017.973     8374.823   -1136.3089    1498.9116   -449.99902   -2467.3773 
28898000    252.20604   -3891.2599   -3458.9874   -3891.2599            0    11221.868    16.832613    19.826594    20.535748    6853.4646    11321.102    11943.648    10400.853    1428.2845     228.5703    1589.9518   -2337.3533 
28899000    258.07813   -3852.6795   -3410.3424   -3852.6795            0    7958.4269    16.953648    19.969158    20.683412    7002.3709    7389.0885    10583.646    5902.5464   -640.30634    1068.3739   -297.08405   -2597.6087 
28900000    253.63941   -3887.6246   -3452.8954   -3887.6246            0     7525.016    16.902018    19.908344    20.620422    6938.5904    9564.0486    7219.0715    5791.9278   -721.39101   -800.72544    266.79153   -2691.4223 
28901000    257.12133   -3861.0634   -3420.3663   -3861.0634            0    11490.908    16.871248    19.872102    20.582883    6900.7647    13192.527    11616.883    9663.3155   -1478.2899    1205.1904   -723.18985   -2263.9146 
28902000    246.03799   -3898.1709   -3476.4702   -3898.1709            0    8767.8011    16.928258    19.939252    20.652435    6970.9567    8109.8472     9360.692    8832.8641   -998.42293     1803.197    -1300.719   -2585.0982 
28903000     258.8156   -3881.7829   -3438.1818   -3881.7829            0    7938.4887    16.934882    19.947054    20.660516    6979.1427    7274.3641    9067.3093    7473.7926   -967.42004    1866.4036    -1407.673   -2630.1735 
28904000    243.36292   -3878.0505   -3460.9348   -3878.0505            0    10393.076    16.863279    19.862716    20.573162    6890.9913    11269.387    9168.3625    10741.477   -897.87157    1182.8408   -257.66047   -2416.4511 
28905000    256.18484   -3894.6402   -3455.5482   -3894.6402            0    8970.4995    16.888634    19.892581    20.604095    6922.1211    8604.7336    9590.3712    8716.3937   -883.67404   -847.71511    1303.2029    -2549.958 
28906000     247.1099   -3931.7772   -3508.2393   -3931.7772            0    8796.7407    16.900934    19.907068      20.6191    6937.2558    8885.7459    10389.359    7115.1166    284.64178    591.48016    653.60204   -2618.2488 
28907000     250.9106   -3896.4299   -3466.3777   -3896.4299            0    9987.8722    16.864574    19.864241    20.574741    6892.5788    12220.132    9594.5828    8148.9013    783.73982   -860.17547    1792.5669   -2462.3849 
28908000    254.00104   -3897.7731    -3462.424   -3897.7731            0    7663.3855    16.930444    19.941827    20.655102    6973.6581    9366.9918    7094.3417     6528.823    560.85788    995.02153    616.15836   -2683.0297 
28909000    266.36048   -3905.3801   -3448.8474   -3905.3801            0    9321.9233    16.893217    19.897978    20.609685     6927.757    9520.0115    8441.4226    10004.336    216.41835   -610.91171   -865.96249   -2507.0141 
28910000    269.26155   -3871.9768   -3410.4717   -3871.9768            0    11560.001    16.885295    19.888647     20.60002    6918.0153    11326.056    11970.146    11383.801    1683.8278    407.85168   -280.77877   -2244.1583 
28911000    247.00005   -3923.7366   -3500.3869   -3923.7366            0    8136.2709    16.956985    19.973088    20.687482    7006.5058    8286.0382    9569.8723    6552.9022    792.24849    135.50477    503.88094   -2669.0008 
28912000    252.90468   -3911.9594   -3478.4895   -3911.9594            0    8480.6342    16.970732    19.989281    20.704254    7023.5605    7649.0463    9288.1441     8504.712   -550.07385    804.74314   -207.34854    -2609.806 
28913000    249.20966   -3872.2251   -3445.0883   -3872.2251            0    7811.4442    16.933744    19.945713    20.659128    6977.7361    7409.1684    8129.9839    7895.1802    563.55354   -695.54719   -983.94636   -2650.1713 
28914000    269.69361   -3922.6737    -3460.428   -3922.6737            0    9313.7533    16.884371    19.887559    20.598893    6916.8804    9857.9256    9800.6936    8282.6405    -240.0617   -1314.0292    875.86555   -2520.8975 
28915000    252.03454   -3869.3642   -3437.3856   -3869.3642            0    10635.127    16.893503    19.898315    20.610034    6928.1093    10058.905    10822.618    11023.856    523.37592    569.80127    1617.8824   -2362.8192 
28916000    268.47455   -3891.6131   -3431.4569   -3891.6131            0    8787.8279    16.939265    19.952216    20.665863    6984.5631    9156.4011    11157.213    6049.8699    2332.6709    -1554.505    1021.1761   -2536.3051 
28917000    250.08019    -3892.292   -3463.6631    -3892.292            0    10207.217    16.861512    19.860634    20.571005    6888.8246    11777.764     10123.41    8720.4774    337.38508   -950.17061    1910.5707   -2438.1803 
28918000    268.01939   -3862.5222   -3403.1462   -3862.5222            0    7766.5737    16.954689    19.970384    20.684681      7003.66    7690.6672    7359.2849    8249.7689     1394.994   -1451.0718    15.353178    -2609.859 
28919000    263.30574   -3857.7788   -3406.4817   -3857.7788            0     9150.066    16.947867    19.962348    20.676358     6995.209    10429.308    9081.4262    7939.4645   -529.09476   -1513.4736    1669.1067   -2473.0108 
28920000    258.06045   -3868.8904   -3426.5836   -3868.8904            0    7966.5552    16.980786    20.001123     20.71652    7036.0511    7897.1773    8116.5132     7885.975    611.88532   -232.56338   -310.91176   -2609.1068 
28921000    263.74957   -3884.6878   -3432.6301   -3884.6878            0    11509.584    16.876054    19.877762    20.588746    6906.6636    13984.108    11061.766    9482.8776    1259.8163    152.29827    318.41361   -2273.3088 
28922000    252.70921   -3874.3252   -3441.1903   -3874.3252            0    10845.406    16.908812    19.916347    20.628711    6946.9615    10972.581    10301.693    11261.944    127.43049     1887.111   -50.033324   -2342.3954 
28923000    243.60334   -3849.1175   -3431.5897   -3849.1175            0    9325.6455    16.921909    19.931773    20.644689    6963.1161    8641.5619    9378.6726     9956.702    -1199.536    255.64267    -491.4524   -2484.5713 
28924000    245.57436   -3855.2946   -3434.3885   -3855.2946            0    9460.0518    16.899682    19.905593    20.617572    6935.7136    10865.426    7619.3497    9895.3796    10.580404   -471.72733   -827.77557   -2477.5017 
28925000    269.80817   -3881.9302   -3419.4882   -3881.9302            0    10824.417    16.914004    19.922463    20.635046    6953.3628    11284.404    12762.858    8425.9893   -297.49194   -788.06474   -1187.3092   -2321.8094 
28926000    268.20277   -3918.4016   -3458.7112   -3918.4016            0    8143.2534    16.901231    19.907418    20.619462    6937.6215    8819.7065    7027.0848     8582.969    620.40563    1781.9535    -375.3441   -2634.7924 
28927000    264.67855   -3882.1758   -3428.5258   -3882.1758            0    8880.0315    17.009568    20.035024    20.751633    7071.8891    8216.6959    8307.1633    10116.235   -638.90141    524.05739    -1657.489   -2512.6727 
28928000    263.02922   -3851.4094   -3400.5864   -3851.4094            0    6721.7635    16.985839    20.007075    20.722684    7042.3342    7917.6844    6235.0607    6012.5455   -985.86517    2109.6701    1926.4484   -2710.2262 
28929000    244.43409   -3844.1963   -3425.2447   -3844.1963            0    8188.3715    16.960567    19.977308    20.691852    7010.9474    9335.9412    5798.9297    9430.2437   -2268.2586    522.85223    211.15842   -2588.0043 
28930000    251.19219   -3873.0925   -3442.5577   -3873.0925            0    8288.4638    16.964171    19.981553    20.696249    7015.4173     7317.726    9565.4949    7982.1705   -14.237282   -1439.7802    2146.9837   -2594.5428 
28931000    258.69069    -3844.282    -3400.895    -3844.282            0    12623.673    16.841085    19.836573    20.546084    6863.8182    12579.097    12510.031    12781.892   -672.86804   -161.64584    1322.2301   -2137.2432 
28932000    269.35247   -3841.0434   -3379.3825   -3841.0434            0    12003.432    16.860132    19.859009    20.569322    6887.1337    11911.908    10940.539    13157.848    740.79739   -938.87951   -383.02284   -2173.7364 
28933000    267.32146   -3918.8184   -3460.6386   -3918.8184            0    8692.4011    16.896847    19.902254    20.614114    6932.2243    8806.2872    8769.9578    8500.9583    1749.5439    654.50359   -782.97557   -2581.8422 
28934000    257.62507   -3921.9507   -3480.3901   -3921.9507            0    9183.6135    16.938147      19.9509      20.6645    6983.1811    9648.9811    9314.9055     8586.954   -74.542361    1127.0388    282.57394   -2545.1077 
28935000    261.34241    -3881.461   -3433.5291    -3881.461            0    8809.4288    16.945122    19.959115    20.673009    6991.8111      9412.08    8621.4628    8394.7437    1085.8565   -1088.4031     886.7848   -2535.2458 
28936000    256.97674   -3860.9304   -3420.4811   -3860.9304            0    9000.9907    16.908549    19.916037     20.62839     6946.637    9401.2709    9111.1982    8490.5031    397.15597    167.60252   -84.894763   -2508.5946 
28937000    254.85114   -3881.3353   -3444.5292   -3881.3353            0    9828.2794    16.867862    19.868114    20.578752    6896.6108    9407.1912    9702.9942    10374.653    -1622.163   -437.30953    -1406.837   -2456.0009 
28938000     283.1483   -3875.2992   -3389.9927   -3875.2992            0    10809.295     16.85569    19.853777    20.563903    6881.6917      10849.5    9127.4561    12450.928    673.10681    179.97004   -1291.7992   -2305.1458 
28939000    262.56667   -3891.8487   -3441.8184   -3891.8487            0    12152.953    16.843016    19.838848     20.54844    6866.1801    10121.512     13723.33    12614.018   -643.52156   -625.92496    902.40915   -2224.8679 
28940000    271.93188   -3832.1358   -3366.0538   -3832.1358            0    9768.8323    16.944202    19.958032    20.671887    6990.6723    9790.5909    8904.8525    10611.054    1364.5386    2510.2236     -1014.52    -2370.104 
28941000    257.21052   -3842.3924   -3401.5424   -3842.3924            0    8518.1634    16.992321     20.01471    20.730592    7050.3994    11165.506    7437.7571    6951.2268   -1110.0786    1148.6335   -623.33524   -2525.6806 
28942000    262.77195   -3859.4989   -3409.1168   -3859.4989            0    9512.2728    16.957593    19.973805    20.688224    7007.2602    10914.497    8813.1831     8809.138     296.4398   -647.37884   -227.58725   -2437.0224 
28943000    267.40915    -3850.216   -3391.8858    -3850.216            0    9999.6534    16.911585    19.919613    20.632094    6950.3794     12378.63    8686.8647    8933.4658   -1134.0099    883.37983   -1853.1518   -2378.2794 
28944000    266.18431   -3847.0438    -3390.813   -3847.0438            0    11531.134    16.845187    19.841406    20.551089    6868.8356     12058.36    10140.774    12394.268   -1322.9134   -167.72823   -1068.9541   -2235.6825 
28945000    248.47554   -3864.2575   -3438.3789   -3864.2575            0     8807.295    16.904646     19.91144    20.623629    6941.8277    8746.4181    8329.4465    9346.0203    1395.4708   -147.36664    904.77155   -2546.7334 
28946000    246.26342   -3836.1419   -3414.0548   -3836.1419            0    8238.8814    17.001115    20.025068     20.74132    7061.3509    7598.2083    7995.7031    9122.7327   -403.93907   -74.559401    481.62678   -2565.5937 
28947000    258.24163   -3875.6396   -3433.0223   -3875.6396            0     7635.651    16.952119    19.967358    20.681546    7000.4765    7967.1264    6773.8349    8165.9917   -388.94198   -190.14749    1545.5003   -2653.4623 
28948000    264.05995   -3874.1296   -3421.5398   -3874.1296            0    9993.9253    16.945563    19.959635    20.673547    6992.3568    10384.582    8742.4474    10854.747    786.73114   -411.49024    284.62881   -2402.3958 
28949000    266.01999   -3871.5205   -3415.5713   -3871.5205            0    8346.1509    16.961324    19.978199    20.692776    7011.8861    8673.6853    9605.7146    6759.0528    17.365908    234.02629    1089.0995   -2562.0842 
28950000    266.55696   -3904.6546   -3447.7851   -3904.6546            0    8983.8265    16.970326    19.988802    20.703758    7023.0559    8940.0796    8752.6077    9258.7921   -5.1639423    1069.7595    1539.9007    -2527.625 
28951000    254.52392   -3877.8556   -3441.6104   -3877.8556            0     9810.614    16.918751    19.928054    20.640837    6959.2192    10057.664     9345.335    10028.843   -859.53814   -536.18002    459.01873    -2445.901 
28952000    258.67292   -3870.6026    -3427.246   -3870.6026            0    11026.769    16.927198    19.938003    20.651142    6969.6472    12811.004    10854.765    9414.5387    1558.6532   -779.11144   -1592.0843   -2306.4284 
28953000    255.82252   -3914.1915   -3475.7204   -3914.1915            0    10448.155    16.900627    19.906706    20.618726     6936.878    9938.8079    10692.666    10712.992   -740.16742    1040.3365    158.99886   -2418.7093 
28954000    249.55611   -3913.1795   -3485.4488   -3913.1795            0    9227.3937    16.922761    19.932777    20.645729    6964.1679    9672.8584    9185.8518     8823.471    504.68805     395.8238    948.29498   -2548.2663 
28955000     241.9322   -3900.9989   -3486.3353   -3900.9989            0    9178.4411    16.971165    19.989791    20.704782    7024.0978    10234.666    7598.2199    9702.4372   -905.14009   -764.23096   -955.69914   -2546.1026 
28956000    252.65746   -3900.8777   -3467.8315   -3900.8777            0    9155.1862    16.914991    19.923625    20.636249    6954.5795    9676.6497    8982.4917    8806.4173   -707.67728   -1518.3812   -136.56534    -2539.263 
28957000    256.94507   -3883.7128   -3443.3178   -3883.7128            0    9489.2922    16.949963    19.964818    20.678915    6997.8055    10241.394    9339.2307    8887.2522   -320.72925    448.36025    794.68563   -2474.8803 
28958000    260.43578   -3881.3475   -3434.9695   -3881.3475            0    8712.9931    16.923077    19.933149    20.646114    6964.5581    7940.3107    9709.5767     8489.092   -2095.8787   -1270.1206    19.208216   -2549.9826 
28959000     256.9326   -3894.5024   -3454.1287   -3894.5024            0      7933.74    16.890665    19.894973    20.606572    6924.6188    9223.1021    7714.4659    6863.6521    1188.7226   -272.45969   -686.96592   -2652.9125 
28960000    263.56299   -3862.7906   -3411.0527   -3862.7906            0    9161.5722    16.939846    19.952901    20.666572    6985.2822    10666.939    8218.4119    8599.3657    1398.4926     783.4934   -1356.7015   -2477.7342 
28961000     262.4433   -3877.6557   -3427.8368   -3877.6557            0    10933.667    16.923394    19.933522    20.646501    6964.9494    11250.493    11018.315    10532.194    251.78753   -1094.4352   -38.692077   -2317.2316 
28962000    257.15258   -3875.8221   -3435.0714   -3875.8221            0    10680.197    16.941838    19.955247    20.669003    6987.7469    9528.9063    10575.505     11936.18    1718.0709   -905.34793    510.59748   -2346.6619 
28963000    262.96217    -3850.405   -3399.6968    -3850.405            0    9822.6793    16.947971    19.962471    20.676485    6995.3381    11156.419    9222.8465    9088.7721   -204.66117   -63.948034   -812.39523   -2397.5888 
28964000    253.84872   -3874.6173   -3439.5293   -3874.6173            0    9614.1282    16.986853    20.008269    20.723921    7043.5946    10279.829    8368.7617    10193.794   -515.75649    988.03403   -1863.7569   -2451.9314 
28965000    247.01066   -3920.6548   -3497.2869   -3920.6548            0    11166.752    16.940954    19.954206    20.667924    6986.6529    12125.178    8907.0139    12468.064   -903.58072   -1109.9108   -2028.3387   -2359.4712 
28966000    251.41599   -3901.8819   -3470.9635   -3901.8819            0    8920.5299    17.016138    20.042763    20.759649    7080.0871    9785.9519    7942.9736    9032.6641   -103.50909    635.55927    545.30832    -2549.867 
28967000    263.07599   -3939.6712    -3488.768   -3939.6712            0    11315.489    16.964474     19.98191    20.696619    7015.7936    11486.747    11617.538    10842.182    339.04266       1012.6    1740.1005    -2330.988 
28968000    270.69328   -3935.5404   -3471.5814   -3935.5404            0    7235.2747     17.08247    20.120893    20.840574    7163.2086    7298.9652    7447.2927    6959.5662    433.81312    1093.8505   -1242.1393   -2715.7264 
28969000    260.67418   -3905.0443   -3458.2576   -3905.0443            0    7540.0972    17.041823    20.073017    20.790984    7112.1965    7643.9149    7996.8614    6979.5153     424.7438    1347.9872    1070.8998   -2676.1679 
28970000    259.37731    -3909.938   -3465.3742    -3909.938            0    8313.9382    16.948695    19.963324    20.677369    6996.2351    8724.9448    8834.2071    7382.6625    199.32051     827.9511    579.02305   -2617.0788 
28971000    272.57863   -3922.2942   -3455.1038   -3922.2942            0    7623.7259    17.014589    20.040939    20.757759    7078.1539    7973.5371    6853.8057    8043.8349    421.49213   -390.42508   -97.692147   -2668.1248 
28972000    234.55631   -3867.1446   -3465.1232   -3867.1446            0    9467.4933    16.987572    20.009116    20.724799    7044.4899     10380.24    9822.4182    8199.8214    638.79248     -259.955   -861.18235   -2492.4645 
28973000    255.39111   -3878.5162   -3440.7846   -3878.5162            0    11353.496    16.880667    19.883196    20.594374    6912.3285    11575.567    10568.728    11916.194    870.46335    1350.3642    604.39064   -2296.2474 
28974000    255.38039   -3888.2949   -3450.5816   -3888.2949            0    8917.6619     16.90345    19.910032     20.62217    6940.3548    6123.7647    8417.8646    12211.357   -499.49287    626.42899    39.076183   -2547.9541 
28975000    251.36795   -3885.4079   -3454.5719   -3885.4079            0    10198.313     16.94297     19.95658    20.670384    6989.1474    7635.8839     11130.14    11828.915   -931.93107    663.86163   -90.600819   -2415.0625 
28976000    259.13558    -3878.522   -3434.3724    -3878.522            0    7590.7093     16.99939    20.023036    20.739216    7059.2022    7110.4721    6440.8022    9220.8536   -23.531103    808.72191   -212.44859   -2652.8996 
28977000    271.25726   -3828.8775   -3363.9518   -3828.8775            0    9940.6772    16.909723    19.917421    20.629823    6948.0847    10000.088     8774.107    11047.836   -369.55809    6.2385193   -253.28413   -2356.6562 
28978000    254.58845   -3834.1727   -3397.8169   -3834.1727            0    9644.5525    16.956736    19.972795    20.687178    7006.1971    10814.761    8596.2919    9522.6048    337.39725   -483.13102    1533.0642   -2412.3539 
28979000    258.82572   -3889.6721   -3446.0536   -3889.6721            0    8971.5817    16.930995    19.942475    20.655774    6974.3381    10827.127      7543.57    8544.0482   -859.34962   -235.86487    593.83486   -2533.5221 
28980000    262.09428   -3871.3677   -3422.1471   -3871.3677            0    8056.9564    16.962235    19.979273    20.693888    7013.0163    8664.1727    7281.6436    8225.0529    77.045085    35.273189   -345.42517   -2598.1005 
28981000    261.78082    -3882.401   -3433.7176    -3882.401            0    8959.5533    16.899056    19.904855    20.616808     6934.943    9993.0086     7146.411    9739.2402   -834.73083    444.03645    628.84774   -2527.5571 
28982000    260.27971   -3874.3924   -3428.2819   -3874.3924            0    10219.009    16.884803    19.888068    20.599421    6917.4114    9415.4361    10980.133    10261.458   -237.80527   -329.94089    346.54138   -2397.3541 
28983000    255.46807   -3883.4146   -3445.5511   -3883.4146            0    8819.5216    16.896452    19.901789    20.613632    6931.7385    9656.6127    9199.8985    7602.0535   -194.88911   -345.96839   -327.31243   -2553.9654 
28984000     262.3648   -3860.0828   -3410.3986   -3860.0828            0    9571.4535    16.924124    19.934382    20.647392    6965.8509     10933.93    9272.8829    8507.5479   -1409.8074    858.50726    1238.8946   -2438.0366 
28985000    261.22451   -3912.3835   -3464.6536   -3912.3835            0    9407.3518    16.869538    19.870088    20.580797    6898.6667    10475.057     9979.635    7767.3637   -137.38247    -623.9393    465.45933   -2518.1802 
28986000    251.46524   -3877.8973   -3446.8945   -3877.8973            0    10168.848    16.894442    19.899421     20.61118    6929.2645    10934.877    10093.849    9477.8189   -324.57236    1173.9989   -659.99757   -2419.2692 
28987000    264.70094   -3899.9316   -3446.2433   -3899.9316            0    11966.875    16.825961    19.818759    20.527633    6845.3429    12696.336    11048.974    12155.315   -236.84767    12.682358   -421.55899   -2251.5626 
28988000    266.88426   -3887.3501   -3429.9196   -3887.3501            0    7728.6797    16.893593    19.898421    20.610144    6928.2197    8871.4686    7789.1143    6525.4561      158.145   -86.772693   -9.6119382   -2649.0063 
28989000    257.64408    -3897.324   -3455.7309    -3897.324            0    8335.6994    16.886703    19.890306    20.601738    6919.7466    8960.5033    7094.4543    8952.1405    168.02403   -1146.2865   -1911.1599   -2614.5137 
28990000    265.18699   -3920.8003   -3466.2789   -3920.8003            0    8551.1744    16.910597     19.91845    20.630889    6949.1619    11104.419    6687.1674    7861.9369   -418.47953    266.55695   -198.02186   -2599.6481 
28991000    247.09836   -3906.4997   -3482.9816   -3906.4997            0    9491.6333     16.90611    19.913165    20.625415    6943.6316    8821.9273    10358.528    9294.4447   -1468.8341    1101.8505     917.2765   -2521.8043 
28992000    254.14127   -3886.3662   -3450.7767   -3886.3662            0    7730.1952    16.975788    19.995236    20.710422    7029.8395    6434.3063    6715.2295     10041.05   -1310.5956   -1505.1092   -866.79042   -2658.2539 
28993000    281.63092   -3906.6063   -3423.9006   -3906.6063            0    9996.6921    16.865349    19.865154    20.575687    6893.5292    10789.546    10518.864    8681.6663    225.84875    1095.1599   -1323.2741   -2418.8826 
28994000    243.77873    -3842.219   -3424.3906    -3842.219            0    10355.067    16.876017    19.877719    20.588701    6906.6184     10025.93    8860.8799    12178.392   -1749.7596    1606.8242   -1398.2643   -2381.3667 
28995000    264.87343   -3863.3898   -3409.4058   -3863.3898            0    8727.1567     16.88751    19.891256    20.602723    6920.7388    8134.8727    8272.1511    9774.4462   -862.25691   -1002.7833   -543.77498   -2528.5575 
28996000    254.07658   -3866.4234   -3430.9449   -3866.4234            0    8123.7454    16.947538    19.961962    20.675957    6994.8028    8054.7289     9406.684    6909.8233    245.77851    509.98724    324.53046   -2602.2252 
28997000    270.14423   -3895.2185   -3432.2005   -3895.2185            0    10427.171    16.941822    19.955228    20.668983    6987.7269    9570.1103    12432.785    9278.6182    -47.72775    1743.6574   -200.64558   -2369.5797 
28998000     266.0198   -3873.3365   -3417.3877   -3873.3365            0    8652.6395    16.952339    19.967617    20.681815    7000.7491    7907.5122    9674.3918    8376.0146    467.03868    1179.3683   -467.66673    -2533.964 
28999000    256.10954   -3908.5378   -3469.5748   -3908.5378            0    12412.865    16.851476    19.848813    20.558762    6876.5316    10502.585    13810.765    12925.245   -232.35445   -1181.6304   -1004.1207   -2224.7238 
29000000    278.00028   -3885.4531   -3408.9701   -3885.4531            0    10497.572    16.910494    19.918329    20.630764    6949.0351    9060.6954    10047.091    12384.929    592.52302   -3034.1578   -39.746974   -2345.0984 
Loop time of 380.9 on 64 procs for 250000 steps with 864 atoms

Performance: 113.416 ns/day, 0.212 hours/ns, 656.341 timesteps/s
190.9% CPU use with 32 MPI tasks x 2 OpenMP threads

MPI task timing breakdown:
Section |  min time  |  avg time  |  max time  |%varavg| %total
---------------------------------------------------------------
Pair    | 25.175     | 34.017     | 47.155     |  80.7 |  8.93
Bond    | 0.84385    | 1.1735     | 2.0858     |  24.9 |  0.31
Kspace  | 163.82     | 176.95     | 187.77     |  41.1 | 46.45
Neigh   | 3.9498     | 4.3035     | 4.7824     |  13.1 |  1.13
Comm    | 73.636     | 78.225     | 82.993     |  32.0 | 20.54
Output  | 0.48585    | 0.4862     | 0.48786    |   0.0 |  0.13
Modify  | 69.208     | 71.462     | 74.782     |  15.8 | 18.76
Other   |            | 14.29      |            |       |  3.75

Nlocal:        27.0000 ave          33 max          21 min
Histogram: 2 1 3 2 5 12 2 3 1 1
Nghost:        2634.44 ave        2670 max        2592 min
Histogram: 1 3 2 6 3 3 2 4 4 4
Neighs:        8874.66 ave       10949 max        6656 min
Histogram: 2 3 1 6 4 4 3 3 3 3

Total # of neighbors = 283989
Ave neighs/atom = 328.69097
Ave special neighs/atom = 2.0000000
Neighbor list builds = 13748
Dangerous builds = 0

unfix		3
unfix		2
unfix		1

write_data	data.final.${pid}
write_data	data.final.1
System init for write_data ...
PPPM initialization ...
  extracting TIP4P info from pair style
  using 12-bit tables for long-range coulomb (../kspace.cpp:340)
  G vector (1/distance) = 0.37457529
  grid = 24 24 24
  stencil order = 5
  estimated absolute RMS force accuracy = 0.0031253965
  estimated relative force accuracy = 9.4120388e-06
  using double precision FFTW3
  3d grid and FFT values/proc = 3549 432
Last active /omp style is kspace_style pppm/tip4p/omp
WARNING: Not all mixed pair coeffs generated from mixing. Use write_data with 'pair ij' option to store all pair coeffs. (../write_data.cpp:312)

write_restart   restart.lmp.${pid}
write_restart   restart.lmp.1
System init for write_restart ...
PPPM initialization ...
  extracting TIP4P info from pair style
  using 12-bit tables for long-range coulomb (../kspace.cpp:340)
  G vector (1/distance) = 0.37457529
  grid = 24 24 24
  stencil order = 5
  estimated absolute RMS force accuracy = 0.0031253965
  estimated relative force accuracy = 9.4120388e-06
  using double precision FFTW3
  3d grid and FFT values/proc = 3549 432
Last active /omp style is kspace_style pppm/tip4p/omp
Total wall time: 0:06:21
