LAMMPS data file via write_data, version 30 Jul 2021, timestep = 34750000

864 atoms
2 atom types
576 bonds
1 bond types
288 angles
1 angle types

0.13647561008296627 18.07109678991496 xlo xhi
0.12729285366406629 23.501884946352696 ylo yhi
0.1347941318960455 22.0784016680952 zlo zhi

Masses

1 1.00794
2 15.9994

Atoms # full

707 1 1 0.5897 3.2449950948415456 1.8766132812109 3.9018613531598 0 0 0
706 1 2 -1.1794 3.2174275605253913 1.836885765174139 2.945857891163759 0 0 0
30 1 1 0.5897 5.290205627556055 4.065266617392025 2.368904390856721 0 0 0
708 1 1 0.5897 2.362422896883599 2.2000004049751367 2.7151267656404787 0 0 0
29 1 1 0.5897 4.563991115777187 2.738950320928195 2.4423055284751403 0 0 0
28 1 2 -1.1794 5.316493310236967 3.16837078394158 2.035495785175101 0 0 0
3 1 1 0.5897 0.8373833992107029 3.8310606595054857 2.741054533012592 0 0 0
597 1 1 0.5897 0.9827360506282621 5.598495410464099 4.18294183253613 0 0 0
495 1 1 0.5897 8.08967425529815 2.167818385275277 2.936238637977926 0 0 0
494 1 1 0.5897 6.576469975212216 2.174339512258743 2.8951119219766377 0 0 0
493 1 2 -1.1794 7.323483148837999 1.6514531800906747 3.186182197640634 0 0 0
1 1 2 -1.1794 0.8098789869743497 2.9543568864909244 2.3577666551688714 0 0 0
846 1 1 0.5897 7.430811090687785 1.7524323799931005 4.880245810154939 0 0 0
137 1 1 0.5897 5.288832590086707 5.688261625376929 3.944796862372104 0 0 0
595 1 2 -1.1794 0.9153476777640226 5.504550316904271 3.2327263927248886 0 0 0
668 1 1 0.5897 5.387850889925796 3.185734252398313 0.1557379021534142 0 0 0
136 1 2 -1.1794 5.357928071046379 5.791267997209368 2.995640318805097 0 0 0
20 1 1 0.5897 0.7163387893428922 3.2470491697002775 0.4197058410296677 0 0 0
83 1 1 0.5897 4.695795778432906 2.736807550840513 6.404533505887171 0 0 0
183 1 1 0.5897 1.0265937450648757 4.913095269350582 6.241079300613834 0 0 0
82 1 2 -1.1794 5.476524802598087 3.115902787882084 6.808143631084179 0 0 0
785 1 1 0.5897 0.9813383494130068 3.155358548126509 7.6236685365224135 0 0 0
674 1 1 0.5897 3.8106545680131854 2.223443862551082 10.021362594804282 0 0 0
356 1 1 0.5897 7.591251328479764 1.0861075608446118 9.962617293379749 0 0 0
844 1 2 -1.1794 7.651300028009457 1.7373165392312033 5.811600245025363 0 0 0
845 1 1 0.5897 7.701736082272864 0.8069895533814718 6.031218875764559 0 0 0
487 1 2 -1.1794 3.3195476197884735 1.9103082771438042 5.747514094715019 0 0 0
673 1 2 -1.1794 3.0598217370216636 1.802130370004351 10.439579112112938 0 0 0
34 1 2 -1.1794 0.7251516051387038 3.192658527251435 9.454366116395043 0 0 0
274 1 2 -1.1794 5.301107999616152 3.1886360476495232 9.546839291484131 0 0 0
678 1 1 0.5897 5.234675823880599 4.905189158773067 10.171882023624944 0 0 0
35 1 1 0.5897 0.8134133437435778 4.093828372085424 9.76481072668772 0 0 0
36 1 1 0.5897 1.5106440630540896 2.75008299481802 9.775728418967004 0 0 0
355 1 2 -1.1794 7.590481733335019 1.9837204775858928 10.295139184330855 0 0 0
488 1 1 0.5897 2.4819021844458775 2.2890964928673765 6.013985347838443 0 0 0
84 1 1 0.5897 6.198366866358962 2.5738907740270247 6.4898092888362875 0 0 0
276 1 1 0.5897 6.119313714999858 2.767687841417458 9.810428097087561 0 0 0
675 1 1 0.5897 3.0526797105005743 0.9143490707775419 10.081705956229952 0 0 0
275 1 1 0.5897 5.341521131046049 3.2142950896377176 8.590812217534062 0 0 0
686 1 1 0.5897 5.4327735184979264 4.844982574639179 6.217379625650616 0 0 0
784 1 2 -1.1794 0.9961614849977753 3.194384346431121 6.667352178851076 0 0 0
489 1 1 0.5897 3.2564797413515625 0.9884672648331327 5.997542104672091 0 0 0
676 1 2 -1.1794 5.27820221110731 5.83466041873096 10.396525243474727 0 0 0
181 1 2 -1.1794 1.0695884956242319 5.812886674416293 5.917345295656231 0 0 0
112 1 2 -1.1794 0.9010163237423181 5.812709640048055 10.351426923731134 0 0 0
685 1 2 -1.1794 5.373400806856688 5.702676272108651 5.79652787358463 0 0 0
786 1 1 0.5897 0.18662492693057686 2.7612042076313466 6.39690068253677 0 0 0
166 1 2 -1.1794 3.24088011441779 1.9457307781627342 13.174622860961756 0 0 0
167 1 1 0.5897 3.15924540983485 1.9354448813362428 12.22094014981089 0 0 0
457 1 2 -1.1794 5.375121540039074 3.2217798599634047 14.132584606502677 0 0 0
458 1 1 0.5897 6.145220317787067 2.718048068545788 13.869229288442016 0 0 0
459 1 1 0.5897 4.6343817965192935 2.731642774496783 13.775890270584323 0 0 0
762 1 1 0.5897 5.401897961344913 4.938775451312695 13.40306963863409 0 0 0
594 1 1 0.5897 8.158462100120895 2.1193871170588103 13.38350362325455 0 0 0
168 1 1 0.5897 2.443062006413182 2.3780400057131605 13.479149196597747 0 0 0
468 1 1 0.5897 0.8258858795921385 3.013234661522229 14.963827401516808 0 0 0
466 1 2 -1.1794 0.8105755467168745 3.022637545398078 14.006768304847112 0 0 0
593 1 1 0.5897 7.219304842686642 0.933262556024164 13.437423580773594 0 0 0
592 1 2 -1.1794 7.343477373375282 1.7817607738477272 13.012095935874134 0 0 0
365 1 1 0.5897 0.7958563310871346 4.636305061788652 13.460356043481744 0 0 0
71 1 1 0.5897 5.491341687981873 3.233753328433319 15.934319111009048 0 0 0
357 1 1 0.5897 7.419828352461419 1.8922329133285838 11.23257295248309 0 0 0
761 1 1 0.5897 5.3232324772245585 5.911308278186329 12.245472954180546 0 0 0
364 1 2 -1.1794 0.7359003607208038 5.528149705595653 13.117868497214008 0 0 0
113 1 1 0.5897 1.0217534869541085 5.720748461726792 11.296540385008953 0 0 0
760 1 2 -1.1794 5.263582456695565 5.8638540701414 13.199674026642693 0 0 0
737 1 1 0.5897 3.01774974761402 0.20828181626412956 13.73617419096758 0 1 0
754 1 2 -1.1794 7.8157867887120185 2.0041705621464017 17.585491568143752 0 0 0
21 1 1 0.5897 0.6278548832312281 4.073673994695589 21.098060948396274 0 0 0
277 1 2 -1.1794 5.15612093787964 5.67618620269187 17.802822495527337 0 0 0
755 1 1 0.5897 7.8547124878432095 1.9612524057026193 18.540959017644 0 0 0
290 1 1 0.5897 2.9836269756108966 1.0535177429001115 17.297071236193048 0 0 0
42 1 1 0.5897 7.581862276423618 1.0771980144362332 20.7556666241969 0 0 0
289 1 2 -1.1794 3.0739359117004135 1.954177519099022 17.608421203093528 0 0 0
41 1 1 0.5897 6.918392674499777 2.4303848403728385 20.612113087842836 0 0 0
143 1 1 0.5897 5.21579643191006 4.986893807485129 20.831374769867672 0 0 0
569 1 1 0.5897 2.215898011499329 2.3629146731024333 20.72642341059946 0 0 0
291 1 1 0.5897 2.2651840118672646 2.385608896498245 17.33286620607162 0 0 0
570 1 1 0.5897 2.9386630270130456 1.9139478007665827 19.474251185335312 0 0 0
40 1 2 -1.1794 7.74237567751566 1.9705565331231547 20.4516657411313 0 0 0
81 1 1 0.5897 2.860880248738012 0.2545368940730981 21.17428578271476 0 1 0
667 1 2 -1.1794 5.346607008076277 3.24835191119143 21.145058527940968 0 0 0
134 1 1 0.5897 0.6818070642301961 3.969013226269732 17.17694443722882 0 0 0
568 1 2 -1.1794 3.0036013979616896 1.907550176813644 20.42924947520426 0 0 0
756 1 1 0.5897 6.9526217798450425 2.372201935625409 17.39676104038152 0 0 0
669 1 1 0.5897 4.5438163522024695 2.7838732210591517 20.908557976152593 0 0 0
278 1 1 0.5897 5.32074162657159 4.779026248000197 17.51250064092092 0 0 0
19 1 2 -1.1794 0.7148456284414992 3.1725421559071765 21.408988657312285 0 0 0
133 1 2 -1.1794 0.767721261252886 3.1100898159915427 16.763242513491512 0 0 0
72 1 1 0.5897 4.61650903272252 2.8372943468728735 17.104514409932854 0 0 0
648 1 1 0.5897 0.4552889025240895 5.690776046451895 19.53752977551811 0 0 0
70 1 2 -1.1794 5.4638337237871415 3.2279813819899825 16.891136426680312 0 0 0
646 1 2 -1.1794 0.4170282206923678 5.702544029789063 20.493916307519733 0 0 0
142 1 2 -1.1794 5.128474670236393 5.885508401599598 20.513333756098667 0 0 0
144 1 1 0.5897 5.150395777728202 5.8057668006950225 19.559689632277127 0 0 0
323 1 1 0.5897 7.467097872911809 0.3216681946444175 17.046052168524447 0 1 0
571 1 2 -1.1794 0.5687091096136676 5.652217744001795 17.84080777121204 0 0 0
279 1 1 0.5897 4.307919243263339 5.900393433428402 17.420167907135927 0 0 0
253 1 2 -1.1794 2.941424995686285 6.997871832726462 2.1932915752590336 0 0 0
123 1 1 0.5897 3.2773567377203165 8.647098734671335 2.875794527295244 0 0 0
121 1 2 -1.1794 3.230468892515006 9.565515373117492 3.1414751717955425 0 0 0
122 1 1 0.5897 3.1889539734750474 9.537003465149219 4.097380463060359 0 0 0
44 1 1 0.5897 1.6846867521890232 10.442471046309564 2.5073454683947323 0 0 0
218 1 1 0.5897 5.976811736341242 10.734518381478514 2.4196250282157443 0 0 0
255 1 1 0.5897 2.2327470648665195 6.423913097697743 2.4840155911355946 0 0 0
219 1 1 0.5897 4.481642870878399 10.527162318522098 2.533712321947773 0 0 0
43 1 2 -1.1794 0.9844046513556177 10.907544742813208 2.0496489620402416 0 0 0
415 1 2 -1.1794 7.537242447315346 7.2276774353800235 2.0217820938193585 0 0 0
417 1 1 0.5897 8.32101350921922 6.833634437390468 2.4046546194639458 0 0 0
254 1 1 0.5897 2.836081231516612 7.046957238496661 1.243147552729949 0 0 0
217 1 2 -1.1794 5.137647036626603 11.137608190331319 2.1972539307443784 0 0 0
66 1 1 0.5897 7.501142530116591 9.765736112569893 3.8645877423554813 0 0 0
65 1 1 0.5897 7.594472155869096 8.877861220054912 2.6418956725710285 0 0 0
64 1 2 -1.1794 7.498705858413784 9.792439777010918 2.9077379169943556 0 0 0
416 1 1 0.5897 6.812787015422512 6.708551794089863 2.3708336491589757 0 0 0
162 1 1 0.5897 7.53683190301814 7.05106896882998 0.22387155852045063 0 0 1
773 1 1 0.5897 8.992481428995934 10.685251750612357 2.4690243553837945 0 0 0
396 1 1 0.5897 0.7099534092865397 10.948186111000021 0.259009673837584 0 0 0
138 1 1 0.5897 4.5418738159275165 6.221744017928396 2.7409085821766657 0 0 0
363 1 1 0.5897 5.173830697393324 10.953827915932658 0.39971275734232303 0 0 1
256 1 2 -1.1794 3.1126127906150027 9.8673394355694 10.592803475895243 0 0 0
12 1 1 0.5897 3.13506122430422 7.993676407928997 6.591945587533592 0 0 0
10 1 2 -1.1794 3.1683652325336307 7.098809386153867 6.930153247895323 0 0 0
794 1 1 0.5897 2.3486114138188476 10.12870558088821 6.212917611194653 0 0 0
526 1 2 -1.1794 7.610354013054305 7.018296534582455 9.355993908740164 0 0 0
577 1 2 -1.1794 5.392833066194937 11.054335604735913 6.786860717720646 0 0 0
145 1 2 -1.1794 7.670684327814014 7.122806080875264 6.582121769191314 0 0 0
551 1 1 0.5897 0.8069781463987917 11.02794824805189 7.749835825448309 0 0 0
114 1 1 0.5897 1.6624339282561915 6.314091836630503 10.05985188746725 0 0 0
580 1 2 -1.1794 5.355981737011776 10.988888368898417 9.581466685138338 0 0 0
650 1 1 0.5897 3.1351334742388293 7.278972517482775 8.652679996435586 0 0 0
822 1 1 0.5897 8.292314673027692 10.167267857041645 10.210683013271465 0 0 0
527 1 1 0.5897 7.729597774512098 7.905053679733882 9.696167590233236 0 0 0
15 1 1 0.5897 1.6274628069663346 10.61781252608465 9.9520347415167 0 0 0
582 1 1 0.5897 5.441250550552349 11.013622587544967 8.628368169183206 0 0 0
820 1 2 -1.1794 7.564158834457389 9.570127778142131 10.382079194756631 0 0 0
581 1 1 0.5897 6.0878650619377535 10.4457276131693 9.87388436068064 0 0 0
147 1 1 0.5897 7.62510923769807 7.025761904386424 7.533324433113563 0 0 0
649 1 2 -1.1794 3.1027981550323385 7.331235140512698 9.607928286100046 0 0 0
528 1 1 0.5897 8.391009094661959 6.544331961223406 9.642496339042832 0 0 0
13 1 2 -1.1794 0.8281953102163083 11.011099804630716 9.601837286418379 0 0 0
258 1 1 0.5897 3.8870578139994265 10.337350901577468 10.283815565532114 0 0 0
714 1 1 0.5897 7.547474540115823 8.87632236069258 5.984988321396732 0 0 0
257 1 1 0.5897 3.210421147414436 8.983860695032003 10.23759622105698 0 0 0
146 1 1 0.5897 6.920928206819745 6.626432525607439 6.254037148604239 0 0 0
578 1 1 0.5897 6.163667484293667 10.773682103203857 6.293683120149566 0 0 0
550 1 2 -1.1794 0.82311869201641 10.983250445213187 6.793793625845345 0 0 0
687 1 1 0.5897 4.63536110621551 6.13179426657735 6.229335309761046 0 0 0
651 1 1 0.5897 3.821279567994736 6.772047412954573 9.903333815786816 0 0 0
11 1 1 0.5897 2.3655030370213708 6.690052946563175 6.60693441708812 0 0 0
795 1 1 0.5897 3.8582822370522334 10.208645130612041 6.135069445674121 0 0 0
713 1 1 0.5897 8.405027906856112 10.121197377447544 6.067166615193022 0 0 0
793 1 2 -1.1794 3.1150124779647816 9.662731186901162 5.8787620778605385 0 0 0
677 1 1 0.5897 6.078572341689638 6.146409516054267 9.974185550104393 0 0 0
712 1 2 -1.1794 7.600563454826362 9.780724351029699 5.675934090508986 0 0 0
182 1 1 0.5897 0.22295710651955147 6.192958443102499 6.151636512100233 1 0 0
826 1 2 -1.1794 7.600834386079744 7.106281484652727 14.09131365753004 0 0 0
827 1 1 0.5897 6.802076326678662 6.637659880363029 13.84939630813025 0 0 0
332 1 1 0.5897 2.923301315673488 7.653900460580477 13.901667418556837 0 0 0
797 1 1 0.5897 2.8343134905868013 9.484766078494253 12.2865400890314 0 0 0
796 1 2 -1.1794 2.776442857797185 9.305776139269124 13.225105383948707 0 0 0
798 1 1 0.5897 2.024850895238594 9.819093882630174 13.521393646438048 0 0 0
722 1 1 0.5897 4.2096381860040974 10.31207728557448 13.771677375523954 0 0 0
261 1 1 0.5897 0.7793096000001527 10.866546749338019 14.886935595708575 0 0 0
723 1 1 0.5897 4.918359003063199 10.61631725562411 15.074388186986129 0 0 0
828 1 1 0.5897 7.64109298361669 7.035495648088155 15.04507056338954 0 0 0
259 1 2 -1.1794 0.6750664450105702 10.814861148940906 13.936812045162027 0 0 0
331 1 2 -1.1794 2.8818004306676723 6.7466749029081665 14.204146223621045 0 0 0
225 1 1 0.5897 2.7688353241959214 6.844550853192487 16.00462074295129 0 0 0
721 1 2 -1.1794 4.921694122201434 10.833521863049478 14.142138152157127 0 0 0
475 1 2 -1.1794 7.300962437229259 9.625180847865511 13.177038496455294 0 0 0
476 1 1 0.5897 6.467410955063949 9.941305738613654 13.525445149973429 0 0 0
477 1 1 0.5897 7.380488980575098 8.733807261731036 13.516754402334671 0 0 0
333 1 1 0.5897 3.7476813027688727 6.388669156222248 14.008682999891796 0 0 0
366 1 1 0.5897 1.502351040634739 5.975146540632819 13.476892694427395 0 0 0
851 1 1 0.5897 8.968151997501154 6.099640180923273 13.454930291748349 0 0 0
821 1 1 0.5897 7.522939970874954 9.50963510610362 11.336498908089583 0 0 0
104 1 1 0.5897 8.676371035146081 10.619472884060334 13.690340531237336 0 0 0
679 1 2 -1.1794 5.118678511014793 10.670996312116682 16.818482834656855 0 0 0
141 1 1 0.5897 7.48064557301819 8.830169493640081 20.704985357327097 0 0 0
361 1 2 -1.1794 5.108938472325999 10.923285895545305 21.388788052818477 0 0 0
9 1 1 0.5897 6.644218520426084 10.00420289725993 17.322476576121346 0 0 0
4 1 2 -1.1794 2.6891682987819414 7.057000618568449 21.30153625326551 0 0 0
627 1 1 0.5897 2.1626106001112673 9.945029232229802 17.318612305918514 0 0 0
394 1 2 -1.1794 0.5982130837622521 11.078453579720751 21.260905275381944 0 0 0
445 1 2 -1.1794 0.8119689609817864 11.13056202001208 16.62583759082316 0 0 0
140 1 1 0.5897 6.677032193209396 10.111588518738058 20.768589408359574 0 0 0
161 1 1 0.5897 6.622784403866898 6.753805334491568 20.99786683087636 0 0 0
690 1 1 0.5897 2.052309618330505 10.2517305521967 20.73038226133221 0 0 0
625 1 2 -1.1794 2.8855838328510184 9.440830398122095 17.691786977080348 0 0 0
688 1 2 -1.1794 2.7533957524544856 9.661549058687129 20.45407356018969 0 0 0
647 1 1 0.5897 1.2161461606036308 6.156949645334258 20.760501789433256 0 0 0
224 1 1 0.5897 2.8563128602851715 7.651057350226275 17.28286886250386 0 0 0
689 1 1 0.5897 3.557876677551338 10.09451814288309 20.739542062946626 0 0 0
711 1 1 0.5897 8.989798745560094 6.2194502186422005 17.50180195354693 0 0 0
626 1 1 0.5897 2.753483186550726 9.496266760499736 18.638247348730324 0 0 0
139 1 2 -1.1794 7.500449290905425 9.750028616519135 20.440881687635496 0 0 0
6 1 1 0.5897 2.726103183509358 7.967981376835725 21.009944993279618 0 0 0
521 1 1 0.5897 6.690873641290657 6.658133540370331 17.00057271617063 0 0 0
8 1 1 0.5897 7.350752803838367 9.74491467525613 18.636051629638658 0 0 0
7 1 2 -1.1794 7.45345433003095 9.648206450739893 17.68928170860653 0 0 0
160 1 2 -1.1794 7.477204981847921 7.126498701802609 21.21509527409794 0 0 0
5 1 1 0.5897 3.4734880420249263 6.65389863597499 20.92938244517761 0 0 0
522 1 1 0.5897 7.484728612557101 7.935300286008666 17.17523970101832 0 0 0
680 1 1 0.5897 4.284169269523733 10.30190849008953 17.107448984131963 0 0 0
223 1 2 -1.1794 2.793337193956794 6.753153102700409 16.957155479441056 0 0 0
287 1 1 0.5897 8.948025939929051 10.570356358504734 20.98080465325158 0 0 0
246 1 1 0.5897 8.920580776693585 10.521569996669193 17.050545563678668 0 0 0
572 1 1 0.5897 1.3559565524311425 6.078634810140858 17.502346811268183 0 0 0
462 1 1 0.5897 8.827293379877405 6.088547005803656 20.696483797683506 0 0 0
681 1 1 0.5897 5.026218232877901 11.613201310516917 16.959865746888575 0 0 0
520 1 2 -1.1794 7.540224028542074 7.054042171004968 16.805673865550823 0 0 0
200 1 1 0.5897 5.10543116327713 13.771279499960354 5.0837329500372155 0 0 0
173 1 1 0.5897 4.539410630378141 14.001599861368108 3.0693384060369038 0 0 0
172 1 2 -1.1794 5.310558725777616 13.527151919148364 3.379839194098899 0 0 0
374 1 1 0.5897 0.9635991869380562 13.552475113656268 3.9714781209331287 0 0 0
558 1 1 0.5897 3.2995323408865977 14.93380967873262 1.3820145437749844 0 0 0
556 1 2 -1.1794 3.2552421375816767 14.97296846852862 2.3374105270749173 0 0 0
557 1 1 0.5897 2.4386103687823333 14.525258579481841 2.558352339392016 0 0 0
478 1 2 -1.1794 7.320316429191717 14.916498067118486 2.1386591401942305 0 0 0
174 1 1 0.5897 5.245715533182638 12.666565970615801 2.965756310676299 0 0 0
293 1 1 0.5897 3.17591098454607 16.647436876114046 2.7298525438925387 0 0 0
479 1 1 0.5897 8.12230878045437 14.480733088259509 2.4268634596092387 0 0 0
449 1 1 0.5897 7.493316213035846 16.566825439867433 2.6772043435136217 0 0 0
480 1 1 0.5897 6.619302929271755 14.462469609724492 2.606219637665322 0 0 0
373 1 2 -1.1794 0.9695369476903337 13.509993413256359 3.015212970541761 0 0 0
308 1 1 0.5897 7.590800206236556 17.544124709155835 4.727478183676362 0 0 0
317 1 1 0.5897 7.359802935740506 14.83621689953569 0.39125086894359495 0 0 0
448 1 2 -1.1794 7.619148808124306 17.478899912259116 2.939042167322702 0 0 0
294 1 1 0.5897 3.0644877188925563 17.35877582133997 4.061628141369214 0 0 0
292 1 2 -1.1794 3.1119647360878804 17.51956722356649 3.11919703933718 0 0 0
45 1 1 0.5897 1.0769682420142737 11.817793592442593 2.3309931256871947 0 0 0
375 1 1 0.5897 0.16221932435905728 13.95072283753213 2.750385599408149 0 0 0
384 1 1 0.5897 3.0405815585602904 16.743378823488534 10.226642421411231 0 0 0
656 1 1 0.5897 1.5796477589737408 14.089975277928383 6.291457873604999 0 0 0
454 1 2 -1.1794 5.272101404967993 13.62347526946954 10.422769583035935 0 0 0
382 1 2 -1.1794 2.9383898060840408 17.65194926799213 10.510073538062358 0 0 0
811 1 2 -1.1794 3.0244775776763677 15.021501889964401 9.777460408113402 0 0 0
456 1 1 0.5897 5.305874440090908 12.71062440076259 10.136688236638934 0 0 0
813 1 1 0.5897 2.2550840950515503 14.551116016894088 10.098276987691985 0 0 0
17 1 1 0.5897 2.8803687067164416 14.949551965867174 7.969809363519719 0 0 0
766 1 2 -1.1794 0.689349154971661 13.642866270295736 10.46474945652083 0 0 0
239 1 1 0.5897 2.8445392012118074 16.574780660594403 6.282045302761921 0 0 0
377 1 1 0.5897 6.649478964273139 14.460631500512278 9.763406927645839 0 0 0
184 1 2 -1.1794 7.476660118688318 17.584899260785807 10.452587974810971 0 0 0
519 1 1 0.5897 8.132933522540638 14.385860960819135 6.44570296828575 0 0 0
812 1 1 0.5897 3.7681984476822454 14.50691502398896 10.090893317448169 0 0 0
18 1 1 0.5897 3.6235245708268047 14.47215684839478 6.740286173995468 0 0 0
376 1 2 -1.1794 7.381847048609001 15.020526461759259 9.505881276439075 0 0 0
16 1 2 -1.1794 2.8570968650130637 14.976388992341985 7.013245520826815 0 0 0
517 1 2 -1.1794 7.404497580865129 14.881781313740905 6.819351427849324 0 0 0
186 1 1 0.5897 7.437662783256683 16.666004181780526 10.187278228266955 0 0 0
378 1 1 0.5897 7.414883073509234 14.948832283624318 8.551918306641419 0 0 0
518 1 1 0.5897 7.528132891269885 15.77292877251884 6.4924768467864595 0 0 0
201 1 1 0.5897 5.869061595784785 14.02712045397883 6.3656480033551635 0 0 0
238 1 2 -1.1794 2.9596490713982786 17.40412442779124 5.818135145082152 0 0 0
199 1 2 -1.1794 5.069043367933301 13.623800281048213 6.028826783913321 0 0 0
579 1 1 0.5897 5.262220582881299 11.96691617275659 6.529160303932782 0 0 0
655 1 2 -1.1794 0.9194875016421984 13.58209497745842 5.819831885145989 0 0 0
307 1 2 -1.1794 7.466199480285877 17.47038325193848 5.673689392381906 0 0 0
59 1 1 0.5897 8.995682854174126 14.174015434479662 9.981893703693835 0 0 0
14 1 1 0.5897 0.8302781082435758 11.904790819214048 9.944750258007602 0 0 0
552 1 1 0.5897 0.8904007674504668 11.895574219682077 6.51198591079038 0 0 0
296 1 1 0.5897 7.240877104111282 14.940914389962238 15.08822952584449 0 0 0
232 1 2 -1.1794 2.605611795543287 14.73681629293919 13.885130415721108 0 0 0
234 1 1 0.5897 2.642721980101748 14.873706246143417 14.831788205303434 0 0 0
606 1 1 0.5897 3.017206654567311 16.474158868292683 13.370201041391226 0 0 0
427 1 2 -1.1794 4.93651509072279 13.468717273059218 13.28150032798316 0 0 0
233 1 1 0.5897 3.419274183468434 14.277738781869326 13.676942707206084 0 0 0
639 1 1 0.5897 1.1411070578288882 13.766388049766967 13.294868136621917 0 0 0
429 1 1 0.5897 5.722776581378711 13.888264837049524 13.630674128938352 0 0 0
428 1 1 0.5897 4.972361091668542 12.57349394217309 13.618506820951064 0 0 0
637 1 2 -1.1794 0.2944270174121285 13.38124561495048 13.069194184918175 0 0 0
638 1 1 0.5897 0.35850965282976266 12.47221040247476 13.362148450850004 0 0 0
295 1 2 -1.1794 7.157018399626862 14.941360477585741 14.134685789383482 0 0 0
270 1 1 0.5897 7.396681050675293 16.640603822212352 13.520976970087453 0 0 0
297 1 1 0.5897 7.966882549263958 14.537999606149764 13.822334163645028 0 0 0
455 1 1 0.5897 5.299381398468574 13.576629778283321 11.378462524975175 0 0 0
767 1 1 0.5897 0.47514652950410996 13.586596791752878 11.395994959262763 0 0 0
268 1 2 -1.1794 7.585839090020027 17.528666573293684 13.217920777354367 0 0 0
269 1 1 0.5897 7.493878087020258 17.482175514646958 12.266260228086532 0 0 0
605 1 1 0.5897 2.9710425121314583 17.49691891022317 12.254927210252841 0 0 0
604 1 2 -1.1794 3.0544794544290688 17.4163092376612 13.205101941785195 0 0 0
824 1 1 0.5897 3.6138129779522874 14.440864599935571 16.916035592213632 0 0 0
664 1 2 -1.1794 2.9645573539420402 14.917700850675518 21.44227636755428 0 0 0
117 1 1 0.5897 8.683935903742707 13.902650995940075 20.44490414991259 0 0 0
716 1 1 0.5897 2.8804179426039553 17.47112111162402 19.397754423471667 0 0 0
157 1 2 -1.1794 7.412609459085848 17.43150328063458 20.611685042451846 0 0 0
452 1 1 0.5897 0.6375341501151782 12.80367901408334 20.73338862668087 0 0 0
125 1 1 0.5897 4.991971971475279 13.39916264756013 18.46817843754038 0 0 0
124 1 2 -1.1794 4.966832326405501 13.34658721645403 17.512730914425752 0 0 0
684 1 1 0.5897 4.317806967802242 13.911985809200656 20.694263159710545 0 0 0
715 1 2 -1.1794 2.8666393571691255 17.450490479901372 20.354656530353864 0 0 0
666 1 1 0.5897 2.980400286634844 15.807981399080514 21.090956998943838 0 0 0
316 1 2 -1.1794 7.425460990744413 14.817422899629255 21.38007365340024 0 0 0
52 1 2 -1.1794 0.6523184843251815 13.63409913131253 17.704273759332295 0 0 0
318 1 1 0.5897 7.468016081215263 15.738846958219577 21.124254170956753 0 0 0
665 1 1 0.5897 2.121983555939668 14.562853137961929 21.158942848176345 0 0 0
584 1 1 0.5897 2.8539985097521066 16.669873760092436 17.236563852454218 0 0 0
683 1 1 0.5897 5.827619808754214 14.003333819295227 20.63369024006399 0 0 0
126 1 1 0.5897 5.7604577996767885 13.798718696637346 17.22652342715702 0 0 0
682 1 2 -1.1794 5.085690870726277 13.500454694356174 20.2978134598427 0 0 0
50 1 1 0.5897 7.16407819431987 15.76589668765619 17.26961237253441 0 0 0
53 1 1 0.5897 0.5600009250255844 13.820419640246918 18.638639102334338 0 0 0
451 1 2 -1.1794 0.6566864985544401 13.724664476442785 20.473194568572595 0 0 0
825 1 1 0.5897 2.118800659964914 14.537370638607948 17.133238412235627 0 0 0
51 1 1 0.5897 7.897896202095385 14.450022481387554 17.12168661693861 0 0 0
610 1 2 -1.1794 7.318742749071324 17.465867495095416 17.890501987472746 0 0 0
159 1 1 0.5897 7.335646148077379 17.52669999253931 19.662322152300902 0 0 0
823 1 2 -1.1794 2.848440314417083 14.968699179934692 16.688546912592756 0 0 0
583 1 2 -1.1794 2.7055354048351337 17.568195069914594 17.531944210624502 0 0 0
362 1 1 0.5897 5.081163688172478 11.841760890441712 21.120615486515554 0 0 0
446 1 1 0.5897 0.8848858439213481 12.027959120113655 16.950858805820523 0 0 0
49 1 2 -1.1794 7.090049848916939 14.898422983762135 16.87176366092792 0 0 0
267 1 1 0.5897 6.225935197743424 21.797241653461835 2.69533692628412 0 0 0
696 1 1 0.5897 1.5598818265824312 21.77680585623823 2.699583900577597 0 0 0
266 1 1 0.5897 4.718994975996965 21.7118598439596 2.810952734978342 0 0 0
265 1 2 -1.1794 5.526321042253522 21.3014136760273 3.1206244768030404 0 0 0
344 1 1 0.5897 1.6957956963711207 18.33667112540843 2.5095376596070493 0 0 0
228 1 1 0.5897 5.35129911275551 19.648135593254032 2.54452036149487 0 0 0
343 1 2 -1.1794 0.8683619669303634 18.67847995817079 2.1709354709055684 0 0 0
817 1 2 -1.1794 7.567255747699154 22.590212834524205 1.9741692460558284 0 0 0
249 1 1 0.5897 5.5965889366307735 21.218596599335406 4.902257200396415 0 0 0
226 1 2 -1.1794 5.2754900154260795 18.778529904103085 2.151692493307525 0 0 0
187 1 2 -1.1794 3.1924376835587087 22.485412065644656 2.2734165205230528 0 0 0
695 1 1 0.5897 0.7738066007870522 20.484610249554958 2.7643742999428524 0 0 0
694 1 2 -1.1794 0.6905276465056993 21.428830050045168 2.897743258348885 0 0 0
818 1 1 0.5897 8.414005706191938 22.294456876910775 2.3083468405911622 0 0 0
498 1 1 0.5897 7.624390486287004 22.616174531364717 0.1915572472877265 0 0 0
189 1 1 0.5897 3.1525144671827614 22.53834248259922 1.3184925929112203 0 0 0
413 1 1 0.5897 0.6721162392426 21.478898403621326 4.751588895904861 0 0 0
227 1 1 0.5897 4.552207098160061 18.36469423994904 2.622620467125148 0 0 0
345 1 1 0.5897 0.9795630187211726 18.677992675143578 1.2201941099500806 0 0 0
602 1 1 0.5897 5.180997859141135 18.77757437827999 0.28842431602245183 0 0 0
188 1 1 0.5897 3.2461079871088856 23.396449548962497 2.5622380431735006 0 0 0
450 1 1 0.5897 6.823148109662762 17.924013906991615 2.648523518244597 0 0 0
819 1 1 0.5897 7.460959582708161 23.470384883991198 2.335100325355581 0 -1 0
555 1 1 0.5897 5.2474663011459475 20.645405427524413 9.940016243555652 0 0 0
342 1 1 0.5897 0.6199755417504338 18.95912549833387 7.415211906406984 0 0 0
87 1 1 0.5897 8.287498482548212 22.225865479947252 9.875208095295159 0 0 0
37 1 2 -1.1794 2.949012620884461 22.659536185183573 9.264857826001704 0 0 0
86 1 1 0.5897 7.636446405203203 22.528596219345932 8.542383529476789 0 0 0
414 1 1 0.5897 0.6247783263164811 20.63482007962338 6.0074969613116815 0 0 0
32 1 1 0.5897 8.438255599688722 22.00088424118866 6.492829136313731 0 0 0
404 1 1 0.5897 1.5146283469665804 18.441863375866973 9.707139685367629 0 0 0
39 1 1 0.5897 3.7278272666944607 22.267502756667064 9.659705668510801 0 0 0
553 1 2 -1.1794 5.1572861487822435 21.529411655867918 10.295931458822146 0 0 0
701 1 1 0.5897 3.146681039819693 22.718443783925558 7.492698340727125 0 0 0
412 1 2 -1.1794 0.7407054512172973 21.53545411005551 5.704676684019014 0 0 0
387 1 1 0.5897 5.232804086520233 19.573915913427335 6.37851459704969 0 0 0
102 1 1 0.5897 5.225044836099546 18.86818009584437 8.546181403232596 0 0 0
700 1 2 -1.1794 3.218193330253991 22.63511962426709 6.541788748728171 0 0 0
385 1 2 -1.1794 5.1771355126087295 18.699479871177186 6.763937662984494 0 0 0
702 1 1 0.5897 2.3985239487238283 22.219012436259653 6.2750108194492595 0 0 0
38 1 1 0.5897 2.2256771200290277 22.107645628537256 9.562131094885421 0 0 0
101 1 1 0.5897 6.0309964816335695 18.487868781324675 9.769975017795884 0 0 0
341 1 1 0.5897 1.4059405957532447 18.574257840750562 6.179883367492838 0 0 0
33 1 1 0.5897 6.926046710369923 22.052477901087613 6.447077694211556 0 0 0
247 1 2 -1.1794 5.487954834745289 21.246305520956483 5.852899447161017 0 0 0
85 1 2 -1.1794 7.548883270397196 22.69041932002126 9.481758212944394 0 0 0
554 1 1 0.5897 5.970924225027166 21.97053903767653 10.051932820882639 0 0 0
340 1 2 -1.1794 0.5952153449701935 18.999548382281322 6.459159428219354 0 0 0
386 1 1 0.5897 5.969286573209865 18.253969950057385 6.463652182157626 0 0 0
31 1 2 -1.1794 7.687670283662138 22.497574583558567 6.818526052042279 0 0 0
100 1 2 -1.1794 5.225999427639894 18.93055630974595 9.50137125000317 0 0 0
248 1 1 0.5897 4.703902079216003 21.77806734335799 5.989447788898336 0 0 0
403 1 2 -1.1794 0.7702517929802288 18.810441460885738 9.231521695322963 0 0 0
94 1 2 -1.1794 0.78623520552914 21.341412963322583 10.168824610169011 0 0 0
405 1 1 0.5897 0.690432161470563 19.703839828979422 9.5657996387476 0 0 0
383 1 1 0.5897 3.7029323491581208 18.102633962259766 10.151585303264632 0 0 0
240 1 1 0.5897 3.7716727203330564 17.766504133266576 6.172313046870866 0 0 0
185 1 1 0.5897 8.2820199661189 17.915552299546793 10.054832258480303 0 0 0
309 1 1 0.5897 8.180283971932468 17.984390308777854 6.050586507759692 0 0 0
380 1 1 0.5897 0.870227281631988 20.464244428108096 13.118335750710543 0 0 0
88 1 2 -1.1794 5.189297675846913 21.375724802589723 13.145083202686013 0 0 0
381 1 1 0.5897 1.5481174958413766 21.80943529020699 13.269483533633219 0 0 0
90 1 1 0.5897 5.272030644177639 20.44528140102569 13.354182251111135 0 0 0
763 1 2 -1.1794 5.331402323437737 18.727676219289858 14.137508644271865 0 0 0
738 1 1 0.5897 3.7133716555463767 22.241112482290795 13.823871055758088 0 0 0
89 1 1 0.5897 5.093200044332727 21.400120177563924 12.193009461715752 0 0 0
764 1 1 0.5897 4.617428471670414 18.20839362016761 13.767687097052015 0 0 0
474 1 1 0.5897 5.022074579462707 18.786446667019913 15.926272479310496 0 0 0
765 1 1 0.5897 6.127493430583612 18.295126325617655 13.828820429898583 0 0 0
350 1 1 0.5897 2.7510928324215316 22.69411183548359 15.838805477219358 0 0 0
736 1 2 -1.1794 2.895049420744769 22.685364959965973 14.04552193134589 0 0 0
787 1 2 -1.1794 7.385257156765283 22.640373447399654 14.044402428762613 0 0 0
503 1 1 0.5897 1.5060834528929388 18.15995207761657 13.685066523616733 0 0 0
504 1 1 0.5897 0.7020220335038355 18.815740232562753 14.787472941618233 0 0 0