LAMMPS data file via write_data, version 30 Jul 2021, timestep = 20750000

864 atoms
2 atom types
576 bonds
1 bond types
288 angles
1 angle types

0.11892323694370965 18.088649163064286 xlo xhi
0.09714135954223302 23.532036440469856 ylo yhi
0.15111572406937057 22.062080075927604 zlo zhi

Masses

1 1.00794
2 15.9994

Atoms # full

707 1 1 0.5897 2.871670595142802 2.32166957506478 4.2392375299329785 0 0 0
706 1 2 -1.1794 2.856802654431202 2.1161940970451782 3.3043477629241393 0 0 0
30 1 1 0.5897 5.2376570078067015 3.917842577813641 2.4449447589258146 0 0 0
708 1 1 0.5897 2.0954668172746427 2.5881438673608836 2.9669292928401294 0 0 0
29 1 1 0.5897 4.403394902148487 2.6924002429325555 2.751928673156674 0 0 0
28 1 2 -1.1794 5.27202619706702 2.961276196066052 2.452915849885765 0 0 0
3 1 1 0.5897 0.8065638574053845 4.544622737724806 2.5505688487559666 0 0 0
846 1 1 0.5897 7.45461419195074 1.6187065733744903 4.574739198947965 0 0 0
495 1 1 0.5897 8.149899799611182 2.081041669344555 2.892072115649814 0 0 0
494 1 1 0.5897 6.647389788258974 2.0076978452166303 2.722294258087345 0 0 0
493 1 2 -1.1794 7.417540766634494 1.4647003581683198 2.8903051549565664 0 0 0
20 1 1 0.5897 0.723992652031141 3.378600021048482 0.5720529252620206 0 0 0
1 1 2 -1.1794 0.8256779511516638 3.6499190260919265 2.2108294471676393 0 0 0
136 1 2 -1.1794 5.145739200554101 5.668704734834335 2.6671272191443345 0 0 0
137 1 1 0.5897 5.245174056658532 5.804764388097133 3.6095019024754005 0 0 0
188 1 1 0.5897 2.9131705389409692 0.31841005533441047 2.692196406800802 0 1 0
844 1 2 -1.1794 7.471079569815779 1.669904184635103 5.5305587086818875 0 0 0
685 1 2 -1.1794 5.176293394837696 5.787006771666938 5.501964567554049 0 0 0
668 1 1 0.5897 5.125778135728196 3.3342634704991254 0.5931378392598834 0 0 0
83 1 1 0.5897 4.752650266154014 2.864724751022672 6.644288597047554 0 0 0
784 1 2 -1.1794 0.88419197867505 3.5128607610809057 7.0133035904778405 0 0 0
82 1 2 -1.1794 5.570737631658909 3.2760247022230478 6.923224817059168 0 0 0
686 1 1 0.5897 5.420142530289687 4.956853075845333 5.911436067138537 0 0 0
674 1 1 0.5897 3.8317637497809356 2.296563125067397 9.82676405335514 0 0 0
356 1 1 0.5897 7.5184895723573995 0.6496282278979317 10.225183537177085 0 0 0
34 1 2 -1.1794 0.6119892470547346 3.294987318442552 9.806733131229647 0 0 0
112 1 2 -1.1794 0.9930941151822235 5.841688725251314 10.420772563805714 0 0 0
786 1 1 0.5897 0.18915735640324027 2.9872301358585824 6.617201874376467 0 0 0
673 1 2 -1.1794 3.0227457212476088 1.907845397540613 10.159357510536971 0 0 0
845 1 1 0.5897 7.557146532647266 0.7609783927765399 5.8181773262778504 0 0 0
274 1 2 -1.1794 5.60197168888548 3.084494499520919 9.687452406229365 0 0 0
678 1 1 0.5897 5.540908787692943 4.84072309051756 10.233202165179364 0 0 0
35 1 1 0.5897 0.7255919544694783 4.203869998059712 10.084737511480371 0 0 0
36 1 1 0.5897 1.471645094496026 2.8948393470939062 9.93734001403243 0 0 0
355 1 2 -1.1794 7.691243156135 1.5601198362964845 10.464808958024095 0 0 0
676 1 2 -1.1794 5.530327992674038 5.777673961786742 10.428869070760204 0 0 0
84 1 1 0.5897 6.256840955019716 2.7294480564608747 6.540129435302705 0 0 0
276 1 1 0.5897 6.295784802419343 2.5054124892586564 10.0029403804404 0 0 0
675 1 1 0.5897 3.0839174226443915 0.9834681286310718 9.918435951490299 0 0 0
275 1 1 0.5897 5.649632017719482 3.018707375719589 8.73354500141955 0 0 0
183 1 1 0.5897 0.7484830362544893 5.077941819642427 6.199866956479692 0 0 0
785 1 1 0.5897 0.6929730380375806 3.4961925374819196 7.951191175880066 0 0 0
488 1 1 0.5897 2.2831585988201453 2.585281387766403 6.538360488278347 0 0 0
487 1 2 -1.1794 3.0453516883874348 2.204753542896456 6.10189887447589 0 0 0
176 1 1 0.5897 9.04564791827026 2.5231165512746454 9.6843644346498 0 0 0
489 1 1 0.5897 2.976974586217041 1.265785858437791 6.274844757932139 0 0 0
166 1 2 -1.1794 3.0615801441942705 1.8074551232379663 12.982333489948356 0 0 0
167 1 1 0.5897 2.967372955702362 1.7607496922659966 12.03078687792593 0 0 0
457 1 2 -1.1794 5.412677096137008 2.9851553535542985 14.23673973203668 0 0 0
458 1 1 0.5897 6.160505725589911 2.5012816496566757 13.88625008589935 0 0 0
459 1 1 0.5897 4.646915294553469 2.5290067895566195 13.8877971552711 0 0 0
762 1 1 0.5897 5.358876661074411 4.716630696235842 13.501116506956125 0 0 0
594 1 1 0.5897 8.411196548136084 2.0581576062657976 13.477069053884714 0 0 0
168 1 1 0.5897 2.2179856259498725 2.1379222654981516 13.291159904332856 0 0 0
365 1 1 0.5897 0.8216806103032623 4.890072674719814 13.528753458838715 0 0 0
468 1 1 0.5897 0.754164187420519 2.9607891000710502 15.15825477829577 0 0 0
593 1 1 0.5897 7.728587247325215 0.706875764896352 13.478088602039474 0 0 0
592 1 2 -1.1794 7.6232555616659505 1.6079307143640058 13.172646129386926 0 0 0
466 1 2 -1.1794 0.8147153457723015 3.1274709643420735 14.217498950065261 0 0 0
71 1 1 0.5897 5.111355602619371 2.945641198592482 16.03311027115282 0 0 0
364 1 2 -1.1794 0.8339164911614152 5.8044902187547995 13.245992649389127 0 0 0
760 1 2 -1.1794 5.505265918328299 5.5922251012995705 13.143093732688742 0 0 0
113 1 1 0.5897 0.8918014776695611 5.83889649545271 11.372718409620331 0 0 0
761 1 1 0.5897 5.546143987586772 5.460483435888672 12.195759235945431 0 0 0
357 1 1 0.5897 7.673240020311089 1.5639934850426334 11.421957933625 0 0 0
737 1 1 0.5897 2.915795264749804 0.11919798829549741 13.489559901357211 0 1 0
851 1 1 0.5897 8.94030707461676 5.9275064368712425 13.46901816762479 0 0 0
754 1 2 -1.1794 7.496851850397838 1.672371303702547 17.86186445594457 0 0 0
19 1 2 -1.1794 0.5091087632550035 3.2058830634604067 21.566236040917598 0 0 0
360 1 1 0.5897 8.891186069960842 3.0493146043480612 21.27375446247838 0 0 0
755 1 1 0.5897 7.43559606667399 1.813413684900668 18.806764583117083 0 0 0
290 1 1 0.5897 3.007291663638977 0.9097627598041698 17.51859471917775 0 0 0
42 1 1 0.5897 7.191320214419284 1.4083928012245452 20.97779857421196 0 0 0
289 1 2 -1.1794 2.915711855046917 1.707268493438052 18.040039256605695 0 0 0
41 1 1 0.5897 6.438870754749844 2.7156044351169104 20.847635335336985 0 0 0
143 1 1 0.5897 5.176354896456239 5.128890599857806 20.962397577013395 0 0 0
569 1 1 0.5897 2.1091921676499608 2.3348278911811593 21.114091244648737 0 0 0
646 1 2 -1.1794 0.5945534856003837 5.859704566844456 20.539078485130048 0 0 0
570 1 1 0.5897 2.8844965398262947 1.830824652884399 19.915280160515856 0 0 0
40 1 2 -1.1794 7.2496048270576985 2.2795597178701987 20.585381588040974 0 0 0
291 1 1 0.5897 2.1366224424513796 2.1367575297164176 17.68678519642622 0 0 0
667 1 2 -1.1794 5.023337291190639 3.4540521101258213 21.559842233618042 0 0 0
72 1 1 0.5897 4.318949235277111 2.582095222883926 17.270942412103473 0 0 0
568 1 2 -1.1794 2.8992992590047684 1.8516352829161369 20.872266813887055 0 0 0
756 1 1 0.5897 6.737896243292845 2.1306651059130903 17.50103072210503 0 0 0
669 1 1 0.5897 4.2242017961247305 2.9741729544784783 21.342337538506907 0 0 0
278 1 1 0.5897 5.301594842959089 4.618291593377762 17.610151024788916 0 0 0
648 1 1 0.5897 0.5566002942095427 5.790286204592071 19.58502844056952 0 0 0
134 1 1 0.5897 0.766668754973238 3.9470998791284546 17.302096450310707 0 0 0
21 1 1 0.5897 0.563127573548144 4.062071611683534 21.141606547000936 0 0 0
81 1 1 0.5897 3.2594957604049264 0.11814373976212456 21.304114832850953 0 1 0
571 1 2 -1.1794 0.7213937021431192 5.608658245379065 17.76927818936287 0 0 0
572 1 1 0.5897 1.5655597253698958 5.921735646245644 17.44433245925479 0 0 0
144 1 1 0.5897 5.499536770976657 5.861369474358794 19.67733746361817 0 0 0
70 1 2 -1.1794 5.157105709290277 2.948708992475614 16.989357316538342 0 0 0
133 1 2 -1.1794 0.8236385268030202 3.051235884922105 16.969729643368098 0 0 0
599 1 1 0.5897 8.946015790762598 2.5858766591165847 17.058197991961492 0 0 0
277 1 2 -1.1794 5.302027020686398 5.531640342779137 17.89660498149846 0 0 0
279 1 1 0.5897 4.465764515252011 5.880337526901131 17.587926163312545 0 0 0
253 1 2 -1.1794 2.9688531389381025 7.2317420115492554 1.7416513928471216 0 0 0
123 1 1 0.5897 3.2906223657859894 8.872697172641383 2.430864954270105 0 0 0
121 1 2 -1.1794 3.2891864488782896 9.791895518861816 2.6979815119277073 0 0 0
122 1 1 0.5897 3.421922646076615 9.766682873914126 3.6457316262123434 0 0 0
44 1 1 0.5897 1.5401552306799315 10.64521278996976 2.1739832638332364 0 0 0
218 1 1 0.5897 6.038185462755092 10.80808872830002 2.183705019042189 0 0 0
417 1 1 0.5897 8.242337997956888 6.72541247003122 2.286359573582368 0 0 0
219 1 1 0.5897 4.53136126896543 10.91877361699978 2.089026318555473 0 0 0
43 1 2 -1.1794 0.6840412181332904 10.984042461677985 1.9123285096280087 0 0 0
415 1 2 -1.1794 7.509614263656101 7.230022969491185 1.9332167860349139 0 0 0
255 1 1 0.5897 2.1739579176950756 6.958987552022344 2.19989592420056 0 0 0
254 1 1 0.5897 2.76338369488595 7.114683720293891 0.8140004877563529 0 0 0
217 1 2 -1.1794 5.337710091453074 11.410418678803191 1.9332074610583845 0 0 0
66 1 1 0.5897 7.495653372435888 9.915631032011992 3.51230297140592 0 0 0
65 1 1 0.5897 7.55928229454831 8.890915768608684 2.399577804312448 0 0 0
64 1 2 -1.1794 7.539599148582572 9.834483097164355 2.559432618256573 0 0 0
416 1 1 0.5897 6.739013067447385 6.690970649387336 2.111531583122984 0 0 0
597 1 1 0.5897 0.7516837513541338 6.293323049031098 4.046762199746315 0 0 0
793 1 2 -1.1794 3.2191128842228074 9.678269137206561 5.514146065240822 0 0 0
138 1 1 0.5897 4.383729937299895 6.1961104943683525 2.427562977560345 0 0 0
363 1 1 0.5897 5.36604025299195 11.108390171774477 0.3012183338494412 0 0 1
162 1 1 0.5897 7.754922618714037 7.171873015497886 0.24319020691968202 0 0 1
773 1 1 0.5897 9.009141941610702 10.90519582862717 2.2107446668750175 0 0 0
595 1 2 -1.1794 0.6987462809795392 6.322576382826837 3.091342159658168 0 0 0
712 1 2 -1.1794 7.372438498347588 10.00036738602996 5.421555155144439 0 0 0
794 1 1 0.5897 2.3745147800911703 10.082084876152402 5.713597201448744 0 0 0
12 1 1 0.5897 3.3031628356922904 7.889856625770982 6.39780426778583 0 0 0
10 1 2 -1.1794 3.2035628854702214 7.059872274868522 6.864171603938726 0 0 0
677 1 1 0.5897 6.311457912962971 6.122068120906973 9.99588490187494 0 0 0
526 1 2 -1.1794 7.578737710142005 6.951465473791753 8.981096377669006 0 0 0
577 1 2 -1.1794 5.27626691776336 11.051261162354034 6.686656233760544 0 0 0
145 1 2 -1.1794 7.290230048575019 7.295842446050897 6.245406010129172 0 0 0
713 1 1 0.5897 8.22112923418499 10.265570707188722 5.775976782764736 0 0 0
256 1 2 -1.1794 3.2513258405443612 9.715923861501171 10.555297807831067 0 0 0
580 1 2 -1.1794 5.232818076056423 11.078157784254449 9.526370573409622 0 0 0
650 1 1 0.5897 3.200062623174788 7.088463933337077 8.772564613001913 0 0 0
822 1 1 0.5897 8.597469617902634 9.964327022061571 9.901589922906908 0 0 0
527 1 1 0.5897 7.69699770651984 7.8597685150124565 9.259048166792763 0 0 0
15 1 1 0.5897 1.8489717225851028 10.460836495620834 9.620095475537054 0 0 0
582 1 1 0.5897 5.162123061495273 10.954903053680503 8.579651683865249 0 0 0
820 1 2 -1.1794 7.793818374057025 9.457167930581774 10.016373416746822 0 0 0
581 1 1 0.5897 5.9879063931617615 10.548187679577087 9.781693122480451 0 0 0
147 1 1 0.5897 7.3236277633443825 7.215902989730661 7.198802973382914 0 0 0
649 1 2 -1.1794 3.2820560637016056 7.140746774314322 9.724938689122515 0 0 0
165 1 1 0.5897 8.648464872821098 6.143786858437356 5.922221814441654 0 0 0
550 1 2 -1.1794 0.7202014483208089 10.686702890283396 6.440811407357151 0 0 0
258 1 1 0.5897 3.9773464410453965 10.195784235476415 10.156720874131373 0 0 0
528 1 1 0.5897 8.29325935661836 6.475886856787128 9.40482295766658 0 0 0
257 1 1 0.5897 3.401476452895932 8.803767762342506 10.306933396219197 0 0 0
11 1 1 0.5897 2.3430596653817446 6.736506060367596 6.5973969957091505 0 0 0
578 1 1 0.5897 6.07864953568369 10.674657569999361 6.325277082075177 0 0 0
551 1 1 0.5897 0.8893245137874188 10.693532769305648 7.383051455632055 0 0 0
114 1 1 0.5897 1.833359139464911 6.274633863444046 10.270107944101834 0 0 0
146 1 1 0.5897 6.465665146254452 6.877291534534754 5.998189868756363 0 0 0
795 1 1 0.5897 3.8472221211876767 10.155473420670162 6.056398393674882 0 0 0
651 1 1 0.5897 4.099337484791669 6.682684888719276 9.920971636205952 0 0 0
13 1 2 -1.1794 1.0625032980441103 10.807241252186236 9.198544409326566 0 0 0
714 1 1 0.5897 7.297105972116945 9.073276052369105 5.647611607511139 0 0 0
687 1 1 0.5897 4.3386553253851305 6.016181384114429 5.9045385931197085 0 0 0
181 1 2 -1.1794 0.736314112110783 6.003188738676445 5.954838120936127 0 0 0
552 1 1 0.5897 0.841260883443733 11.596381822082371 6.168617003598732 0 0 0
14 1 1 0.5897 0.9481801574521301 11.676955444182838 9.581692908028993 0 0 0
821 1 1 0.5897 7.680204152984595 9.398951141031889 10.96514660853838 0 0 0
826 1 2 -1.1794 7.612330036999008 7.009789180015968 14.09864776570167 0 0 0
827 1 1 0.5897 6.8914767664291725 6.478694809609476 13.760189452844218 0 0 0
332 1 1 0.5897 3.256022333467312 7.937911935208769 13.701558583068111 0 0 0
797 1 1 0.5897 2.9852805358492414 9.613051771982512 12.260811948856784 0 0 0
796 1 2 -1.1794 2.9804970432887083 9.594589399120986 13.217946666553678 0 0 0
798 1 1 0.5897 2.279435089675918 10.197207711943852 13.466133007161455 0 0 0
722 1 1 0.5897 4.608798902936458 10.270397897000205 13.37847160504819 0 0 0
261 1 1 0.5897 0.8739457062880691 10.969650010296823 14.711042522070988 0 0 0
723 1 1 0.5897 5.291578613922351 10.543208339964892 14.701993198839254 0 0 0
828 1 1 0.5897 7.536470041055642 6.938958174772001 15.050352428857863 0 0 0
259 1 2 -1.1794 0.8960579078623513 11.145393750210754 13.770247098462919 0 0 0
331 1 2 -1.1794 3.230919422728477 7.016433564111578 13.95949364494784 0 0 0
225 1 1 0.5897 3.0275949745729003 6.533938719339376 15.795692344591467 0 0 0
721 1 2 -1.1794 5.398635578739572 10.656138359453717 13.757397817769357 0 0 0
475 1 2 -1.1794 7.73480821356982 9.424453571341848 12.849761665060548 0 0 0
476 1 1 0.5897 6.94929943824016 9.871604548482189 13.164796470355935 0 0 0
477 1 1 0.5897 7.76564037546594 8.61060038386211 13.352749233534082 0 0 0
333 1 1 0.5897 4.037435349131232 6.645095913710497 13.601900101390807 0 0 0
104 1 1 0.5897 9.02725619157753 10.483179193696596 13.508193816241146 0 0 0
366 1 1 0.5897 1.6611842192792867 6.14871604771155 13.582663308003362 0 0 0
396 1 1 0.5897 0.8902410125660094 11.142996124774156 21.967880157155328 0 0 -1
141 1 1 0.5897 7.857977468519716 8.949778776434467 20.885129166810632 0 0 0
521 1 1 0.5897 6.895344651838367 6.210806660368004 17.19132179675009 0 0 0
9 1 1 0.5897 6.634294056891219 9.661032090322264 17.527400174232888 0 0 0
4 1 2 -1.1794 2.942183726266206 7.075013695796974 20.93082474600411 0 0 0
627 1 1 0.5897 2.1595106844570036 9.762967147807162 17.279673081212405 0 0 0
246 1 1 0.5897 8.711326231073125 9.94163425605276 17.17180196336171 0 0 0
224 1 1 0.5897 2.833269016413976 7.4216042950794 17.006713117004864 0 0 0
140 1 1 0.5897 6.971166357024861 10.175121524569613 20.82197309487293 0 0 0
223 1 2 -1.1794 3.029364588558277 6.519719045376861 16.75291115900448 0 0 0
690 1 1 0.5897 2.446532731993237 10.506505458415932 20.408909124164765 0 0 0
625 1 2 -1.1794 2.8483488869848412 9.180369494611679 17.599531342166504 0 0 0
688 1 2 -1.1794 3.052674334701836 9.773405134652801 20.30227549191213 0 0 0
522 1 1 0.5897 7.686478869577348 7.499551672863409 17.119848113747516 0 0 0
361 1 2 -1.1794 5.327160122999126 10.96865662611507 21.26591220929252 0 0 0
689 1 1 0.5897 3.8991227118343144 10.11872334091173 20.585976566512798 0 0 0
161 1 1 0.5897 6.993865749932251 6.675565278639613 20.943062689701208 0 0 0
626 1 1 0.5897 2.8498841870821026 9.30861450528296 18.548225515201807 0 0 0
139 1 2 -1.1794 7.782763281479559 9.809202337558325 20.470357938173088 0 0 0
6 1 1 0.5897 2.979325959534884 7.97472761510916 20.606156068195904 0 0 0
647 1 1 0.5897 1.431225511479651 6.289951471233304 20.715308833381716 0 0 0
8 1 1 0.5897 7.3759274404621715 9.313057397009182 18.800653212378936 0 0 0
7 1 2 -1.1794 7.355364091069419 9.127613406350163 17.861685621732516 0 0 0
160 1 2 -1.1794 7.821383178514773 7.079999690561611 21.20356843029622 0 0 0
394 1 2 -1.1794 0.7996811427039113 11.307138463593688 21.029075606067217 0 0 0
5 1 1 0.5897 3.844933132548327 6.76195270945985 20.874065110174094 0 0 0
520 1 2 -1.1794 7.72683359784955 6.572535742663036 16.88475370454179 0 0 0
446 1 1 0.5897 0.6812492640353717 11.603690570652102 17.03169976935988 0 0 0
680 1 1 0.5897 4.354666782453775 10.006893404003886 16.965432856367045 0 0 0
679 1 2 -1.1794 5.20321211520103 10.419545485343997 16.804559084985964 0 0 0
681 1 1 0.5897 5.059988824705031 11.346062338910292 16.997720336851376 0 0 0
445 1 2 -1.1794 0.7402483910727216 10.727589678809721 16.650594099274 0 0 0
142 1 2 -1.1794 5.457713811015083 5.979893722736086 20.626374008739564 0 0 0
200 1 1 0.5897 5.159787150382615 13.65289593458691 4.768286803803431 0 0 0
173 1 1 0.5897 4.474143892949115 14.325648892038211 2.8122526122938942 0 0 0
172 1 2 -1.1794 5.252239981060995 13.845285729535108 3.0952115696120686 0 0 0
374 1 1 0.5897 0.9615245452760783 13.579892250786575 3.513765158547304 0 0 0
558 1 1 0.5897 3.0460573200910432 14.968530513975747 0.827557527896567 0 0 0
556 1 2 -1.1794 3.033719639760969 15.042923818191499 1.781907896310694 0 0 0
557 1 1 0.5897 2.1872518849404714 14.678242205145196 2.0401642473862456 0 0 0
478 1 2 -1.1794 7.4319432628639825 15.029530993440842 2.2859135883641697 0 0 0
174 1 1 0.5897 5.148868508738962 12.974114001838979 2.7122565484534795 0 0 0
293 1 1 0.5897 3.162119389470327 16.72454809112711 2.645566779220288 0 0 0
479 1 1 0.5897 8.140491934726617 14.482106401584632 2.624308955588664 0 0 0
449 1 1 0.5897 7.696717986224028 16.807936807514913 2.6318330401961347 0 0 0
480 1 1 0.5897 6.635061021139475 14.640075344293574 2.645816999735336 0 0 0
373 1 2 -1.1794 0.9202770187631442 13.6284360026249 2.5585569369537855 0 0 0
292 1 2 -1.1794 3.2021676541667246 17.56374785307004 3.1043088927615887 0 0 0
317 1 1 0.5897 7.079560709521865 14.902444735255743 0.32373975700362534 0 0 0
308 1 1 0.5897 7.4717487861139205 17.542840618225462 4.910866891996739 0 0 0
294 1 1 0.5897 3.0283107685759045 17.345337036091692 4.020016935352118 0 0 0
45 1 1 0.5897 0.7049365629835682 11.90780222350833 2.162299825987271 0 0 0
655 1 2 -1.1794 0.7822123546136605 13.273546245207344 5.338632520627818 0 0 0
384 1 1 0.5897 2.7996531058055565 16.6935850499732 10.253940524980928 0 0 0
766 1 2 -1.1794 0.7412953286034277 13.402990557490465 9.90750742690797 0 0 0
454 1 2 -1.1794 5.252594746988842 13.692720711111052 10.267299868247836 0 0 0
382 1 2 -1.1794 2.693740605658808 17.59592077558559 10.55533844178172 0 0 0
811 1 2 -1.1794 2.889624061586645 15.060429318228877 9.265398558719358 0 0 0
456 1 1 0.5897 5.268405564936314 12.781213589551735 9.975462685124656 0 0 0
813 1 1 0.5897 2.166524508594939 14.460286826624255 9.447512075808223 0 0 0
17 1 1 0.5897 2.8409621113960917 14.700388473073788 7.4455618788964095 0 0 0
656 1 1 0.5897 1.4735119375256787 13.75445704443418 5.793694922210601 0 0 0
579 1 1 0.5897 5.280383095124454 11.959609261311218 6.384730968083986 0 0 0
377 1 1 0.5897 6.866159970499379 14.36983099675778 9.711554623271118 0 0 0
184 1 2 -1.1794 7.512813282642756 17.456966592945975 10.50904418818655 0 0 0
519 1 1 0.5897 8.179903014991817 14.26438078083687 6.324670053033807 0 0 0
812 1 1 0.5897 3.6692975310253266 14.596075620196338 9.569870481063125 0 0 0
18 1 1 0.5897 3.6350663062707014 14.213542273552696 6.251994227602257 0 0 0
376 1 2 -1.1794 7.655557202241047 14.838085803929832 9.439884545321172 0 0 0
16 1 2 -1.1794 2.824540199204727 14.664155374765736 6.489063058654258 0 0 0
517 1 2 -1.1794 7.426344847922587 14.708914992168895 6.712971853279733 0 0 0
186 1 1 0.5897 7.516839043507032 16.611861050565075 10.059480617647324 0 0 0
378 1 1 0.5897 7.577600969987493 14.90817128423202 8.488316940884562 0 0 0
518 1 1 0.5897 7.392800101562302 15.55637429164198 6.269141511441601 0 0 0
201 1 1 0.5897 5.892694688872142 14.034535266449709 6.0369414980526175 0 0 0
239 1 1 0.5897 2.934078040940403 16.31878467718945 6.119741448386787 0 0 0
238 1 2 -1.1794 2.9522272532395117 17.237306771127223 5.850930964758837 0 0 0
199 1 2 -1.1794 5.091611887321334 13.615515974253306 5.722451066287274 0 0 0
307 1 2 -1.1794 7.383545396005291 17.465533040133593 5.860979794128604 0 0 0
240 1 1 0.5897 3.7268638456731975 17.598239406000957 6.2820952322409855 0 0 0
767 1 1 0.5897 0.5471975861239841 13.439704721755666 10.844228255773531 0 0 0
296 1 1 0.5897 7.2870471389573614 14.553036323834094 15.130506572060833 0 0 0
232 1 2 -1.1794 2.8203424640900865 14.622508845097856 13.856206768773877 0 0 0
234 1 1 0.5897 2.709106198395367 14.620873765313211 14.807051304619515 0 0 0
606 1 1 0.5897 2.7518292735381875 16.33752993253171 13.446230388343844 0 0 0
427 1 2 -1.1794 5.143959072234612 13.373498391547036 12.945287440258982 0 0 0
233 1 1 0.5897 3.565601764595103 14.042296453015174 13.700782377140849 0 0 0
639 1 1 0.5897 1.447120654595541 13.989827254664998 12.980359253798154 0 0 0
429 1 1 0.5897 5.8462057306033195 13.895290288187578 13.333648532680975 0 0 0
428 1 1 0.5897 5.249779501654884 12.503828568891132 13.3309768421867 0 0 0
637 1 2 -1.1794 0.6665786742244775 13.53397332482625 12.665446559045769 0 0 0
638 1 1 0.5897 0.7146470080573415 12.667992168972754 13.070482423227913 0 0 0
295 1 2 -1.1794 7.222159512582603 14.638364784134607 14.179204388737242 0 0 0
270 1 1 0.5897 7.303318654703963 16.317456361596605 13.545126422061285 0 0 0
297 1 1 0.5897 8.059032218339025 14.309471000402636 13.851055865166334 0 0 0
455 1 1 0.5897 5.0316136678118655 13.643175749442284 11.197445559271397 0 0 0
605 1 1 0.5897 2.7543480832456084 17.320710288906938 12.294879095935975 0 0 0
268 1 2 -1.1794 7.273982670862704 17.240841995468635 13.294618973660537 0 0 0
604 1 2 -1.1794 2.76230147649714 17.27457488971975 13.251058472451 0 0 0
269 1 1 0.5897 7.403591802259855 17.236484068532675 12.346115504524931 0 0 0
451 1 2 -1.1794 0.7347694009914775 13.827211676893038 20.160285282428347 0 0 0
664 1 2 -1.1794 3.0592124427318774 14.880918246856233 21.059031219834853 0 0 0
159 1 1 0.5897 7.484799946221328 17.213119858723935 19.447505437399734 0 0 0
51 1 1 0.5897 8.028815360004163 14.026292508590886 17.231330424204156 0 0 0
825 1 1 0.5897 2.018736527694438 14.335823188189082 17.02498823645647 0 0 0
53 1 1 0.5897 0.6881926631729055 13.673425207070217 18.36829379349259 0 0 0
125 1 1 0.5897 4.912943824811373 13.313071706305456 18.29073319729381 0 0 0
124 1 2 -1.1794 4.900829586594552 13.205834602554953 17.339488044831555 0 0 0
684 1 1 0.5897 4.358121903573964 13.89307947514591 20.49646534261107 0 0 0
715 1 2 -1.1794 2.846087005582055 17.36604855109831 20.24532247315951 0 0 0
666 1 1 0.5897 2.959200143332667 15.788286860803263 20.77101882202443 0 0 0
316 1 2 -1.1794 7.131183541206531 14.908659369837757 21.27879205052741 0 0 0
452 1 1 0.5897 0.5276945151559829 12.903263783909468 20.300591342114434 0 0 0
318 1 1 0.5897 7.273880382218791 15.827641078947225 21.0520951228642 0 0 0
665 1 1 0.5897 2.2567004285513863 14.44725525733875 20.76899800826891 0 0 0
584 1 1 0.5897 2.875110048980177 16.405841752513638 17.281096808297267 0 0 0
683 1 1 0.5897 5.869209985813721 13.83549295907437 20.567373682645655 0 0 0
126 1 1 0.5897 5.794507701334663 13.409468252361505 17.063618844680775 0 0 0
682 1 2 -1.1794 5.1142769326846 13.41593397658014 20.154722238305972 0 0 0
117 1 1 0.5897 8.693035412155579 14.315778480241713 20.577573958359864 0 0 0
583 1 2 -1.1794 2.8636469264904014 17.34914256250606 17.44329651994976 0 0 0
52 1 2 -1.1794 0.6099578346528474 13.38404192251023 17.45912627754786 0 0 0
824 1 1 0.5897 3.5305751424570793 14.274781757641271 16.976510197776133 0 0 0
50 1 1 0.5897 7.2511217589542225 15.312862642518304 17.052995791116643 0 0 0
610 1 2 -1.1794 7.501994737139824 17.10271083091211 17.61511004158504 0 0 0
716 1 1 0.5897 2.9003885863594916 17.38095245534798 19.289655303993538 0 0 0
157 1 2 -1.1794 7.484653782680211 17.420584537253383 20.382081385618488 0 0 0
823 1 2 -1.1794 2.785734471977243 14.812473971544598 16.707599347764752 0 0 0
585 1 1 0.5897 3.744500782406613 17.643248965262337 17.2113558434602 0 0 0
612 1 1 0.5897 8.304721588651452 17.493226120696917 17.269641460112926 0 0 0
611 1 1 0.5897 6.800442054489825 17.66264728429549 17.282660999248918 0 0 0
362 1 1 0.5897 5.319709034442912 11.850299652738066 20.89317279258031 0 0 0
49 1 2 -1.1794 7.250038204564628 14.387537436057897 16.80794225728694 0 0 0
267 1 1 0.5897 5.854475341019732 21.652951489170654 3.0111919571903143 0 0 0
696 1 1 0.5897 1.4712327121177122 21.84702993339819 3.0369620997721096 0 0 0
266 1 1 0.5897 4.343725074378054 21.703426735868156 3.0937871809883726 0 0 0
265 1 2 -1.1794 5.1111370110704195 21.302798731569716 3.5022120272561255 0 0 0
344 1 1 0.5897 1.5684393249115514 18.37670505091851 2.6289098212141866 0 0 0
228 1 1 0.5897 5.289249297638179 19.808077040811682 2.6387072699781164 0 0 0
413 1 1 0.5897 0.7798943671522145 21.40620803020071 4.952583793002311 0 0 0
817 1 2 -1.1794 7.164237727803008 22.276008864677756 1.9282199171339265 0 0 0
249 1 1 0.5897 5.218557282841035 21.231388309597463 5.267770333364341 0 0 0
226 1 2 -1.1794 5.269645228405465 19.00590707052691 2.1167426372634264 0 0 0
187 1 2 -1.1794 2.920926215382654 22.845405280008983 2.388992393588756 0 0 0
343 1 2 -1.1794 0.7702780744567175 18.8434908833933 2.3813991335063296 0 0 0
695 1 1 0.5897 0.7201955301896222 20.533989652973204 2.975739877359775 0 0 0
818 1 1 0.5897 8.030409156125906 21.973701418198843 2.201281833001925 0 0 0
450 1 1 0.5897 6.919517122663339 18.101295336101302 2.5091516745898508 0 0 0
189 1 1 0.5897 3.0330457797008044 22.910027363654415 1.440454205236259 0 0 0
694 1 2 -1.1794 0.6477487240987859 21.43328008207793 3.2955835224546997 0 0 0
227 1 1 0.5897 4.53532440354206 18.505759260586984 2.4729496857241346 0 0 0
345 1 1 0.5897 0.7961038227585069 18.872708853948915 1.4248654911810317 0 0 0
448 1 2 -1.1794 7.685761773141503 17.716064559945764 2.9342658636863304 0 0 0
498 1 1 0.5897 7.265158507839922 22.64443069162627 0.22933803549964726 0 0 0
819 1 1 0.5897 7.139664255984167 23.197712114392935 2.1853746173308863 0 -1 0
602 1 1 0.5897 5.126733509712994 18.731391550582615 0.18913628072059982 0 0 0
555 1 1 0.5897 5.386814507389756 20.22267606740042 10.131301587563936 0 0 0
383 1 1 0.5897 3.5129359264071813 18.02761915923528 10.31286102511147 0 0 0
87 1 1 0.5897 8.234531725341315 21.95791134221478 9.731754407415277 0 0 0
37 1 2 -1.1794 3.0276333720592614 22.58890818950747 9.477659689652581 0 0 0
86 1 1 0.5897 7.514145862571968 22.484982758505765 8.508849377829783 0 0 0
248 1 1 0.5897 4.474185282328111 21.776022437349525 6.468414324577934 0 0 0
32 1 1 0.5897 8.291534725462494 22.1637215260238 6.374462705589361 0 0 0
404 1 1 0.5897 1.241921773168763 18.51758140463057 9.971261557398355 0 0 0
39 1 1 0.5897 3.8347803233418096 22.146093407117235 9.739640193102517 0 0 0
553 1 2 -1.1794 5.2710797711919 21.143800601081878 10.364511558529589 0 0 0
701 1 1 0.5897 3.0297343372074317 22.852567675662584 7.599932113607024 0 0 0
94 1 2 -1.1794 0.783993066398583 21.395900501731745 10.673194633744565 0 0 0
387 1 1 0.5897 5.252154217355291 19.487482189830757 6.802253189925236 0 0 0
102 1 1 0.5897 5.145564352040234 18.445716597732435 8.803461977916387 0 0 0
700 1 2 -1.1794 3.063199971937839 22.86627032235596 6.6432866295648205 0 0 0
385 1 2 -1.1794 5.168626514536179 18.547270595487092 6.961252939907802 0 0 0
702 1 1 0.5897 2.2898990328017788 22.373349652741766 6.368980158424151 0 0 0
38 1 1 0.5897 2.3276686976856253 22.047742936586218 9.842930363085697 0 0 0
414 1 1 0.5897 0.8075962332425699 20.597911820080135 6.2325148084504045 0 0 0
340 1 2 -1.1794 1.0351281836368633 18.90371534965037 6.9877214304894295 0 0 0
33 1 1 0.5897 6.797172728091004 22.125674820872646 6.613610179974889 0 0 0
386 1 1 0.5897 5.983595049464458 18.173811607068295 6.62574078643731 0 0 0
85 1 2 -1.1794 7.418876304023878 22.37550085873486 9.455106873712179 0 0 0
554 1 1 0.5897 6.079675913001161 21.56761675185146 10.07680371279827 0 0 0
101 1 1 0.5897 5.974267975828643 18.14955763961145 10.035443165237174 0 0 0
341 1 1 0.5897 1.7771925827178803 18.339640304722373 6.770061341819743 0 0 0
31 1 2 -1.1794 7.576576558574641 22.656758604957766 6.776946405233777 0 0 0
100 1 2 -1.1794 5.147462284449983 18.542544619446566 9.755877276232587 0 0 0
342 1 1 0.5897 0.8941660351727894 18.764219387621694 7.924274945515501 0 0 0
403 1 2 -1.1794 0.4606671008349046 18.919443330150578 9.591294218659778 0 0 0
405 1 1 0.5897 0.47834029779294346 19.823182264024815 9.906271692794563 0 0 0
247 1 2 -1.1794 5.2079179139155904 21.211642525920503 6.224836218807192 0 0 0
412 1 2 -1.1794 0.8439989839041048 21.496080993572875 5.903523323594696 0 0 0
309 1 1 0.5897 8.17662444829731 17.872613862413495 6.2096104548189315 0 0 0
185 1 1 0.5897 8.287784494224896 17.909537961514225 10.176144733221617 0 0 0
502 1 2 -1.1794 0.5987291844019733 18.69353624048488 14.06470922507144 0 0 0
88 1 2 -1.1794 5.171427263301375 21.382341616958676 13.165455166171844 0 0 0
381 1 1 0.5897 1.3861329675744962 21.886913363528578 13.562582420866928 0 0 0
90 1 1 0.5897 5.123569226761381 20.485283434307874 13.496032892979464 0 0 0
763 1 2 -1.1794 5.086514668122823 18.774477973353846 13.878693601397273 0 0 0
738 1 1 0.5897 3.7316108426468664 22.280705232591593 13.558758930287793 0 0 0
89 1 1 0.5897 5.250151839549758 21.28457096664966 12.216394748427913 0 0 0
764 1 1 0.5897 4.330172322672097 18.228768511415574 13.663382127370996 0 0 0
474 1 1 0.5897 5.0386717056794454 18.57252024397846 15.719009478856707 0 0 0
765 1 1 0.5897 5.843312112912416 18.247951704725573 13.621320561240195 0 0 0
350 1 1 0.5897 3.00398192729557 22.78450710057757 15.5195246517317 0 0 0
736 1 2 -1.1794 2.880057666224324 22.647907501550314 13.795850729197367 0 0 0
787 1 2 -1.1794 7.592388117271299 22.39732692675131 13.940609459043872 0 0 0
504 1 1 0.5897 0.5534089908807206 18.566181952824948 15.012441846417676 0 0 0
380 1 1 0.5897 0.6644865940169483 20.595121114719248 13.882583997258871 0 0 0