LAMMPS data file via write_data, version 30 Jul 2021, timestep = 7250000

1008 atoms
2 atom types
672 bonds
1 bond types
336 angles
1 angle types

-3.2242167062911467 14.834215705846594 xlo xhi
-0.27670903320226437 22.856708033202302 ylo yhi
-0.07478484498291671 19.304782844988395 zlo zhi
0.08892054203352574 -6.650110851664308 0.3328514961853356 xy xz yz

Masses

1 1.008
2 15.999

Pair Coeffs # lj/cut/tip4p/long/omp

1 0 0
2 0.21084 3.1668

Bond Coeffs # harmonic/omp

1 450 0.9572

Angle Coeffs # harmonic/omp

1 55 104.52

Atoms # full

122 41 1 0.5897 -2.727462221490362 2.0575779233800087 1.2007068702874881 1 0 0
158 53 1 0.5897 -4.165987141909056 4.300874665483484 4.404457886105305 1 0 0
56 19 1 0.5897 -1.4142227794376785 3.6238822992214645 2.893520357997935 0 0 0
55 19 2 -1.1794 -0.826227272156757 4.112214214910949 3.469864860738991 0 0 0
85 29 2 -1.1794 -2.5316996457988825 0.7795116249355971 4.652347566565355 1 0 0
86 29 1 0.5897 -2.3865860304332522 0.9198943487623696 3.716635077442039 1 0 0
121 41 2 -1.1794 -2.7943319945004093 2.443616234630771 2.074169557825759 1 0 0
123 41 1 0.5897 -3.7205669377319404 2.6660100242540152 2.1679766369331763 1 0 0
602 201 1 0.5897 -0.5072268077193463 5.310012128042985 0.5326016088899473 1 0 1
57 19 1 0.5897 0.019667808339352 4.092015874025316 3.022397839034274 0 0 0
482 161 1 0.5897 -1.2482048414008888 -0.12182764221093562 0.8468772780312417 1 1 0
114 38 1 0.5897 -3.4349531808253615 5.296452309034314 1.9228929251710543 1 0 0
101 34 1 0.5897 -2.7202040215973 4.145142893352551 0.2799997922158829 1 0 0
8 3 1 0.5897 -0.4426877115583485 5.5154330262752564 4.607249665580238 0 0 0
33 11 1 0.5897 0.6102954264234679 0.595780340398729 1.8070889779482395 0 0 0
113 38 1 0.5897 -3.3233306379130703 5.52159442575895 3.415906225300974 1 0 0
87 29 1 0.5897 -3.4761227872374967 0.6453040522068481 4.731189520487975 1 0 0
134 45 1 0.5897 -2.1995020156483323 2.177060763412886 6.0615390527476745 1 0 0
669 223 1 0.5897 -5.6519925188334526 1.7252374065301965 9.152541505405827 1 0 0
98 33 1 0.5897 -3.9590485849846835 5.592226494930901 8.74029141475566 1 0 0
135 45 1 0.5897 -1.866665046291621 3.45838684925491 6.7963880680804225 1 0 0
69 23 1 0.5897 -2.5352367026859746 1.1305970920952755 8.601348270200702 0 0 0
124 42 2 -1.1794 -5.178154240046103 2.5352383257896443 7.76223403014349 1 0 0
133 45 2 -1.1794 -2.6019040669957314 2.9007032460332858 6.54199118276505 1 0 0
126 42 1 0.5897 -4.331135474809118 2.8000366006763526 7.4036177350292345 1 0 0
67 23 2 -1.1794 -2.186745544828032 0.3369935355815521 8.194905977500635 0 0 0
159 53 1 0.5897 -3.169527304194749 4.370508739997898 5.54216114938688 1 0 0
90 30 1 0.5897 -5.079631252652686 0.9783677787890892 6.167050492871125 1 0 0
68 23 1 0.5897 -2.9341965832134203 -0.045463449496943475 7.73516090176431 0 0 0
157 53 2 -1.1794 -3.765116511194769 4.911321649613453 5.0234225708562725 1 0 0
97 33 2 -1.1794 -3.8402922351725928 5.09132821878279 9.547332677355646 1 0 0
987 329 1 0.5897 -3.5629965787625038 0.005174938731090983 11.798606140683798 1 1 0
559 187 2 -1.1794 -4.125978546412535 4.565877255391483 13.100048929526803 0 0 0
625 209 2 -1.1794 -6.01248676573271 2.5457032188774456 12.145942680835056 1 0 0
667 223 2 -1.1794 -5.922320848727233 1.1030478850944583 9.827885304919402 1 0 0
668 223 1 0.5897 -6.059237039224103 1.6404143922047674 10.608233967785829 1 0 0
986 329 1 0.5897 -4.451901795067013 0.15684683389596832 10.582476153792136 1 1 0
626 209 1 0.5897 -6.0306269742621 1.9931678205689929 12.927402773871536 1 0 0
561 187 1 0.5897 -4.676277729074657 3.956919029942071 12.607333281916926 0 0 0
627 209 1 0.5897 -6.779957422941246 3.110982431224134 12.233786737076436 1 0 0
560 187 1 0.5897 -3.5980844617367467 4.005642621871929 13.669052071277957 0 0 0
523 175 2 -1.1794 -2.3279551793317643 2.6618503702376937 9.77056253429345 0 0 0
524 175 1 0.5897 -2.6056606069087085 3.5680603487161635 9.636261293107221 0 0 0
662 221 1 0.5897 -7.436467727064165 4.563386849047923 14.246397576321028 1 0 0
663 221 1 0.5897 -6.442072712255348 5.5737790958978195 13.715273747554917 1 0 0
618 206 1 0.5897 -6.572498887028596 5.639706887592903 11.528360778822782 1 0 0
606 202 1 0.5897 -5.952384128481809 4.539443933290502 9.740442077520884 1 0 0
629 210 1 0.5897 -8.556685796256225 3.510486689683034 17.030543269234336 1 0 0
628 210 2 -1.1794 -8.09610447016237 2.671923956832326 16.99838429481811 1 0 0
637 213 2 -1.1794 -5.465937025910565 3.6677547405057638 16.2809441155159 1 0 0
163 55 2 -1.1794 -9.129871590723962 1.154028436964158 19.203174094066163 1 0 -1
639 213 1 0.5897 -5.795035810353573 4.222068369936555 15.573308425868303 1 0 0
571 191 2 -1.1794 -5.568622792030794 0.5672381001522988 17.68447520381983 0 0 0
638 213 1 0.5897 -6.242047671692115 3.21672588441624 16.613265285181434 1 0 0
590 197 1 0.5897 -5.678555484451666 1.8995530217095573 15.124167625950903 1 0 0
164 55 1 0.5897 -8.71895236207737 1.781369267482729 18.60831089260308 1 0 -1
20 7 1 0.5897 -5.635237481327245 2.0369106573709015 18.589106365491382 0 0 -1
630 210 1 0.5897 -8.575901577281957 2.159216524842914 16.347725286386037 1 0 0
661 221 2 -1.1794 -6.7584167206256875 5.177897716145449 14.527338352941639 1 0 0
572 191 1 0.5897 -6.272846283287328 0.0570529026301036 17.284311817885566 0 0 0
601 201 2 -1.1794 -7.30785540929436 5.010315373422691 19.20951999660319 1 0 0
603 201 1 0.5897 -6.599989956440149 4.372991130914226 19.30455261875857 1 0 0
19 7 2 -1.1794 -5.612840526478775 2.7267481986349438 19.25250782749493 0 0 -1
593 198 1 0.5897 -8.118393248172215 0.8539079100608973 14.746197546959712 1 0 0
589 197 2 -1.1794 -6.179294988390838 1.2539217343253501 14.625305410071254 1 0 0
591 197 1 0.5897 -5.601202416492573 0.49302304403777686 14.568991556281013 1 0 0
255 85 1 0.5897 -1.7792645692360824 8.921788400796899 4.076064694783898 1 0 0
146 49 1 0.5897 -1.5223517895568817 6.413406526605272 2.1474023100533306 1 0 0
290 97 1 0.5897 -1.5609593858254782 10.482780191688494 2.46886896642438 1 0 0
289 97 2 -1.1794 -2.137224148630482 9.752910422025886 2.2416992846036106 1 0 0
145 49 2 -1.1794 -0.8463513684597741 6.804257842526472 1.5938070078995943 1 0 0
291 97 1 0.5897 -3.0126389324812455 10.053629750064696 2.485448456282239 1 0 0
147 49 1 0.5897 -1.3063194291401294 7.477536855739777 1.0924051483422599 1 0 0
332 111 1 0.5897 -2.1689723244543595 9.104716106790525 0.7402295532656236 1 0 0
112 38 2 -1.1794 -3.1648679902883305 5.94568070182501 2.5725221307721298 1 0 0
200 67 1 0.5897 0.357841769379291 8.074442185963823 2.466886035501323 0 0 0
187 63 2 -1.1794 1.1181595709867898 10.444283217601352 0.22839222905422152 0 0 0
189 63 1 0.5897 0.6910593952206177 10.001693208754896 0.9618453309870232 0 0 0
224 75 1 0.5897 -0.193085348330861 11.303178417424819 4.0540635927148685 0 0 0
253 85 2 -1.1794 -2.1597939032937887 8.360249126474816 4.751436727361128 1 0 0
837 279 1 0.5897 -5.813655456403955 8.858218573465766 9.53829638839398 1 0 0
292 98 2 -1.1794 -4.774477783822249 10.275414113168436 7.273979696488823 1 0 0
111 37 1 0.5897 -5.075665657603253 7.178102252764636 7.481467864980375 1 0 0
294 98 1 0.5897 -4.62376925404115 10.185791117530291 8.215049317009488 1 0 0
109 37 2 -1.1794 -4.241202180981061 6.729013388899405 7.346527410566545 1 0 0
236 79 1 0.5897 -3.018483889814472 7.816216759221737 8.036370617689567 0 0 0
237 79 1 0.5897 -2.3830990675662953 8.748979871956498 9.045691552222943 0 0 0
302 101 1 0.5897 -1.748782028550894 10.213748565563534 6.52738476550569 1 0 0
293 98 1 0.5897 -4.006689830267416 10.747634442471465 6.951916821605817 1 0 0
235 79 2 -1.1794 -2.1873537668531635 8.009443099974725 8.47014672321653 0 0 0
301 101 2 -1.1794 -2.199634619083221 11.05409244043994 6.610728177644727 1 0 0
110 37 1 0.5897 -4.370019386376637 6.218078624176473 6.547272209009605 1 0 0
254 85 1 0.5897 -1.5915670711958534 7.590147806972639 4.77154365895937 1 0 0
258 86 1 0.5897 -5.128095584973955 9.345324367861318 5.603213210186113 1 0 0
257 86 1 0.5897 -4.105456291309201 8.553613660707693 4.81614331160237 1 0 0
616 206 2 -1.1794 -6.428479863924831 6.378388977725351 12.120061823715098 1 0 0
650 217 1 0.5897 -3.385781591566729 7.728482483773915 11.943054425666704 1 0 0
759 253 1 0.5897 -5.9677739011172095 9.091740292938177 13.525547102826232 1 0 0
794 265 1 0.5897 -5.375674648801145 11.205355197792867 12.626941385408891 1 0 0
649 217 2 -1.1794 -3.834612146655343 7.133817485237495 11.341903976216074 1 0 0
513 171 1 0.5897 -3.932156188985706 6.322323554149212 13.95532877363384 0 0 0
651 217 1 0.5897 -4.623636845281199 6.866569660853897 11.813271992309838 1 0 0
795 265 1 0.5897 -5.4431357389340285 10.17469102185465 11.519810957775618 1 0 0
793 265 2 -1.1794 -5.922555409211221 10.499365780710727 12.282096266273998 1 0 0
835 279 2 -1.1794 -5.021737688612831 9.265147826613436 9.88982023809683 1 0 0
836 279 1 0.5897 -4.548423113245137 8.546377036324309 10.308890452179801 1 0 0
511 171 2 -1.1794 -3.7339498145596774 7.145365407874842 14.402322970911772 0 0 0
617 206 1 0.5897 -7.029587007617791 7.055510326063866 11.809450382097646 1 0 0
757 253 2 -1.1794 -5.901364277170636 8.730320254545784 14.409446780093383 1 0 0
99 33 1 0.5897 -3.7497542618196333 5.755459051987454 10.230878642917048 1 0 0
512 171 1 0.5897 -4.534399528075812 7.663381014364774 14.317558572628613 0 0 0
739 247 2 -1.1794 -5.795204363407743 8.510417873866565 17.971466521903174 0 0 0
798 266 1 0.5897 -8.321992979590345 9.597898394834418 16.22450409092064 1 0 0
741 247 1 0.5897 -6.30636294928979 9.269472178820243 18.25242842249871 0 0 0
613 205 2 -1.1794 -7.384102121292852 6.698399292397843 16.8710019420595 1 0 0
796 266 2 -1.1794 -8.056272735904383 10.272859783219882 16.84925761046702 1 0 0
797 266 1 0.5897 -7.148634475322351 10.470008185153532 16.617968358492213 1 0 0
331 111 2 -1.1794 -8.793831835457969 9.036075032221476 19.25115151754534 1 0 -1
740 247 1 0.5897 -6.339753162512039 8.086402995723873 17.308073748185336 0 0 0
614 205 1 0.5897 -7.157921751938048 6.155145616113814 17.62600812706217 1 0 0
758 253 1 0.5897 -5.4887139411067745 9.425229854693084 14.922550775375237 1 0 0
805 269 2 -1.1794 -5.506148421756289 11.041773989620209 15.953974338465711 1 0 0
333 111 1 0.5897 -8.720560031302478 9.775142775248232 18.647293093338455 1 0 -1
615 205 1 0.5897 -6.949092899507259 6.274285664461558 16.131233963100357 1 0 0
762 254 1 0.5897 -7.986727384181465 8.728455421877316 14.536560340235551 1 0 0
281 94 1 0.5897 -3.4942582152137285 13.59707809095619 1.8364062759898014 1 0 0
306 102 1 0.5897 -4.393777595612636 11.573020683172587 3.53494380014643 1 0 0
314 105 1 0.5897 -1.4402169205280604 14.403878008884059 1.7102000292323516 1 0 0
225 75 1 0.5897 -0.7969030613798376 12.690912738314386 4.097450477396164 0 0 0
223 75 2 -1.1794 -0.7202959038929491 11.915661059734667 3.5410429651151643 0 0 0
282 94 1 0.5897 -3.0839325409135867 13.753998001717736 3.28528957326752 1 0 0
313 105 2 -1.1794 -0.5532427055357152 14.654115764737396 1.4517109448320147 1 0 0
315 105 1 0.5897 -0.2351333324305087 13.912436083826371 0.9367820029937697 1 0 0
280 94 2 -1.1794 -3.1720196441798825 14.241842130799993 2.4664165227195607 1 0 0
423 141 1 0.5897 -2.5270064709204005 16.606114524545312 4.090976742294546 1 0 0
270 90 1 0.5897 -2.7086143913034864 12.354313639364163 0.15233405097102717 1 0 0
325 109 2 -1.1794 -3.802813524080185 12.490280724066881 4.751997500367788 1 0 0
500 167 1 0.5897 -1.2420987896298326 15.930737450038981 0.06491988829531542 1 0 0
499 167 2 -1.1794 -1.9341188548892665 16.590348658945835 0.016708723566282516 1 0 0
326 109 1 0.5897 -3.0807162853108956 11.920988994390076 5.01797912726831 1 0 0
403 135 2 -1.1794 -2.5337547553646043 15.54964616309013 8.213539090721243 0 0 0
405 135 1 0.5897 -2.8863252787572122 16.37956244716196 8.53505903697698 0 0 0
267 89 1 0.5897 -4.049601131443788 12.550556087001441 8.472078814290056 1 0 0
277 93 2 -1.1794 -4.397293375736322 13.74846317125401 7.067950826332727 1 0 0
278 93 1 0.5897 -3.7673434643731913 14.398533663892922 7.379335731500625 1 0 0
404 135 1 0.5897 -1.703414162575044 15.785823748307182 7.800104730765608 0 0 0
279 93 1 0.5897 -5.231699398146224 14.02105575525711 7.449608030722896 1 0 0
327 109 1 0.5897 -3.996687905228139 13.011883667241657 5.530959767267137 1 0 0
303 101 1 0.5897 -1.5406807864039886 11.645027655046897 6.975362087302683 1 0 0
1004 335 1 0.5897 -5.37276074700026 16.962155812828577 9.256116717454828 1 0 0
175 59 2 -1.1794 -0.5109255715506804 14.235601019666191 5.11980525540089 0 0 0
266 89 1 0.5897 -3.290650806756811 11.649810948787982 9.423259765501513 1 0 0
265 89 2 -1.1794 -4.048296332533866 12.232841917735758 9.375060307185809 1 0 0
425 142 1 0.5897 -4.518669887343328 15.978391222524207 5.1190554502736525 1 0 0
176 59 1 0.5897 -0.934802025251873 15.093919546331565 5.120490093291112 0 0 0
421 141 2 -1.1794 -2.280911268701919 16.459696190521186 5.0044025741121905 1 0 0
462 154 1 0.5897 -5.366377017716539 17.069404266954898 6.883430316515254 1 0 0
785 262 1 0.5897 -6.926539733660871 14.795869656374608 12.169555762545569 1 0 0
819 273 1 0.5897 -3.81793096086479 13.756670459773629 10.387778505595678 1 0 0
1005 335 1 0.5897 -4.776964130479388 16.00954831130303 10.27083950794854 1 0 0
727 243 2 -1.1794 -3.8417827861550014 12.310592523030612 13.368240684940723 0 0 0
818 273 1 0.5897 -4.625366943003272 14.322029961823823 11.53691206647275 1 0 0
729 243 1 0.5897 -3.81888630856782 13.178723076856581 13.771150457576063 0 0 0
784 262 2 -1.1794 -6.216983922459309 14.191972486034313 12.388808794799472 1 0 0
786 262 1 0.5897 -6.519326598709863 13.742929794507045 13.178198216192484 1 0 0
817 273 2 -1.1794 -3.804552557671789 14.439399884971639 11.058740003547205 1 0 0
773 258 1 0.5897 -6.553340789023154 12.877576576361864 11.026786452156829 1 0 0
1003 335 2 -1.1794 -5.598272740199309 16.433145958347275 10.021342403173938 1 0 0
774 258 1 0.5897 -5.935496091019827 11.987265480577928 9.969462026295108 1 0 0
925 309 2 -1.1794 -6.1895235215555875 16.213001481820733 14.363783843360345 1 0 0
930 310 1 0.5897 -7.959258983962451 16.127122267115418 14.435333252309468 1 0 0
926 309 1 0.5897 -5.5730147946354585 15.483396299066241 14.426372125472428 1 0 0
907 303 2 -1.1794 -5.957806899703225 16.082201021785444 18.044460984140493 0 0 0
909 303 1 0.5897 -5.618021870009649 15.361739349734103 18.5753235353175 0 0 0
770 257 1 0.5897 -7.307734997990558 13.136364544819699 18.263243103640683 1 0 0
782 261 1 0.5897 -8.425585521046191 14.39877839968487 17.13003129828791 1 0 0
783 261 1 0.5897 -7.012703827139298 14.920018506967288 16.975506773420094 1 0 0
781 261 2 -1.1794 -7.567552078897541 14.166047513457322 16.775330290540815 1 0 0
830 277 1 0.5897 -7.445270573980305 13.161143577637066 15.386784293653525 1 0 0
927 309 1 0.5897 -5.890541409804978 16.837385046418312 15.025009296911234 1 0 0
908 303 1 0.5897 -5.223351605334972 16.335536027563293 17.4853682253966 0 0 0
807 269 1 0.5897 -5.035548073754562 11.619586346005342 16.554900947999542 1 0 0
501 167 1 0.5897 -8.446657598928182 17.354216679614836 18.552714608320855 1 0 -1
806 269 1 0.5897 -5.919485762153551 11.634150140842689 15.325837859680622 1 0 0
829 277 2 -1.1794 -7.208773169498102 12.66431169197566 14.603425373615194 1 0 0
769 257 2 -1.1794 -7.4624809083093435 12.806571275871523 19.148443666475742 1 0 0
771 257 1 0.5897 -6.789545048058363 12.137959674571249 19.276551200653778 1 0 0
831 277 1 0.5897 -7.869752388971575 11.974097246056209 14.548152040198287 1 0 0
450 150 1 0.5897 -3.825208217945293 22.01727436979052 2.0240492025695285 1 0 0
391 131 2 -1.1794 -0.5638747019902866 19.085322173611075 3.445508509897059 0 0 0
457 153 2 -1.1794 -2.6794649592460345 17.55249757193353 2.4271324175383167 1 0 0
481 161 2 -1.1794 -0.715984637576228 22.42853434627372 1.463190935784573 1 0 0
392 131 1 0.5897 -0.418898704773655 18.400351155164756 4.098287865562727 0 0 0
393 131 1 0.5897 -0.6244140994134537 19.893545361313606 3.955032418939708 0 0 0
483 161 1 0.5897 -1.4249849118358853 22.022441987370357 1.9617934724531323 1 0 0
448 150 2 -1.1794 -3.15963849105416 21.368273510887747 2.252323736786174 1 0 0
495 165 1 0.5897 -3.5005685198476404 21.053919917999202 3.9328448900329844 1 0 0
459 153 1 0.5897 -2.2812674037434153 18.365028237699157 2.7396740944497875 1 0 0
938 313 1 0.5897 -0.6491793539366042 20.737361470987345 0.15711101844216735 1 0 1
449 150 1 0.5897 -3.312582416459822 20.643855959891432 1.645444130169767 1 0 0
493 165 2 -1.1794 -3.789022940574008 20.593757686681343 4.721058022147479 1 0 0
458 153 1 0.5897 -2.273318319710412 17.39867845509334 1.5740789477653667 1 0 0
345 115 1 0.5897 -1.2553365331885138 22.313762171383132 4.802902567541882 0 0 0
494 165 1 0.5897 -3.9927171005718955 21.29075620635531 5.34488848260314 1 0 0
471 157 1 0.5897 -3.540922360731888 18.51990847441082 6.745724896023784 1 0 0
470 157 1 0.5897 -2.8814972664938088 19.375211751442478 5.6847986148418395 1 0 0
445 149 2 -1.1794 -4.2525496794485 21.98924970505425 7.240709580226116 1 0 0
446 149 1 0.5897 -3.8930562789023595 21.429828129821566 7.929248529422388 1 0 0
343 115 2 -1.1794 -0.6577361621036464 21.56932952397834 4.873764656113456 0 0 0
469 157 2 -1.1794 -2.6861180989672775 18.745932428620883 6.379146771812631 1 0 0
460 154 2 -1.1794 -5.270331368827398 17.87500465079561 7.391658586355333 1 0 0
447 149 1 0.5897 -5.201343426670883 21.899060956796248 7.329162683158814 1 0 0
344 115 1 0.5897 -0.7467760272737611 21.275556180606223 5.780444171170627 0 0 0
435 145 1 0.5897 -4.7626773871943975 19.974456488482467 9.538044603567503 1 0 0
433 145 2 -1.1794 -3.877859739599121 20.338501959256746 9.510023224802563 1 0 0
422 141 1 0.5897 -2.3088144330808174 17.32968017699916 5.4029649740188805 1 0 0
953 318 1 0.5897 -7.036233852132984 22.423957336439337 11.919812052782358 1 0 0
952 318 2 -1.1794 -6.4117481987843465 21.7451589770956 12.175859342543239 1 0 0
961 321 2 -1.1794 -5.755049784354303 17.984436895843693 12.316462561884581 1 0 0
954 318 1 0.5897 -5.557963023489425 22.09769665902199 11.92501646517991 1 0 0
895 299 2 -1.1794 -3.7032899559833163 19.746806670107958 12.92519412086474 0 0 0
896 299 1 0.5897 -4.41854881100686 19.375540322808206 12.408565827202958 0 0 0
985 329 2 -1.1794 -3.9973292792179222 22.633987876423667 11.175701528921639 1 0 0
434 145 1 0.5897 -3.8859190198167513 21.039577238243538 10.161873575638316 1 0 0
998 333 1 0.5897 -6.484713975342398 20.932662792087577 13.780964495383866 1 0 0
847 283 2 -1.1794 -3.848246529657806 22.348334563062217 14.35267338530841 0 0 0
941 314 1 0.5897 -6.858343211266876 20.24880175677908 10.769082666287094 1 0 0
963 321 1 0.5897 -5.740711150812778 17.487347550645715 11.498438569630954 1 0 0
860 287 1 0.5897 -2.9934374911643378 18.866638697538484 9.625644786823589 0 0 0
859 287 2 -1.1794 -2.626653376869869 17.984641347515776 9.688544081925977 0 0 0
848 283 1 0.5897 -4.042412686222391 21.473451717322533 14.015951896418992 0 0 0
897 299 1 0.5897 -3.411678348383802 19.026259330223304 13.483856835336157 0 0 0
962 321 1 0.5897 -5.8015228916367985 17.317599272097155 13.001651396435575 1 0 0
939 313 1 0.5897 -6.432822104904998 19.875391578478357 19.199213706578774 1 0 0
999 333 1 0.5897 -6.298933334608854 19.830545094630814 14.802211469598763 1 0 0
964 322 2 -1.1794 -8.242127710320812 18.21726567244753 16.98320864672494 1 0 0
974 325 1 0.5897 -6.238130653601453 18.431866232547222 16.55052863316999 1 0 0
973 325 2 -1.1794 -5.537199571740073 18.424396946567434 15.898752425134218 1 0 0
949 317 2 -1.1794 -7.71862680325719 22.090170181602716 16.890703642232758 1 0 0
950 317 1 0.5897 -7.61165594651999 21.671529206755466 16.03646393852027 1 0 0
951 317 1 0.5897 -7.405254247479239 21.43868012490848 17.51813930112445 1 0 0
975 325 1 0.5897 -4.796788190878459 18.843015424346696 16.337923319413946 1 0 0
965 322 1 0.5897 -8.543223892995986 17.531008485802076 16.38748467530487 1 0 0
966 322 1 0.5897 -8.778309987405624 18.978957242615905 16.762589740376953 1 0 0
937 313 2 -1.1794 -7.1645328124709176 20.397050801698988 18.869462476257745 1 0 0
997 333 2 -1.1794 -6.8389938798926195 20.59560523453682 14.603852305820276 1 0 0
356 119 1 0.5897 -5.6447010639406585 17.77717807213783 19.09365932930151 0 0 -1
437 146 1 0.5897 -9.259848620319747 19.684708747940604 19.023094610173047 1 0 -1
573 191 1 0.5897 -4.909992240230609 23.04671174169637 18.08949658132171 0 -1 0
71 24 1 0.5897 3.204630171306957 0.4705716127763028 1.8901149381697753 0 0 0
16 6 2 -1.1794 5.470816940997704 4.5764038671080565 0.0851225549554186 0 0 0
54 18 1 0.5897 3.0964365439478083 3.5592925326139992 2.4833716744696397 0 0 0
70 24 2 -1.1794 3.8411117539886526 0.17015604182203187 1.2413334989127394 0 0 0
52 18 2 -1.1794 3.8057657527166366 3.1050105221559234 2.9380713394929496 0 0 0
76 26 2 -1.1794 0.3399323850148033 1.884206363930145 4.587534854267812 0 0 0
32 11 1 0.5897 1.0796377829653832 1.320074822278726 3.0511104317651743 0 0 0
46 16 2 -1.1794 1.7412296373355485 4.711396529437735 2.251692186237516 0 0 0
31 11 2 -1.1794 1.3289536240574984 1.1291117072839787 2.1468246148134487 0 0 0
53 18 1 0.5897 4.120606854757345 3.7375139505014907 3.58403334904885 0 0 0
48 16 1 0.5897 2.098142527520115 5.368378100575649 2.8495761144882983 0 0 0
47 16 1 0.5897 1.6717084146913495 5.164270867050368 1.4112536379608154 0 0 0
6 2 1 0.5897 3.686256115949069 1.79386518413058 4.269817547052452 0 0 0
21 7 1 0.5897 1.218762695906162 1.9332169552417908 0.6921716636667616 0 0 0
78 26 1 0.5897 -0.17399665134122344 2.655653518658915 4.348642213611304 0 0 0
528 176 1 0.5897 4.1192154810794195 1.8441382331012686 0.21476787297735156 0 0 1
60 20 1 0.5897 2.654887248847734 3.3083645104263266 6.382891965543642 0 0 0
36 12 1 0.5897 -0.5975763426401617 0.6368685325602589 7.396603425431304 0 0 0
59 20 1 0.5897 1.3787757124945808 2.9730131628275767 5.6405278450824605 0 0 0
34 12 2 -1.1794 0.2761968264127388 0.9314982862043997 7.139902639639693 0 0 0
35 12 1 0.5897 0.4461019235229178 1.691992361064238 7.696034435875813 0 0 0
44 15 1 0.5897 -0.4922451217546784 4.839177620063319 8.161913199201189 0 0 0
58 20 2 -1.1794 1.8049322971142008 3.6726969870016783 6.135808946499202 0 0 0
45 15 1 0.5897 0.38823441875430076 4.318554033913106 7.045758884012877 0 0 0
43 15 2 -1.1794 -0.5281936844974711 4.45627631080215 7.285253185992666 0 0 0
77 26 1 0.5897 0.0629610919987309 1.6783946868686515 5.480401136120271 0 0 0
4 2 2 -1.1794 3.872072122477465 1.214952250185369 5.009167860603116 0 0 0
401 134 1 0.5897 1.6985839384182881 -0.033127628220137956 7.808470625504425 0 1 0
5 2 1 0.5897 3.2555877213212865 0.4897734433630391 4.907025402146255 0 0 0
22 8 2 -1.1794 0.53898300777906 2.6678188581084807 9.528032502908045 0 0 0
522 174 1 0.5897 2.0008553388651427 5.5648265361688045 9.307978902469927 0 0 0
557 186 1 0.5897 0.44713356670810267 2.8519750864298747 13.325183792319626 0 0 0
536 179 1 0.5897 -2.19107294483525 1.8343891112323019 12.959579875921836 0 0 0
537 179 1 0.5897 -2.3755605740469754 1.9149188978925826 11.45901849362725 0 0 0
558 186 1 0.5897 0.021129784818322506 3.9589029719339663 12.384239464462249 0 0 0
574 192 2 -1.1794 0.44223644010715546 0.5780041393909389 11.235668023009316 0 0 0
556 186 2 -1.1794 0.7906787323545199 3.5834443083885534 12.812116909599583 0 0 0
550 184 2 -1.1794 -1.4247602966758866 5.009600241443414 12.270938144047232 0 0 0
552 184 1 0.5897 -2.310544669041527 4.948803643566244 12.628504543820675 0 0 0
576 192 1 0.5897 -0.3776903323286245 0.7679160675550039 11.691577655985451 0 0 0
535 179 2 -1.1794 -2.117177318198335 1.3150462978133173 12.15877900354617 0 0 0
23 8 1 0.5897 0.7194615348617956 1.8479082819274582 9.98795555776935 0 0 0
520 174 2 -1.1794 2.352646862874966 4.8453684416240295 9.832324209138937 0 0 0
24 8 1 0.5897 1.1861032352696625 3.283601433180721 9.872179516070393 0 0 0
587 196 1 0.5897 -1.2483072612882409 5.506489255286732 10.340076868028582 0 0 0
580 194 2 -1.1794 -2.491727732740326 2.971692554547909 14.459829585328988 0 0 0
525 175 1 0.5897 -1.3718578459877127 2.7038244494364148 9.787221835605163 0 0 0
539 180 1 0.5897 -2.944118802207302 1.7437106647569975 17.248174685249815 0 0 0
582 194 1 0.5897 -1.9094287624510793 3.593124384071767 14.89695096380189 0 0 0
581 194 1 0.5897 -2.5987597509813822 2.2590630486698187 15.089923559448168 0 0 0
564 188 1 0.5897 -1.8682865395276878 5.011152920611248 16.294590745342532 0 0 0
562 188 2 -1.1794 -0.9943696721416009 4.783903896623764 15.977090257322947 0 0 0
538 180 2 -1.1794 -3.0691438831167117 1.1342514724773922 16.52056615912496 0 0 0
547 183 2 -1.1794 -3.620062479141664 5.654036494282527 16.741668878112755 0 0 0
549 183 1 0.5897 -4.215357396919457 4.922500736052306 16.57784328060606 0 0 0
563 188 1 0.5897 -0.7571878171237625 5.50325960321171 15.391802213641617 0 0 0
18 6 1 0.5897 -1.6097519424453903 4.105499601473536 19.172930250843685 0 0 -1
540 180 1 0.5897 -3.936985802461325 0.7585631652041509 16.66853136874628 0 0 0
508 170 2 -1.1794 0.5175307064002439 1.4783575040321224 14.492743942484127 0 0 0
527 176 1 0.5897 -3.6521822494439453 2.895000918700492 18.873808184392324 0 0 0
526 176 2 -1.1794 -2.7299225154146516 2.6535145351673877 18.78834226682396 0 0 0
12 4 1 0.5897 1.440419822954384 6.257923015198076 4.704809316880753 0 0 0
240 80 1 0.5897 3.191792929209064 7.346463045590999 0.8810272125526173 0 0 0
245 82 1 0.5897 1.0112094216781067 9.394427859425733 4.320522048819924 0 0 0
220 74 2 -1.1794 3.354537412698015 10.81324135297292 3.242528536979999 0 0 0
238 80 2 -1.1794 3.604320987264341 7.685804026229265 1.6754369408004683 0 0 0
694 232 2 -1.1794 4.054858035592682 10.091287893982162 0.444601420343285 0 0 1
239 80 1 0.5897 3.8898438806903934 8.568490257507282 1.4394163152136952 0 0 0
201 67 1 0.5897 1.8478944033505007 8.273881804441876 2.2888183401039175 0 0 0
221 74 1 0.5897 3.9053109183452843 10.817130753785788 2.4596603981932335 0 0 0
199 67 2 -1.1794 1.0435387717835374 8.740607897332763 2.515597504903815 0 0 0
174 58 1 0.5897 3.4784998474072726 9.298787536830998 4.474733547292811 0 0 0
188 63 1 0.5897 2.0422198863768584 10.48071347224073 0.4753554840151155 0 0 0
696 232 1 0.5897 4.486250319399376 10.94391015450319 0.5022787387666282 0 0 1
10 4 2 -1.1794 2.298186939695996 6.311854923377169 4.283506490655979 0 0 0
82 28 2 -1.1794 2.1399035065451644 6.227155948950704 -0.04360050379892383 0 0 0
191 64 1 0.5897 0.5446227741676393 9.576660957497232 8.849283386192653 0 0 0
64 22 2 -1.1794 2.035374692725279 7.010779225410957 8.16937694356085 0 0 0
203 68 1 0.5897 -0.675636492186027 8.223014426576096 7.456518710717989 0 0 0
202 68 2 -1.1794 0.12786125062909415 8.608794819282812 7.107576879760186 0 0 0
246 82 1 0.5897 0.4762532530688741 9.404839011430592 5.736762017018237 0 0 0
65 22 1 0.5897 2.293437587954754 7.680554810158116 8.802860532398702 0 0 0
204 68 1 0.5897 0.8189648571856125 7.999528094107875 7.367266295070295 0 0 0
66 22 1 0.5897 2.824701594151417 6.853539378532188 7.651277841992192 0 0 0
228 76 1 0.5897 1.9217615425652017 11.346675721559825 5.778201107129796 0 0 0
588 196 1 0.5897 -1.400500793868598 6.601931038788528 9.306173135112946 0 0 0
11 4 1 0.5897 2.8532784465613608 5.721348230405034 4.792887200173883 0 0 0
7 3 2 -1.1794 -0.21254525568012106 6.200092180684545 5.235545127576157 0 0 0
172 58 2 -1.1794 3.7086427114710236 8.689663267449493 5.1763884748713735 0 0 0
9 3 1 0.5897 -0.4797707144802805 5.8468069703568855 6.084090530274715 0 0 0
244 82 2 -1.1794 0.7605510711760184 9.985327432374612 5.030767794212477 0 0 0
173 58 1 0.5897 3.3698195633385755 7.844369548070153 4.881165855630915 0 0 0
192 64 1 0.5897 1.1784336403627274 10.772899731778963 9.52735551891923 0 0 0
693 231 1 0.5897 -2.197673866868954 10.212784605483302 10.84033099159724 0 0 0
744 248 1 0.5897 -0.055373429250935136 7.263724610098553 10.727142686697936 0 0 0
703 235 2 -1.1794 -2.1912812971890343 9.116833224155943 12.424451964818404 0 0 0
742 248 2 -1.1794 0.26552664572892803 7.823969023862848 11.433977670064346 0 0 0
705 235 1 0.5897 -1.9940102075262782 9.340323480200766 13.334134242486044 0 0 0
743 248 1 0.5897 0.677727826484698 8.562859489080335 10.986288365310335 0 0 0
704 235 1 0.5897 -1.4078655419538055 8.663270236672549 12.11338916010623 0 0 0
724 242 2 -1.1794 0.8475772423995833 10.996569847502913 13.149790186184852 0 0 0
678 226 1 0.5897 0.7755917510811834 9.615521194894631 14.285590927807299 0 0 0
514 172 2 -1.1794 -0.9287390420538069 6.854409458723117 14.25880301826955 0 0 0
586 196 2 -1.1794 -0.7612613169282709 5.991793260664088 9.674123875461555 0 0 0
726 242 1 0.5897 0.15586327669014644 11.413662751426179 12.636143239520225 0 0 0
691 231 2 -1.1794 -2.0912946914316577 10.483943157079093 9.92849725484446 0 0 0
515 172 1 0.5897 -1.8227076906731314 7.179422526560889 14.365526095935467 0 0 0
551 184 1 0.5897 -1.0493079708491297 5.783943074853049 12.690351771126235 0 0 0
692 231 1 0.5897 -1.1477855416993394 10.44005135425392 9.773616242360005 0 0 0
190 64 2 -1.1794 0.6329552096669468 10.005581824042263 9.700563655810525 0 0 0
695 232 1 0.5897 -2.6556413448192924 10.248643368346562 18.88505731854952 0 0 0
749 250 1 0.5897 -2.682473221941078 9.925445125415164 15.820745765969233 0 0 0
706 236 2 -1.1794 -3.059480736591384 8.981455378803359 17.362482469150862 0 0 0
569 190 1 0.5897 -1.412627351285325 6.623167358064568 18.874268278157366 0 0 0
568 190 2 -1.1794 -1.0609142319817284 7.390452993535211 18.422749774494953 0 0 0
708 236 1 0.5897 -2.5983709352069297 8.18853055593981 17.63633990061789 0 0 0
748 250 2 -1.1794 -2.4763760987057086 10.240858773571498 14.940788825035755 0 0 0
707 236 1 0.5897 -3.9637527266341843 8.842407921836035 17.64375233002331 0 0 0
83 28 1 0.5897 -5.054625867927638 7.212609940371487 18.895490338216796 0 0 -1
84 28 1 0.5897 -4.022921181978645 6.137167057873475 18.628794962853462 0 0 -1
548 183 1 0.5897 -3.6578681910085695 6.177998236226177 15.941470555723553 0 0 0
731 244 1 0.5897 -1.7250776583800471 11.544825576636395 15.690971580008291 0 0 0
750 250 1 0.5897 -3.206208275612009 10.817813389405664 14.71554324745549 0 0 0