LAMMPS data file via write_data, version 30 Jul 2021, timestep = 20750000

972 atoms
2 atom types
648 bonds
1 bond types
324 angles
1 angle types

0.12114500274422824 19.878855997255506 xlo xhi
0.10653656747050455 19.89346443252644 ylo yhi
0.0554313306554981 20.64456666935447 zlo zhi

Masses

1 1.008
2 15.999

Pair Coeffs # lj/cut/tip4p/long/omp

1 0 0
2 0.21084 3.1668

Bond Coeffs # harmonic/omp

1 450 0.9572

Angle Coeffs # harmonic/omp

1 55 104.52

Atoms # full

4 2 2 -1.1794 4.135430726099709 1.2463700607715704 3.426998672265655 0 0 0
17 6 1 0.5897 4.3755853513817735 4.347815520654541 2.8733811444648922 0 0 0
3 1 1 0.5897 3.511270910036347 2.5071526183261312 0.44831293856356885 0 0 0
10 4 2 -1.1794 1.3669773962450027 4.07775471408188 3.9717549837508623 0 0 0
11 4 1 0.5897 1.2152765152606348 3.2793765585364603 3.4658397590251857 0 0 0
12 4 1 0.5897 2.3196553599087495 4.1676748129156485 3.99836765813395 0 0 0
16 6 2 -1.1794 4.095360573186799 3.8987847638557187 3.6710062689517615 0 0 0
18 6 1 0.5897 4.209976881279106 2.9686706361446533 3.4757245424837935 0 0 0
23 8 1 0.5897 2.588511530742361 1.1874334086438996 4.330220457363533 0 0 0
31 11 2 -1.1794 0.8858208764328537 2.0414525139691913 2.246395301253475 0 0 0
33 11 1 0.5897 1.5278694547775964 2.1843076032784805 1.5508568378673966 0 0 0
5 2 1 0.5897 4.273233831323331 0.5511486149481657 2.783518499065195 0 0 0
236 79 1 0.5897 0.8990686506128237 0.34092494532943307 2.117335269846869 0 1 0
22 8 2 -1.1794 1.946857332729157 1.045212233088771 5.0262533458968806 0 0 0
1 1 2 -1.1794 2.5951533412414185 2.6860344620712095 0.2357969170174667 0 0 0
102 34 1 0.5897 0.2045480106503017 0.8678503396645071 5.098681012430536 1 0 0
6 2 1 0.5897 4.797541927066937 1.0856726863697608 4.099453192767519 0 0 0
356 119 1 0.5897 1.9148987694026447 2.39645030424703 8.35996192200154 0 0 0
27 9 1 0.5897 2.733854163349668 4.4990292885818715 6.674037787414425 0 0 0
325 109 2 -1.1794 2.9581876836787715 2.7989450620274265 7.042388797932607 0 0 0
326 109 1 0.5897 2.5558637331987497 2.2225458305965065 6.392550754217478 0 0 0
327 109 1 0.5897 3.869140525616772 2.508496008296066 7.089627047728424 0 0 0
357 119 1 0.5897 0.425704910533193 2.211792545097476 8.561291595861025 0 0 0
355 119 2 -1.1794 1.2653866529181685 2.1426199694610477 9.015773617326362 0 0 0
561 187 1 0.5897 1.3131870283097558 0.2696440750479335 9.176502767096105 0 1 0
330 110 1 0.5897 4.442195187360192 1.0020924137829113 9.40204992443096 0 0 0
328 110 2 -1.1794 4.361650405330528 1.7722550143765858 9.964854901670213 0 0 0
335 112 1 0.5897 1.2616632230454266 3.468050175589908 10.254461345852425 0 0 0
341 114 1 0.5897 4.167719641835725 3.608766303061173 10.101011741530293 0 0 0
342 114 1 0.5897 4.291403031461218 5.047972538380502 9.647491345966179 0 0 0
24 8 1 0.5897 2.220780441698228 0.22746444648463893 5.441760652570002 0 0 0
683 228 1 0.5897 4.681913839955361 2.690823356194881 14.10833532352885 0 0 0
336 112 1 0.5897 2.2192516624925065 4.593586192645031 10.583764668257306 0 0 0
346 116 2 -1.1794 2.389808868604491 0.9417143434837723 11.948322881900799 0 0 0
347 116 1 0.5897 1.451984285243587 0.9699870827014638 11.758278346863936 0 0 0
348 116 1 0.5897 2.8107611428441737 1.0285967473629116 11.092970179234369 0 0 0
350 117 1 0.5897 2.599693991805317 4.385950992032483 13.591672519720925 0 0 0
649 217 2 -1.1794 2.8093600668551346 2.647127710418681 14.023750301814697 0 0 0
650 217 1 0.5897 2.7302103813432628 2.121211146045468 13.227805737127506 0 0 0
651 217 1 0.5897 2.1531134769974147 2.2832034523343143 14.618135438957458 0 0 0
334 112 2 -1.1794 1.2970995010443849 4.343055948115281 10.64107788316806 0 0 0
329 110 1 0.5897 4.784623960469829 1.515879857472593 10.784453334729454 0 0 0
340 114 2 -1.1794 4.093340944975266 4.510262442365871 10.41432208185337 0 0 0
652 218 2 -1.1794 4.200156958541746 1.1339220609336653 17.13616561128337 0 0 0
653 218 1 0.5897 3.3416568773675435 0.9129325000548807 17.497484060938667 0 0 0
654 218 1 0.5897 4.322429695107858 0.517668116692884 16.413900774127217 0 0 0
658 220 2 -1.1794 1.2540802982998622 3.8888771269657174 17.482651594058748 0 0 0
659 220 1 0.5897 0.5582091327868972 3.9940759343291465 18.131578058547912 0 0 0
664 222 2 -1.1794 3.901608892026848 3.9969943351353505 17.202246217839182 0 0 0
665 222 1 0.5897 2.9840680765506105 4.058104933277724 17.468347522289577 0 0 0
666 222 1 0.5897 4.060067721523175 3.0583928264872617 17.100747554361053 0 0 0
670 224 2 -1.1794 1.9953648538496738 0.8644320814850036 18.645603990392353 0 0 0
671 224 1 0.5897 2.1639558969655917 1.6370016041394693 19.185141691387614 0 0 0
672 224 1 0.5897 1.041169960391208 0.8184527380184824 18.583747752435244 0 0 0
681 227 1 0.5897 1.1081122599732525 2.4363811906233344 16.399592382775207 0 0 0
679 227 2 -1.1794 0.8410815443799587 1.8032933571446592 15.733052843475502 0 0 0
660 220 1 0.5897 1.0285554776214432 4.506261993272102 16.786696680143077 0 0 0
2 1 1 0.5897 2.602807611404426 3.5682395004890854 20.453395166047805 0 0 -1
110 37 1 0.5897 2.2446805118373336 9.22132463961628 0.962043136332169 0 0 0
141 47 1 0.5897 1.0843282926675533 7.948749084498833 2.5960792617546478 0 0 0
139 47 2 -1.1794 1.026350017351246 8.82257976617082 2.209493280465846 0 0 0
114 38 1 0.5897 3.2066370122812398 7.618801299861114 3.8743478104637346 0 0 0
13 5 2 -1.1794 4.596039055345728 5.76540314747545 1.5493031489588214 0 0 0
14 5 1 0.5897 3.9379209187761757 5.695785239355097 0.8576129135240748 0 0 0
20 7 1 0.5897 1.116549845360902 5.369040105179148 2.6907970205696223 0 0 0
19 7 2 -1.1794 0.9631961661891594 6.051632424003499 2.0373923670147307 0 0 0
140 47 1 0.5897 1.1064827825175239 9.419876729167534 2.953269807881318 0 0 0
112 38 2 -1.1794 4.032938921917151 7.774313454507619 3.416679740024519 0 0 0
674 225 1 0.5897 1.9052119793525537 5.745500682686458 0.5171609657246312 0 0 1
111 37 1 0.5897 3.671980205211115 9.204023182682866 0.4571735168905774 0 0 0
15 5 1 0.5897 4.331059938040212 6.532903050395695 2.05633115687709 0 0 0
126 42 1 0.5897 4.110484302823096 9.70863130010266 3.490784864816359 0 0 0
130 44 2 -1.1794 1.8187589027532052 7.411845762144405 4.973486122507135 0 0 0
132 44 1 0.5897 0.8741864889837297 7.325465305991589 4.844048320330351 0 0 0
113 38 1 0.5897 4.705896320240323 7.641141507248772 4.084361240759811 0 0 0
109 37 2 -1.1794 2.774424378021766 9.393562460423603 0.1835145639494158 0 0 0
344 115 1 0.5897 0.9417479305534868 5.465717579886409 9.271003516654574 0 0 0
464 155 1 0.5897 1.5618897072163878 8.799602624205688 8.324384823244502 0 0 0
337 113 2 -1.1794 4.5205282490030845 6.223628389836884 8.377036953797818 0 0 0
437 146 1 0.5897 4.384442829113685 7.837933594590008 9.542684627444402 0 0 0
339 113 1 0.5897 3.9812165637653516 5.910502917539571 7.650748601217514 0 0 0
435 145 1 0.5897 2.387430921452514 8.674056013936784 6.381809380538678 0 0 0
433 145 2 -1.1794 2.813250373614845 9.141627905562874 7.100455012104145 0 0 0
463 155 2 -1.1794 0.8361238741973059 8.667723828626533 8.93453566373406 0 0 0
345 115 1 0.5897 0.7857679592755087 6.910136617522784 8.844879781105595 0 0 0
438 146 1 0.5897 4.204781856179493 9.144574182091684 10.286115474167588 0 0 0
343 115 2 -1.1794 0.6726193799483907 6.012313611453967 8.532638350678576 0 0 0
468 156 1 0.5897 4.502195002598439 9.032796034145848 7.235567699058231 0 0 0
26 9 1 0.5897 1.8190214647747833 5.561306509690827 7.245824681787738 0 0 0
25 9 2 -1.1794 2.5692578731017943 5.441994492255321 6.663327780499652 0 0 0
131 44 1 0.5897 2.0625895669858396 6.639919828689582 5.48442126979008 0 0 0
443 148 1 0.5897 1.223144301200784 9.77106040973372 10.28622203523024 0 0 0
757 253 2 -1.1794 2.6498847118889954 9.256435398617821 13.942625434636902 0 0 0
668 223 1 0.5897 1.2365944590691584 5.660427587385558 14.794569640520466 0 0 0
349 117 2 -1.1794 2.5995871254898284 5.342960420402448 13.613884220918466 0 0 0
759 253 1 0.5897 2.4525067586644775 8.684477612667639 13.200811430028674 0 0 0
533 178 1 0.5897 0.317130963324327 7.708218926974013 11.790328673134493 1 0 0
454 152 2 -1.1794 2.09417904907714 7.448847110618146 11.906103180176528 0 0 0
455 152 1 0.5897 2.8499302018278643 7.624977812218899 11.345544499405415 0 0 0
456 152 1 0.5897 2.3255136254512565 6.647667895023927 12.376142856527233 0 0 0
351 117 1 0.5897 3.4071314301316056 5.572478684540562 14.073858705891315 0 0 0
792 264 1 0.5897 4.577952435163573 9.134895298823244 14.361532806150612 0 0 0
789 263 1 0.5897 1.5559308174258235 8.731069411142524 15.351390924049628 0 0 0
661 221 2 -1.1794 4.648042816767502 5.956739518180529 15.367959969003195 0 0 0
436 146 2 -1.1794 4.1775276924238 8.195261065898235 10.406330877158078 0 0 0
762 254 1 0.5897 5.016971234910902 7.811946589860834 17.457720766019204 0 0 0
788 263 1 0.5897 1.0066441951396117 9.032728607071759 16.729637776692982 0 0 0
858 286 1 0.5897 0.4114147603676278 7.346006697877138 18.98305110494557 1 0 0
779 260 1 0.5897 2.4963599040356246 8.16900145728152 19.521713367841496 0 0 0
780 260 1 0.5897 2.683720658443401 7.790208975801197 18.067863956930026 0 0 0
675 225 1 0.5897 2.4514760081152587 6.091642428499921 19.737329708682086 0 0 0
760 254 2 -1.1794 4.304301293200419 8.061412629641804 16.86926617905655 0 0 0
761 254 1 0.5897 4.2956534473191805 9.018309132860098 16.894962953908344 0 0 0
778 260 2 -1.1794 2.2493525456746584 7.50941729578743 18.873391195712394 0 0 0
787 263 2 -1.1794 0.9388117798696461 8.407594898731231 16.007846804341355 0 0 0
663 221 1 0.5897 4.3768435978391365 6.75946328081897 15.813466599017415 0 0 0
662 221 1 0.5897 4.354449752374727 5.251288557603342 15.944617336011534 0 0 0
669 223 1 0.5897 0.7853714347179696 6.524669300067652 15.952919222022196 0 0 0
673 225 2 -1.1794 2.496125360455981 5.42629956244 20.424140926238085 0 0 0
667 223 2 -1.1794 0.607378448171829 5.692070343056024 15.515327217105881 0 0 0
222 74 1 0.5897 3.9920250049518002 13.780356722837723 2.384019338535856 0 0 0
118 40 2 -1.1794 1.4588022242569252 11.094072491467182 3.830674347337056 0 0 0
119 40 1 0.5897 2.409572252594762 10.986455397837666 3.860384018245665 0 0 0
120 40 1 0.5897 1.3068673227177892 11.682537521145157 3.0910793833865577 0 0 0
122 41 1 0.5897 4.778619695286262 11.775457034892717 2.171786400900245 0 0 0
783 261 1 0.5897 2.224385200821936 12.244324116708567 0.12835024263742906 0 0 1
124 42 2 -1.1794 4.122608266133518 10.661267010417163 3.3973560157130582 0 0 0
240 80 1 0.5897 2.6345858784340908 14.090741596397153 4.567586241624239 0 0 0
127 43 2 -1.1794 1.0025520773704533 12.648146159101938 1.4928879466829346 0 0 0
129 43 1 0.5897 1.0701373811072454 13.585397806806114 1.6755296697453832 0 0 0
123 41 1 0.5897 4.42130483551696 12.234595025361473 0.7740107447741222 0 0 0
188 63 1 0.5897 0.21415075161851505 10.935213684403488 5.0940513928658575 1 0 0
220 74 2 -1.1794 3.6824985278412643 14.227073609216673 3.1720667092644343 0 0 0
125 42 1 0.5897 4.651165439810007 10.967985252725743 4.134206581519943 0 0 0
121 41 2 -1.1794 4.979976643867657 12.448375747028027 1.5213919390033004 0 0 0
246 82 1 0.5897 4.867267558398858 14.080616373684828 4.499412701514456 0 0 0
133 45 2 -1.1794 2.6623880049460005 11.880803746814376 6.935933788519163 0 0 0
134 45 1 0.5897 1.9973411411800015 12.10436061662668 7.58718291923754 0 0 0
135 45 1 0.5897 3.46662114300652 12.280720579774629 7.26711705217441 0 0 0
446 149 1 0.5897 4.631601678480345 13.521677734861246 8.76562191651719 0 0 0
573 191 1 0.5897 0.7435101402314469 14.368593550023094 9.324513917734254 0 0 0
239 80 1 0.5897 2.223235933668832 13.228237115668483 5.741942266964148 0 0 0
450 150 1 0.5897 4.318628271321062 11.622598467026156 9.569671624793553 0 0 0
451 151 2 -1.1794 0.8019151646983288 12.471520589328954 8.74238141607795 0 0 0
453 151 1 0.5897 0.8764533805143595 11.864771378542676 9.47905224592342 0 0 0
445 149 2 -1.1794 4.858339508665115 12.694213950124608 8.341021739874694 0 0 0
434 145 1 0.5897 2.599289969766733 10.062157641505626 6.948010246866791 0 0 0
544 182 2 -1.1794 4.6016745495652955 14.643555499648556 10.275166228068978 0 0 0
448 150 2 -1.1794 4.021423393308581 10.974464212168645 10.208357932406228 0 0 0
238 80 2 -1.1794 2.085351592684674 14.091379317698843 5.351609048128944 0 0 0
317 106 1 0.5897 0.2730833649604598 13.946039043753922 5.315116127001027 1 0 0
444 148 1 0.5897 2.3559665200982147 10.704033732771977 10.658519506218168 0 0 0
769 257 2 -1.1794 4.557689329415992 12.547216556426662 15.051686417341893 0 0 0
457 153 2 -1.1794 2.462014255268011 12.036689818885895 13.34489130291398 0 0 0
458 153 1 0.5897 1.8598026351819534 12.129058741697733 14.08325460916516 0 0 0
459 153 1 0.5897 3.328374796283569 12.193747620795254 13.720622623917295 0 0 0
545 182 1 0.5897 3.8176373783271016 14.231476815736935 10.638331377368859 0 0 0
449 150 1 0.5897 4.562054007651238 11.134460455073363 10.981999751024048 0 0 0
562 188 2 -1.1794 2.2353582525803466 14.029038412820722 11.631034072916195 0 0 0
563 188 1 0.5897 2.3705180400894488 13.196458333555361 12.08368527034965 0 0 0
758 253 1 0.5897 2.49163402534432 10.140938995142452 13.612479440733189 0 0 0
442 148 2 -1.1794 1.4263721571241583 10.540472769141347 10.818279044811117 0 0 0
564 188 1 0.5897 2.5237093733172933 14.692605084182711 12.257833847555027 0 0 0
512 171 1 0.5897 0.17107424842900443 11.16685352393694 11.83708628648763 1 0 0
642 214 1 0.5897 0.40560101831719053 14.308907609858364 11.819237396898824 1 0 0
766 256 2 -1.1794 1.323523165595517 10.646666604651411 17.58720478507345 0 0 0
782 261 1 0.5897 3.097076028053755 11.112524627447165 20.21771404542284 0 0 0
768 256 1 0.5897 0.9907685621793203 11.248608184538707 16.92137496311664 0 0 0
772 258 2 -1.1794 4.027020947627293 10.852257483599171 17.06112038641791 0 0 0
773 258 1 0.5897 3.11172640317355 10.996891565112335 17.301425148436277 0 0 0
774 258 1 0.5897 4.142439641374785 11.344590688793943 16.248317183380877 0 0 0
781 261 2 -1.1794 3.0101733209106185 12.065703561341316 20.2007146224056 0 0 0
767 256 1 0.5897 0.6806857034250688 10.692600888969924 18.29505094605798 0 0 0
869 290 1 0.5897 3.3795242849541913 14.360182344246477 17.310130067759076 0 0 0
886 296 2 -1.1794 2.1263071118135186 14.126521445090688 18.613483462354427 0 0 0
888 296 1 0.5897 2.4595944136049703 13.452340127404941 19.205735313761807 0 0 0
870 290 1 0.5897 4.889501607422118 14.304020061589629 17.406130548167354 0 0 0
771 257 1 0.5897 4.432468415405212 13.326150940161396 15.593874607517854 0 0 0
868 290 2 -1.1794 4.176983688301928 14.540920167280543 16.812321994318175 0 0 0
965 322 1 0.5897 0.3222871030663157 14.001922628110464 18.595416515133405 1 0 0
887 296 1 0.5897 2.0938618241647147 14.920353120191663 19.147462958429635 0 0 0
777 259 1 0.5897 1.0878036456291502 13.449795955169575 15.777408473077571 0 0 0
775 259 2 -1.1794 0.8329359809872457 12.568691387028478 15.503382058861392 0 0 0
229 77 2 -1.1794 4.7434595958880585 19.02676667087333 1.6667962596899268 0 0 0
248 83 1 0.5897 0.8891212399998482 15.894669893663021 3.0410302266522837 0 0 0
249 83 1 0.5897 1.3093580119498651 15.61277138415849 1.6140666608955605 0 0 0
235 79 2 -1.1794 0.8709219460337804 19.178773657375018 1.9955062025805466 0 0 0
226 76 2 -1.1794 1.6179207101137447 17.381131643415678 3.97782726377454 0 0 0
227 76 1 0.5897 1.4786780250246914 18.023159288999047 3.2815514727540878 0 0 0
228 76 1 0.5897 0.9534071763796725 17.59097495446892 4.634175536481467 0 0 0
230 77 1 0.5897 4.281317051274965 18.8315511777758 0.851508035232411 0 0 0
247 83 2 -1.1794 0.7221777782025384 15.305791294143615 2.304999868799203 0 0 0
232 78 2 -1.1794 4.293869176982838 16.886909252872684 3.4140322789506676 0 0 0
233 78 1 0.5897 4.518047834562947 17.528265595195002 2.739648464261354 0 0 0
234 78 1 0.5897 3.411195133929401 17.130666096915085 3.6931358008538737 0 0 0
890 297 1 0.5897 1.9710262403484102 18.83145999785132 0.6709865713165287 0 0 1
221 74 1 0.5897 3.902143520099992 15.147615639374068 3.0280582316761255 0 0 0
219 73 1 0.5897 3.156958821087353 15.729787567848495 0.38058088328480966 0 0 0
250 84 2 -1.1794 5.0386758944113135 15.49297993091392 0.4581914801797368 0 0 0
217 73 2 -1.1794 2.2665321606899718 15.983574483707288 0.13735042211659731 0 0 0
571 191 2 -1.1794 0.6174214500697892 15.287629832254362 9.088160005291243 0 0 0
576 192 1 0.5897 4.230503589707654 15.88884416310831 7.319091786824748 0 0 0
559 187 2 -1.1794 1.0334398282798758 19.164094438161868 8.972493190276658 0 0 0
241 81 2 -1.1794 2.664310462963058 18.738208559174865 6.726997315259295 0 0 0
242 81 1 0.5897 2.6770822076368024 17.785085736117246 6.815101521875528 0 0 0
243 81 1 0.5897 2.09444156320897 19.03715140004038 7.435713383079172 0 0 0
541 181 2 -1.1794 2.363172543496803 16.134344382909376 7.1835788373895095 0 0 0
542 181 1 0.5897 1.713065161629952 15.82253068575106 7.81329361147905 0 0 0
553 185 2 -1.1794 4.574891711380507 19.122639830690083 8.698117274867114 0 0 0
572 191 1 0.5897 0.9403984764656342 15.776593218669888 9.845101277816498 0 0 0
555 185 1 0.5897 4.153377835559051 19.10095932168076 7.83890766463971 0 0 0
558 186 1 0.5897 4.328219458774224 17.770733725026062 9.982731835576576 0 0 0
543 181 1 0.5897 2.3131706518573614 15.511247335187374 6.458571274527387 0 0 0
551 184 1 0.5897 1.3511509846578147 17.991110318646697 10.169573519406654 0 0 0
885 295 1 0.5897 1.322745905500025 18.751061502287172 14.702103293551065 0 0 0
866 289 1 0.5897 3.8352130705015797 15.816476525980526 13.86084594139346 0 0 0
879 293 1 0.5897 4.2177288437382785 18.82303988682213 14.615118041208133 0 0 0
867 289 1 0.5897 2.4130045673922322 15.654112262783878 14.354149962599745 0 0 0
550 184 2 -1.1794 1.4834674196377682 17.35476697444112 10.87236127978928 0 0 0
552 184 1 0.5897 2.433932733055914 17.25747163407879 10.932243923321577 0 0 0
565 189 2 -1.1794 2.7963405919654525 18.6115655279198 13.666114836380556 0 0 0
566 189 1 0.5897 2.7006771882753853 17.704528870397503 13.375400473813507 0 0 0
567 189 1 0.5897 2.6087152420121154 19.13451111747802 12.88656041043158 0 0 0
865 289 2 -1.1794 2.924184620261264 15.849349500649081 13.568670837460406 0 0 0
556 186 2 -1.1794 4.229419849445517 17.236623471263812 10.770976344200307 0 0 0
896 299 1 0.5897 0.46988729318828454 15.575584094234605 15.353632899672617 0 0 0
557 186 1 0.5897 4.480140728815542 16.354564217487997 10.496197745633488 0 0 0
883 295 2 -1.1794 0.706938664640148 18.884968590439136 15.422697908841906 0 0 0
877 293 2 -1.1794 4.912999142065871 18.95268843552715 15.260255698300009 0 0 0
881 294 1 0.5897 3.3561324218337507 17.437951874828812 17.578546254430805 0 0 0
897 299 1 0.5897 1.4775975029190975 15.937082717206819 16.424217881594995 0 0 0
878 293 1 0.5897 4.685914891021982 18.363267545645066 15.979555956392325 0 0 0
882 294 1 0.5897 4.368929448448245 16.38192848371351 17.189458570452835 0 0 0
880 294 2 -1.1794 4.29709276014753 17.29053354073683 17.482137568506182 0 0 0
874 292 2 -1.1794 1.6132719149060182 17.368311110505886 17.54948551279554 0 0 0
875 292 1 0.5897 1.012448914023389 17.49953297963205 18.283105123118073 0 0 0
876 292 1 0.5897 1.294277883248425 17.961256873953026 16.869012044777698 0 0 0
218 73 1 0.5897 2.3287517489847214 16.91826992689394 20.52937650598017 0 0 -1
891 297 1 0.5897 2.202469249243919 19.248816279961595 19.823277618131453 0 0 0
889 297 2 -1.1794 2.5430601561386426 18.674040974737807 20.508857405022017 0 0 0
895 299 2 -1.1794 1.3230953788976003 15.322741525922325 15.706513544826946 0 0 0
884 295 1 0.5897 0.7815718662388922 19.81603567749821 15.632295441048907 0 0 0
69 23 1 0.5897 6.529246456562989 2.323627417727442 1.7449304346745194 0 0 0
53 18 1 0.5897 9.943805374073401 4.298800134625293 3.983675854708559 0 0 0
68 23 1 0.5897 8.022143381881069 2.4062575744271917 1.5065589001113837 0 0 0
67 23 2 -1.1794 7.371198297548248 2.2947419221776637 2.1995531027241673 0 0 0
46 16 2 -1.1794 8.054496947636691 4.291702547084914 3.7281412914983347 0 0 0
47 16 1 0.5897 7.8529810781411085 3.565499879282644 3.1379068636055947 0 0 0
48 16 1 0.5897 7.370421461321841 4.254444662240318 4.396768714512148 0 0 0
41 14 1 0.5897 9.976259423109555 1.1748549765637506 3.723725301434236 0 0 0
9 3 1 0.5897 5.27185463474247 4.387257750886095 4.909466163164814 0 0 0
34 12 2 -1.1794 5.19943017415164 2.572320247610832 0.5213602642465571 0 0 0
273 91 1 0.5897 7.455064139694934 0.4739952508553851 2.0452860891660234 0 1 0
37 13 2 -1.1794 9.197374531702867 2.570230558459034 0.23493351741293944 0 0 0
29 10 1 0.5897 6.881368759592331 0.8079394026284181 5.015436239616362 0 0 0
58 20 2 -1.1794 8.709987063728889 1.0283936857766123 4.904953455581312 0 0 0
36 12 1 0.5897 5.292869205135586 3.424846094793773 0.09608678446130625 0 0 0
8 3 1 0.5897 5.959161709871273 3.93885775273556 6.1818056282656375 0 0 0
391 131 2 -1.1794 7.618559385081415 1.858492920677429 8.99267606207813 0 0 0
393 131 1 0.5897 7.659332257644445 0.9067283068736283 8.898501857502403 0 0 0
358 120 2 -1.1794 5.639794463390287 2.3981155578795867 7.190773549223395 0 0 0
361 121 2 -1.1794 9.370881784157069 2.7155193261911945 7.1138826001625155 0 0 0
392 131 1 0.5897 8.293974470871959 2.1875263462937875 8.399412516540721 0 0 0
362 121 1 0.5897 9.346972245383135 3.65635357570179 6.938832172361709 0 0 0
7 3 2 -1.1794 6.027383196864881 4.5724048033018665 5.467422137190585 0 0 0
359 120 1 0.5897 6.207312856530129 2.2140340191532513 7.939395072435645 0 0 0
360 120 1 0.5897 5.740869333483379 1.6363293905581962 6.619944714585002 0 0 0
28 10 2 -1.1794 5.983690905507267 0.5482412507799856 5.223189603434889 0 0 0
59 20 1 0.5897 8.891338532503031 1.8025796101294307 5.437990255983445 0 0 0
60 20 1 0.5897 8.986303039547037 0.2915771969366858 5.450059625713693 0 0 0
371 124 1 0.5897 7.724006536709327 3.3668192757382287 10.049477520035367 0 0 0
352 118 2 -1.1794 5.973397866485383 0.9976271707220891 12.1922212875206 0 0 0
353 118 1 0.5897 6.901343986411113 0.9711268437818983 11.958459932518037 0 0 0
682 228 2 -1.1794 5.60383264562101 2.94331362135182 14.160687708833512 0 0 0
370 124 2 -1.1794 7.974173327207323 4.2103999483407275 10.426536449098963 0 0 0
372 124 1 0.5897 7.388680621320554 4.321515299971077 11.175700112218374 0 0 0
685 229 2 -1.1794 9.192739305254921 2.394141776621156 13.800258496257875 0 0 0
382 128 2 -1.1794 8.702129944316336 0.6015283161287395 11.860885502417032 0 0 0
383 128 1 0.5897 8.905589187319062 1.0926440958281036 12.656989886195888 0 0 0
384 128 1 0.5897 9.231861261752444 1.0172324210454895 11.180462246615049 0 0 0
332 111 1 0.5897 5.340500516028932 4.7012526301447775 11.654455371490723 0 0 0
686 229 1 0.5897 8.672621042541678 2.367027813741648 14.60345830028964 0 0 0
354 118 1 0.5897 5.900066599288241 1.733045562710574 12.800619909862837 0 0 0
684 228 1 0.5897 5.666260955427533 3.735911029310986 13.627532413197036 0 0 0
331 111 2 -1.1794 6.03004780988295 4.900003838810577 12.288044779790553 0 0 0
386 129 1 0.5897 9.057559678627788 4.217143711181409 13.468250334417101 0 0 0
717 239 1 0.5897 6.803484392683981 2.3837941226978607 15.423358064851426 0 0 0
377 126 1 0.5897 9.63602945920834 4.238098734169098 10.423751825363706 0 0 0
657 219 1 0.5897 6.627720756693178 4.421946166749614 18.705504560071958 0 0 0
655 219 2 -1.1794 5.805390433467724 4.589227138608618 19.16617110087482 0 0 0
38 13 1 0.5897 9.005836811462892 2.03271919511348 20.055445420638243 0 0 -1
656 219 1 0.5897 5.124801827244815 4.3711636930694056 18.529257056832986 0 0 0
676 226 2 -1.1794 5.882193390283314 0.7871840259039103 19.294570322871685 0 0 0
715 239 2 -1.1794 7.535435156576326 2.1218412392466184 15.981967631944602 0 0 0
694 232 2 -1.1794 7.968627504355001 4.1584646034231145 17.67073354076428 0 0 0
695 232 1 0.5897 7.805715595682019 3.3348754192766408 17.210786925943577 0 0 0
677 226 1 0.5897 5.362854283878231 0.980157092595049 18.513907095982486 0 0 0
706 236 2 -1.1794 8.574832532790706 0.8378169773150026 18.60518385691057 0 0 0
708 236 1 0.5897 7.619407735509167 0.8055910722250763 18.655589660092314 0 0 0
35 12 1 0.5897 5.407358265263751 1.9378340706400972 20.424506551910998 0 0 -1
716 239 1 0.5897 7.530220451583128 1.1650605256027757 15.95143132136316 0 0 0
696 232 1 0.5897 7.712123866801836 4.837010044066923 17.046094274786864 0 0 0
710 237 1 0.5897 8.971616160004192 4.438983816789395 20.498782963187246 0 0 0
702 234 1 0.5897 9.645055260423584 4.333252656411758 17.617812248447713 0 0 0
689 230 1 0.5897 9.858517506811213 1.2958975449020724 17.39146564980211 0 0 0
143 48 1 0.5897 6.228549303979688 9.098527039909591 1.125205508880902 0 0 0
176 59 1 0.5897 7.564973516515125 7.809407344532062 2.2992950596731934 0 0 0
711 237 1 0.5897 8.637716325640246 5.788693428865099 0.5088591659246133 0 0 1
57 19 1 0.5897 7.587459419233878 5.444412830626963 2.3991427741743725 0 0 0
175 59 2 -1.1794 7.5438695144474375 8.766150506034787 2.2751385645936186 0 0 0
55 19 2 -1.1794 7.2994920581904035 5.985522204253088 1.6638484907417386 0 0 0
56 19 1 0.5897 6.35161151772985 5.856578096082603 1.6276942902303748 0 0 0
177 59 1 0.5897 8.193457292163238 9.003912696885498 1.613390344479968 0 0 0
166 56 2 -1.1794 8.928437761523744 7.476047606342772 4.916704885225889 0 0 0
142 48 2 -1.1794 5.59066138704544 9.255159616505953 0.4288127019519945 0 0 0
138 46 1 0.5897 7.022379168152384 7.4480491366757064 5.082941139284655 0 0 0
155 52 1 0.5897 7.883972007578186 9.901399652647513 3.4496685248100842 0 0 0
145 49 2 -1.1794 9.264055268277666 9.469418169289451 0.2555235110290113 0 0 0
467 156 1 0.5897 5.742167771591558 8.446961946740213 6.593986038524916 0 0 0
501 167 1 0.5897 6.743689573358041 8.939113228972232 8.501366568005267 0 0 0
380 127 1 0.5897 7.33711445804042 6.818663000291759 8.658053761433724 0 0 0
338 113 1 0.5897 5.4164066871548675 5.999650784758058 8.124728055902727 0 0 0
499 167 2 -1.1794 7.490469349050951 8.641671055200444 9.021224749155394 0 0 0
137 46 1 0.5897 5.974818068908688 6.395823786198243 5.37921971688888 0 0 0
466 156 2 -1.1794 5.457536726545115 9.031230125657837 7.296841632420172 0 0 0
167 56 1 0.5897 9.147359618522062 6.638407954204582 5.325145085031256 0 0 0
500 167 1 0.5897 7.689137198648813 9.378373183274785 9.599312204723558 0 0 0
470 157 1 0.5897 8.723070191571582 8.928339421643962 7.761783720722202 0 0 0
379 127 2 -1.1794 7.26817382839135 5.963408207646793 8.233596874420401 0 0 0
62 21 1 0.5897 8.638895385323464 5.6885425772924485 7.144804875707538 0 0 0
469 157 2 -1.1794 9.238447757059564 9.230670832075788 7.013864281800808 0 0 0
61 21 2 -1.1794 9.382108179569212 5.361674363288252 6.6376480286161375 0 0 0
136 46 2 -1.1794 6.080709296865261 7.332140915672173 5.210438656392774 0 0 0
168 56 1 0.5897 9.059541515225758 8.12276311635546 5.610217178678985 0 0 0
381 127 1 0.5897 7.569248749922016 5.341620852222542 8.89624465385242 0 0 0
491 164 1 0.5897 9.48675225004687 7.2998932634557425 11.006951014233614 0 0 0
794 265 1 0.5897 9.343826561284839 8.132743978616194 13.1661158264456 0 0 0
385 129 2 -1.1794 9.035774391052083 5.136129400917665 13.735367673648184 0 0 0
791 264 1 0.5897 5.960240083521782 9.213992686892198 14.974241772257146 0 0 0
333 111 1 0.5897 6.1936079973083595 5.836859442562281 12.17879113950314 0 0 0
793 265 2 -1.1794 9.328963350851255 8.66880242571433 13.95908693271681 0 0 0
790 264 2 -1.1794 5.4885230472611095 9.342391284713303 14.151201287889354 0 0 0
387 129 1 0.5897 8.858590344695152 5.616980454936266 12.926814466910148 0 0 0
460 154 2 -1.1794 6.303813720658346 7.650090742609947 11.994150691676383 0 0 0
461 154 1 0.5897 6.071524147594692 8.13604880008672 12.785520643706835 0 0 0
492 164 1 0.5897 8.078790618328021 7.356088971456643 11.560916186742878 0 0 0
490 164 2 -1.1794 8.921534268023466 6.917407909113055 11.678247208509346 0 0 0
705 235 1 0.5897 7.910092547464229 5.870905298559568 15.075246425654527 0 0 0
462 154 1 0.5897 5.531607645207155 7.722080233581377 11.432970814076114 0 0 0
824 275 1 0.5897 8.12223980090726 8.691206158331697 15.349415311929125 0 0 0
795 265 1 0.5897 9.173181189232388 9.559210282570398 13.643980340580335 0 0 0
704 235 1 0.5897 6.45940853749768 5.971982529271413 15.496758035262424 0 0 0
814 272 2 -1.1794 8.921443582297774 7.5320182804422275 18.912012535731126 0 0 0
786 262 1 0.5897 7.041995331639305 7.592058993142555 18.943121564744626 0 0 0
815 272 1 0.5897 9.143660212520846 6.726250111125731 19.37862650861375 0 0 0
825 275 1 0.5897 7.339398833541995 7.708729818845413 16.194531487216896 0 0 0
785 262 1 0.5897 6.076302418504281 6.488427418952756 19.319642126905766 0 0 0
823 275 2 -1.1794 7.473008537754339 8.645780125649694 16.051443649019966 0 0 0
816 272 1 0.5897 9.140961878807815 8.233097903678967 19.525745312207547 0 0 0
784 262 2 -1.1794 6.115693355804543 7.422902622675583 19.11570505069229 0 0 0
703 235 2 -1.1794 7.351852109924545 6.102091038092071 15.817751817655546 0 0 0
144 48 1 0.5897 5.729146815676497 8.53750849310967 20.39977266806737 0 0 -1
804 268 1 0.5897 7.84899526972302 9.97906202557403 17.09088197284003 0 0 0
709 237 2 -1.1794 9.263581859312211 5.350373389451503 20.521312935720257 0 0 0
154 52 2 -1.1794 8.033961124030611 10.672565331575692 3.996657937986876 0 0 0
276 92 1 0.5897 8.877855491767383 14.048079654910683 4.633616479949868 0 0 0
156 52 1 0.5897 8.981612774427106 10.690884904830309 4.1310265558923005 0 0 0
163 55 2 -1.1794 7.612264809367754 12.697775085623975 2.174203135612489 0 0 0
164 55 1 0.5897 6.73611852176784 12.505251985164158 1.839948153867917 0 0 0
165 55 1 0.5897 7.795761708099928 11.987803380112787 2.7895456276753485 0 0 0
285 95 1 0.5897 7.3917137790136795 14.582825237211678 2.4011481250987483 0 0 0
819 273 1 0.5897 8.64019233228569 12.331495008224676 0.6500172809402102 0 0 1
275 92 1 0.5897 7.412315899793519 13.945203910439515 4.999658967354156 0 0 0
116 39 1 0.5897 6.546260271985005 11.183836910456813 4.9515360749180095 0 0 0
146 49 1 0.5897 9.169740890377428 10.416626676828773 0.15435667354778815 0 0 0
115 39 2 -1.1794 5.713762272008255 11.267157977092047 5.416741454324994 0 0 0
245 82 1 0.5897 5.482121749675641 12.978636391157158 5.3360054026236226 0 0 0
171 57 1 0.5897 8.99400779637613 11.093598453352588 6.752884749206677 0 0 0