LAMMPS data file via write_data, version 30 Jul 2021, timestep = 15000000

864 atoms
2 atom types
576 bonds
1 bond types
288 angles
1 angle types

0.5830802540105999 17.624492145995358 xlo xhi
1.7783227906515737 21.85085500935494 ylo yhi
0.7113565479795536 21.501839252019263 zlo zhi

Masses

1 1.00794
2 15.9994

Pair Coeffs # lj/cut/tip4p/long/omp

1 0 0
2 0.21084 3.1668

Bond Coeffs # harmonic/omp

1 450 0.9572

Angle Coeffs # harmonic/omp

1 55 104.52

Atoms # full

548 1 1 0.5897 1.0914203775374753 5.276585869935785 1.4491933303058802 8 2 3
590 1 1 0.5897 4.16797764737362 4.272874024469544 4.205449867577496 2 3 3
591 1 1 0.5897 4.056843260553617 2.894712521106414 3.5887239702964173 2 3 3
739 1 2 -1.1794 3.931268047020672 5.912414755281131 4.214692551007172 1 -1 -1
502 1 2 -1.1794 1.3250936319861277 5.797087961373423 4.673470890106569 -8 3 8
589 1 2 -1.1794 4.426509467414551 3.3608748876274497 4.338593678261924 2 3 3
547 1 2 -1.1794 1.5059131803889607 4.629842960374992 2.02038551700043 8 2 3
741 1 1 0.5897 3.9017556028685947 5.983995802257633 3.2605957401759205 1 -1 -1
504 1 1 0.5897 0.8036667918410239 6.540186262752118 4.369833609704818 -8 3 8
750 1 1 0.5897 1.4211529891333488 2.6608812256496677 5.438844161215236 -4 4 2
507 1 1 0.5897 3.56676459069433 2.542332439598856 1.09829047624334 1 5 -2
549 1 1 0.5897 1.2961886306525563 4.923310285571935 2.9070559246392476 8 2 3
740 1 1 0.5897 3.0161496837323134 5.974790683674948 4.488443987886193 1 -1 -1
409 1 2 -1.1794 3.9230860911213314 6.717719676776919 1.5084841063606016 7 1 -5
505 1 2 -1.1794 3.2947942280659426 2.0374818142491646 1.8647268483867305 1 5 -2
503 1 1 0.5897 0.6816480984826647 5.114873612101636 4.865407092586552 -8 3 8
435 1 1 0.5897 0.7419101826295602 1.9120500764213033 2.587158257520321 2 8 0
434 1 1 0.5897 0.6344357726130845 3.294009153926499 1.9783217441662992 2 8 0
36 1 1 0.5897 4.562885995620842 3.3730716953130058 6.170687479703281 -7 5 1
748 1 2 -1.1794 1.4754793944669649 2.9361814018647845 6.354007219458321 -4 4 2
597 1 1 0.5897 2.889125799489206 4.337072879540705 9.637579246888246 3 -4 1
35 1 1 0.5897 4.379182306696009 4.635001030574513 6.986632781782637 -7 5 1
404 1 1 0.5897 1.5843161292622971 4.515181788923947 7.648854923229376 7 0 -1
34 1 2 -1.1794 4.220487992904761 3.69122391411283 7.006038695090454 -7 5 1
403 1 2 -1.1794 1.7031682555289145 5.3025089052331875 8.180181217976337 7 0 -1
749 1 1 0.5897 2.3957975752317697 3.1667014271584 6.481049431903167 -4 4 2
595 1 2 -1.1794 3.3387676039954193 4.498151132741823 10.467124123642094 3 -4 1
405 1 1 0.5897 2.4859038397096045 5.719338894228196 7.819829533792451 7 0 -1
25 1 2 -1.1794 3.9524005045107184 6.459076729599802 7.243531533437831 -4 6 8
618 1 1 0.5897 4.292485472473468 2.0407626705818345 8.120490154648841 2 1 0
596 1 1 0.5897 2.75962608579568 5.094061630628682 10.942256444934005 4 -4 1
563 1 1 0.5897 2.1618777440379056 3.6021921949275857 13.144055837064451 1 3 8
562 1 2 -1.1794 1.2391007294753276 3.356016019814538 13.208521024051265 1 3 8
707 1 1 0.5897 1.0842292400139986 4.215227578348928 15.957683770249979 -3 -5 -5
486 1 1 0.5897 4.617515558063045 3.180367024527243 13.990276099295722 6 0 -3
128 1 1 0.5897 3.3064610864495925 6.597346459293073 15.964172361632077 -2 0 -1
706 1 2 -1.1794 1.8345472423586007 3.6945190883739834 16.244358739733464 -3 -5 -5
484 1 2 -1.1794 3.9702152194603686 3.5658063805214484 13.39976367664782 6 0 -3
81 1 1 0.5897 0.9502565140866287 2.9269233072168674 11.317986269312819 1 1 -4
485 1 1 0.5897 4.2482958426135315 4.476318069536067 13.300227715910955 6 0 -3
490 1 2 -1.1794 4.37842387763691 6.264206471872524 12.966428793148319 7 1 1
492 1 1 0.5897 3.5934386756443257 6.392547298814701 12.433875023110721 7 1 1
564 1 1 0.5897 0.7691464470308399 4.189726853283153 13.22828514733579 1 3 8
322 1 2 -1.1794 1.9853712434793553 6.740309695358856 11.562034059259114 7 -1 0
63 1 1 0.5897 3.9436045663472328 2.543208506628361 11.146148517537442 1 -3 9
708 1 1 0.5897 2.5958247856841754 4.237251456154567 16.039002662498596 -3 -5 -5
672 1 1 0.5897 4.25233915123295 4.654832226507466 20.434886222395413 4 5 0
670 1 2 -1.1794 3.407722598170677 4.242528699534201 20.616252095437645 4 5 0
294 1 1 0.5897 3.3077770215079583 6.217492540149161 18.33145664937306 3 1 1
810 1 1 0.5897 2.4024496444909254 2.830941767747965 19.4012876659095 -1 0 -3
511 1 2 -1.1794 4.272744782129675 5.236027265961238 16.89996621637232 -1 2 -2
292 1 2 -1.1794 2.8242411268505343 6.503270286601032 19.10660527247464 3 1 1
794 1 1 0.5897 1.1731514820355453 6.607982239800194 18.492328851963705 -4 2 4
293 1 1 0.5897 2.847211249972422 5.748893844695701 19.695384185399647 3 1 1
808 1 2 -1.1794 2.180556283812182 1.9059540737188219 19.294366580398275 -1 0 -3
513 1 1 0.5897 4.364796851172364 4.401249868588514 17.359251007513954 -1 2 -2
671 1 1 0.5897 3.0588504772725833 4.728684834610144 21.363387920969892 4 5 0
812 1 1 0.5897 2.943006884241069 10.057871995512418 2.812946762977407 -8 5 -1
21 1 1 0.5897 2.998769514426817 8.409540684020559 4.82594892825746 -7 -5 -7
410 1 1 0.5897 3.850546066516581 7.600964623786305 1.8702817472685054 7 1 -5
19 1 2 -1.1794 2.9594515942714423 8.470149189985145 5.780438120341758 -7 -5 -7
811 1 2 -1.1794 3.3661411010283975 9.203340023873313 2.896595956916006 -8 5 -1
267 1 1 0.5897 0.9269006383566979 11.568608099931625 2.4405145118615477 -4 3 0
158 1 1 0.5897 1.0503509761375374 10.840750053067465 4.5641098127352056 3 3 -3
439 1 2 -1.1794 0.8854790760013413 8.786950044096109 1.0607979407756094 1 0 4
440 1 1 0.5897 0.6428613374364759 9.69182428018738 1.2572840779377858 1 0 4
413 1 1 0.5897 0.7023911721964993 8.246735850935567 2.7526734780980955 -4 -2 3
813 1 1 0.5897 4.290050381309596 9.40633350781123 3.043051760096137 -8 5 -1
315 1 1 0.5897 2.991374782690425 8.941317576506142 8.675531223088665 -3 0 -2
632 1 1 0.5897 3.406997658965118 10.996810465913597 7.45274356180773 4 8 7
27 1 1 0.5897 3.8777753030684643 7.09498639609792 6.53196183145029 -4 6 8
313 1 2 -1.1794 3.228951963312454 8.27536064943871 9.320795238899663 -3 0 -2
314 1 1 0.5897 3.9537041677579388 8.663766680946193 9.810870663531327 -3 0 -2
675 1 1 0.5897 1.4228832198881887 11.510318160100736 8.87541659905993 -3 -9 -2
633 1 1 0.5897 2.181603963250578 10.194232885862522 7.070259166879795 4 8 7
631 1 2 -1.1794 2.657615128060959 10.53429317376676 7.827933587135793 4 8 7
26 1 1 0.5897 3.996541309216003 6.991652518267169 8.037685681979234 -4 6 8
674 1 1 0.5897 0.5841053558542254 11.708601472814228 10.120064720164827 -3 -9 -2
323 1 1 0.5897 2.283540772193237 7.429282577216361 10.968164151057978 7 -1 0
806 1 1 0.5897 0.805518953970125 6.797021190959125 7.548229966430126 -4 -2 -3
20 1 1 0.5897 2.1117876305861762 8.08951331380351 6.010375433861827 -7 -5 -8
711 1 1 0.5897 2.471704511052629 10.375626922988669 13.618733244009915 -6 -5 -4
464 1 1 0.5897 0.9541286052601359 9.23235239471512 12.13047561112837 6 5 -5
710 1 1 0.5897 3.584791602441374 9.42049511503637 13.243556212181163 -6 -5 -4
472 1 2 -1.1794 1.629139962686097 11.659328898673964 14.752584466619584 -3 2 3
719 1 1 0.5897 3.3544428433502835 10.924253408596359 12.135397818079271 10 4 -2
127 1 2 -1.1794 3.0838561953710992 7.231572337388058 15.282640882359429 -2 0 -1
709 1 2 -1.1794 2.6879638145094416 9.664952086874212 13.015038632593862 -6 -5 -4
135 1 1 0.5897 1.4240259897691478 7.789685398307373 14.938015678055393 3 -5 -4
718 1 2 -1.1794 3.7783808367075595 11.64063147704461 11.6627979716731 10 4 -2
129 1 1 0.5897 3.6992641809311597 7.047241179924534 14.573020896295704 -2 0 -1
324 1 1 0.5897 1.138616768994675 7.05025568151601 11.88331273900607 7 -1 0
39 1 1 0.5897 3.631701793980175 8.705507116479392 16.16242328281475 -3 3 -3
700 1 2 -1.1794 4.019978391052147 11.732691959409417 20.978794971365176 3 1 2
121 1 2 -1.1794 3.094870374698951 9.343864232948112 20.017928727898415 1 -3 -1
584 1 1 0.5897 2.3921608680653303 10.131451112683285 17.495655885887928 3 -7 5
37 1 2 -1.1794 3.8343553982986083 9.334141307804698 16.855255394635414 -3 3 -3
122 1 1 0.5897 3.2535715361473687 8.484866576507661 19.62650579717502 1 -3 -1
38 1 1 0.5897 4.468370676391629 8.881836831907489 17.411772280486872 -3 3 -3
123 1 1 0.5897 2.469361277448778 9.764568771712794 19.427979603076608 1 -3 -1
583 1 2 -1.1794 1.730680943503189 10.543094947804969 18.051768807974184 3 -7 5
701 1 1 0.5897 3.8127846112482766 10.868660474024447 20.622713032377227 3 1 2
585 1 1 0.5897 0.8965911797482313 10.215524681885361 17.715201134842843 3 -7 5
441 1 1 0.5897 1.709830246683866 8.858602803163597 21.37005382664747 1 0 3
729 1 1 0.5897 1.6889376793200859 15.90963343312885 3.502592054687681 0 0 -3
727 1 2 -1.1794 1.2715724318754333 16.69954784388959 3.846259833699123 0 0 -3
543 1 1 0.5897 2.563511439003288 13.084518901799507 2.795652076551134 -5 3 1
541 1 2 -1.1794 2.5019637396312744 12.215685462815983 3.1926530142158955 -5 3 1
291 1 1 0.5897 2.5264749744083117 15.140727262023853 1.69815206254294 -10 -7 -7
289 1 2 -1.1794 3.0196594988602827 14.896529342550528 2.4813519092254115 -10 -7 -7
542 1 1 0.5897 2.5780882062692814 12.375727175379463 4.133334262472356 -5 3 1
290 1 1 0.5897 3.9172881539097477 15.172121999442446 2.2953570881707126 -10 -7 -7
752 1 1 0.5897 4.5618708415226745 12.779758662152293 3.4931206096043743 5 1 3
496 1 2 -1.1794 2.171865444679252 12.927096070231844 5.768600589390852 -1 5 3
163 1 2 -1.1794 2.397653904268874 15.551105329161157 8.330118106081128 -3 0 4
655 1 2 -1.1794 3.6858047483767824 13.130901316295619 9.131648689917537 -5 0 1
498 1 1 0.5897 1.3168143500617728 13.228238102074064 6.075955058578375 -1 5 2
164 1 1 0.5897 1.624222936424495 15.19619686141227 7.8918017397708935 -3 0 4
165 1 1 0.5897 2.9447249232183843 14.786097944609363 8.508322292698407 -3 0 4
341 1 1 0.5897 1.6079868605725611 15.315582044470204 9.990564493487529 5 8 0
656 1 1 0.5897 4.257737172207976 12.701125249806607 8.495616527638107 -5 0 1
657 1 1 0.5897 3.831750614378661 12.652111271929577 9.947569337317075 -4 0 1
787 1 2 -1.1794 4.567572778983321 14.484546469250402 6.170317116172565 5 -3 8
789 1 1 0.5897 4.83734661280919 15.280056774174234 6.6292877096109715 5 -3 8
340 1 2 -1.1794 1.3366213637009814 14.928053072071055 10.822699876822043 5 8 0
497 1 1 0.5897 2.786065051913497 13.593356575386581 6.077049641029241 -1 5 3
70 1 2 -1.1794 3.4235591129391114 13.948703757181953 13.037437561805683 6 1 -6
94 1 2 -1.1794 3.4297133280374332 13.689837252172113 15.750373318852818 -6 0 2
220 1 2 -1.1794 1.7275363597874476 16.369551135164315 15.524399456255546 -1 -2 3
72 1 1 0.5897 3.0208107403137276 14.805626331334143 12.896818155644219 6 1 -6
71 1 1 0.5897 4.364689614962804 14.113254689809065 12.97837344650311 6 1 -6
838 1 2 -1.1794 4.659305388779712 16.408573424368758 15.380453330926317 -2 -6 -4
96 1 1 0.5897 3.3336339110277278 13.988335116525155 14.845974960929404 -6 0 2
720 1 1 0.5897 3.534628485143317 12.42736419237937 12.150577313145519 10 4 -2
95 1 1 0.5897 4.284990781608746 14.022050382962224 16.023177557199578 -5 0 2
141 1 1 0.5897 1.0162119860338643 13.172153829088167 11.528630450124854 -1 -1 3
221 1 1 0.5897 2.683524550787315 16.399423350319708 15.486086903320642 -1 -2 3
473 1 1 0.5897 2.293900418403579 12.17180517878444 15.2127503069812 -3 2 3
140 1 1 0.5897 0.7176272401402982 12.165916280988139 12.619687535168985 -1 -1 3
639 1 1 0.5897 2.270962397442129 16.11258214157776 11.818357549810337 -7 4 7
637 1 2 -1.1794 2.6797764888257865 16.35028158994045 12.650613237088114 -7 4 7
474 1 1 0.5897 0.7963821955651884 11.981595561787776 15.097458422704396 -3 2 3
460 1 2 -1.1794 1.1964563839772033 16.567739803374188 18.37830249991967 3 -1 1
522 1 1 0.5897 3.170615214957169 13.106065695323874 18.44771842648526 2 3 -7
521 1 1 0.5897 4.137216946710797 12.615941264265132 19.504814230679607 2 3 -7
538 1 2 -1.1794 1.3217796812188614 12.615918550658348 20.715059738852922 2 -3 4
461 1 1 0.5897 1.378316497400701 16.186680446600704 17.51923442492592 3 -1 1
374 1 1 0.5897 1.4782698159373322 14.491904415471357 20.743657009462602 7 8 3
829 1 2 -1.1794 4.348010301390078 15.780313981212164 19.678428681692402 3 4 2
375 1 1 0.5897 1.4160620985493464 15.90928736582116 20.215116652701987 7 8 3
830 1 1 0.5897 3.724464905489613 15.055372317921934 19.722818092325 3 4 2
428 1 1 0.5897 2.1878294763621273 13.622648787436658 17.035808975868996 -2 3 1
520 1 2 -1.1794 4.10033358630932 13.091847154450605 18.67509873955443 2 3 -7
427 1 2 -1.1794 1.3774635012701695 13.339922300287816 17.45971663635769 -2 3 1
373 1 2 -1.1794 1.3583088269426873 15.39947858943838 21.02329735418661 7 8 3
540 1 1 0.5897 2.191617677499411 12.232921081798123 20.82909459790102 2 -3 4
429 1 1 0.5897 1.543052652375545 12.431585359108281 17.712282753771134 -2 3 1
539 1 1 0.5897 0.8046743323688185 12.255896137834133 21.435656178420096 2 -3 4
387 1 1 0.5897 4.037595803585721 19.200596785180878 3.1676318504138066 -6 0 2
308 1 1 0.5897 2.099646618067058 20.533675770273135 4.045891355952631 3 8 -2
259 1 2 -1.1794 1.5287916789980198 19.94350736391609 0.7789614348467769 5 -3 4
307 1 2 -1.1794 1.4317265417601557 21.205654204423006 4.182567637914001 3 8 -2
506 1 1 0.5897 2.6173370252845225 21.51952691012302 1.5350988164805632 1 4 -2
386 1 1 0.5897 2.86453978043124 18.25076150750398 3.2853238027506455 -6 0 2
385 1 2 -1.1794 3.310930571048022 18.962831676223743 3.743589321205744 -6 0 2
309 1 1 0.5897 0.6114260161988229 20.717564294123967 4.2542718960709855 3 8 -2
728 1 1 0.5897 1.8010111433779123 16.93917127289803 4.606890904534983 0 0 -3
608 1 1 0.5897 4.671537961197579 20.824783346128726 1.91260540995257 6 5 5
132 1 1 0.5897 4.7323441115408 19.5529205221197 5.727732253693824 -2 -1 -1
820 1 2 -1.1794 3.702133223349705 18.185898817769342 0.8022076778623557 0 -4 5
448 1 2 -1.1794 2.3867535644110234 18.951181344316275 9.741699531721109 9 4 -9
449 1 1 0.5897 1.6243494676799244 18.375000771900304 9.686503167123822 9 4 -9
74 1 1 0.5897 1.2784884786821369 21.71616355130685 7.55234471310308 -7 -3 1
450 1 1 0.5897 2.105503198762376 19.762577046432853 9.318820453841704 9 4 -9
444 1 1 0.5897 4.067542912679224 18.22155553509608 9.774818077521266 3 4 -1
553 1 2 -1.1794 2.3250509520347675 17.502733298247634 6.305146039857352 -6 -1 3
130 1 2 -1.1794 4.483110419161366 19.134756146391318 6.551923902777661 -2 -1 -1
73 1 2 -1.1794 1.1845347563799342 21.150051465857295 8.318483498545532 -7 -3 1
555 1 1 0.5897 3.0426715762376313 18.126561645069792 6.41531268673944 -6 -1 3
131 1 1 0.5897 4.308087303615791 19.86345089198008 7.147440740181453 -2 -1 -1
617 1 1 0.5897 4.242788050693255 21.26278054392143 9.371946050866034 2 0 0
75 1 1 0.5897 0.8760402825152427 21.733613999081413 9.011721353475128 -7 -3 1
616 1 2 -1.1794 4.347723822372725 21.206535715586625 8.422161359090682 2 0 0
338 1 1 0.5897 0.700783646461392 18.152296045036422 6.8315936008513125 1 5 0
554 1 1 0.5897 2.477376883866919 16.840246959781613 6.979071411592655 -6 -1 3
61 1 2 -1.1794 4.119366162740226 21.675674966177304 11.105292281257766 1 -4 9
190 1 2 -1.1794 3.522135173780101 19.027496366921085 15.026249263174835 6 6 -4
561 1 1 0.5897 4.402371502924277 17.386843375576646 12.860850276646278 3 1 1
679 1 2 -1.1794 2.486681619908471 19.794150362354657 12.477839077902422 -5 -5 -2
191 1 1 0.5897 3.351542144070803 19.722741169688973 15.66175708329424 6 6 -4
681 1 1 0.5897 2.534940963945701 19.524894529506753 11.560534662493218 -5 -5 -2
840 1 1 0.5897 4.4699733673067605 17.27392578291724 15.01770415452555 -2 -6 -4
192 1 1 0.5897 3.165596062850287 19.36190522491166 14.203237430820556 6 6 -4
222 1 1 0.5897 1.445891790545276 17.19978166979353 15.140126209623821 -1 -2 3
638 1 1 0.5897 2.11743822763657 17.038399593083746 13.006348881326597 -7 4 7
680 1 1 0.5897 2.7530750539766915 20.7135483057683 12.472423188312883 -5 -5 -2
175 1 2 -1.1794 0.5848700570928571 18.49870275099027 13.921143369561722 -7 -1 6
62 1 1 0.5897 4.829792221776966 21.53689812682024 11.73167413745412 1 -4 9
177 1 1 0.5897 0.8258096901004706 19.323441649815152 13.499192165501714 -7 -1 6
30 1 1 0.5897 1.0113609420687455 19.777627586961934 17.18777599008159 -9 4 6
822 1 1 0.5897 4.304404225167211 18.821027038993343 21.20514386232947 0 -4 4
790 1 2 -1.1794 3.221813696907123 21.18930326569589 16.803031349425368 3 4 -4
29 1 1 0.5897 2.436595962922267 19.59974145521557 17.666389855147912 -9 4 6
260 1 1 0.5897 1.5836657062027995 20.40305159998121 20.73153849444573 5 -3 3
809 1 1 0.5897 2.4756961006724216 21.761558073016076 18.40999945577275 -1 -1 -3
828 1 1 0.5897 4.405431361279865 19.69949781981944 19.42052111767218 2 -1 2
28 1 2 -1.1794 1.552056674896447 19.250768035608665 17.776288049938586 -9 4 6
821 1 1 0.5897 3.7670875789572067 17.416955449912834 21.026290621369874 0 -4 4
826 1 2 -1.1794 4.385992021747176 20.42845041911893 20.04067368645631 2 -1 2
827 1 1 0.5897 3.6744647215399664 20.988589077468255 19.73043543852946 2 -1 2
462 1 1 0.5897 1.3104387479337554 17.509745020154668 18.25202205909862 3 -1 1
736 1 2 -1.1794 4.5598668400643705 18.401594270224635 18.278408601535553 -1 -1 -1
737 1 1 0.5897 4.6233286749989695 17.446768188291074 18.30172361107202 -1 -1 -1
791 1 1 0.5897 4.103480539619622 21.54512802165504 16.692006218867153 3 4 -4
261 1 1 0.5897 2.0932073973565046 19.17806221347452 21.460782742612068 5 -3 3
792 1 1 0.5897 2.647329663587787 21.842517919888977 16.403597148361868 3 4 -4
189 1 1 0.5897 6.817663345400338 5.634376405294356 1.8162903530746124 -3 4 4
695 1 1 0.5897 6.138033799235987 2.743677202486795 1.0326914583554414 4 0 -2
453 1 1 0.5897 5.880533462678078 3.7904960959835354 3.143461978655092 -3 5 7
451 1 2 -1.1794 6.5536137861000405 3.9141759346095784 2.4741634099241376 -3 5 7
431 1 1 0.5897 5.790601748055813 6.2031667973103035 4.587410767490187 -8 -1 0
452 1 1 0.5897 7.295869746621726 3.3935421399431487 2.781207597868031 -3 5 7
668 1 1 0.5897 7.212735587720643 4.553468071461966 5.581284140090623 -6 -4 -2
187 1 2 -1.1794 6.686222565324695 6.433996977290892 1.3067739493462924 -3 4 4
430 1 2 -1.1794 6.704872472643758 6.467008785728373 4.691179750472477 -8 -1 0
824 1 1 0.5897 8.225433567517666 6.519382544860955 3.7284515585126288 1 7 3
669 1 1 0.5897 8.270296645559906 3.4850720858967317 5.760380830534328 -6 -4 -1
382 1 2 -1.1794 8.736657506831774 2.1188858131318242 2.7703547613763773 -7 -1 -1
823 1 2 -1.1794 9.092791593885767 6.768982558949739 3.409613523949686 1 7 3
411 1 1 0.5897 4.854636382366991 6.613619267865685 1.3144631605546853 7 1 -5
667 1 2 -1.1794 7.340627770470425 3.6616390823185165 5.9046251220166805 -6 -4 -1
329 1 1 0.5897 6.978206189050624 2.811069484176201 7.672735224549547 3 4 -1
16 1 2 -1.1794 5.981794361654784 4.961245828681996 9.987239422698956 0 3 0
328 1 2 -1.1794 6.760253199166001 2.7003653275303448 8.598227079739784 3 4 -1
726 1 1 0.5897 8.593441240143171 2.3976459061079676 9.329066124008774 1 -7 4
479 1 1 0.5897 8.747732584372162 6.24884971933082 7.014622050138497 -7 7 -5
330 1 1 0.5897 6.173821802628601 1.9440514103642128 8.617852377662992 3 4 -1
17 1 1 0.5897 6.285652663314898 4.309039442072349 9.355914253125379 0 3 0
603 1 1 0.5897 6.523772791876206 6.306906388183574 8.125953361910177 1 3 -1
18 1 1 0.5897 5.083492683115007 4.699447394684428 10.18922339200304 0 3 0
519 1 1 0.5897 6.392176872724532 4.6125410036103505 13.158087089226107 3 3 0
275 1 1 0.5897 8.728360550357879 3.2555914626656484 15.60624173856293 -4 -3 -3
646 1 2 -1.1794 6.405614360869652 5.638175253287123 15.198952695422516 -8 4 0
780 1 1 0.5897 8.411635762323861 5.142130353079707 13.176799025271533 -3 2 -1
518 1 1 0.5897 6.708299885617884 4.699366080384378 11.680074300566641 3 3 0
517 1 2 -1.1794 6.984855087464457 4.269373585782344 12.489328862236079 3 3 0
647 1 1 0.5897 6.966891664529024 4.928407482786515 15.511214544422925 -8 4 0
274 1 2 -1.1794 7.840047972194698 3.5279185069524663 15.836468951383337 -4 -3 -3
501 1 1 0.5897 8.042684862942137 2.7588840985937626 12.585517591579093 0 0 -5
101 1 1 0.5897 6.343872079804881 2.7204957300939014 15.447166308817541 0 -4 -4
100 1 2 -1.1794 5.542953633604718 2.318487412707081 15.110739054664986 0 -4 -4
648 1 1 0.5897 6.9212287815634985 6.432053206842429 15.341006651495592 -8 4 0
499 1 2 -1.1794 8.707559956825198 2.07064772249671 12.609766910869256 0 0 -5
500 1 1 0.5897 9.023749182728928 2.0105053588012014 11.708271894419955 0 0 -5
491 1 1 0.5897 5.081185742722778 6.671720698971708 12.460135586744004 7 1 1
276 1 1 0.5897 7.904857921567048 3.8120238243050233 16.748270448039584 -4 -3 -3
572 1 1 0.5897 5.089923193023184 2.8396294306978476 18.9722844488981 7 0 -6
84 1 1 0.5897 8.388370901863183 3.993959908239922 19.144511516230473 2 -8 -8
571 1 2 -1.1794 5.144614483919425 2.9260520483084695 18.02054343045006 7 0 -6
83 1 1 0.5897 8.11542175909284 5.265142544760918 18.368862339758152 2 -8 -8
180 1 1 0.5897 5.83429796689114 6.054554666497851 18.98205783421144 -4 4 0
82 1 2 -1.1794 7.953191384434457 4.321838624457788 18.357482208875517 2 -8 -8
179 1 1 0.5897 6.421836894719457 4.6950639552792275 19.296086931784743 -4 4 0
178 1 2 -1.1794 5.794290312088836 5.341521590717289 19.61944963988219 -4 4 0
694 1 2 -1.1794 6.004271933825458 2.4824551296840847 20.912052679105372 4 0 -3
477 1 1 0.5897 7.891303680581392 3.4305181326249166 20.866268343775587 0 -1 -1
573 1 1 0.5897 5.835439672423494 2.315376693274399 17.76341156852849 7 0 -6
475 1 2 -1.1794 8.830632358957477 3.569366084432523 20.745155215324594 0 -1 -1
188 1 1 0.5897 6.774202372329014 6.1549960847855685 21.185838848150915 -3 4 3
512 1 1 0.5897 5.0411665020879495 5.282973265314487 16.331115204817532 -1 2 -2
634 1 2 -1.1794 6.008229761450947 11.216989154192285 1.959474895496594 -5 1 2
138 1 1 0.5897 7.939543501828735 11.574897948451916 4.643879262843426 6 -13 0
254 1 1 0.5897 7.9208439687978345 9.04795380123016 2.81233909438191 5 8 -4
255 1 1 0.5897 7.01240919750301 7.991841187392841 2.2195856653504307 5 8 -4
390 1 1 0.5897 6.4390446434273105 9.580138989906105 5.521817892981004 -3 7 5
635 1 1 0.5897 6.359690257229621 10.421545766309581 2.3595330536756434 -5 1 2
253 1 2 -1.1794 7.000582665802825 8.855230678071957 2.6327488471558187 5 8 -4
136 1 2 -1.1794 7.1120635634187925 11.094589512982488 4.673329263130546 6 -13 0
432 1 1 0.5897 6.661202377249962 7.388287007683243 4.947324287931522 -8 -1 0
137 1 1 0.5897 6.439368371763695 11.769804430353553 4.584786035903102 6 -13 0
304 1 2 -1.1794 5.9725797904141045 9.888601919155919 9.329403874511927 3 -2 -4
306 1 1 0.5897 6.727185369715188 10.075294731384854 8.770845048087416 3 -2 -4
305 1 1 0.5897 6.037299841408988 10.52554319666551 10.041014032502869 3 -2 -4
295 1 2 -1.1794 8.071937766191887 10.785163523249643 7.689287337887099 2 2 -2
593 1 1 0.5897 5.4370455491252905 11.098254076789605 8.10714481448159 5 -5 -7
602 1 1 0.5897 6.953493726280845 7.597001202654799 7.460373704653895 1 3 -2
388 1 2 -1.1794 6.08069096746339 8.856153968287213 6.03534532503591 -3 7 5
297 1 1 0.5897 8.826003588269185 11.17371669238276 8.132792262148154 2 2 -2
407 1 1 0.5897 8.876890013599953 7.04506363343873 9.310858400789112 -3 -3 5
296 1 1 0.5897 8.451880711775512 10.152597376671977 7.079521627643457 2 2 -2
389 1 1 0.5897 5.132296758756055 8.93541662136699 5.932628233273725 -3 7 4
854 1 1 0.5897 6.60942085443278 8.323039076411813 10.528791181085824 -2 3 1
592 1 2 -1.1794 5.2786403771837955 11.728115413563717 7.403963024522601 5 -5 -7
601 1 2 -1.1794 7.296229196053393 6.838058036918879 7.9323993871012535 1 3 -1
855 1 1 0.5897 6.358017596382935 6.834187479993688 10.418425699808285 -2 3 1
853 1 2 -1.1794 6.29298522834455 7.569755623241521 11.027530010718383 -2 3 1
77 1 1 0.5897 6.04792829259309 11.653685364430007 14.703935465090149 -5 -4 -7
224 1 1 0.5897 7.869904645994444 8.64162416429554 14.775211361872879 0 -2 -11
755 1 1 0.5897 7.9595803481991325 8.043150855975151 12.164370143985096 -4 -3 -5
223 1 2 -1.1794 7.311189325274605 8.407006799770485 15.516226824176142 0 -2 -11
181 1 2 -1.1794 5.326558947414198 9.215025785758385 13.721133373480935 -5 4 -1
225 1 1 0.5897 7.7186238943159005 8.83535038323232 16.269085392553798 0 -2 -11
43 1 2 -1.1794 6.784980564163129 11.721185227679838 11.288961399777696 -2 4 1
182 1 1 0.5897 5.972293548821003 9.111158392947353 14.420082395643476 -4 4 -1
754 1 2 -1.1794 8.354137118917835 8.588530052851713 12.844941421593347 -4 -3 -5
45 1 1 0.5897 7.614984309098522 11.251292158883153 11.370090349304629 -2 4 1
183 1 1 0.5897 5.810675797181724 9.629391525037118 13.006823243158165 -5 4 -1
207 1 1 0.5897 8.864343728621758 9.806460548159643 11.86412024649044 -6 2 -3
524 1 1 0.5897 5.6776571764831845 8.622900650370822 19.278425591452915 3 0 5
114 1 1 0.5897 6.979645134970998 10.261961492084362 17.18544619906534 -2 -4 2
112 1 2 -1.1794 7.901182044916331 10.26774392711259 17.444304001627543 -2 -4 2
523 1 2 -1.1794 5.563353511111217 8.070308725037702 18.50519565770356 3 0 5
566 1 1 0.5897 7.705331792857394 9.32879477198637 20.29094391982163 1 12 -9
525 1 1 0.5897 6.454592116434323 7.8540227038586385 18.23085000679214 3 0 5
565 1 2 -1.1794 6.834150788178265 9.725369812497574 20.297083400359348 1 12 -9
424 1 2 -1.1794 8.040992995144308 7.100622406760413 18.110280620994416 4 -3 3
376 1 2 -1.1794 5.50878468684012 11.495300224434894 16.47443998934597 3 3 3
425 1 1 0.5897 8.614991084508508 7.622940578620138 18.67062141092927 4 -3 3
426 1 1 0.5897 8.515466270378907 7.027819083095547 17.28212399708282 4 -4 3
567 1 1 0.5897 6.765777941610687 10.141134592185383 21.156578103424707 1 12 -9
113 1 1 0.5897 8.325885045377234 10.842016900793485 16.807026724782382 -2 -4 2
579 1 1 0.5897 7.658160510335435 11.730980017473616 19.043525148434824 0 2 -7
578 1 1 0.5897 8.650246510835528 11.802917601173469 20.184831661525102 0 2 -7
702 1 1 0.5897 4.869477359126671 11.619170221184682 21.405145895287102 3 1 2
377 1 1 0.5897 4.885710015864466 10.817181859582645 16.735636624407178 3 3 3
799 1 2 -1.1794 8.161358319865501 13.61135246379978 1.8247200585068581 1 -5 3
753 1 1 0.5897 4.957124882433019 13.717729869975866 4.613857637416482 5 1 3
168 1 1 0.5897 6.030795943200782 16.21812272054563 2.358484268722308 -2 -2 1
167 1 1 0.5897 6.34697287484708 14.990878873561446 1.5302848315949635 -2 -2 1
751 1 2 -1.1794 5.3159191647392126 13.0716092457837 4.005503925436741 5 1 3
636 1 1 0.5897 6.167906159351404 11.902579268134158 2.608116959173117 -5 1 2
166 1 2 -1.1794 5.665817591888958 15.645692729649031 1.6836548038700632 -2 -2 1
142 1 2 -1.1794 7.937148626175972 15.63635683494698 5.399570050302087 2 4 5
800 1 1 0.5897 8.363389046090143 12.711899597288753 1.566965476427887 1 -5 3
801 1 1 0.5897 8.445212083785101 14.143517113924387 1.0814211992083511 1 -5 3
735 1 1 0.5897 6.872706742254268 16.567698765047304 4.300932885442859 -5 0 -5
815 1 1 0.5897 8.198872351523882 16.63218880627968 10.587357575282374 -5 7 -2
162 1 1 0.5897 8.92514051698676 13.012452992213607 9.297504505173839 3 10 3
60 1 1 0.5897 7.526638477867626 13.572777117472944 7.937070153423997 7 -3 -2
816 1 1 0.5897 8.496822247661013 15.20463825344582 10.180764533689045 -5 7 -2
662 1 1 0.5897 6.141358134148206 15.363748644311098 10.427699495644072 -3 2 -2
59 1 1 0.5897 8.184138951657093 13.112410870438653 6.653430290889956 7 -3 -2
161 1 1 0.5897 7.6087353607220995 12.903900887820281 10.03734144267517 3 10 3
58 1 2 -1.1794 7.416670556973559 13.577763942272652 6.986188213521649 7 -3 -2
788 1 1 0.5897 5.185995262138722 13.816001334938196 6.465053989846391 5 -3 8
663 1 1 0.5897 4.996979579939238 14.375811381845892 10.347810418977051 -3 2 -2
160 1 2 -1.1794 8.198883637570113 13.539013047891112 9.63153175264652 3 10 3
814 1 2 -1.1794 8.628704066093706 16.112633845733253 9.90796183472972 -5 7 -2
661 1 2 -1.1794 5.570634767468542 14.820878001332616 10.9716138597574 -3 2 -2
586 1 2 -1.1794 5.630283703800549 16.725682893762677 7.272747082524055 -1 -3 7
144 1 1 0.5897 8.210890596590932 16.337061937882112 5.991498849449648 2 4 5
594 1 1 0.5897 6.152157993097821 11.96237287561219 7.090320161019716 5 -5 -7
143 1 1 0.5897 7.75155318992527 14.894577813162101 5.9754185083577696 2 4 5
588 1 1 0.5897 6.526653600705258 16.562978191059756 6.978931268734521 -1 -3 7
78 1 1 0.5897 7.5213542789537735 11.903867373798088 14.462250604629743 -5 -4 -7
333 1 1 0.5897 6.196215016279487 14.707761858176987 12.668972274854443 2 -8 -2
692 1 1 0.5897 9.01282749507215 12.881709087282768 15.57480480779122 4 -1 0
691 1 2 -1.1794 8.97805466157717 11.945923708652792 15.376278048441712 4 -1 0
76 1 2 -1.1794 6.654463379624198 12.071614421664128 14.092599673797862 -5 -4 -7
357 1 1 0.5897 8.089691491667352 14.573603470432184 13.296271736942519 2 0 1
331 1 2 -1.1794 6.226730390070484 14.769126927541937 13.623736399255414 2 -8 -2
298 1 2 -1.1794 8.230713975828241 14.467517264264675 16.211467658708763 0 -3 5
332 1 1 0.5897 6.340428942681594 13.865639943723483 13.918779957919462 2 -8 -2
839 1 1 0.5897 5.110398156733519 15.945792275660917 14.674325253894157 -2 -6 -4
299 1 1 0.5897 8.216249342669208 15.282653024191198 15.709820805512567 0 -3 5
355 1 2 -1.1794 8.968317340521423 14.48051559361272 12.927998553888921 2 0 1
44 1 1 0.5897 6.629195558293431 12.085368159287627 12.1603904019064 -2 4 1
860 1 1 0.5897 7.012985544892724 15.217227918190211 19.068226541348793 -5 -3 2
861 1 1 0.5897 7.154784342734734 13.866159850869286 19.736469324508768 -5 -3 2
246 1 1 0.5897 5.208965004778985 14.329387196084184 17.907834418804534 -7 3 0
245 1 1 0.5897 5.690019175797263 15.496658573577378 17.072346474207208 -7 3 0
577 1 2 -1.1794 8.220013992944871 12.34159038832763 19.520756109239308 0 2 -7
859 1 2 -1.1794 6.918114192509309 14.77675203812301 19.912777741760408 -5 -3 2
244 1 2 -1.1794 5.7086344097294015 14.540756420379628 17.119197798342363 -7 3 0
378 1 1 0.5897 5.279777820684153 12.252266056341952 17.013801130149595 3 3 3
831 1 1 0.5897 5.142303187808563 15.439193927355168 20.08954841070993 3 4 2
300 1 1 0.5897 7.327341824254473 14.350684025035967 16.505661167267032 0 -3 5
607 1 2 -1.1794 5.407510921601154 20.279866278638615 2.1913505874823196 6 5 5
146 1 1 0.5897 8.613838264246265 17.52765348689963 1.2778307526501538 1 5 -3