LAMMPS (30 Jul 2021)
Processor partition = 1
  using 2 OpenMP thread(s) per MPI task
using multi-threaded neighbor list subroutines
variable        pid world 0 1
variable        phase world IceIII Liquid

shell cd ${phase}
shell cd Liquid
include Restart.lmp
echo both
log log.lammps
#include		in.partitions
include		in.temp
variable        temperature equal 263.30
variable	tempDamp equal 100.0
include		in.pressure
variable        pressure equal 6750.0
variable        pressureDamp equal 1000.0 # This is 1 ps
include		in.seed
variable        seed equal 745823

units		real
atom_style	full
read_restart	restart.lmp.${pid}
read_restart	restart.lmp.1
Reading restart file ...
  restart file = 30 Jul 2021, LAMMPS = 30 Jul 2021
  restoring atom style full from restart
  orthogonal box = (0.51907227 1.7029298 0.63326696) to (17.688500 21.926248 21.579929)
  2 by 4 by 4 MPI processor grid
  restoring pair style lj/cut/tip4p/long/omp from restart
  restoring bond style harmonic/omp from restart
  restoring angle style harmonic/omp from restart
  864 atoms
  576 bonds
  288 angles
Finding 1-2 1-3 1-4 neighbors ...
  special bond factors lj:    0        0        0       
  special bond factors coul:  0        0        0       
     2 = max # of 1-2 neighbors
     1 = max # of 1-3 neighbors
     1 = max # of 1-4 neighbors
     2 = max # of special neighbors
  special bonds CPU = 0.002 seconds
  read_restart CPU = 0.007 seconds
include 	in.setup
variable	out_freq equal 1000
variable	out_freq2 equal 10000
variable	out_freq3 equal 1000

timestep	2.0

neigh_modify    delay 7 every 1

include		in.tip4p
# This is TIP4P/Ice

# create groups ###
group ox type 2
288 atoms in group ox
group hy type 1
576 atoms in group hy

# set charges - beside manually ###
set group ox charge -1.1794
Setting atom values ...
  288 settings made for charge
set group hy charge 0.5897
Setting atom values ...
  576 settings made for charge

# ### TIP3P Potential Parameters ###
pair_style lj/cut/tip4p/long/omp 2 1 1 1 0.1577 8.5
pair_coeff 1 1*2 0.000 0.000
pair_coeff 2 2 0.21084 3.1668
bond_style  harmonic
bond_coeff  1 450 0.9572
angle_style harmonic
angle_coeff 1 55 104.52
kspace_style pppm/tip4p/omp 1.0e-5
pair_modify tail yes

thermo          ${out_freq}
thermo          1000
thermo_style    custom step temp pe etotal epair emol press lx ly lz vol pxx pyy pzz pxy pxz pyz enthalpy

restart 	${out_freq3} restart.lmp.${pid} restart2.lmp.${pid}
restart 	1000 restart.lmp.${pid} restart2.lmp.${pid}
restart 	1000 restart.lmp.1 restart2.lmp.${pid}
restart 	1000 restart.lmp.1 restart2.lmp.1


include         in.dump
dump            myDump all atom ${out_freq2} dump.water.${pid}
dump            myDump all atom 10000 dump.water.${pid}
dump            myDump all atom 10000 dump.water.1
dump            myDump2 all dcd ${out_freq2} dump.dcd
dump            myDump2 all dcd 10000 dump.dcd
dump_modify     myDump append yes
dump_modify     myDump2 append yes


variable natoms 	equal  "count(all)"                        # NUMBER ATOMS
variable H      	equal  "enthalpy/v_natoms"                 # ENTHALPY-per-atom
variable Vol      	equal  "vol/v_natoms"                 # volume-per-atom
fix AVG all 		ave/time ${out_freq} 1 ${out_freq} v_Vol v_H file vol_enthalpy.dat
fix AVG all 		ave/time 1000 1 ${out_freq} v_Vol v_H file vol_enthalpy.dat
fix AVG all 		ave/time 1000 1 1000 v_Vol v_H file vol_enthalpy.dat


timer           timeout 23:50:00 every 1000
New timer settings: style=normal  mode=nosync  timeout=23:50:00

fix 		1 all shake 1e-6 200 0 b 1 a 1
Finding SHAKE clusters ...
       0 = # of size 2 clusters
       0 = # of size 3 clusters
       0 = # of size 4 clusters
     288 = # of frozen angles
  find clusters CPU = 0.000 seconds
fix             2 all nph iso ${pressure} ${pressure} ${pressureDamp}
fix             2 all nph iso 6750 ${pressure} ${pressureDamp}
fix             2 all nph iso 6750 6750 ${pressureDamp}
fix             2 all nph iso 6750 6750 1000
fix             3 all temp/csvr ${temperature} ${temperature} ${tempDamp} ${seed}
fix             3 all temp/csvr 263.3 ${temperature} ${tempDamp} ${seed}
fix             3 all temp/csvr 263.3 263.3 ${tempDamp} ${seed}
fix             3 all temp/csvr 263.3 263.3 100 ${seed}
fix             3 all temp/csvr 263.3 263.3 100 745823

run             250000
PPPM initialization ...
  extracting TIP4P info from pair style
  using 12-bit tables for long-range coulomb (../kspace.cpp:340)
  G vector (1/distance) = 0.37332013
  grid = 24 24 24
  stencil order = 5
  estimated absolute RMS force accuracy = 0.0032701028
  estimated relative force accuracy = 9.8478176e-06
  using double precision FFTW3
  3d grid and FFT values/proc = 3549 432
Last active /omp style is kspace_style pppm/tip4p/omp
Neighbor list info ...
  update every 1 steps, delay 7 steps, check yes
  max neighbors/atom: 2000, page size: 100000
  master list distance cutoff = 10.8154
  ghost atom cutoff = 10.8154
  binsize = 5.4077, bins = 4 4 4
  1 neighbor lists, perpetual/occasional/extra = 1 0 0
  (1) pair lj/cut/tip4p/long/omp, perpetual
      attributes: half, newton on, omp
      pair build: half/bin/newton/omp
      stencil: half/bin/3d
      bin: standard
Setting up Verlet run ...
  Unit style    : real
  Current step  : 19250000
  Time step     : 2
  Walltime left : 23:49:59.94
Per MPI rank memory allocation (min/avg/max) = 10.19 | 10.20 | 10.20 Mbytes
Step Temp PotEng TotEng E_pair E_mol Press Lx Ly Lz Volume Pxx Pyy Pzz Pxy Pxz Pyz Enthalpy 
19250000    282.03043   -3854.3818   -3370.9913   -3854.3818            0    5108.5296    17.169428    20.223318    20.946662    7273.1586    4963.6032    5057.7642    5304.2214    128.84383    12.491294    761.98563   -2829.1216 
19251000    266.51577   -3837.6078   -3380.8089   -3837.6078            0    6993.7162    17.172032    20.226386    20.949839    7276.4689    6767.9313    6092.7962    8120.4212    341.33136    2109.2779    1228.1149   -2638.6369 
19252000    256.37791    -3838.661   -3399.2381    -3838.661            0    6848.4515    17.136775    20.184857    20.906825    7231.7411    6670.1643    6752.4794    7122.7109    117.59501    1241.5556    293.83319   -2676.9488 
19253000    262.14426   -3847.5737   -3398.2674   -3847.5737            0    4247.9894    17.163139    20.215911    20.938989    7265.1695    3692.3916      5054.82    3996.7568   -240.37866    -1338.436   -419.47346   -2948.1715 
19254000    254.61182   -3859.9995   -3423.6035   -3859.9995            0    6001.1762    17.119739    20.164791    20.886042     7210.195    5685.7809    7553.8496    4763.8981    144.83239    852.25208    144.55852     -2792.56 
19255000    276.96195   -3846.4341   -3371.7308   -3846.4341            0    6850.2235    17.087458    20.126768    20.846659    7169.4852    8799.0307    5378.2042    6373.4355     300.5444   -441.84902   -219.71483   -2655.4742 
19256000    257.02459   -3801.4913     -3360.96   -3801.4913            0    7126.6741    17.103841    20.146065    20.866646    7190.1263    6857.1341     6065.178    8457.7102     288.0031    432.16427   -452.36338   -2613.6525 
19257000    273.88166   -3864.4567   -3395.0329   -3864.4567            0    6906.8963    17.095998    20.136827    20.857077    7180.2398    6937.7832    7279.7976     6503.108   -341.10687   -342.53841    529.72972   -2671.7673 
19258000     280.0852   -3854.1393   -3374.0828   -3854.1393            0    6305.0453    17.143933    20.193288    20.915558     7240.807    5147.1545    6443.1535    7324.8278    1089.1353    1549.9418   -631.43182   -2708.2716 
19259000    277.50198   -3850.7815   -3375.1526   -3850.7815            0    5552.7015    17.205431    20.265725    20.990585    7319.0083    5741.9687    5203.2086    5712.9273    681.21852   -803.09917    183.34847    -2782.456 
19260000    270.06295   -3864.4503   -3401.5717   -3864.4503            0     5730.182    17.190562    20.248211    20.972445    7300.0491    6762.2041    5503.5372    4924.8046   -76.335302   -46.639207   -755.76225   -2791.5151 
19261000    266.49201   -3854.1668   -3397.4086   -3854.1668            0    7290.1815    17.156015     20.20752    20.930299    7256.1269    6588.7132    8884.4688    6397.3627    557.56483   -1396.1537   -761.00626   -2625.9385 
19262000     277.0269   -3840.3373   -3365.5226   -3840.3373            0    5542.1975     17.21499    20.276985    21.002248    7331.2147    4798.7622    5356.9492    6470.8811   -460.66832   -1131.9472    210.01839   -2772.9606 
19263000    270.82888   -3843.9878   -3379.7964   -3843.9878            0    7601.4377    17.177422    20.232734    20.956414    7283.3223    7438.9283    6810.2946    8555.0901    605.49938   -780.48506    1771.9634   -2572.3733 
19264000    263.51787   -3862.4486    -3410.788   -3862.4486            0    7375.9917    17.151048    20.201669    20.924239    7249.8263    8114.2427    6950.5624      7063.17    546.01577    942.07936    829.28552    -2630.915 
19265000    264.57931   -3865.5693   -3412.0894   -3865.5693            0    7235.9285    17.131853     20.17906    20.900821    7225.5117     8085.846    7023.9065    6598.0331   -1334.1857    169.81382    1241.8731   -2649.5913 
19266000    257.16282   -3850.1767   -3409.4084   -3850.1767            0    7592.0518    17.103767    20.145978    20.866555    7190.0327    6520.8536    6442.5012    9812.8005   -48.493421   -1719.6095    491.71355   -2613.3115 
19267000    259.83896   -3874.2121    -3428.857   -3874.2121            0    7112.0189    17.127249    20.173638    20.895204    7219.6885    6457.1539      6070.12    8808.7828    -982.4826   -824.66446    509.72004   -2680.0201 
19268000    243.92811   -3863.1618   -3445.0774   -3863.1618            0     7168.197    17.110779    20.154237     20.87511    7198.8799    7221.2094    5757.3625     8526.019   -3.0552462   -848.03026    630.98898   -2692.5007 
19269000    258.74165   -3865.1621   -3421.6877   -3865.1621            0    7810.7805    17.159829    20.212012    20.934952    7260.9672    7937.9417    9554.0505    5940.3492   -921.88218    599.76054    36.679648   -2594.5748 
19270000    258.31353   -3889.1627   -3446.4222   -3889.1627            0    5249.8554    17.192181    20.250118     20.97442     7302.112    5819.0166    4946.8992    4983.6504     140.9669   -486.95033    625.46308   -2887.3451 
19271000    251.62118   -3875.9016   -3444.6315   -3875.9016            0    6533.1806    17.140897    20.189713    20.911855    7236.9612    6207.0529    6819.4691    6573.0198    569.56211     1515.896    756.86617   -2755.0957 
19272000    277.65199   -3879.7229   -3403.8369   -3879.7229            0    6006.2022    17.172668    20.227134    20.950615    7277.2767    6007.8876    5979.8185    6030.9004    1540.4539    400.97056   -898.70788    -2766.389 
19273000    255.92588   -3861.8608   -3423.2126   -3861.8608            0     9007.699    17.072136    20.108721    20.827966    7150.2157    8595.5125    10209.591    8217.9934   -606.67415    421.14961    905.00922   -2483.9027 
19274000    288.09073   -3851.4033   -3357.6257   -3851.4033            0    6540.9159     17.11778    20.162484    20.883652    7207.7206     5464.158    6263.8376    7894.7523    1250.0594     2135.264    941.29012   -2670.0628 
19275000    263.69886   -3854.0877   -3402.1169   -3854.0877            0    8295.3595    17.095549    20.136298    20.856529    7179.6739    7719.2211    8486.2468    8680.6107    987.20714    1574.6952   -605.38889   -2533.5249 
19276000    286.00468    -3857.005   -3366.8028    -3857.005            0    9011.9266    17.074349    20.111328    20.830666    7152.9975    9100.3554    8958.9254    8976.4992   -600.03931   -646.61532    320.28032   -2426.6864 
19277000    270.38812   -3836.5761   -3373.1401   -3836.5761            0    7172.0111    17.164624     20.21766    20.940802    7267.0558    7428.7934    7065.9376    7021.3022   -639.61189    777.06588   -63.266456    -2613.032 
19278000    265.23363   -3888.4878   -3433.8864   -3888.4878            0    5763.6917    17.152578    20.203471    20.926105    7251.7658     4862.756    5400.9391    7027.3801    800.81915    52.214973    1528.7551   -2824.3209 
19279000    247.96984   -3870.0767   -3445.0649   -3870.0767            0    5641.8981    17.172029    20.226381    20.949835    7276.4643     6484.672    5831.1883    4609.8339   -1759.7531     230.6316    -1597.344    -2846.348 
19280000    288.00625    -3860.285   -3366.6522    -3860.285            0    6645.7993      17.0788    20.116571    20.836097    7158.5931    5384.5165    6972.6498    7580.2316   -1206.5763   -167.63702    791.57409   -2672.8258 
19281000    276.04914   -3860.6733   -3387.5345   -3860.6733            0    6841.5195    17.178608    20.234132    20.957862    7284.8318    7547.2116    5189.5158    7787.8312    429.01673    1068.2698    431.70412   -2660.6792 
19282000    260.20727   -3843.9882   -3398.0019   -3843.9882            0    4123.8187    17.207976    20.268723    20.993691    7322.2575    4003.7856    4236.1366     4131.534    555.22512   -538.25463    -1988.594   -2957.6291 
19283000    275.08464   -3862.6127    -3391.127   -3862.6127            0    8003.0574     17.12355     20.16928    20.890691    7215.0112    6893.2929    8386.5088    8729.3706    100.92287   -315.29283    2216.6878    -2549.017 
19284000    255.83213   -3859.7416   -3421.2541   -3859.7416            0    6673.7508    17.161541    20.214028    20.937039    7263.1397    7221.4234    5979.3594    6820.4696    540.12233   -262.57249    309.61993   -2714.3341 
19285000    257.16484   -3876.3829   -3435.6112   -3876.3829            0    7486.9087    17.054687    20.088168    20.806678     7128.314    7048.8637    7392.5834     8019.279    17.961858   -1308.7027   -298.25705   -2657.2785 
19286000     258.8404   -3854.1205   -3410.4769   -3854.1205            0    7319.8581    17.051865    20.084845    20.803236    7124.7768    8143.4961    5536.6748    8279.4036   -705.59864   -20.793886   -1392.7869   -2649.8883 
19287000    268.83934   -3847.4513   -3386.6699   -3847.4513            0      6078.09      17.0766    20.113979    20.833412    7155.8263    6720.3413    7313.8064    4200.1223    582.21135    477.40307    2063.7999    -2752.358 
19288000    268.85763   -3836.9268    -3376.114   -3836.9268            0    9164.1924    16.969681    19.988043    20.702971    7022.2556    6424.4564    10975.096    10093.025   -1239.2811   -594.19664    550.49183   -2437.5872 
19289000    261.25252   -3833.5441   -3385.7662   -3833.5441            0    8407.7812    17.011118     20.03685    20.753524    7073.8226    7987.1518     8178.118    9058.0737    778.65921   -265.61665     1556.481   -2518.3821 
19290000     263.0984   -3851.9249   -3400.9833   -3851.9249            0    6864.6931    17.117319    20.161941    20.883089    7207.1379    6418.5239    5605.0769    8570.4785   -952.74166    122.14933   -592.93538   -2679.4442 
19291000    265.22378   -3850.1299   -3395.5454   -3850.1299            0    5575.0828    17.135693    20.183583    20.905505    7230.3711     3817.458    6747.2617    6160.5287   -1460.4349   -1281.1371    661.14708   -2807.6666 
19292000    267.42616   -3859.7238   -3401.3645   -3859.7238            0     7010.017    17.142197    20.191244     20.91344    7238.6077    7561.5795     6586.595    6881.8764    -110.8914   -279.46491     1953.916   -2661.3333 
19293000    277.31315   -3871.2565   -3395.9512   -3871.2565            0    8563.5422    17.081923    20.120248    20.839906    7162.5198    9470.6788    8476.0056    7743.9422    446.90534   -645.55148    377.95106   -2501.4207 
19294000     279.0337   -3894.9011   -3416.6469   -3894.9011            0    9058.2755    17.074157    20.111102    20.830432    7152.7564    10077.529    8056.9453    9040.3518    1135.9244   -846.14604   -1142.8184   -2471.7273 
19295000    248.92391   -3883.8631    -3457.216   -3883.8631            0    7907.0788    17.099944    20.141475    20.861892    7185.2129    8489.0693     7629.019     7603.148    122.90127   -28.303618   -862.87699   -2628.6414 
19296000    274.48697   -3844.9474   -3374.4861   -3844.9474            0    7937.2329    17.091613    20.131663    20.851728     7174.717    8295.6609    8782.8632    6733.1746   -574.13447   -491.75095    815.05208   -2543.9667 
19297000    265.44107    -3885.034   -3430.0771    -3885.034            0    7033.4377    17.134303    20.181945    20.903809    7228.6115    8433.8274    5418.2372    7248.2487   -70.731086   -766.20327    -194.4038   -2688.5988 
19298000    266.33891   -3891.4796   -3434.9838   -3891.4796            0    6005.1403    17.121799    20.167217    20.888554    7212.7976    6649.5264    5964.0615    5401.8329    134.83942    -862.3039    123.46861   -2803.2956 
19299000    266.47423   -3846.1177     -3389.39   -3846.1177            0    8647.5026    17.051624    20.084561    20.802942    7124.4748    9514.3127    7031.4943    9396.7008   -290.61941    19.051934    761.22607   -2490.8872 
19300000    269.89085   -3873.6993   -3411.1156   -3873.6993            0    9129.0866    17.016917    20.043681    20.760599    7081.0597    8755.2286    9383.0707    9248.9606    1242.3958    1044.7062    2335.5623   -2468.3549 
19301000    263.34301   -3824.2002   -3372.8393   -3824.2002            0    4671.1427    17.208134    20.268909    20.993884    7322.4592    3646.9552    3513.6766    6852.7964   -111.55662   -1087.5694   -919.84316   -2874.0053 
19302000    264.31276   -3841.5359   -3388.5128   -3841.5359            0    6717.7883    17.078499    20.116216    20.835729    7158.2138    7862.5437    4418.5033    7872.3178   -1648.2108   -990.81103   -1147.1702   -2687.2079 
19303000    256.04948   -3851.0875   -3412.2275   -3851.0875            0    5979.0193    17.159117    20.211173    20.934082    7260.0627    6846.9825    4669.7777    6420.2977     -1036.52    618.15821   -2239.1432   -2779.1655 
19304000    282.74818   -3860.6844   -3376.0637   -3860.6844            0    6211.0282    17.213359    20.275063    21.000257    7329.1302    7761.9606    2807.1852    8063.9388   -176.26966    664.40545    358.09225   -2712.1803 
19305000    265.80553   -3860.0788   -3404.4972   -3860.0788            0    10274.704    17.021781    20.049409    20.766533    7087.1326    10554.439    10928.826    9340.8478    499.86231   -383.53417    57.450609   -2342.5186 
19306000    254.90923   -3809.7552   -3372.8495   -3809.7552            0    6347.6556     17.20019    20.259552    20.984192    7312.3221    6036.8441    7278.1422    5727.9806   -618.66248   -297.27713   -800.98891   -2695.9183 
19307000    281.94206   -3899.6894   -3416.4503   -3899.6894            0    5048.7383     17.19652    20.255229    20.979715    7307.6429    5473.1661    4885.2703    4787.7785    112.93233   -678.92562    -1014.549   -2878.3837 
19308000    259.42707   -3857.2808   -3412.6317   -3857.2808            0    5937.1054    17.112927    20.156768    20.877732    7201.5921    5210.7227    6344.2273    6256.3663    1783.8275    1032.9208    554.97739   -2789.0704 
19309000    268.97239   -3849.5075    -3388.498   -3849.5075            0    6309.2144     17.12322    20.168891    20.890288    7214.5937    7748.5375    4792.0638    6387.0418    1098.6129    1213.6858    901.07808   -2724.6586 
19310000    256.94008   -3875.6993   -3435.3127   -3875.6993            0    5470.3835    17.125076    20.171077    20.892552    7216.9397    4521.2974    6005.9624    5883.8906   -805.01766   -568.04145   -1799.9371   -2859.5458 
19311000    274.63486   -3853.1227   -3382.4079   -3853.1227            0    8981.6724    17.011711    20.037549    20.754248    7074.5629    8932.4809    8868.6331    9143.9034    83.923854     252.0146    915.44341   -2455.7217 
19312000    268.00545   -3850.7764   -3391.4243   -3850.7764            0    5838.9263    17.088541    20.128044     20.84798    7170.8484    5318.8539    5647.1737    6550.7511    1706.0837    393.59442    1542.7893   -2780.7925 
19313000    266.21939   -3823.6011   -3367.3102   -3823.6011            0    5702.2135    17.111047    20.154553    20.875437    7199.2177    6490.8977    6973.0385    3642.7044   -597.61189    1437.2131    265.99804   -2768.6165 
19314000    259.84461   -3833.8569   -3388.4921   -3833.8569            0    7020.1846     17.10756    20.150446    20.871183    7194.8178    6309.4221    7538.9967    7212.1351    -794.6144     399.1668    2234.4516   -2651.8709 
19315000    257.09091   -3878.2601   -3437.6151   -3878.2601            0    6737.7183    17.142363    20.191439    20.913642    7238.8176    7294.8895    6053.4589    6864.8065   -971.03086   -441.40099     404.4272   -2726.3093 
19316000    273.43782    -3831.419    -3362.756    -3831.419            0    5923.6055    17.137841    20.186113    20.908126    7233.0906    5453.6396    5264.0021    7053.1749    72.562221   -561.97149     1487.225   -2737.8914 
19317000    250.51081   -3863.7267   -3434.3597   -3863.7267            0    6557.7414    17.038858    20.069524    20.787367    7108.4852    7184.8785    4730.6711    7757.6747    1172.5028   -462.09732   -194.58493   -2754.5189 
19318000    262.67669   -3868.4294   -3418.2105   -3868.4294            0    5721.2171    17.158906    20.210924    20.933825    7259.7948    5757.2711    5483.5556    5922.8247   -1274.4526   -1313.4831    1137.4926   -2812.4672 
19319000    241.24406   -3869.6137   -3456.1296   -3869.6137            0    7576.6177    17.046148    20.078111    20.796261    7117.6126    6825.9782    7943.1289     7960.746    478.95562    503.89186   -978.39494   -2669.6533 
19320000    260.37332   -3854.5715   -3408.3006   -3854.5715            0    6948.9478     17.11405     20.15809    20.879101    7203.0091    6436.4095    7751.7103    6658.7237   -724.85211    697.45132    -226.5396    -2678.324 
19321000    251.10097   -3861.2078   -3430.8293   -3861.2078            0     4948.481    17.160836    20.213198    20.936179    7262.2448    6068.3595    3632.4184    5144.6651   -210.94404    998.51186    285.02896   -2906.7239 
19322000    280.10324   -3851.7538   -3371.6664   -3851.7538            0    7304.9194    17.083319    20.121893    20.841609    7164.2761    7495.5774    8354.9016    6064.2791   -4.8281913   -493.04232    -604.5078    -2608.422 
19323000    245.36632   -3879.8658   -3459.3163   -3879.8658            0     6684.916    17.095036    20.135694    20.855904    7179.0278    6677.5525    5052.8744     8324.321    280.95974   -438.17343   -765.48613   -2759.4139 
19324000    256.96576   -3881.6255    -3441.195   -3881.6255            0     7185.091    17.102365    20.144327    20.864846    7188.2656     7150.565    8069.3811     6335.327   -894.57492    811.48144   -445.38966   -2687.9569 
19325000    261.87584   -3897.0901   -3448.2438   -3897.0901            0    7215.8752    17.086723    20.125903    20.845762    7168.5599    7517.1255    8727.9586    5402.5415    1621.9699    -1324.359    2407.5439   -2693.8523 
19326000     259.5663   -3881.1766   -3436.2889   -3881.1766            0    6038.8734    17.133838    20.181398    20.903242    7228.0236    5882.8472    6609.9764    5623.7965   -388.57548    404.26215    1517.8462   -2799.7113 
19327000    244.48506    -3876.509     -3457.47    -3876.509            0    7283.2547    17.099272    20.140683    20.861071    7184.3656    7765.6096    6286.6297    7797.5247    1006.6033   -924.24463    1294.8662   -2694.3553 
19328000    275.18109   -3863.1946   -3391.5436   -3863.1946            0    4351.2144    17.168219    20.221894    20.945187     7271.622    4849.7812    3223.4222    4980.4399   -1236.8939   -838.84514    1665.5069   -2930.1011 
19329000    269.46729   -3898.9485   -3437.0907   -3898.9485            0    5101.7218    17.134278    20.181916    20.903779    7228.5799     7018.285    2350.4756    5936.4047   -2207.3935    -1143.452   -344.79508     -2899.26 
19330000    276.04278    -3831.033   -3357.9051    -3831.033            0    6487.8427    17.091388    20.131397    20.851453    7174.4328    6201.3843    7397.4475    5864.6963    257.34979   -896.69531    864.72776   -2679.0708 
19331000    254.40852   -3842.4083   -3406.3608   -3842.4083            0    6470.0078    17.049604    20.082182    20.800478    7121.9433    5891.3304    7712.2129    5806.4802    508.41709    239.11104   -64.918473   -2734.3455 
19332000    267.13156   -3890.5751   -3432.7208   -3890.5751            0    6110.1942    17.137568    20.185791    20.907793     7232.745    5922.3002    7608.5434    4799.7389   -1555.2037    942.88239   -320.12777   -2788.2042 
19333000    242.11885   -3852.3441   -3437.3606   -3852.3441            0    6682.0845    17.097217    20.138263    20.858564    7181.7757    6244.2683    6820.8718    6981.1135   -1098.6443    246.28202    1207.3123   -2737.4869 
19334000    264.33938   -3836.3718   -3383.3031   -3836.3718            0    5354.6839    17.120083    20.165196    20.886461    7210.6292    6712.3406    4375.6907    4976.0202    587.30779   -353.85159   -364.74542   -2820.2066 
19335000    265.50982   -3850.0006   -3394.9259   -3850.0006            0    6803.1199    17.081254    20.119461     20.83909    7161.6784    4936.9746    7275.4573    8196.9276    227.74994    108.65473    402.54517    -2684.369 
19336000    260.89325   -3869.7991    -3422.637   -3869.7991            0     4999.292    17.165856    20.219111    20.942305    7268.6208    2978.6796    6419.9609    5599.2356    1369.0714    306.99183    1461.4624   -2892.6851 
19337000    269.77993   -3892.0339   -3429.6404   -3892.0339            0     8248.776    17.046003     20.07794    20.796084    7117.4308    7156.1619    7701.3863    9888.7796   -851.82667   -639.44269   -721.31428   -2573.4139 
19338000    270.69928   -3812.0318   -3348.0624   -3812.0318            0    8442.2412    17.044481    20.076147    20.794227    7115.5249    9525.3894    8398.2505    7403.0838   -186.72015    373.06289   -587.20979   -2471.9889 
19339000    249.90416   -3878.5236   -3450.1964   -3878.5236            0    7450.7458    17.067046    20.102726    20.821756    7143.8226    5455.5036    8458.6552    8438.0785   -705.47969   -885.92962   -490.45344    -2673.938 
19340000     260.2784   -3871.2012    -3425.093   -3871.2012            0    4066.9137    17.154113    20.205279    20.927978    7253.7136    3982.7683    5254.5888    2963.3839   -1665.3841    1177.4236   -1365.0265   -2994.8624 
19341000    248.77273   -3847.3381   -3420.9501   -3847.3381            0    7870.1352    17.041576    20.072725    20.790682    7111.8867    6788.0095    7804.1947    9018.2014   -715.45993   -73.581765   -446.12714   -2604.6631 
19342000    267.85158   -3844.8659   -3385.7774   -3844.8659            0    7797.4079    17.114701    20.158857    20.879895    7203.8308    9174.7746    5994.6879    8222.7611   -342.13507    760.22066   -1279.9727    -2566.578 
19343000    261.18951   -3902.3819    -3454.712   -3902.3819            0    6412.5405    17.145132      20.1947     20.91702    7242.3257    7445.5999    6284.5987     5507.423    482.96286    -325.8003   -1247.3119   -2777.4074 
19344000    258.76246   -3878.1947   -3434.6847   -3878.1947            0    7689.5559     17.06732    20.103049    20.822091    7144.1673    7468.3219    8229.8855    7370.4603    640.63751   -396.39561   -1489.3501   -2633.5071 
19345000    262.19732   -3901.7096   -3452.3124   -3901.7096            0     7908.168    17.076062    20.113346    20.832756    7155.1508    8593.2523    7158.1434    7973.1082   -532.77344    317.40122   -15.034026   -2627.0908 
19346000    276.92216   -3858.5138   -3383.8786   -3858.5138            0    6466.1826    17.152313     20.20316    20.925782    7251.4308     7241.153    6925.1218    5232.2729   -554.77206   -302.00767    1181.4042   -2700.0496 
19347000    280.46414   -3883.7726   -3403.0666   -3883.7726            0    5743.9627    17.120576    20.165777    20.887062     7211.252    5832.0577     5380.118    6019.7124   -541.43406    927.35749    107.77801   -2798.9815 
19348000    256.04304   -3877.0629   -3438.2139   -3877.0629            0    5425.5103    17.132223    20.179495    20.901272    7225.9793    5361.9538    2889.5434    8025.0337     426.1719   -620.60618    18.042627   -2866.4546 
19349000    266.80902   -3865.6171   -3408.3156   -3865.6171            0    7835.0993    17.123677    20.169429    20.890846    7215.1714    8051.7955     9262.785    6190.7174   -1682.3473     516.4938     281.4591   -2583.8604 
19350000    254.70498   -3842.3519   -3405.7963   -3842.3519            0    7441.1314     17.15491    20.206218     20.92895    7254.7248    9985.0037    3880.5442    8457.8462    12.011193   -563.14692   -873.25246   -2618.5043 
19351000    264.18414    -3869.034   -3416.2314    -3869.034            0    7740.4889    17.129805    20.176648    20.898322    7222.9207    8422.0431    7466.2739    7333.1499   -383.37133    724.68203   -208.45044   -2600.8569 
19352000    273.60758   -3847.4031   -3378.4491   -3847.4031            0    6166.4527    17.083515    20.122124    20.841848    7164.5229    7469.0536    6536.5203    4493.7843   -1670.8963    862.15326    256.47508   -2734.1336 
19353000     262.8778   -3855.9773   -3405.4137   -3855.9773            0    6049.9619    17.092959    20.133248     20.85337    7176.4118    6630.3614    5403.2222    6116.3023    2.3287018    -595.9091     649.4341    -2772.221 
19354000    261.65711   -3866.6528   -3418.1815   -3866.6528            0    6112.8827    17.188453    20.245728    20.969873    7297.3636    7767.0154    7137.3008    3434.3318    444.00268   -344.70522    1224.5622   -2767.6206 
19355000    268.34569   -3846.9448   -3387.0095   -3846.9448            0    7133.1533    17.183615    20.240029    20.963971    7291.2034    8354.8818    7200.3653    5844.2129    62.252381    1156.7599    597.33495   -2628.5076 
19356000    252.59006   -3886.2335   -3453.3028   -3886.2335            0    6238.2945    17.159127    20.211185    20.934095    7260.0759    6830.3201    7218.9301    4665.6332   -608.14999   -167.26636    588.18276   -2792.7874 
19357000    265.06373   -3892.3486   -3438.0384   -3892.3486            0    6637.7133    17.115027    20.159241    20.880293    7204.2432    6464.8617    5817.0837    7631.1944    163.13115    606.52659    1598.0602   -2740.6371 
19358000    257.59852   -3843.6843   -3402.1692   -3843.6843            0    6937.1341    17.205949    20.266335    20.991217    7319.6696    5207.5652    7041.1904    8562.6468    969.84326    220.54264   -39.222333    -2661.631 
19359000    260.44127   -3836.4214    -3390.034   -3836.4214            0    7276.0543    17.095052    20.135714    20.855924    7179.0488    6946.7853    6757.2778    8124.0997    1184.9885    1004.9754   -294.90469    -2628.238 
19360000    254.35297   -3848.1413    -3412.189   -3848.1413            0    5271.3139    17.186773    20.243749    20.967823    7295.2243    6245.9126    5892.5302    3675.4988    314.95897     712.8043   -802.30357   -2851.3562 
19361000    270.81732   -3867.2656    -3403.094   -3867.2656            0    6753.4739     17.10595    20.148549    20.869219    7192.7866     6759.329    7646.1156     5854.977   -408.85378    676.23677    503.25156   -2694.6585 
19362000    275.14493   -3892.2966   -3420.7076   -3892.2966            0    7507.0389    17.067853    20.103676     20.82274    7144.8357    5140.8225    7857.6995    9522.5947   -1143.1016    -442.6588    390.29834   -2638.4734 
19363000    270.85707   -3898.2432   -3434.0034   -3898.2432            0    8351.9608    17.086234    20.125327    20.845165    7167.9445    8100.0736    9544.1719    7411.6368   -792.66959    727.98878   -1595.3203   -2560.9135 
19364000    269.46065   -3844.8694    -3383.023   -3844.8694            0    8208.0607    17.079287    20.117144     20.83669    7159.2047    6689.5862     8616.795    9317.8009    729.92122   -615.42847   -915.52176   -2526.0222 
19365000    278.56627    -3870.971   -3393.5179    -3870.971            0     6760.891     17.08796     20.12736    20.847271    7170.1168    6923.9913    7526.3821    5832.2997    696.94972   -1541.0913   -254.50088   -2686.5397 
19366000    262.36175   -3891.2977   -3441.6187   -3891.2977            0    5469.5815    17.137353    20.185538    20.907531     7232.473    3471.9339    5962.7257     6974.085    628.97992    571.72586   -1267.9927   -2864.6971 
19367000    256.90672   -3893.9773   -3453.6479   -3893.9773            0    5939.3593    17.152386    20.203245    20.925871    7251.5226    6767.1894    4393.5045    6657.3839   -663.81738   -815.30404   -714.84258   -2825.5249 
19368000    262.13802   -3895.4185   -3446.1229   -3895.4185            0    6242.6956    17.160252     20.21251    20.935467    7261.5036     6476.572    6415.5725    5835.9423    415.76215   -522.92729   -1002.5363   -2785.0115 
19369000    267.35881   -3838.4457   -3380.2018   -3838.4457            0    9816.9578    17.078399    20.116098    20.835606    7158.0879    8422.6789    11144.174    9884.0204   -158.03881    242.01287    1115.6734   -2355.3765 
19370000    252.86506   -3869.3908   -3435.9887   -3869.3908            0    7391.8253    17.107105     20.14991    20.870628    7194.2433     8935.846    6861.0563    6378.5735     407.5172    349.68892    759.82267   -2660.4335 
19371000    256.49114   -3870.1288   -3430.5117   -3870.1288            0    6948.6673     17.11903    20.163956    20.885177    7209.2995    4947.0368    8019.7357    7879.2292    578.35174    130.15755    64.212077   -2699.9272 
19372000    270.77094   -3839.0864   -3374.9943   -3839.0864            0    6958.9951    17.160234    20.212488    20.935445    7261.4804    6179.6726    7165.9687    7531.3438   -167.23678    365.91953    1389.0638   -2638.0281 
19373000    243.63696   -3865.4653   -3447.8799   -3865.4653            0    4314.4357    17.250817    20.319184    21.045956    7377.0815    4213.2151    3758.3609     4971.731   -325.57901    671.75883    1167.7306    -2983.702 
19374000     264.8734   -3839.4975   -3385.5135   -3839.4975            0    6235.6988    17.154003     20.20515    20.927844    7253.5737    6488.7875    4121.0266    8097.2823    705.80554    358.40819   -1415.8216   -2725.8643 
19375000    270.31724   -3809.0895    -3345.775   -3809.0895            0    5629.4511     17.10526    20.147736    20.868377    7191.9158      5298.03    6159.5337    5430.7897   -367.23075   -432.39199     -510.219   -2755.3203 
19376000    271.80906   -3853.0731   -3387.2017   -3853.0731            0    9039.4867    17.010841    20.036524    20.753187    7073.4773    9310.5752    10006.397    7801.4874    1050.8568      -1321.6    1820.3044   -2454.6935 
19377000    279.09603   -3853.1212   -3374.7602   -3853.1212            0    8225.9331     16.99722     20.02048    20.736569    7056.4993    7923.2791    6885.0545    9869.4657   -178.07202   -1.6185871   -1392.3057   -2528.2146 
19378000    263.53283   -3860.9641   -3409.2779   -3860.9641            0    8600.4004    17.088111    20.127537    20.847455    7170.3067    7964.8233     8871.275    8965.1028   -570.51184    471.78874    1114.1716   -2509.9205 
19379000    263.61904   -3845.7701   -3393.9361   -3845.7701            0     5713.138     17.15471    20.205983    20.928707    7254.4713    4739.2322    6233.4381    6166.7437   -560.30807    1032.8909   -894.63163   -2789.4917 
19380000    266.59145   -3872.5967   -3415.6681   -3872.5967            0     7376.433    17.144192    20.193593    20.915874    7241.1349    7208.8447    7393.3598    7527.0945   -97.831005    165.25574    243.46384   -2636.6834 
19381000    262.18899   -3875.9107   -3426.5278   -3875.9107            0    5513.5213     17.15878    20.210777    20.933672    7259.6357    5534.3717    6064.6992    4941.4931    1267.3469    643.97976    564.76187   -2842.7873 
19382000    259.64337   -3790.4339    -3345.414   -3790.4339            0    6059.1116    17.145508    20.195144     20.91748     7242.803    4972.7661    6625.7783    6578.7905   -1424.0672    -15.66847    322.61557    -2705.397 
19383000    262.58933   -3848.1569   -3398.0878   -3848.1569            0    6036.5564    17.153558    20.204626    20.927301    7253.0098    6975.0716    5870.8082    5263.7893    496.51373    -906.7087   -54.979235   -2759.5547 
19384000    253.86916   -3853.4144   -3418.2914   -3853.4144            0    7582.7944    17.081189    20.119385    20.839011    7161.5976     7768.656    6825.2423    8154.4847    2022.9814    -952.6193   -1338.6713   -2626.3098 
19385000    250.04336   -3866.4723   -3437.9066   -3866.4723            0    7073.6688    17.100928    20.142635    20.863093     7186.454    7348.4888    7090.4946    6782.0228    407.25201   -1664.4523   -728.85512   -2696.5361 
19386000    265.56686   -3855.2106   -3400.0381   -3855.2106            0     6462.076    17.075834    20.113076    20.832477    7154.8631    8909.2812     5782.161    4694.7858    -397.6126   -265.95252    499.05476   -2725.7441 
19387000    259.59302   -3856.4208   -3411.4873   -3856.4208            0    7636.5219    17.076463    20.113818    20.833245    7155.6549    8693.0974    7539.8397    6676.6284    653.95791   -364.55966    550.39068    -2614.556 
19388000    264.27942   -3865.0942   -3412.1283   -3865.0942            0    6386.1154    17.113115    20.156989     20.87796    7201.8287    6869.5102    6103.5859    6185.2501    169.29916   -271.84107    979.66566   -2741.3864 
19389000    245.42732   -3872.2675   -3451.6134   -3872.2675            0    8082.8608    17.020554    20.047964    20.765036    7085.6001    8476.3876    6712.7863    9059.4086   -667.64584      531.821    459.64903   -2616.3612 
19390000    265.62564   -3876.5176   -3421.2444   -3876.5176            0    6362.5473    17.092494      20.1327    20.852802    7175.8256    5805.3846    5988.8268    7293.4306    359.06818   -1859.7565    272.18931   -2755.3907 
19391000    260.91548   -3914.2383   -3467.0381   -3914.2383            0    6270.8095    17.073222    20.110001    20.829291     7151.581    6962.5728    5556.2569    6293.5989   -712.74271    809.24084    486.60496   -2813.0022 
19392000    253.83815   -3880.7668   -3445.6969   -3880.7668            0    5666.5718    17.093877    20.134329     20.85449    7177.5682    5538.0939    5443.3125    6018.3092   -694.25224   -939.91574    460.94149   -2852.5345 
19393000    254.79447   -3894.5107   -3457.8017   -3894.5107            0    5682.9313     17.18095     20.23689    20.960719    7287.8118    5431.9103    6931.2543    4685.6294    1055.8321    1448.3655   -193.49575   -2853.7899 
19394000    255.88633   -3866.1316   -3427.5512   -3866.1316            0    7557.3983    17.077357    20.114871    20.834336    7156.7785    7488.3728    8922.4446    6261.3775   -247.42457    1341.0794   -1473.6022   -2638.7532 
19395000    271.98573   -3859.7779   -3393.6036   -3859.7779            0    7108.4224    17.079038    20.116851    20.836386    7158.8917    8491.3357    7569.2095     5264.722    33.523801    850.61238    770.20579   -2651.4481 
19396000    252.02182   -3857.1004   -3425.1436   -3857.1004            0    7222.6257    17.062244     20.09707    20.815898    7137.7946    9999.0351    4830.6101     6838.232    201.51167   -831.15969    1475.2926   -2673.2869 
19397000    254.54319   -3874.1838   -3437.9055   -3874.1838            0    5922.6782    17.062391    20.097243    20.816078    7137.9793    7114.8676    4475.3576    6177.8094   -1422.9237   -1446.9055    1413.2435   -2821.3541 
19398000    252.72097   -3868.1368   -3434.9818   -3868.1368            0    5622.9415    17.114219     20.15829    20.879307     7203.223    5455.3939    4963.0229    6450.4079   -364.02328   -2514.8437   -59.733367   -2844.2826 
19399000    270.24852   -3817.6522   -3354.4555   -3817.6522            0    7292.2175    17.069452    20.105559    20.824691    7146.8441     7172.771     5432.427    9271.4546    326.09841   -615.82896    140.58839   -2594.3921 
19400000    267.99711    -3866.166   -3406.8281    -3866.166            0    10008.958    17.000561    20.024416    20.740645    7060.6614    9938.8197      8483.88    11604.174    1047.4019   -1004.3405    967.99201   -2376.1806 
19401000    271.94449   -3857.0467   -3390.9432   -3857.0467            0    6185.1267    17.111809    20.155451    20.876367      7200.18    5175.8044    7121.0202    6258.5554    540.34268   -1312.2877    1677.4108   -2741.4601 
19402000    247.36246   -3872.8386   -3448.8678   -3872.8386            0    5733.9143     17.14439    20.193827    20.916116    7241.3861    5453.5645    7079.4275    4668.7509    1354.1645    253.89059   -356.39302   -2843.3195 
19403000    270.56257   -3873.7577   -3410.0228   -3873.7577            0    5373.1704    17.198949     20.25809    20.982678    7310.7398    5151.6813    3870.1358    7097.6941    512.94629    276.44839   -505.24018   -2837.1372 
19404000    250.60837   -3902.1966   -3472.6624   -3902.1966            0    6224.4394     17.17465    20.229469    20.953032    7279.7965    6467.2342    6455.4065    5750.6776   -455.19424    333.42966    726.20462   -2811.8239 
19405000    267.77536   -3881.8756   -3422.9178   -3881.8756            0    7013.9821    17.109903    20.153206    20.874042    7197.7748    6297.5284     6684.717    8059.7011    -260.6043    297.36459   -2327.6164   -2686.6449 
19406000    250.11233    -3884.645    -3455.961    -3884.645            0     5791.594    17.150765    20.201336    20.923894    7249.4675    5953.3737    5168.0806    6253.3277   -157.96249    708.12144    1171.2632   -2843.6387 
19407000     264.3923   -3876.3004    -3423.141   -3876.3004            0     8371.623    17.064183    20.099353    20.818263     7140.228     8729.788    6990.1805    9394.9005   -2359.3977    361.45083   -1002.5978   -2551.3796 
19408000    264.88033   -3880.6361   -3426.6403   -3880.6361            0    7976.8363    17.054395    20.087825    20.806322    7127.9483    6696.0279    9572.5678    7661.9132    343.91831   -304.03028    1787.5674   -2597.4177 
19409000    268.96112   -3885.1422   -3424.1521   -3885.1422            0     7584.397    17.119298    20.164272    20.885504    7209.6377    8507.7417    6563.0141    7682.4352     1661.781   -356.49562    847.98431   -2626.6893 
19410000    269.75577   -3859.9351   -3397.5829   -3859.9351            0    7582.8084    17.186722    20.243688    20.967761    7295.1586    8263.9133    5428.8673    9055.6447    556.34348    183.98444   -533.76683   -2590.8297 
19411000    255.57755   -3876.2539   -3438.2027   -3876.2539            0    6884.6399    17.108663    20.151745    20.872529    7196.2096    6554.4274     6961.544    7137.9481    18.515835    697.05474    1091.1724   -2715.6643 
19412000    255.64926   -3877.4912   -3439.3172   -3877.4912            0    5443.1806    17.171574    20.225846     20.94928    7275.8859     4250.714    6764.5482    5314.2798    -501.7037   -814.06141    1223.1922    -2861.734 
19413000    256.57086   -3853.5895   -3413.8359   -3853.5895            0    7076.0133    17.130322    20.177256    20.898953    7223.5746    6176.9046    8459.6888    6591.4466   -1614.0649   -497.66942   -240.09183    -2668.389 
19414000    262.65302   -3870.3084   -3420.1301   -3870.3084            0    6979.8468    17.115264    20.159521    20.880583    7204.5427    8102.2703    6649.3895    6187.8807   -545.89966    1243.6005    200.20054   -2686.7515 
19415000    261.35228   -3871.1758   -3423.2269   -3871.1758            0    7663.6131    17.139938    20.188583    20.910684    7235.7458    7617.7532    7233.0152    8140.0709   -1084.8901    1707.1518   -580.50442    -2614.517 
19416000    262.34884    -3866.576    -3416.919    -3866.576            0    6569.6543    17.151281    20.201943    20.924522    7250.1209    6159.0685    5550.7068    7999.1875    382.75357    1431.5919   -2493.6901   -2722.2729 
19417000    255.39097   -3894.0549   -3456.3235   -3894.0549            0    6869.5654    17.143129    20.192342    20.914578    7239.7887    8125.8221    6957.9181     5524.956    928.08939     134.3108   -697.67888   -2731.0012 
19418000    284.53269   -3867.3758   -3379.6965   -3867.3758            0    6114.4406    17.164535    20.217555    20.940692    7266.9419    5936.0354    6291.5498    6115.7368   -573.88879     2035.276   -63.967067   -2731.6826 
19419000    266.29601   -3830.3431   -3373.9209   -3830.3431            0    6873.6304    17.093043    20.133347    20.853472    7176.5174    7434.0502    6532.7323    6654.1087   -626.72597   -1581.8722   -537.25787    -2654.512 
19420000     262.5413   -3860.8591   -3410.8723   -3860.8591            0     6345.859    17.141606    20.190548     20.91272    7237.8595    8195.5669    5830.5954    5011.4147   -803.93544   -364.48952   -234.63363    -2741.024 
19421000    263.85822   -3865.5852   -3413.3413   -3865.5852            0    6059.3605     17.07722    20.114709    20.834168    7156.6054    4263.0277    6492.9025    7422.1514   -858.96395    761.89684   -261.44532   -2780.9152 
19422000    252.33087   -3859.3733   -3426.8869   -3859.3733            0    5200.7427    17.131822    20.179023    20.900782     7225.472    6246.3115     5191.892    4164.0245   -997.01336   -980.98174    360.03957   -2878.8529 
19423000    259.90324     -3864.13   -3418.6647     -3864.13            0    6941.7085    17.090533     20.13039     20.85041    7173.3564    8489.9447    5404.8723    6930.3084    494.07131    1542.8789    574.17667   -2692.4506 
19424000    269.89445    -3894.542   -3431.9521    -3894.542            0     7219.258     17.11532    20.159586     20.88065    7204.6126    8474.6412    7621.9869    5561.1459   -866.02375   -411.81299    299.47723   -2673.4111 
19425000    276.18953    -3873.769   -3400.3896    -3873.769            0    7942.5874    17.052547    20.085648    20.804067    7125.6313    6885.4586    7964.2483    8978.0552   -909.05391    246.25197   -1158.9125   -2574.9957 
19426000    261.96774   -3869.5747   -3420.5709   -3869.5747            0    7850.0822    17.064392      20.0996    20.818518    7140.4903    9183.1298    6364.6954    8002.4215   -182.87648   -292.50527    530.57556   -2603.0891 
19427000    272.19532   -3839.9785    -3373.445   -3839.9785            0     6980.936    17.151915     20.20269    20.925296    7250.9248    6707.1762    7564.2223    6671.4097    2962.5181    937.88237    -201.6006   -2635.2299 
19428000    263.70424   -3837.9401     -3385.96   -3837.9401            0    6994.8985    17.123631    20.169376     20.89079     7215.114    5489.3716    8513.1416    6982.1822    216.64592    351.15578    631.99939   -2649.9216 
19429000    249.73441   -3832.0218   -3403.9856   -3832.0218            0    7230.8905     17.07564    20.112848    20.832241    7154.6195    5781.5498     8763.333    7147.7888    477.99032     733.5868   -1535.3605   -2649.4943 
19430000    260.88824    -3874.044   -3426.8905    -3874.044            0    4795.5361    17.200582    20.260014     20.98467    7312.8222    4397.0839    5393.5966    4595.9279    85.516948   -1437.5934    664.86994   -2915.4465 
19431000    265.20287   -3870.5204   -3415.9718   -3870.5204            0    8091.2535    17.142982    20.192169    20.914399    7239.6027    7869.6313    8509.2331    7894.8962    1633.3072    962.37089   -1047.2561   -2561.6796 
19432000    282.22534   -3854.9638   -3371.2393   -3854.9638            0    4986.5317    17.176917    20.232139    20.955799    7282.6803    7336.3389    3886.7613    3736.4949   -499.90318     386.4201     1273.545   -2841.6176 
19433000    246.90735   -3856.8646   -3433.6738   -3856.8646            0    7922.8726    17.178441    20.233934    20.957658    7284.6188     9212.088    7365.2221    7191.3077   -369.40561    816.18592   -1371.1256   -2591.9582 
19434000    261.78074   -3877.7266   -3429.0434   -3877.7266            0    8092.7895     17.13957     20.18815    20.910236    7235.2806    8882.4981    7746.3917    7649.4786    612.26183   -425.06054    495.83473   -2575.0992 
19435000    275.31164   -3856.6252   -3384.7505   -3856.6252            0    6776.8049    17.168164    20.221829     20.94512    7271.5525    6905.3561    5734.7212    7690.3374    784.15566    -1289.605    182.31376    -2666.083 
19436000    269.66596   -3859.8125   -3397.6143   -3859.8125            0     7337.965    17.178966    20.234553    20.958298    7285.2867    8140.0538    5819.3807    8054.4604   -149.36618    1710.1465    452.34201    -2617.967 
19437000    257.50729    -3880.142   -3438.7833    -3880.142            0    6288.4917    17.144058    20.193436    20.915711     7240.966    7351.8458    4191.0435     7322.586   -721.42048    293.86404    701.48135   -2774.7056 
19438000    280.53743   -3846.0831   -3365.2516   -3846.0831            0    7460.0886    17.108755    20.151854    20.872642    7196.3261    7342.0191    7580.6348    7457.6119   -989.29446    966.35241    1164.1795   -2582.3075 
19439000    243.23477   -3851.0945   -3434.1984   -3851.0945            0    5762.4463    17.132895    20.180287    20.902092    7226.8304    5966.9693    5743.1689    5577.2008    2.7659431    1541.7753    101.95208   -2826.8601 
19440000    274.94291   -3828.7815   -3357.5388   -3828.7815            0    6914.0571    17.147904    20.197966    20.920403    7245.8395    8443.7138    5614.5892    6683.8681   -1399.4788    209.80617    57.802579   -2626.9087 
19441000    258.09833   -3818.5778   -3376.2061   -3818.5778            0    5444.1942    17.130176    20.177084    20.898775    7223.3898    4911.8554    5302.8079    6117.9192    2137.9286    1555.9298   -771.79781   -2802.6835 
19442000    267.30923    -3809.502   -3351.3431    -3809.502            0    7727.5908    17.073013    20.109754    20.829036    7151.3178    7343.3851    9310.4634    6528.9239    2634.0455    571.06342    1072.1449   -2545.3969 
19443000    260.26967   -3844.3302   -3398.2369   -3844.3302            0    5862.5569    17.143041    20.192238     20.91447    7239.6767    7525.5107    4407.8034    5654.3565   -185.85432   -482.42604    442.93123    -2779.249 
19444000    274.59215   -3861.6817   -3391.0402   -3861.6817            0     6629.124    17.122857    20.168464    20.889846    7214.1355    6551.3363    5099.0115    8237.0243    1485.6029    -334.2627   -180.96886   -2693.5849 
19445000    256.69918   -3842.2834   -3402.3098   -3842.2834            0    8740.8838    17.129499    20.176288    20.897949     7222.534    9627.0788     7553.299    9042.2736    503.26686   -1227.2122    192.60581   -2481.6041 
19446000    257.81251   -3858.2079   -3416.3261   -3858.2079            0    6277.2701    17.179508    20.235191     20.95896    7285.9765     7227.815    6961.2793     4642.716    -583.6791    424.48206    413.74644   -2749.3128 
19447000    259.95532    -3840.108   -3394.5535    -3840.108            0    7902.3992    17.112033    20.155714     20.87664    7200.4625    8370.2944    6452.8039    8884.0992    -222.6745    1463.9662    858.10957   -2564.7118 
19448000    270.39748   -3871.9436   -3408.4915   -3871.9436            0    6980.3748    17.186323    20.243219    20.967274    7294.6508    6431.2593     7280.671    7229.1941   -969.71943   -319.72971   -373.36897   -2665.8844 
19449000    281.65448   -3853.1321    -3370.386   -3853.1321            0    6940.1473    17.113701    20.157679    20.878675    7202.5684    6213.7852    6361.5173    8245.1395     256.2137   -389.37988    1335.9115   -2641.3785 
19450000    253.80668   -3814.4946   -3379.4786   -3814.4946            0    8120.2448    17.029619    20.058642    20.776095    7096.9276    7835.6702    9306.4656    7218.5985    211.17298   -407.88596   -102.14528   -2539.0218 
19451000    265.38837   -3855.7916    -3400.925   -3855.7916            0    7311.4998    17.109423     20.15264    20.873456    7197.1684    8140.0971     7298.556    6495.8463     -1257.03   -2169.7422   -47.566315   -2633.4857 
19452000    254.57751   -3839.1586   -3402.8215   -3839.1586            0     4472.334    17.248385    20.316319    21.042989     7373.962    5262.4812    3097.4546    5057.0662   -371.72043   -1199.8491    -1141.515   -2921.8592 
19453000    250.18219   -3860.5545   -3431.7508   -3860.5545            0    6147.4677    17.173762    20.228423     20.95195    7278.6682    6916.1653    4969.6482    6556.5896    447.46823   -37.372975    113.78854   -2779.1853 
19454000    262.43336   -3887.7897   -3437.9879   -3887.7897            0    4663.0455    17.197121    20.255937    20.980448    7308.4088    6812.4482    4101.9583    3074.7298    -624.0659   -226.92853   -430.42133   -2940.9742 
19455000    258.43331   -3893.7084   -3450.7626   -3893.7084            0    7634.1825    17.065659    20.101093    20.820065    7142.0816    8602.0941    8202.5105     6097.943    284.73191   -1735.9257    306.92414   -2655.5866 
19456000    263.88895   -3896.1762   -3443.8796   -3896.1762            0    7506.1551     17.03573    20.065839     20.78355    7104.5702    5113.7355    7971.2356    9433.4942    415.40967    644.03323   -26.275199   -2666.1453 
19457000    260.34585   -3855.3585   -3409.1346   -3855.3585            0    6173.1546    17.080124    20.118129    20.837711     7160.257    6896.4455    7014.1973    4608.8209    630.82199   -194.68221    639.68986   -2764.5029 
19458000    270.76957   -3851.1982   -3387.1084   -3851.1982            0    6700.6448    17.082147    20.120513     20.84018    7162.8024    6938.1532    7435.7754    5728.0059   -736.43436   -483.32796    655.21502   -2687.1448 
19459000     256.0334   -3837.4281   -3398.5956   -3837.4281            0    6086.5318    17.092225    20.132384    20.852475    7175.4878    4598.3172    5863.4848    7797.7934    725.17108    576.11366    1108.4584   -2761.6575 
19460000    275.67884   -3841.5057   -3369.0016   -3841.5057            0    6278.5119    17.089014    20.128601    20.848557    7171.4436    5005.9866    7678.2761    6151.2729   -29.620202   -1593.6919   -140.57858   -2712.3437 
19461000    247.28587   -3844.7098   -3420.8703   -3844.7098            0     7805.524    17.072729     20.10942    20.828689    7150.9613    6729.7768    8942.1588    7744.6362   -167.19722   -771.53086   -1548.5191   -2606.8366 
19462000    260.92427   -3867.1336   -3419.9183   -3867.1336            0    8238.2209     17.04457    20.076252    20.794336    7115.6367    8147.8532    7938.7835    8628.0259    2459.4334   -542.59953   -570.36427   -2565.0031 
19463000    272.21748   -3875.8906   -3409.3192   -3875.8906            0    8347.3197    17.023934    20.051946     20.76916    7089.8231    6700.4691    10402.617    7938.8731     47.80721   -1433.8433    122.89527   -2546.2247 
19464000    261.67111   -3881.0109   -3432.5155   -3881.0109            0    7364.4582    17.019078    20.046226    20.763236    7083.7575    6726.0537    7191.4043    8175.9165     409.0317    852.58766    478.26271   -2671.6982 
19465000     245.6362   -3920.4729   -3499.4608   -3920.4729            0    7350.1572    17.064404    20.099614    20.818533    7140.5053    8123.2633    7419.0656    6508.1426   -89.371592    1731.6892   -773.00571   -2734.0379 
19466000    255.31333   -3884.3461   -3446.7478   -3884.3461            0    7913.5406    17.036264    20.066469    20.784202    7105.2388    6243.4749     6433.426    11063.721   -1936.7802    782.93294    1534.3154    -2626.726 
19467000    261.66599   -3906.9684   -3458.4819   -3906.9684            0     6131.055    17.113517    20.157462     20.87845    7202.3359    6306.4629    5633.2367    6453.4656   -517.32843     562.8451   -201.95697    -2814.484 
19468000    260.43949    -3847.217   -3400.8326    -3847.217            0     6599.664    17.043122    20.074547     20.79257    7113.8234    7204.2204    7285.8492    5308.9226    994.92507   -562.07374    234.23572   -2716.1319 
19469000    260.30883   -3856.6204   -3410.4599   -3856.6204            0    8095.8314     17.10731    20.150151    20.870878    7194.5023    9658.2423    4513.6935    10115.558    877.54874   -1512.7105   -1598.4126   -2561.0094 
19470000    256.32367   -3897.7573   -3458.4273   -3897.7573            0    6618.9852    17.073915    20.110816    20.830136    7152.4512    8313.9548    8098.8175    3444.1831    655.43924    -250.6093   -429.04292   -2767.9932 
19471000    269.77837   -3893.8389    -3431.448   -3893.8389            0    6390.8454    17.095105    20.135775    20.855988    7179.1148    4744.6746    7997.1463    6430.7154   -264.40972   -1032.5619   -256.69369   -2762.3263 
19472000     270.2737   -3909.6383   -3446.3984   -3909.6383            0    7106.5221    17.070434    20.106716    20.825889    7148.0775     7949.106    9555.2641    3815.1962    923.71574   -518.90854   -830.36589   -2705.5621 
19473000    258.48176   -3893.7751   -3450.7462   -3893.7751            0     5661.185    17.141935    20.190935    20.913121     7238.276    7857.0366    5512.9978    3613.5207   -858.57805   -1002.7946    1222.1864   -2853.1355 
19474000    265.29403   -3872.1313   -3417.4264   -3872.1313            0    6795.0168    17.162722    20.215419     20.93848    7264.6394    5802.4489    6430.3125    8152.2891   -1146.2429    761.90321     1113.826   -2697.5127 
19475000     254.4265   -3869.0012   -3432.9229   -3869.0012            0    6354.8634    17.151788     20.20254    20.925141    7250.7638    7576.4266    6263.9665    5224.1972    622.58717   -747.30936   -1048.8154   -2760.9282 
19476000    262.79001   -3852.6691    -3402.256   -3852.6691            0    6184.3298    17.157678    20.209478    20.932327    7258.2366    4946.0362     7405.325    6201.6283    1007.9023    454.60466   -153.13406   -2747.6203 
19477000    269.24257   -3815.6061   -3354.1336   -3815.6061            0     6448.854     17.12685    20.173167    20.894717     7219.183    5398.1876    8159.6235    5788.7508    471.93838   -457.29492   -2121.1075     -2675.17 
19478000    263.95908   -3839.9779   -3387.5611   -3839.9779            0    5685.5287    17.068266    20.104162    20.823244    7145.3542    3974.3797    6395.1266    6687.0797   -512.01652   -1560.2653    1140.5764   -2795.0855 
19479000    266.27635   -3873.1933   -3416.8047   -3873.1933            0    7128.3737      17.0888    20.128349    20.848296    7171.1746    6372.1585    7129.1195    7883.8432   -878.84219    429.05879   -285.04348   -2671.2893 
19480000    269.73155   -3847.1223   -3384.8116   -3847.1223            0    6777.9122    17.078083    20.115726    20.835222    7157.6916     7067.245    6938.5696     6327.922    472.78001   -246.56116   -27.351685   -2677.2817 
19481000    275.17002   -3862.3786   -3390.7466   -3862.3786            0    6081.1235    17.111736    20.155365    20.876278    7200.0884    5144.4315    7426.3489      5672.59   -513.10681    224.25867   -127.64468   -2752.1928 
19482000    263.24823   -3878.8281   -3427.6296   -3878.8281            0    7264.7527     17.12623    20.172437     20.89396    7218.3991    7173.7574     7903.624    6716.8768    1640.6095   -859.93922    662.37837   -2662.8477 
19483000    257.25617   -3882.7951   -3441.8668   -3882.7951            0    7391.8544    17.079463    20.117351    20.836904    7159.4258    9488.7613    8000.1535    4686.6482   -197.03233    433.54299   -1251.4474    -2670.062 
19484000    264.65014   -3854.0868   -3400.4855   -3854.0868            0    8217.1921    17.158928     20.21095    20.933852     7259.823    7561.9172    7601.7304    9487.9288    484.86971   -1402.3899    1301.7901   -2530.4733 
19485000     258.5596   -3880.0735   -3436.9112   -3880.0735            0    6214.1417    17.187022    20.244042    20.968127    7295.5413    6614.1235      6653.62    5374.6817   -50.652399   -534.26302   -201.47883    -2775.739 
19486000     262.5519   -3858.8321   -3408.8272   -3858.8321            0    8232.4871    17.100665    20.142325    20.862771    7186.1221    8952.3142    6011.1768    9733.9702   -206.74815   -835.86656   -691.77801   -2546.0442 
19487000    268.15075   -3842.7648   -3383.1636   -3842.7648            0     6039.213    17.187598    20.244721     20.96883    7296.2748     6284.916    5871.7704    5960.9526   -66.815822    -621.6475    399.27666   -2740.5389 
19488000    278.76614   -3865.0439   -3387.2482   -3865.0439            0    7048.1126    17.193701    20.251908    20.976275     7304.049    7408.7489    6850.6127    6884.9761   -2452.0239    106.83822    351.05332   -2636.4687 
19489000    254.78337   -3854.0151   -3417.3251   -3854.0151            0    5572.0862    17.117538    20.162198    20.883356    7207.4141    4485.3738     4876.778    7354.1068    640.18606   -855.34548     657.8373   -2831.6279 
19490000    257.39924   -3846.1463   -3404.9728   -3846.1463            0    7037.6794    17.107291    20.150129    20.870855     7194.478    8265.1187    6092.5026    6755.4169    3458.6219   -784.28107    993.43461   -2666.5507 
19491000    245.23641   -3871.7425   -3451.4156   -3871.7425            0    6723.4007     17.13771    20.185959    20.907966    7232.9251    6777.9242    5716.8822    7675.3956    934.48233   -306.79264    143.81869   -2742.1991 
19492000    260.04962   -3854.2845   -3408.5684   -3854.2845            0    6999.9623    17.130282     20.17721    20.898904    7223.5241    10145.444    5244.7621    5609.6805     1538.741    494.23498   -353.03556   -2671.1385 
19493000    269.64765   -3844.6612   -3382.4943   -3844.6612            0     6844.295    17.139494     20.18806    20.910143    7235.1845    7196.4506    6082.6621    7253.7722    330.34396   -234.61971   -535.58012   -2660.2998 
19494000    255.67868   -3850.9647   -3412.7402   -3850.9647            0    7812.0242    17.141697    20.190655    20.912831    7237.9745    8642.7705    9535.6972     5257.605   -462.38426    774.33039   -557.65979   -2588.1151 
19495000    266.98815   -3838.4845   -3380.8759   -3838.4845            0     5032.954    17.134648    20.182352     20.90423    7229.0484    3590.6158    5769.2785    5738.9677    179.71771   -546.52015    1246.8454   -2850.2604 
19496000    269.75351    -3899.319   -3436.9707    -3899.319            0    5658.4903    17.187906    20.245083    20.969206    7296.6669    4044.9587    8185.1165    4745.3958   -1769.2701   -900.08103   -1315.4377   -2834.8259 
19497000    250.88267   -3862.5139   -3432.5096   -3862.5139            0    6885.4606    17.111918     20.15558      20.8765    7200.3182    5357.2494    8179.8696    7119.2629    1019.6601   -762.67498   -473.93076   -2709.4725 
19498000    272.34135   -3850.3786   -3383.5949   -3850.3786            0    5439.0781    17.135163    20.182958    20.904858       7229.7    6117.8183    3825.2469    6374.1689   -557.66566   -994.35318    796.80863   -2810.1107 
19499000    262.88244   -3908.8767   -3458.3052   -3908.8767            0    6779.5404    17.151259    20.201917    20.924495    7250.0928    6125.6528    8597.0031    5615.9653   -618.23109    841.78628    703.78894   -2741.4693 
19500000     272.6527    -3842.203   -3374.8856    -3842.203            0    6216.2798     17.03426    20.064108    20.781757    7102.7313    4292.1558    6118.1541    8238.5295    -346.2686   -416.12195   -642.59838   -2730.9657 
Loop time of 1420.33 on 64 procs for 250000 steps with 864 atoms

Performance: 30.415 ns/day, 0.789 hours/ns, 176.015 timesteps/s
106.6% CPU use with 32 MPI tasks x 2 OpenMP threads

MPI task timing breakdown:
Section |  min time  |  avg time  |  max time  |%varavg| %total
---------------------------------------------------------------
Pair    | 27.228     | 33.03      | 37.625     |  48.9 |  2.33
Bond    | 0.92397    | 1.1784     | 1.6244     |  13.6 |  0.08
Kspace  | 598.28     | 641.29     | 671.13     |  65.9 | 45.15
Neigh   | 4.0667     | 4.4346     | 4.9512     |  13.1 |  0.31
Comm    | 217.59     | 251.25     | 310.22     | 141.8 | 17.69
Output  | 0.61145    | 0.61182    | 0.61357    |   0.0 |  0.04
Modify  | 410.01     | 435.37     | 464.28     |  70.7 | 30.65
Other   |            | 53.17      |            |       |  3.74

Nlocal:        27.0000 ave          33 max          22 min
Histogram: 3 1 4 4 9 5 2 1 1 2
Nghost:        2588.06 ave        2615 max        2555 min
Histogram: 2 2 3 3 4 3 3 3 4 5
Neighs:        8689.84 ave       10894 max        6593 min
Histogram: 2 4 0 5 3 7 6 2 1 2

Total # of neighbors = 278075
Ave neighs/atom = 321.84606
Ave special neighs/atom = 2.0000000
Neighbor list builds = 14304
Dangerous builds = 0

unfix		3
unfix		2
unfix		1

write_data	data.final.${pid}
write_data	data.final.1
System init for write_data ...
PPPM initialization ...
  extracting TIP4P info from pair style
  using 12-bit tables for long-range coulomb (../kspace.cpp:340)
  G vector (1/distance) = 0.3739739
  grid = 24 24 24
  stencil order = 5
  estimated absolute RMS force accuracy = 0.003193984
  estimated relative force accuracy = 9.618588e-06
  using double precision FFTW3
  3d grid and FFT values/proc = 3549 432
Last active /omp style is kspace_style pppm/tip4p/omp
WARNING: Not all mixed pair coeffs generated from mixing. Use write_data with 'pair ij' option to store all pair coeffs. (../write_data.cpp:312)

write_restart   restart.lmp.${pid}
write_restart   restart.lmp.1
System init for write_restart ...
PPPM initialization ...
  extracting TIP4P info from pair style
  using 12-bit tables for long-range coulomb (../kspace.cpp:340)
  G vector (1/distance) = 0.3739739
  grid = 24 24 24
  stencil order = 5
  estimated absolute RMS force accuracy = 0.003193984
  estimated relative force accuracy = 9.618588e-06
  using double precision FFTW3
  3d grid and FFT values/proc = 3549 432
Last active /omp style is kspace_style pppm/tip4p/omp
Total wall time: 0:23:40
