LAMMPS data file via write_data, version 30 Jul 2021, timestep = 2250000

864 atoms
2 atom types
576 bonds
1 bond types
288 angles
1 angle types

0.21551504370256502 17.992057356294612 xlo xhi
1.3453795243749607 22.2837982756286 ylo yhi
0.262927849931744 21.950267950064966 zlo zhi

Masses

1 1.00794
2 15.9994

Pair Coeffs # lj/cut/tip4p/long/omp

1 0 0
2 0.21084 3.1668

Bond Coeffs # harmonic/omp

1 450 0.9572

Angle Coeffs # harmonic/omp

1 55 104.52

Atoms # full

521 1 1 0.5897 4.676320235092299 5.536708683966564 1.6751502656791062 -2 1 -1
674 1 1 0.5897 1.1734983459235955 5.1479697052069735 1.5638440465704708 -4 -3 -3
768 1 1 0.5897 2.232318062349284 2.74865208067522 4.675406862756193 -1 -2 1
520 1 2 -1.1794 5.507072393744993 6.008678212167754 1.7323751809834147 -2 1 -1
809 1 1 0.5897 3.1447856863546404 1.6520432817445934 0.8036329268584839 5 0 1
663 1 1 0.5897 4.146032027425442 1.6209401121219784 4.479477362275872 -2 -3 -1
767 1 1 0.5897 2.971597741721788 4.007613761005248 5.075728835022079 -1 -2 1
746 1 1 0.5897 7.051653008569064 6.261639546575753 2.827632916913048 6 3 -6
325 1 2 -1.1794 3.2165280312019804 4.617748028002384 1.77694987347568 0 -1 -1
745 1 2 -1.1794 7.819286303134096 6.237798095873377 3.398961266770483 6 3 -6
327 1 1 0.5897 2.963724928633828 3.948686098968784 1.1408358378595067 0 -1 -1
91 1 2 -1.1794 6.8655986618545155 3.9981732072868037 0.29692974092903923 1 -5 1
408 1 1 0.5897 6.8572861646290955 2.344216107221488 0.8549335169366183 -4 -2 4
727 1 2 -1.1794 0.32346262032045686 1.5698350101448955 3.634338417557695 0 2 1
326 1 1 0.5897 3.215487136496478 4.161471160507247 2.6183709157884354 0 -1 -1
86 1 1 0.5897 3.3885041537408003 6.468768278203611 5.303780414000466 -2 6 1
375 1 1 0.5897 7.353627293604171 4.653346073762883 4.585999093035226 5 5 -1
766 1 2 -1.1794 3.029063417977029 3.2479510267544422 4.496256353078064 -1 -2 1
92 1 1 0.5897 6.425338971699063 4.551063816510082 0.9424281017936844 1 -5 1
407 1 1 0.5897 6.7743676854873645 1.5193602133588588 2.1216270834185478 -4 -2 4
374 1 1 0.5897 7.514299058282446 3.161816158409783 4.789187055022186 5 5 -1
673 1 2 -1.1794 0.2601710539330071 5.249961232820855 1.2961984731002725 -4 -3 -3
373 1 2 -1.1794 7.474124562060061 3.9907206733089495 5.266139338512966 5 5 -1
526 1 2 -1.1794 7.268637029265792 1.7613737195133443 3.788129981051693 -2 -3 0
406 1 2 -1.1794 6.767242128745793 1.4439900440850844 1.1674486640850261 -4 -2 4
802 1 2 -1.1794 6.483441272959237 4.2482054295742175 9.469111246038967 5 3 -2
518 1 1 0.5897 6.04982389948043 3.989450263173998 6.318409821247105 -2 -2 -4
161 1 1 0.5897 0.22821380404614877 1.4406596563351697 7.784774047712869 3 7 1
517 1 2 -1.1794 5.3261761034400825 4.060700818903014 6.940853625881557 -2 -2 -4
345 1 1 0.5897 6.0925909544195935 2.5488450004848255 10.259616165611266 -4 1 0
519 1 1 0.5897 4.9943033522388 4.9506294492381295 6.822176335494151 -2 -2 -4
438 1 1 0.5897 2.625397389913395 5.714806702253816 8.829917228820593 0 6 1
804 1 1 0.5897 6.06291732323237 4.078907906875287 8.626083893910472 5 3 -2
389 1 1 0.5897 3.890911983888675 2.9364753066190366 7.454465997353693 0 5 4
160 1 2 -1.1794 0.7065636677092765 1.7589164701266453 8.550327442402684 3 7 1
262 1 2 -1.1794 2.8538698249714995 4.401940856569441 9.902028097917519 4 -2 6
263 1 1 0.5897 2.9834798623502254 3.690791510778381 9.274610993964219 4 -2 6
779 1 1 0.5897 5.485742648280561 4.648801862154558 10.866069806501141 -2 1 -2
162 1 1 0.5897 1.5947525164270453 1.9161812561594451 8.2300130242735 3 7 1
803 1 1 0.5897 7.420679116111771 4.244520532369551 9.274803826976674 5 3 -2
87 1 1 0.5897 2.91769499808839 5.984961680587998 6.658805777106669 -2 6 1
594 1 1 0.5897 1.3291353706125573 3.8422654102778804 10.720552557823439 0 -2 -2
264 1 1 0.5897 3.618336844104883 4.35759683792745 10.47632111684715 4 -2 6
390 1 1 0.5897 3.9904472158908026 1.5290866068181075 8.003231278294741 0 5 5
388 1 2 -1.1794 3.4175136939496515 2.2956417682384367 7.984944779691988 0 5 5
436 1 2 -1.1794 2.391645996008755 6.473498756733983 8.295179186282411 0 6 1
88 1 2 -1.1794 0.3169990713438355 5.206432516889674 5.93290425105518 8 0 3
571 1 2 -1.1794 8.792284801371672 6.3594119466604955 8.399111991422913 0 -2 -3
515 1 1 0.5897 7.124663748724091 6.543024925309948 7.949932201368551 -4 -3 0
118 1 2 -1.1794 8.128376731845016 1.446877922597042 8.388008855982202 5 -2 -1
343 1 2 -1.1794 5.680533535282129 1.754867566086162 10.60018362553581 -4 1 0
437 1 1 0.5897 1.4505650087372002 6.381543509341824 8.146547643349095 0 6 1
85 1 2 -1.1794 2.8920750528380834 5.768211875429537 5.726833128184577 -2 6 1
89 1 1 0.5897 1.1980804340392697 5.577623363090659 5.887187333450875 8 0 3
670 1 2 -1.1794 1.3429735828325182 2.0711806411661007 15.158611721240895 6 4 0
208 1 2 -1.1794 7.182557972889456 3.6049105092517153 15.178675930588842 -1 -2 3
818 1 1 0.5897 8.531854163305754 4.992279468415754 11.6984178410556 2 -2 1
778 1 2 -1.1794 5.005642512997473 4.983885764373462 11.623302756519925 -2 1 -2
671 1 1 0.5897 2.0857702795130457 2.6645503484747914 15.269874602336143 6 4 0
537 1 1 0.5897 0.6503110106378329 2.316085616853158 12.019072713955383 4 7 3
226 1 2 -1.1794 2.016355389815126 5.688219241275651 12.872577240847054 1 -3 -1
59 1 1 0.5897 0.945864020755338 5.011847455260969 15.175774653752073 4 0 -3
672 1 1 0.5897 1.2131706230772794 2.0241399969519724 14.21144801318786 6 4 0
13 1 2 -1.1794 5.001607741976664 3.292027133238327 13.682099945969437 -2 -3 -4
553 1 2 -1.1794 3.0087267946578593 4.449043419886188 15.16417379475591 -5 -5 3
780 1 1 0.5897 5.186151820608532 5.923880666750574 11.625137150572751 -2 1 -2
191 1 1 0.5897 5.12696188464712 1.5890228939555942 13.953487257327524 6 4 -6
15 1 1 0.5897 5.747821505075007 3.494047810160827 14.246492613307849 -2 -3 -4
535 1 2 -1.1794 0.9511204991459552 1.5892567224707195 12.564433109914587 4 7 3
14 1 1 0.5897 5.0799348014201415 3.9058400259419526 12.951834149324373 -2 -3 -4
210 1 1 0.5897 7.187559061265487 4.559374742742486 15.106484604458068 -1 -2 3
344 1 1 0.5897 6.115148828857818 1.5997022205882427 11.438772297999135 -4 1 0
555 1 1 0.5897 3.7899328320194874 4.034107953498961 14.798489923348614 -5 -5 3
138 1 1 0.5897 7.349210319194782 2.258731686909766 13.664658013899206 5 -7 0
136 1 2 -1.1794 7.78144595987566 1.8585469338295828 12.910164159890671 5 -7 0
58 1 2 -1.1794 0.2831426025935592 4.972071433112161 15.865263654713491 4 0 -3
228 1 1 0.5897 2.4688891546249216 5.209722397315099 13.567152081728583 1 -3 -1
227 1 1 0.5897 1.4924286083325788 5.023620998849716 12.425378062385793 1 -3 -1
137 1 1 0.5897 8.13813294431364 2.597920271771792 12.417889116593864 5 -7 0
554 1 1 0.5897 3.348140422812788 5.106333103373549 15.77161487921592 -5 -5 3
817 1 2 -1.1794 8.938823207111758 4.138764314002159 11.549848838814965 2 -2 1
209 1 1 0.5897 7.575132492475188 3.4268033936392364 16.033288875625225 -1 -2 3
175 1 2 -1.1794 6.64590975911766 6.268627156669584 14.918714775426052 -2 -4 6
176 1 1 0.5897 6.376282987662147 6.33613864233746 15.834642391348561 -2 -4 6
592 1 2 -1.1794 0.47647154353075155 3.78924815494301 11.152225491989071 0 -2 -2
256 1 2 -1.1794 5.670565257275727 5.42313852861857 17.50339344955907 -1 0 -2
104 1 1 0.5897 1.4341127689389694 2.9659699819582257 19.338040619328986 4 0 6
732 1 1 0.5897 5.235225393597349 3.574836318774758 17.21868175712916 -1 0 -6
478 1 2 -1.1794 2.100801494679591 4.229869641651102 18.258996638621653 -3 3 -5
479 1 1 0.5897 2.8047605016678414 3.738513718731225 17.835645564563265 -3 3 -5
480 1 1 0.5897 2.551497454689578 4.840020431341792 18.842770421529003 -3 3 -5
421 1 2 -1.1794 8.952300095879023 5.538558907603827 18.28720842807853 -3 2 2
590 1 1 0.5897 3.9126368040841095 5.41634320785759 20.25546463413125 2 5 2
589 1 2 -1.1794 3.145728726692053 5.988879840534434 20.239496101419867 2 5 2
730 1 2 -1.1794 4.601542603144557 2.871227591926167 17.358532594530864 -1 0 -6
837 1 1 0.5897 5.760289894191975 4.254672299924264 20.564469177119626 0 1 -1
836 1 1 0.5897 5.1824020349686615 4.187142665528704 19.166877086987938 0 1 -1
103 1 2 -1.1794 1.2281633468648785 2.1224475190908767 19.740822614205015 4 0 6
93 1 1 0.5897 7.4294901498870285 4.599567040533016 21.497870408897377 1 -5 0
731 1 1 0.5897 5.137092732990591 2.091350148685935 17.5039967319929 -1 0 -6
105 1 1 0.5897 1.7709144107043124 2.0938395087082373 20.528718025297508 4 0 6
442 1 2 -1.1794 8.572559985166356 5.858851349634239 21.07475348871487 5 5 -1
835 1 2 -1.1794 4.951352275463362 4.067990121894486 20.08807415008244 0 1 -1
257 1 1 0.5897 5.845436864708259 5.932326388121258 18.29479982282279 -1 0 -2
106 1 2 -1.1794 7.964535167033704 3.009690600029078 17.85180541790509 -1 1 3
423 1 1 0.5897 8.57203955881482 6.350309873137937 17.951589167417424 -3 2 2
108 1 1 0.5897 8.093575748581337 3.938168296548202 18.045376896246836 -1 1 3
808 1 2 -1.1794 3.09590760305281 2.2818667288716363 21.771867696809544 5 0 0
810 1 1 0.5897 3.894288409722022 2.1308425892013307 21.265912696350384 5 0 0
258 1 1 0.5897 4.983756392775282 5.912166414803589 17.050269116329815 -1 0 -2
107 1 1 0.5897 8.849662515155886 2.6618779469349043 17.74339748865455 -1 1 3
443 1 1 0.5897 8.938888109382518 5.565707717027151 20.24045313536226 5 5 -1
600 1 1 0.5897 1.0860204623453258 6.350263012285815 20.367055743246873 0 -3 -4
60 1 1 0.5897 0.7335782443413936 4.5703749456170355 16.608186332515892 4 0 -3
599 1 1 0.5897 0.22309756275558357 6.054547281638722 21.575240241613784 0 -3 -4
11 1 1 0.5897 4.324625490195062 8.686394253291844 4.211646728314459 -2 1 5
320 1 1 0.5897 4.93905084331532 10.562081448789103 5.544665490084985 2 -1 2
425 1 1 0.5897 6.951427423026796 9.986390050765907 5.1901436150891564 6 -1 2
71 1 1 0.5897 4.962367369372453 9.466998694690437 1.4581919451718977 4 1 -6
12 1 1 0.5897 4.74165576093305 7.3839155732852815 3.5624803707680424 -2 1 5
70 1 2 -1.1794 5.346125296614632 8.808936633136096 0.878646192843926 4 1 -6
681 1 1 0.5897 5.96552795302518 7.992143073890109 4.943175858056811 -6 -4 -1
154 1 2 -1.1794 1.3357116357020187 8.236851040517518 3.5706290136484666 3 3 -4
271 1 2 -1.1794 7.214983682663663 11.477041618461689 2.349928858409954 -1 3 4
149 1 1 0.5897 1.0875654222416338 11.42596354001528 5.021841942339298 -5 -1 2
155 1 1 0.5897 2.198176806501076 7.881393492014696 3.785105527901946 3 3 -4
679 1 2 -1.1794 6.895514191190654 8.132930838109704 5.120638292655422 -6 -4 -1
72 1 1 0.5897 6.290571131435168 8.89870213757137 1.005768739979302 4 1 -6
10 1 2 -1.1794 4.42506249286629 7.750956125930709 4.387852855921629 -2 1 5
771 1 1 0.5897 4.063795312854989 11.071583615639701 3.0934878064582696 4 0 1
685 1 2 -1.1794 1.485724568328349 10.93381611810674 1.525025818124066 8 -6 -3
770 1 1 0.5897 3.0465396508762055 10.00915556716754 2.7354062688896263 4 0 1
150 1 1 0.5897 2.326031709403841 10.777483875384197 5.602746955420886 -5 -1 2
424 1 2 -1.1794 6.736663549922053 10.914391849041422 5.09581767533718 6 -1 2
769 1 2 -1.1794 3.962545963045763 10.125687705768637 2.9874668771201853 4 0 1
426 1 1 0.5897 6.649681020363681 11.045814321745945 4.151696615884092 6 -2 2
839 1 1 0.5897 8.576942813846445 9.289074521555257 0.6125012706944102 -3 -2 -2
148 1 2 -1.1794 1.3844904127216358 10.646310175741212 5.491075872706279 -5 -1 2
156 1 1 0.5897 1.2320307253701603 8.985692160579976 4.157736883933745 3 3 -4
272 1 1 0.5897 7.430649802846933 10.637326722006009 1.944288229664932 -1 3 4
687 1 1 0.5897 0.9581915579422223 10.246723132105467 1.1178221735476013 8 -6 -3
840 1 1 0.5897 8.50991998661725 9.045113699945505 2.1050672003019493 -3 -2 -2
838 1 2 -1.1794 7.958538253124938 9.149957458087401 1.3297184551041539 -3 -2 -2
522 1 1 0.5897 5.352336003600614 6.825291432286069 1.257637451441555 -2 1 -1
747 1 1 0.5897 7.6747364631040575 6.9474254778768465 4.02485113090524 6 3 -6
686 1 1 0.5897 0.9307866621262926 11.71308221805973 1.4930724847400425 8 -6 -3
331 1 2 -1.1794 2.71300626103035 7.721898413918056 10.937680779923648 0 -2 -4
680 1 1 0.5897 7.0028376144183815 7.894812347361412 6.041487578229148 -6 -4 -1
703 1 2 -1.1794 8.966900862886 9.953122338602839 9.85523756445046 2 -2 -1
841 1 2 -1.1794 3.2858544451264224 9.133845682659418 7.773956743347256 -3 2 0
514 1 2 -1.1794 6.239741661091713 6.80499532263895 7.6959911368956195 -4 -3 0
332 1 1 0.5897 1.9151275844819744 8.197753575824745 10.706924318364239 0 -2 -4
446 1 1 0.5897 8.392035221501311 6.592862468966972 10.355481139313612 1 0 -2
516 1 1 0.5897 5.789324641479434 6.964346528895264 8.525419867033946 -4 -3 0
496 1 2 -1.1794 5.511655983590178 7.9076437108276885 10.604047718296084 0 1 3
843 1 1 0.5897 3.205630499648104 8.242380969446558 8.11316517815666 -3 2 0
464 1 1 0.5897 5.1837092006827925 10.878330853246817 10.791383784273687 6 2 -2
842 1 1 0.5897 2.412916818042474 9.343799757551377 7.4420436838365065 -3 2 0
20 1 1 0.5897 4.1483202192928434 10.53568812456932 8.750924395459606 -5 -2 -1
95 1 1 0.5897 6.541902949906492 11.679280638884814 8.397746923141627 -6 0 -1
498 1 1 0.5897 5.777326970618847 8.711857132663528 11.049966530174304 0 1 2
321 1 1 0.5897 3.9188045344187614 10.135850879881154 6.5786779709903325 2 -1 2
19 1 2 -1.1794 4.448222462312348 11.312280754667285 9.223307926040523 -5 -2 0
94 1 2 -1.1794 7.479993524692553 11.782843632343834 8.23822850052454 -7 0 -1
704 1 1 0.5897 8.392744651651338 10.384140196995281 9.222158507056113 2 -2 -1
492 1 1 0.5897 8.687227257699215 11.722544155122643 5.919464290968467 -1 3 2
399 1 1 0.5897 0.24969149050073014 9.546228556808503 9.487137877872273 7 3 -5
830 1 1 0.5897 0.42248881665257987 10.12006403916207 6.973417775006029 3 4 3
705 1 1 0.5897 8.51613670458475 10.051567269204337 10.693889098228365 2 -2 -1
497 1 1 0.5897 4.558690542436947 7.88829556207327 10.691591620425147 0 1 3
319 1 2 -1.1794 4.044955729880585 10.73244635266898 5.840886764371856 2 -1 2
445 1 2 -1.1794 8.060445846675833 6.73207437272546 11.242528668407836 1 0 -2
44 1 1 0.5897 7.3627951040731565 11.374998294450304 15.460496191841047 2 4 -1
100 1 2 -1.1794 4.39094603475563 7.211382501442092 13.754219039646292 5 -5 0
723 1 1 0.5897 1.7820772641612899 8.598591289472965 14.521375138156438 1 0 -1
465 1 1 0.5897 5.297912999644434 10.958625682884437 12.298792515130298 6 2 -2
628 1 2 -1.1794 1.0399375522266987 10.783659897509391 12.670457175068764 -2 -3 3
722 1 1 0.5897 1.901264604087393 9.775122169313164 13.576215125986975 1 0 -1
333 1 1 0.5897 2.414120484357881 7.0161727789901684 11.511120886289602 0 -2 -4
241 1 2 -1.1794 6.54587339453137 9.85818793187796 14.713625903737753 0 -2 4
146 1 1 0.5897 6.334724399837661 9.08020946726241 16.190956473290427 0 1 -4
57 1 1 0.5897 0.23102818184382 10.301972802949264 16.075589268358648 -3 0 1
163 1 2 -1.1794 3.1680835225814987 10.902360849523058 16.34529622093786 -4 2 -1
242 1 1 0.5897 5.717885389601262 10.255192189820763 14.443368403223582 0 -2 4
101 1 1 0.5897 4.184536220771427 7.993339999463611 14.266227729891279 5 -5 0
243 1 1 0.5897 6.99634970512023 9.660263705820585 13.892596282697307 0 -2 4
164 1 1 0.5897 3.406915906660548 10.517247346071649 15.502177467728318 -4 2 -1
463 1 2 -1.1794 5.725360249323024 10.58971993249557 11.525887044061788 6 2 -2
49 1 2 -1.1794 8.49880668541236 9.34636788181573 12.537626301561566 7 1 -1
629 1 1 0.5897 0.923780227301162 10.422161811256208 11.791810563852257 -2 -3 3
721 1 2 -1.1794 2.387483374504531 9.283843451063957 14.238347299285618 1 0 -1
50 1 1 0.5897 8.528908724556151 8.434613148568598 12.247832062369424 7 1 -1
249 1 1 0.5897 8.656496302422967 6.812950498270569 14.492881149818574 -3 4 -4
56 1 1 0.5897 0.3358671771727728 11.780277551546233 15.76674563559582 -3 0 1
102 1 1 0.5897 3.5398000967886656 6.881509197673685 13.466242170654747 5 -5 0
177 1 1 0.5897 6.043344803972676 6.844503534715066 14.448105215240972 -2 -4 6
447 1 1 0.5897 7.163981724194376 7.043377341989038 11.117517480369061 2 0 -2
232 1 2 -1.1794 1.9248805093816301 8.80750326717651 18.199844177810427 -3 0 -1
636 1 1 0.5897 4.396451929013073 8.990111093829327 20.853610217799925 -8 1 0
277 1 2 -1.1794 4.896240526399516 11.598457197827507 18.185164378288142 -1 0 1
634 1 2 -1.1794 3.8999280228095783 9.102618873461118 20.043060686231094 -8 1 0
299 1 1 0.5897 7.1540996312620315 6.955363284395328 20.24007557883671 -4 0 0
697 1 2 -1.1794 3.754708811370785 7.298244976011838 16.65250778947427 -2 1 -4
178 1 2 -1.1794 7.0914726867477365 10.138893242835286 19.89982653614083 -5 1 -1
145 1 2 -1.1794 6.069619679915032 8.743786820897157 17.046954805135492 0 1 -4
165 1 1 0.5897 2.6425687664904323 10.22858455843129 16.77664600723724 -4 2 -1
68 1 1 0.5897 2.3388913979197183 11.28469974466831 21.665302620109323 6 -1 -4
298 1 2 -1.1794 6.347273195362677 7.014948898055509 19.728536869609357 -4 0 0
180 1 1 0.5897 6.410468244803123 10.725491208212429 19.570689787137063 -5 1 -1
185 1 1 0.5897 7.75046057808211 8.182677978376983 17.3753714303053 0 6 3
234 1 1 0.5897 1.1273893650802411 9.257317444331878 18.47890370838394 -3 0 -1
184 1 2 -1.1794 8.681274845065179 7.995698071746722 17.25371773162734 0 6 3
179 1 1 0.5897 7.793926833714652 10.199561260489606 19.252448555856475 -5 1 -1
699 1 1 0.5897 4.348542493555177 7.968628462234997 16.990334475194487 -2 1 -4
300 1 1 0.5897 6.084714485258337 7.9325911936583955 19.80050667120856 -4 0 0
635 1 1 0.5897 3.570066579310365 10.000115974596177 20.086317464559443 -8 1 0
233 1 1 0.5897 2.4931506108446446 8.826672695846842 18.96983652541183 -3 0 -1
147 1 1 0.5897 5.831930769475968 9.523794714222852 17.548238271513526 0 1 -4
698 1 1 0.5897 2.8952053215280356 7.544873313747632 16.993992883715286 -2 1 -4
591 1 1 0.5897 3.5058442673671077 6.874017265694697 20.294599441540477 2 5 2
598 1 2 -1.1794 0.26127557777104954 6.595408320911997 20.786447007040778 0 -3 -4
67 1 2 -1.1794 2.9943880956987483 11.516208544025663 21.007332591637223 6 -1 -4
279 1 1 0.5897 4.367267876383908 11.42269028547761 17.40704327315767 -1 0 1
69 1 1 0.5897 3.8020874852197695 11.639013380153909 21.506072860455454 6 -1 -4
471 1 1 0.5897 6.45757204830386 12.87140797742027 4.917382305859655 3 -6 4
218 1 1 0.5897 4.966946551204311 13.614901886381048 3.9740682137089105 3 0 -3
570 1 1 0.5897 1.0009785838424197 14.183263166820193 1.0869846023981422 3 -1 0
667 1 2 -1.1794 7.395368283371203 14.996463681307631 2.9102260524250956 -7 -2 -1
219 1 1 0.5897 4.40381702190255 13.848643333441098 2.5883894032134784 3 0 -3
668 1 1 0.5897 8.234633639059654 15.033368361756738 2.451462779721332 -7 -2 -2
470 1 1 0.5897 6.867173257771635 14.222207825821519 4.370265086529937 3 -6 4
341 1 1 0.5897 7.548254146079585 16.77138059850123 3.312705597448896 2 5 1
273 1 1 0.5897 7.983348301636356 12.025048195811399 2.190291471533417 -1 3 4
784 1 2 -1.1794 4.214102014240444 16.05032176240423 2.113330877222883 5 4 4
786 1 1 0.5897 3.5610861932357727 15.774258165517962 1.4702558333364544 5 4 4
660 1 1 0.5897 3.026115934395367 13.760456010732339 4.877827904753503 0 -2 3
785 1 1 0.5897 3.770776889790582 16.721003169092295 2.6327819008804774 5 4 4
217 1 2 -1.1794 4.282559764623267 13.316796763482968 3.374939934453449 3 0 -3
469 1 2 -1.1794 6.3558404898458285 13.81127776123344 5.067300751361138 3 -6 4
669 1 1 0.5897 6.74626068326147 15.212866999489254 2.2408809759956267 -7 -2 -1
618 1 1 0.5897 0.8924156156343971 13.108863194356832 4.666612554011675 0 2 1
658 1 2 -1.1794 2.294642430013017 13.962650995238512 5.461241159113547 0 -2 3
620 1 1 0.5897 5.660252880424131 16.077778338168493 1.169898835278405 -1 0 4
752 1 1 0.5897 5.850267616547056 12.211889316986802 1.0887179360143087 0 -2 -1
619 1 2 -1.1794 6.450749095477979 16.135053717984878 0.6332186555319014 -1 0 4
568 1 2 -1.1794 0.3570796765637454 13.524691546962087 1.347472146229078 3 -1 0
751 1 2 -1.1794 5.2329012694647545 12.621566063202913 0.4827334061223213 0 -2 -1
505 1 2 -1.1794 6.233784698387979 15.181383411671803 9.929991164888866 1 0 -3
857 1 1 0.5897 1.5810278544599385 13.524152003703465 8.162893097296239 0 0 -4
38 1 1 0.5897 7.432118477259348 16.64701255995727 6.6530613246207375 -2 1 -3
543 1 1 0.5897 4.840062915517467 16.774283775675407 7.223983132131588 -6 0 2
562 1 2 -1.1794 6.1278981300657875 15.695056049380662 6.967130460102392 1 1 2
506 1 1 0.5897 6.590514139211954 14.350539089124918 10.244143649990013 1 0 -3
851 1 1 0.5897 4.416403845844262 15.110216533193574 10.372925652121664 -7 0 -4
856 1 2 -1.1794 2.522517332487639 13.370303347313008 8.241454642558644 0 0 -4
564 1 1 0.5897 6.156389682869721 15.430959211253123 7.886707061952277 1 1 2
858 1 1 0.5897 2.8455371898637227 14.113779666493304 8.750460924418661 0 0 -4
39 1 1 0.5897 8.945462960895343 16.607935755769017 6.658051917946072 -2 1 -3
507 1 1 0.5897 6.702522129044752 15.848626570541994 10.431245376879211 1 0 -3
659 1 1 0.5897 2.5254816731865453 13.54276653005869 6.28987833430806 0 -2 3
850 1 2 -1.1794 3.4663478464711073 15.049486963881439 10.472351664159307 -7 0 -4
563 1 1 0.5897 6.155103714451508 14.871565149567648 6.479989695601749 1 1 2
427 1 2 -1.1794 1.9632892306528538 16.697175038113585 6.151581628915976 2 1 -3
852 1 1 0.5897 3.311817879647943 14.148337760669689 10.755611000542206 -7 0 -4
21 1 1 0.5897 3.8841946482339527 12.01810129512407 8.90728478760513 -5 -2 0
823 1 2 -1.1794 7.67422818401438 12.879926335754531 10.910406441574832 -3 3 3
96 1 1 0.5897 7.755788549930942 12.457810427765592 8.858344420922608 -7 0 -1
428 1 1 0.5897 1.1085083368208668 17.003235243283807 6.454670903606227 2 1 -3
542 1 1 0.5897 3.35837270502767 17.00565433166146 7.017051726146663 -6 0 2
429 1 1 0.5897 1.7803658136715386 15.862041002145517 5.721153223568308 2 1 -3
777 1 1 0.5897 6.739389216304596 16.281593110032247 12.801897516374346 3 -4 1
381 1 1 0.5897 2.7915890055532326 13.5315852369169 12.449711333844016 7 3 1
608 1 1 0.5897 2.009611033186955 12.387822390963825 15.882209400925875 6 2 2
776 1 1 0.5897 5.3400095916864085 16.20882353889609 13.374784588542013 3 -4 1
481 1 2 -1.1794 5.6511628008338635 14.20905570725709 15.499762223514624 0 2 -1
607 1 2 -1.1794 1.370205728683402 13.09991374587141 15.865204645800846 6 2 2
596 1 1 0.5897 4.038292310242144 16.983132982969252 15.67927681836516 1 -4 0
380 1 1 0.5897 2.333511006908443 12.095371715406458 12.311079272595636 7 3 1
483 1 1 0.5897 6.022013376413199 14.772546993321013 14.820698672777846 0 2 -1
482 1 1 0.5897 4.968225354927162 14.74180488425001 15.907137669587307 0 2 -1
775 1 2 -1.1794 6.2604604593838635 16.08716173188484 13.607508446920994 3 -4 1
504 1 1 0.5897 5.087880190588183 12.7461503761695 14.368525309940884 -4 1 2
639 1 1 0.5897 3.7091234790576744 16.270662988311887 11.768502799805434 -8 0 3
379 1 2 -1.1794 2.9900795529505864 12.714588605278468 11.992214743573669 7 3 1
45 1 1 0.5897 7.08247689017884 12.855079042082256 15.610763150882343 2 4 -1
502 1 2 -1.1794 4.830296313441046 12.011151342026652 13.812095544253669 -4 1 2
503 1 1 0.5897 4.241859055159304 12.396363205161153 13.16283394282636 -4 1 2
534 1 1 0.5897 2.609521576444958 15.41396294222725 14.083266560991218 -6 0 -3
532 1 2 -1.1794 2.03666191596536 14.78810536049814 13.640194334204288 -6 0 -3
295 1 2 -1.1794 0.5793965966327127 16.753369754602986 11.735780415527334 -1 3 0
533 1 1 0.5897 1.525070851140634 15.320539312416727 13.031119934793438 -6 0 -3
824 1 1 0.5897 8.439575651100702 12.971478992390706 11.477934192628092 -3 3 3
609 1 1 0.5897 1.5092631162070416 13.527165125716095 15.020041660707035 6 2 2
637 1 2 -1.1794 3.942799504400044 16.661131798625348 12.610589575059663 -8 0 3
43 1 2 -1.1794 7.693460316297556 12.16924242751782 15.88007663127419 2 4 -1
595 1 2 -1.1794 3.743554570773921 16.132600399511126 16.00471783908363 0 -4 0
441 1 1 0.5897 8.741519229809475 16.299844507780556 11.300763756161155 -1 -1 -1
439 1 2 -1.1794 8.031957490261677 16.93774719700621 11.376972371247325 -1 -1 -1
296 1 1 0.5897 1.316661523624547 16.889512683636884 11.140729477889856 -1 3 0
825 1 1 0.5897 7.077729174249557 12.314690756307218 11.401246267631887 -3 3 3
225 1 1 0.5897 8.186236276835206 14.210742879364098 17.439814512525054 2 0 -8
117 1 1 0.5897 8.36580676557827 13.28610568414983 20.033840296529796 -3 -3 5
755 1 1 0.5897 6.740308790419607 14.706345335909322 21.277250968562342 -3 -2 -5
188 1 1 0.5897 5.199516048619679 15.739707794664735 18.73849758062022 -2 4 1
278 1 1 0.5897 4.930727873994442 12.553364885722319 18.241216209346227 -1 0 1
189 1 1 0.5897 4.343066347429724 14.542359931930358 19.091516948686248 -2 4 1
157 1 2 -1.1794 2.8933501324420425 13.81633851410585 19.60723947483941 3 3 -4
488 1 1 0.5897 1.6168807555534936 15.95428560802501 18.26711146795806 3 -6 2
382 1 2 -1.1794 0.6277153443449748 14.397223060903785 18.143897945811958 -7 -3 -2
597 1 1 0.5897 3.1703497572409103 16.343181192007584 16.741802013078853 0 -4 0
201 1 1 0.5897 2.4353747749618018 14.680322277579457 21.126477944619815 2 -3 -1
187 1 2 -1.1794 5.224797033911656 14.785489333912448 18.809352738913354 -2 4 1
158 1 1 0.5897 2.851299010055247 12.94405153940574 19.999070730570367 3 3 -4
756 1 1 0.5897 6.497784257728255 14.310394131669511 19.836355890385242 -3 -2 -5
384 1 1 0.5897 0.8402203039477868 13.900275002913073 17.353919825940444 -7 -3 -2
159 1 1 0.5897 2.083240236617475 13.892273171777989 19.103119039621177 3 3 -4
223 1 2 -1.1794 8.98409140331945 14.738050528302132 17.47957651023109 2 0 -8
754 1 2 -1.1794 7.072324351267031 14.138048329557604 20.582278947056373 -3 -2 -5
200 1 1 0.5897 1.6741574955362049 15.885022076782198 21.637412841940474 2 -3 -1
753 1 1 0.5897 5.770580768225405 13.212061684367924 21.64244170799993 0 -2 -2
396 1 1 0.5897 7.88758367791859 16.21165329089767 17.09380673711589 2 0 4
489 1 1 0.5897 2.7633417623797736 16.83573204505865 18.714818482686624 3 -6 2
487 1 2 -1.1794 1.9924035254232335 16.826569060926673 18.147589427792298 3 -6 2
621 1 1 0.5897 6.309043458525767 16.902002170907004 21.765673146189556 -1 0 3
199 1 2 -1.1794 2.3185434023916947 15.228664392334943 21.90227561868614 2 -3 -1
22 1 2 -1.1794 2.0419819376335946 19.177768852343938 1.1611705444868052 -2 3 3
528 1 1 0.5897 7.966143304464187 22.058831345947866 3.9253630552218666 -2 -4 0
485 1 1 0.5897 1.9475362369212388 19.853521200421618 5.228876114939662 0 1 0
652 1 2 -1.1794 8.620799475896023 18.859559115607595 1.0541100665593508 0 -1 1
98 1 1 0.5897 5.532466877643455 19.88717227899624 5.209610149683149 4 -6 7
494 1 1 0.5897 2.407395635004661 20.824040523820308 1.7634618514650209 -1 -1 1
725 1 1 0.5897 8.564750169913937 22.025405287368322 0.4656069300156658 2 -5 4
338 1 1 0.5897 2.9246294799187655 17.633966222226334 4.515910533209171 -2 0 2
337 1 2 -1.1794 3.218647248780812 18.019899564652206 3.6907945476679895 -2 0 2
340 1 2 -1.1794 7.737558245245613 17.69256948219818 3.490946058951118 2 5 1
315 1 1 0.5897 6.248617877058475 18.584964197463606 3.068414807172765 -2 -2 0
654 1 1 0.5897 8.339303018219999 18.302077324765065 1.7794726102578426 0 -1 1
342 1 1 0.5897 8.279055923671283 17.677963926397993 4.280094709828234 2 5 1
339 1 1 0.5897 2.4186816795331554 18.349801071392747 3.28163503474336 -2 0 2
314 1 1 0.5897 4.753110093400872 18.659090749626557 3.2914653613039233 -2 -2 0
255 1 1 0.5897 0.7565272077842512 19.434638162795828 3.070828342009488 2 7 -7
493 1 2 -1.1794 2.7179117932005057 21.615809252462178 2.202650806899962 -1 -1 1
23 1 1 0.5897 2.922736174829398 19.101573671014563 0.7942184201718965 -2 3 3
661 1 2 -1.1794 4.530137515241481 21.69231063289709 4.3495403892872115 -2 -4 -1
313 1 2 -1.1794 5.480729732319415 19.123814300573038 2.8781881572502437 -2 -2 0
626 1 1 0.5897 7.986503401981009 20.018538868671094 5.356143235415724 -5 -4 3
813 1 1 0.5897 5.071510952942261 18.824413269021584 1.1285329105676998 -5 5 -2
253 1 2 -1.1794 0.5236707483560868 18.988572542701732 3.885075959522429 2 7 -7
486 1 1 0.5897 3.032322028542863 20.900112026763985 5.369038414881908 0 1 0
625 1 2 -1.1794 8.67897494889296 20.561354833355516 4.979295947765147 -5 -4 3
653 1 1 0.5897 7.994979926330361 18.676016328627476 0.3535108152808645 0 -1 1
662 1 1 0.5897 4.256810334869633 21.438396394725395 3.468066086596511 -2 -4 -1
495 1 1 0.5897 1.9209062357246425 22.049143503397936 2.507923174961202 -1 -1 1
24 1 1 0.5897 1.5058789231032383 19.49516815172506 0.43450399491490455 -2 3 3
728 1 1 0.5897 0.21857401389480202 22.268555212633373 4.5550654999793085 0 1 1
527 1 1 0.5897 6.472569529915112 22.25375024443367 4.07712730239001 -2 -4 0
99 1 1 0.5897 6.206297803556404 18.59564877573691 5.6215582773257395 4 -6 7
811 1 2 -1.1794 4.619690356336666 18.846163179117355 0.2849821025730108 -5 5 -2
800 1 1 0.5897 4.834971536132957 19.1619564601543 10.960641902160871 0 0 4
539 1 1 0.5897 2.2974477253663848 20.055034739675612 7.855943694780301 -3 -4 -1
360 1 1 0.5897 0.6398353867934861 21.18239273324553 6.0631363482138045 3 1 -6
855 1 1 0.5897 2.7758233323050616 21.174702811830876 10.399854198773532 -3 1 2
540 1 1 0.5897 1.4321890021391461 20.819793281912474 8.834841399221716 -3 -4 -1
622 1 2 -1.1794 8.239621204288662 18.263475400196853 8.995385387815283 6 -2 2
623 1 1 0.5897 7.3477666088219085 18.600085897493635 9.081799669875943 6 -2 2
459 1 1 0.5897 4.982250579364681 18.336833225308688 8.755564863764064 -1 0 -2
457 1 2 -1.1794 5.514440658307619 18.953267111274123 9.258518230500822 -1 0 -2
440 1 1 0.5897 8.17061311859344 17.539457877142638 10.645585985818679 -1 -1 -1
37 1 2 -1.1794 8.203988684417563 17.200549874225327 6.534760163691602 -2 1 -3
385 1 2 -1.1794 5.560903167510683 21.278205920770496 7.824653326986641 -6 0 1
624 1 1 0.5897 8.240990987780357 17.7996698222967 8.158087572353391 6 -2 2
458 1 1 0.5897 5.403142218135971 19.790080690709296 8.807372491756297 -1 0 -2
41 1 1 0.5897 2.8599370412865857 17.163295109774708 9.252105757245532 0 0 3
541 1 2 -1.1794 4.110717688999307 17.319661032322628 7.518603863270288 -6 0 2
538 1 2 -1.1794 2.04042413922138 20.08294300468833 8.777540561384207 -3 -4 -1
42 1 1 0.5897 2.1119750950902034 18.467488445536716 9.429341403082658 0 0 3
386 1 1 0.5897 5.868698354827529 20.685824443372276 7.138705736317062 -6 0 1
40 1 2 -1.1794 2.3494362361682115 17.662518270042654 9.889572094357945 0 0 3
119 1 1 0.5897 8.54013410268013 22.006402960721893 9.164619570699339 5 -3 -1