LAMMPS data file via write_data, version 30 Jul 2021, timestep = 8250000

864 atoms
2 atom types
576 bonds
1 bond types
288 angles
1 angle types

0.6045333254335841 17.603039074569423 xlo xhi
1.8035916750584544 21.82558612495336 ylo yhi
0.7375292449984645 21.475666554990063 zlo zhi

Masses

1 1.00794
2 15.9994

Pair Coeffs # lj/cut/tip4p/long/omp

1 0 0
2 0.21084 3.1668

Bond Coeffs # harmonic/omp

1 450 0.9572

Angle Coeffs # harmonic/omp

1 55 104.52

Atoms # full

13 1 2 -1.1794 1.8810842344878047 2.0195193605684785 2.105742139452945 3 -4 -2
114 1 1 0.5897 4.262580759341999 3.6777821875244086 1.1087912156302089 -7 -3 2
214 1 2 -1.1794 7.7365881920227775 2.491029230255463 4.489475279504533 3 2 2
341 1 1 0.5897 1.3354975293618339 5.127858316581135 3.7715650002652206 2 7 1
390 1 1 0.5897 6.485497262727666 2.186206485945813 1.588239180118677 -4 6 7
529 1 2 -1.1794 7.279839704318522 6.174512056160295 3.6316179339477035 -3 0 -4
799 1 2 -1.1794 0.9636728545876713 2.6298718027024215 5.550776116027005 -1 0 3
530 1 1 0.5897 6.578534522478848 5.573730113160607 3.8833404707771177 -3 0 -4
675 1 1 0.5897 4.8455306200550075 4.136903156804458 3.2464849321891047 -4 0 -3
673 1 2 -1.1794 5.481424378000256 4.252471988643245 3.9524836210409533 -4 0 -3
112 1 2 -1.1794 3.667800614506211 4.0200469234381755 1.776034250637667 -7 -3 2
742 1 2 -1.1794 2.878302537845281 6.454905455852299 1.0192359249589673 1 -1 0
215 1 1 0.5897 7.527293448246719 2.9948690180937287 5.275898226682096 3 2 2
531 1 1 0.5897 8.038524851570873 5.609700548569008 3.4849174587063367 -3 0 -4
674 1 1 0.5897 5.001735556266781 4.021102398037299 4.747777576266613 -4 0 -3
186 1 1 0.5897 8.676171986670294 3.6556635261591186 3.7134687686841894 3 3 4
208 1 2 -1.1794 6.31746531944301 6.309142530597162 0.8538583468806866 2 0 2
14 1 1 0.5897 2.2556595922123197 2.8996872115523407 2.1392273856327098 3 -4 -2
113 1 1 0.5897 3.43829243295974 4.896121698166023 1.4662834626593404 -7 -3 2
15 1 1 0.5897 1.0188631837597253 2.1100676720200617 2.511371975113018 3 -4 -2
340 1 2 -1.1794 0.8235726060238635 4.488621290364591 3.276109569075233 2 7 1
216 1 1 0.5897 6.934779935514044 2.5169678857327056 3.9674027887979157 3 2 2
209 1 1 0.5897 6.89749344201728 6.150620773941031 1.5985495902478166 2 0 2
643 1 2 -1.1794 2.6016283299419634 6.608716645589527 3.7166271906525465 3 -3 0
644 1 1 0.5897 2.7817068840643056 6.527321869232518 2.780100992996528 3 -3 0
720 1 1 0.5897 7.38959963615515 6.7951074905405875 5.385357443548384 1 3 1
801 1 1 0.5897 0.7983368865333262 3.1470010298422966 4.762504735523726 -1 0 3
391 1 2 -1.1794 3.46657726311581 3.491809716807573 5.845135961763514 5 -3 1
392 1 1 0.5897 2.6861741728341215 2.9664707085353514 5.668726564995058 5 -3 1
185 1 1 0.5897 8.91612407171332 3.883564846839065 2.2362722849951018 3 3 4
138 1 1 0.5897 8.543438065757982 6.051402843619994 9.461814456614539 3 -8 0
628 1 2 -1.1794 5.550631485042739 4.208689315655056 10.429732341426497 0 -3 6
398 1 1 0.5897 2.151293806661072 5.510037877777555 7.302376041323946 4 0 -6
132 1 1 0.5897 0.9729173832269624 4.085147964244166 8.558087666994581 -3 3 0
24 1 1 0.5897 8.843042661092447 5.855144719712328 6.50166480311271 -4 4 0
200 1 1 0.5897 5.534782312133624 3.2163726125315275 6.934349894848167 1 -2 0
588 1 1 0.5897 3.0831172833685234 2.8414845603227152 8.776280276337799 1 4 6
730 1 2 -1.1794 8.011994801852936 4.369938566254681 8.821209244471808 1 0 -6
586 1 2 -1.1794 3.1670053783443777 3.6790202885380374 9.231940586351364 1 4 6
130 1 2 -1.1794 0.7283510926143775 4.620349351970447 7.803193652453705 -3 3 0
587 1 1 0.5897 4.053131720308365 3.667747223258388 9.593579243767117 1 4 6
731 1 1 0.5897 7.397465127338838 3.935759530986488 8.229637631640578 1 0 -6
629 1 1 0.5897 6.429216605785684 4.298690560872467 10.060734962487789 0 -3 6
397 1 2 -1.1794 2.858749280784844 5.922302137531905 6.806733819157036 4 0 -6
393 1 1 0.5897 3.1296693153757236 4.298785979771991 6.234326506624878 5 -3 1
199 1 2 -1.1794 6.478102516662794 3.057900957647425 6.968245768936449 1 -2 0
800 1 1 0.5897 0.7926031929618542 3.233219629330491 6.2738498223378 -1 0 3
201 1 1 0.5897 6.5712321383452625 2.2807010028299675 7.519066575407534 1 -2 0
732 1 1 0.5897 8.6236571451197 3.6806987571629373 9.079934172780634 1 0 -6
719 1 1 0.5897 6.787440282271707 6.488596684782058 6.740001600652419 1 3 1
770 1 1 0.5897 5.083253690894731 5.222829821600023 8.804148453432266 3 -1 0
855 1 1 0.5897 2.1543802652819846 3.919034619957757 10.787808164315926 2 3 4
771 1 1 0.5897 4.564965366560548 5.833067998621384 7.519391051734247 3 -1 0
769 1 2 -1.1794 5.336406274253974 5.801606710561641 8.085089188037617 3 -1 0
399 1 1 0.5897 2.466246708808545 6.7159927117908 6.443258878566139 4 0 -6
415 1 2 -1.1794 6.6059309049874155 4.252736762816918 13.6605049029971 -2 0 2
416 1 1 0.5897 6.273536853071104 3.398331910001281 13.935512315733144 -2 0 2
601 1 2 -1.1794 3.2198447023555223 3.3544795343692857 14.66579159261559 4 6 -3
641 1 1 0.5897 0.6060029186389642 5.840591052561771 14.915913440160127 5 3 -3
75 1 1 0.5897 1.4213573739801184 3.4190210129253096 15.040035185717466 2 -1 5
299 1 1 0.5897 3.5342706440125213 5.227965861496147 15.075046332524998 -1 0 -1
417 1 1 0.5897 7.222715476778169 4.054805124313324 12.955863135362174 -2 0 2
853 1 2 -1.1794 1.6890912132357467 3.9756881081267035 11.622332762643087 2 3 4
561 1 1 0.5897 2.341482045094577 2.397785357375217 12.163771885053745 5 0 3
854 1 1 0.5897 1.800165821417409 4.885610313981225 11.897725724011785 2 3 4
300 1 1 0.5897 3.0189465762575107 6.306841055909696 14.146567411766139 -1 0 -1
235 1 2 -1.1794 5.380939355882672 6.217526394334377 12.520872152602958 0 -1 -6
776 1 1 0.5897 8.05371672158443 2.7040005210653666 16.019947812671965 3 -3 -1
298 1 2 -1.1794 3.4478047793103763 6.1776054377473475 14.992436344113887 -1 0 -1
768 1 1 0.5897 3.549163067422064 6.564050136666703 12.285333515379685 -4 -1 1
777 1 1 0.5897 7.497423698520314 3.943097535421554 15.351532317478886 3 -3 -1
237 1 1 0.5897 5.783582983257229 5.51235753414848 13.02755863855347 0 -1 -6
603 1 1 0.5897 3.7593940582156593 3.0286085316058413 15.38608927275913 4 6 -3
602 1 1 0.5897 3.342575276595175 2.7139235385557376 13.965207844845684 4 6 -4
775 1 2 -1.1794 7.773251714042778 3.600882837283594 16.201784944267146 3 -3 -1
766 1 2 -1.1794 2.60490307836023 6.713257103224377 12.33256470151694 -4 -1 1
467 1 1 0.5897 8.368158733872377 2.48325484415746 11.34549139131805 4 0 2
817 1 2 -1.1794 8.366316752637175 6.789375752718816 14.431089065282682 3 1 1
466 1 2 -1.1794 7.550414212634538 2.301010518657847 11.808321559297893 4 0 2
281 1 1 0.5897 9.084706290508223 2.5513400541512095 13.375376138259908 -6 4 0
630 1 1 0.5897 5.53368379655527 4.824741503395865 11.162076492371309 0 -3 6
42 1 1 0.5897 5.514509349158492 5.932771292834868 16.934597945552476 1 0 3
40 1 2 -1.1794 5.550473930458597 5.493440432297727 17.784224998034198 1 0 3
780 1 1 0.5897 6.211404966105023 3.3019635193792176 20.30065103721541 0 -1 2
41 1 1 0.5897 4.6423826697628 5.48094586258086 18.086562847323677 1 0 3
473 1 1 0.5897 7.780874639733773 6.387612025801585 19.980240913941934 -2 0 -3
29 1 1 0.5897 8.21989351096507 3.851696442669267 19.070289044483054 -10 2 5
756 1 1 0.5897 2.859786092708591 3.3201822988648613 18.646289544576696 -1 0 -2
434 1 1 0.5897 5.478824966948291 3.5616945865031475 17.34152151381067 2 4 -5
778 1 2 -1.1794 5.997104812106312 3.4834781087688755 21.215676538699554 0 -1 2
474 1 1 0.5897 7.038927471195333 5.966422982628475 18.7297475436 -2 0 -3
28 1 2 -1.1794 7.501140490259331 3.256349329570049 18.85797818459134 -10 2 5
701 1 1 0.5897 8.970598017889522 2.2908898077922064 21.20079557488775 4 -1 4
433 1 2 -1.1794 5.12950494455573 2.7174264568066837 17.05637662306208 2 4 -5
491 1 1 0.5897 2.9207663913197406 5.973548337384119 18.79546219155607 -1 4 0
435 1 1 0.5897 4.881075171923001 2.2742052891822273 17.867519473430335 2 4 -5
755 1 1 0.5897 3.334151367261375 1.8959153663891763 18.841481012975684 -1 0 -2
492 1 1 0.5897 2.2838526009561497 5.5680430311904185 17.48339848923827 -1 4 0
490 1 2 -1.1794 2.8735015482960615 5.252284700500216 18.168038303286387 -1 4 0
30 1 1 0.5897 7.291086783020517 3.4499220029047866 17.944455741312957 -10 2 5
472 1 2 -1.1794 7.783574297078497 6.4883601144946335 19.028418782209386 -2 0 -3
754 1 2 -1.1794 2.567472231690802 2.4105414097356057 18.589480168156747 -1 0 -2
743 1 1 0.5897 2.0964411434532217 6.434411290136476 21.205625289026514 1 -1 -1
779 1 1 0.5897 6.265756915817667 4.392369447603883 21.34931252638959 0 -1 2
446 1 1 0.5897 0.6520880680268135 6.197300047095992 19.446827650807826 3 0 -3
690 1 1 0.5897 0.8237908687812338 1.9022440510436596 19.450435932922282 2 2 3
355 1 2 -1.1794 4.4722848623897296 8.818848288176584 4.431257867520987 -1 -1 3
590 1 1 0.5897 1.014080669316232 7.482818185388818 3.52806007824476 1 3 1
409 1 2 -1.1794 3.155544098640471 11.109269705845584 3.8906069299247186 1 1 -5
210 1 1 0.5897 5.792645956065407 7.065699576852624 1.1152371442973263 2 0 2
708 1 1 0.5897 8.331020682344795 11.36910975234444 3.3704474027816476 -2 -2 -4
205 1 2 -1.1794 8.0481128653036 11.334248545373397 1.8014120248018004 -4 0 -4
487 1 2 -1.1794 4.766424257814308 8.551428690330113 1.4452821347832145 -1 -5 2
35 1 1 0.5897 8.526289767854344 7.9812235061665415 2.6028272806039316 -9 2 -1
357 1 1 0.5897 3.906810038282483 9.540928347437557 4.157441445441272 -1 -1 3
489 1 1 0.5897 4.610956124007371 8.632561000662042 2.3862302638047996 -1 -5 2
645 1 1 0.5897 3.316963576985835 7.148742966238401 4.052479459248387 3 -3 0
356 1 1 0.5897 5.272007599611042 9.24427145479771 4.740454965251388 -1 -1 3
109 1 2 -1.1794 5.281456675754178 11.327150691137499 1.1125124463574478 0 -1 -8
488 1 1 0.5897 4.940025847835857 9.446081751045423 1.1527379021475999 -1 -5 2
287 1 1 0.5897 7.406832639907285 10.264607098466639 5.283106216423114 -1 2 0
744 1 1 0.5897 3.3328759196347635 7.256836313962166 0.7615826636417533 1 -1 0
706 1 2 -1.1794 8.53533583704204 11.46162615707108 4.3009605444937105 -2 -2 -4
410 1 1 0.5897 4.026551591537982 11.500541530047274 3.9568172499187546 1 1 -5
110 1 1 0.5897 6.23020894985999 11.335012730786465 1.2388238681778754 0 -1 -8
312 1 1 0.5897 1.2593494737397877 10.590636256643737 4.9482790502009975 0 2 1
286 1 2 -1.1794 6.71337490228341 10.031479454931516 5.9002748893990695 -1 2 0
207 1 1 0.5897 8.393645804075303 10.6510818171685 1.2269496954162515 -4 0 -4
504 1 1 0.5897 3.253992263559912 11.491242176958556 6.561904032750946 -4 1 3
288 1 1 0.5897 6.959780865906608 9.16425506936168 6.221720039824161 -1 2 0
64 1 2 -1.1794 2.9566491928761787 7.918139253056808 9.41549583752176 5 -2 -3
699 1 1 0.5897 1.9619356645348707 9.494832379596465 6.904913957373101 1 1 -4
374 1 1 0.5897 5.492920502249128 7.582389934293388 8.705442519077838 4 3 -2
553 1 2 -1.1794 8.214701709744046 9.083326705804375 8.267232132080213 -9 -6 3
698 1 1 0.5897 2.0320298673674064 8.250500733954716 7.764231328937299 1 1 -4
66 1 1 0.5897 3.8578976481102276 8.156218970322554 9.198270335373133 5 -2 -3
697 1 2 -1.1794 1.6187681714656108 8.604190589396941 6.976663414387211 1 1 -4
373 1 2 -1.1794 5.637627427814827 8.52812320880907 8.733115706387547 4 3 -2
375 1 1 0.5897 6.589519693486518 8.625963200096589 8.71180138531662 4 3 -2
792 1 1 0.5897 7.194443585047088 11.727934547750252 6.9783327275703435 5 4 -1
137 1 1 0.5897 8.643015757383374 7.512600776609944 9.078927692001338 3 -8 0
554 1 1 0.5897 8.71336529969865 9.827834836857127 8.60366940341725 -9 -6 3
532 1 2 -1.1794 1.273479393385068 11.746727691596075 9.697321986624988 -6 -4 -4
820 1 2 -1.1794 5.13997994081743 10.622213890230565 10.984150769954528 4 2 5
164 1 1 0.5897 5.3493181439101924 10.873262443065814 6.736384383695828 -7 0 -1
502 1 2 -1.1794 2.3081714139177016 11.364958702907785 6.636770101142091 -4 1 3
65 1 1 0.5897 2.679329126232601 8.580548882706147 10.048289423952776 5 -2 -3
555 1 1 0.5897 8.614130740093584 8.890566265034654 7.419047093097053 -9 -6 3
822 1 1 0.5897 5.258059282739252 9.827267263214463 10.464271041602792 4 2 5
821 1 1 0.5897 5.89111550854222 11.170663089367897 10.757960034979641 4 2 5
533 1 1 0.5897 0.8793097442967783 10.880245641638327 9.597487841680064 -6 -4 -4
163 1 2 -1.1794 4.941402817752931 11.731391294426412 6.8518629371245465 -7 0 -1
765 1 1 0.5897 4.294723118499318 11.76778326891478 10.04843561105508 -7 0 0
718 1 2 -1.1794 7.422907583374058 7.057239139154347 6.3053033052616785 1 3 1
136 1 2 -1.1794 8.874907995040376 6.89417034899211 9.771665441780563 3 -8 0
165 1 1 0.5897 4.612151052551273 11.7216061067927 7.750537038667739 -7 0 -1
704 1 1 0.5897 1.04099237641683 6.914539069496034 9.981512287512146 1 -2 -2
830 1 1 0.5897 2.3250278111336473 9.774551298061983 15.260839603380184 5 3 3
767 1 1 0.5897 2.49990106707755 7.646540852002885 12.147964774572028 -4 -1 1
156 1 1 0.5897 1.279233477114564 9.436805810501522 11.632175379870825 2 3 -4
367 1 2 -1.1794 8.511239627384432 10.210989290201566 11.949545282924642 7 6 -1
332 1 1 0.5897 7.855554979079319 8.685743189154328 12.09194036555459 -2 0 -3
155 1 1 0.5897 2.3828037474483903 9.805861433348284 12.600470390082702 2 3 -4
582 1 1 0.5897 5.04312091075881 9.996773936986653 12.66903367672661 -4 -1 -2
331 1 2 -1.1794 7.495730896480763 7.799423015261415 12.124817532551543 -2 0 -3
831 1 1 0.5897 3.599378593440014 9.952868736533665 14.46336825580868 5 3 3
404 1 1 0.5897 6.668299452260708 6.96141646319322 15.274541258684616 7 -3 2
714 1 1 0.5897 8.37510902905446 10.341412252275983 14.75631277327558 -8 -1 3
581 1 1 0.5897 5.840248366905626 10.019495250636988 13.955780560646128 -4 -1 -2
712 1 2 -1.1794 7.540136600977338 10.759100971672089 14.545421626835502 -8 -1 3
154 1 2 -1.1794 2.230154354734106 9.416918233928296 11.739335813365084 2 3 -4
580 1 2 -1.1794 5.07599638917484 9.614468969853313 13.545913433477816 -4 -1 -2
369 1 1 0.5897 7.991014160020588 10.488785751700707 12.703408754218794 7 6 -2
819 1 1 0.5897 7.9823375930971485 7.020292738009508 13.585300551538662 3 0 1
713 1 1 0.5897 7.707155029459487 11.69575510341513 14.650228528115548 -8 -1 3
829 1 2 -1.1794 2.723647351564154 10.320197355836815 14.582949193185257 5 3 3
333 1 1 0.5897 7.901019358994231 7.348273653058268 11.384328300062661 -2 0 -3
54 1 1 0.5897 2.976959718323099 7.7197027187266585 15.990938532927764 0 -3 6
368 1 1 0.5897 8.216541589519352 10.774212317039485 11.233959399826912 7 6 -1
403 1 2 -1.1794 5.885186716226431 7.17993368016401 15.779641474654108 7 -3 2
642 1 1 0.5897 1.124658526111531 7.2094896399605695 15.301562015953863 5 3 -3
405 1 1 0.5897 5.156095418680086 6.938548568360921 15.208416826385676 7 -3 2
236 1 1 0.5897 6.086449708923052 6.8505224068054655 12.387879805208122 0 -1 -6
818 1 1 0.5897 8.631425613177527 7.626947606235304 14.810972707961561 3 1 1
167 1 1 0.5897 8.082423455790797 9.43366566059456 20.01508581715114 -1 1 3
86 1 1 0.5897 3.0199908483828106 8.703267255008175 19.639588467967464 3 5 -1
537 1 1 0.5897 9.075245932022682 11.083052199487161 18.19026596610663 4 6 3
252 1 1 0.5897 4.305413768570216 10.946003332279437 17.276608155023908 10 -3 1
774 1 1 0.5897 6.877161027830094 8.014349974693129 19.295208723960727 -1 -5 3
695 1 1 0.5897 1.7602442780309968 10.97335238913562 20.68072082620182 3 -2 2
535 1 2 -1.1794 8.309740334353904 11.351337683755863 17.682157986599044 4 6 3
218 1 1 0.5897 9.04819459861086 7.459905826203415 18.317736797961985 4 -3 -2
52 1 2 -1.1794 2.35420655095057 8.31193735106897 16.412325223134182 0 -3 6
772 1 2 -1.1794 6.462477225543259 8.85940552035301 19.46853063619009 -1 -5 3
250 1 2 -1.1794 3.784490967364835 11.668678691791818 17.626610972261965 10 -3 1
87 1 1 0.5897 4.518111650177347 8.688721188862306 19.422696076901758 3 5 -1
694 1 2 -1.1794 1.6011800492947685 10.029573836266323 20.69065303187726 3 -2 2
297 1 1 0.5897 6.621027880395575 10.193506205118062 16.509342765433594 1 5 1
773 1 1 0.5897 6.1985457011276806 9.178653484775118 18.60565477117872 -1 -5 3
53 1 1 0.5897 2.8043701935564833 8.6110964672724 17.202250872221015 0 -3 6
295 1 2 -1.1794 5.755679914810244 9.839007449155405 16.713355743734915 1 5 1
85 1 2 -1.1794 3.6915256796018507 8.433273995690488 19.013277020670287 3 5 -1
166 1 2 -1.1794 8.952157852088286 9.649824817392984 20.35122242328862 -1 1 3
536 1 1 0.5897 7.650612764511321 11.572563809047793 18.3400813733262 4 6 3
686 1 1 0.5897 5.760130799569685 11.677641152494823 20.010820817823742 6 -5 -1
696 1 1 0.5897 1.0065627515645277 9.89419208990667 21.42837444108385 3 -2 2
296 1 1 0.5897 5.8051098346447905 8.919710518581764 16.451457699964333 1 5 1
262 1 2 -1.1794 4.168500635416692 14.09045729024853 1.2496991830659736 5 -6 6
796 1 2 -1.1794 8.434032067873815 14.248155230281592 4.611885950175244 -1 -5 0
797 1 1 0.5897 8.170880125590287 14.757380194708444 3.8453595922236863 -1 -5 0
809 1 1 0.5897 6.887169249913885 14.992547033004955 1.7553295378130165 6 -2 -5
152 1 1 0.5897 2.3401478809307523 13.525986301317985 2.3310507815179315 3 0 -2
37 1 2 -1.1794 4.254596843228178 15.419505449946532 3.641128029255035 2 0 1
153 1 1 0.5897 1.1575833670457623 13.817926094385182 3.229909113461782 3 0 -1
571 1 2 -1.1794 5.31889850063058 13.0633845190248 4.33893532242103 -1 -5 -6
426 1 1 0.5897 1.324810931042008 15.779043792411608 3.0828059194028974 8 -4 0
206 1 1 0.5897 8.591164149877303 12.100463185225816 1.6166784024079703 -4 0 -4
39 1 1 0.5897 3.4315752445463503 15.566367941876258 4.107159124061158 2 0 1
798 1 1 0.5897 8.14890511857578 14.774257539465042 5.358910291690991 -1 -5 0
151 1 2 -1.1794 1.630354657523869 13.099016756117424 2.8106532113061227 3 0 -1
263 1 1 0.5897 4.225319779426906 14.527641988314798 2.0992727768251127 5 -6 6
808 1 2 -1.1794 7.123657779146043 15.449452143291118 2.562458806485976 6 -2 -5
810 1 1 0.5897 6.28718058928841 15.731332672385534 2.9325624790020477 6 -2 -5
411 1 1 0.5897 2.591830054595223 11.82623539215102 3.6002125099760947 1 1 -5
572 1 1 0.5897 6.2457058655159265 12.878836368133465 4.186996601675204 -1 -5 -6
38 1 1 0.5897 4.609959814102048 14.619377647600231 4.027983905639781 2 0 1
424 1 2 -1.1794 1.4140900396786635 15.674486489051294 4.030026349993481 8 -3 0
573 1 1 0.5897 5.225995296432023 13.057119517032135 5.291541221543296 -1 -5 -6
707 1 1 0.5897 8.537461849713429 12.40654811757684 4.453398112609838 -2 -2 -4
406 1 2 -1.1794 1.7094303631856895 16.066853107045464 1.059299368443532 -4 0 7
111 1 1 0.5897 5.016728044495789 12.239948516898615 1.2258375783010589 0 -1 -8
425 1 1 0.5897 0.9899567971205847 16.449594778837508 4.398058919417281 8 -3 0
407 1 1 0.5897 1.1267189417443157 16.792863142963398 1.281724008321063 -4 0 7
386 1 1 0.5897 3.918632799331736 15.449911865813922 7.762283695701839 -3 0 1
509 1 1 0.5897 2.2062459438991993 14.44105283777888 6.881844055854459 4 -3 3
790 1 2 -1.1794 7.750575165384679 12.357317180033242 7.437372249911753 5 4 -1
349 1 2 -1.1794 7.434523414006729 15.18971664090664 9.997723207355296 -9 2 0
89 1 1 0.5897 4.419841422306579 14.060461093101038 9.599067233330583 7 -3 4
19 1 2 -1.1794 7.268352375355958 12.044660583008094 10.03095002200136 -2 -3 1
227 1 1 0.5897 5.427212637302053 15.025122909066027 6.802621522035456 3 -5 2
88 1 2 -1.1794 4.710730667061292 14.963183258794631 9.470256254645033 7 -3 4
838 1 2 -1.1794 1.0383206253578565 14.887807297836694 9.742678507836743 -1 -3 -3
351 1 1 0.5897 6.652548455995076 15.063384512831576 9.460442569693914 -9 2 0
791 1 1 0.5897 7.205402486065685 13.13897407841604 7.526513181046315 5 4 -1
350 1 1 0.5897 7.098525365561869 15.476683510983019 10.846769138952766 -9 2 0
228 1 1 0.5897 6.820397943361941 15.616047838959972 6.840819168125486 3 -5 2
508 1 2 -1.1794 1.4317315362145568 13.931266619247657 7.119269481314077 4 -3 3
763 1 2 -1.1794 4.032889870966298 12.376261606591438 9.35754439093602 -7 0 0
503 1 1 0.5897 1.962054251015779 12.24056241442052 6.808941832909664 -4 1 3
764 1 1 0.5897 3.0990031107671605 12.208677087586285 9.231436142117275 -7 0 0
226 1 2 -1.1794 6.35294817972844 14.782072355040443 6.794710841939317 3 -5 2
839 1 1 0.5897 1.1508825327338643 14.387677854217964 10.550987832469108 -1 -3 -3
387 1 1 0.5897 4.146423808681455 16.255123072560554 6.500793863911874 -3 0 1
90 1 1 0.5897 4.257157275221386 15.460843393384165 10.150493255574602 7 -3 4
385 1 2 -1.1794 3.741576386208226 15.449355418606388 6.821663076755123 -3 0 1
21 1 1 0.5897 7.537137828301291 11.969744857273007 9.115375454434169 -2 -3 1
20 1 1 0.5897 7.382277026520157 12.971863482478561 10.239401420130456 -2 -3 0
510 1 1 0.5897 1.1984989735864922 14.242389709742705 7.993871963186141 4 -3 3
225 1 1 0.5897 4.778762008963556 13.1591177494987 13.704957833328262 4 -4 -5
204 1 1 0.5897 4.204670239061576 15.965174240112002 15.265320288389395 -8 -1 1
836 1 1 0.5897 6.1047825583567255 16.12113598285351 13.233279719889083 -4 0 0
604 1 2 -1.1794 1.6916505182598407 13.323269996061962 11.941326877263412 -4 4 -1
852 1 1 0.5897 7.74962488490946 14.228395687923527 12.9791744343541 -3 -1 -2
835 1 2 -1.1794 6.3877817459239195 15.457416800322227 12.604363008976197 -4 0 0
100 1 2 -1.1794 3.180466444472638 15.980864592462911 11.681558239682888 4 -3 -1
223 1 2 -1.1794 4.677091163346863 13.328993565312292 12.768497929839722 4 -4 -5
837 1 1 0.5897 5.74237261237859 14.75571696514917 12.689243568315344 -4 0 0
47 1 1 0.5897 4.55649040260144 13.943384640644517 15.578298104828093 1 -4 0
102 1 1 0.5897 3.297113218707153 15.147339103177199 12.13738736011383 4 -3 -1
178 1 2 -1.1794 9.05713904830987 16.1812453494465 15.25415960899531 -6 4 -5
177 1 1 0.5897 7.788136015268075 14.812387249259835 16.215762486865664 -1 -6 3
607 1 2 -1.1794 1.2101491149718473 15.657267524903242 14.023620225621105 6 2 2
101 1 1 0.5897 2.242064764180874 16.15891903931857 11.743438248681725 4 -3 -1
224 1 1 0.5897 3.7640367014795713 13.110115447704526 12.582649159813569 4 -4 -5
609 1 1 0.5897 1.4944242255243017 14.752758626596997 14.154662770096836 6 2 2
337 1 2 -1.1794 1.3545935638284443 12.823545658743015 14.805828638051645 -3 2 4
203 1 1 0.5897 2.718359463156377 15.946315688654858 15.551977384470975 -8 -1 1
605 1 1 0.5897 0.9624408988931259 13.046808917988391 12.49626595315211 -4 4 -1
46 1 2 -1.1794 5.12825423807586 13.189249983234209 15.435169829994825 1 -4 0
850 1 2 -1.1794 8.449166824826833 13.576807778478694 12.932332115649086 -3 -1 -2
339 1 1 0.5897 1.9723859722839205 12.155939347909753 14.507884115590363 -3 2 4
202 1 2 -1.1794 3.519740723389994 15.437998213286704 15.6765813104431 -8 -1 1
606 1 1 0.5897 1.798949071531225 12.609437183235261 11.31277882677229 -4 4 -1
180 1 1 0.5897 9.039846398918737 16.083368813117353 14.302182824243259 -6 4 -5
48 1 1 0.5897 4.8373193855284216 12.542165683351502 16.07764153827662 1 -4 0
851 1 1 0.5897 8.931330403881873 13.799199621833077 12.135938287160709 -3 -1 -2
176 1 1 0.5897 6.546512955318528 13.960246011851611 16.061247412450335 -1 -6 3
622 1 2 -1.1794 6.7632008253980125 16.259759510589664 18.618391803173594 3 2 3
103 1 2 -1.1794 7.059090351839784 14.299531549471356 20.841854901321597 6 -1 4
104 1 1 0.5897 7.962792018018374 14.140627845622031 21.114242636675975 6 -1 4
564 1 1 0.5897 5.462230574367807 14.760901273812513 18.64801724891842 5 1 4
562 1 2 -1.1794 4.615851556654514 14.321802601109646 18.731574710241333 5 1 4
58 1 2 -1.1794 2.415394764696276 12.77004538381049 20.15118364842065 3 -4 -3
687 1 1 0.5897 6.595036970135457 12.91934477664072 19.781191676974856 6 -5 -1
717 1 1 0.5897 1.7643963382495251 14.196249920087022 19.140639795593103 1 -8 -2
715 1 2 -1.1794 1.3153234796903388 15.001098392144854 18.882429488775173 1 -8 -2
563 1 1 0.5897 3.9780395551543166 14.972344894072984 18.43808597730952 5 1 4
734 1 1 0.5897 8.789084188391957 13.29763859867956 18.166297295389214 -3 1 0
539 1 1 0.5897 1.2851072211926127 12.462697242834492 16.463044623574664 0 -7 -3
306 1 1 0.5897 3.608213599177909 16.488787182590723 17.231385626177413 9 0 -8
623 1 1 0.5897 7.076130072870723 15.634575734838325 17.96467296829347 3 2 3
105 1 1 0.5897 7.099752514132419 15.112282256963915 20.33790659366175 6 -1 4
803 1 1 0.5897 3.3067058629658272 16.62579451671494 21.161775145720632 6 5 -6
540 1 1 0.5897 1.9591972770430095 11.856502399138842 17.675385028477535 0 -7 -3
175 1 2 -1.1794 7.154939012533914 14.299331339536621 16.71773440043895 -1 -6 3
264 1 1 0.5897 4.3860169556324875 14.772139220748636 21.352136939201372 5 -6 5
802 1 2 -1.1794 4.193753955002813 16.814600550598726 20.855698238057506 6 5 -6
538 1 2 -1.1794 1.1009129570558742 12.102624057100872 17.33054499635685 0 -7 -3
251 1 1 0.5897 4.425933869522217 12.253613294567359 18.02976147886045 10 -3 1
685 1 2 -1.1794 6.310494712795087 12.109570408552134 19.357615533478693 6 -5 -1
60 1 1 0.5897 2.9112900816921883 12.377616465756041 19.432709221755744 3 -4 -3
59 1 1 0.5897 3.0780176155294368 13.193111333439717 20.697139715173265 3 -4 -3
408 1 1 0.5897 1.264278461302619 15.612264232625995 21.082360722443493 -4 0 6
395 1 1 0.5897 3.230314096863748 19.4705061123285 1.110532610671339 1 -1 6
45 1 1 0.5897 7.637634000908028 20.893621169671356 5.354811402759054 5 7 -2
611 1 1 0.5897 8.386580182088526 20.499015515647102 2.274146795306452 0 1 -3
550 1 2 -1.1794 6.540750281941455 18.32993569904849 3.853968101736361 -6 6 -6
552 1 1 0.5897 7.462350644563958 18.081070409404234 3.923781598709154 -6 6 -6
272 1 1 0.5897 4.815875820672173 21.26754986596078 2.898694518892717 3 2 3
783 1 1 0.5897 1.1088397408392612 19.39539647215679 5.892714249693191 0 -2 0
389 1 1 0.5897 6.412294269569327 20.709087580673632 1.390875232050297 -4 5 6
480 1 1 0.5897 1.0770450150217368 18.413226974186337 2.4311876730511095 2 4 2
44 1 1 0.5897 6.8633993038161565 19.619515463573407 5.092386835829118 5 7 -2
679 1 2 -1.1794 2.749654055388464 18.376274190361777 2.8344704604271795 -9 -5 2
396 1 1 0.5897 2.400422349352137 20.71862369714023 0.8981938445651072 1 -1 5
782 1 1 0.5897 1.2343634889976691 20.818278707662735 5.391432787293479 0 -2 0
97 1 2 -1.1794 9.09245961766221 17.62665083803821 3.950425366131031 0 -6 8
781 1 2 -1.1794 1.1222418448747762 19.91674327491632 5.090125206209559 0 -2 0
680 1 1 0.5897 2.96395844957376 18.964678336269714 3.558341982743933 -9 -5 2
681 1 1 0.5897 3.4805064670480474 17.759023927266128 2.802530930585928 -9 -5 2
436 1 2 -1.1794 8.673802460049862 17.58912115328973 0.8661003837394129 -2 4 0
271 1 2 -1.1794 4.169126807700392 21.230902060601885 3.6033450183180764 3 2 3
273 1 1 0.5897 3.3504903299400715 21.508470117945592 3.1923637312694115 3 2 3
388 1 2 -1.1794 6.579975565042307 21.377822622352845 2.0548017442067903 -4 5 7
739 1 2 -1.1794 4.969926710676476 17.753717014605662 5.887055959328494 2 1 2
551 1 1 0.5897 6.3961073365643815 18.4541022459197 2.916003517785664 -6 6 -6
741 1 1 0.5897 5.457833670032924 17.65033865127863 5.070121070227176 2 1 2
753 1 1 0.5897 4.213598442206206 20.64763970099702 5.25611157092813 0 0 0
307 1 2 -1.1794 6.202632222966606 18.764834734935953 1.0102272146585736 4 5 3
43 1 2 -1.1794 7.220624470916775 20.156017326166896 5.799981663381053 5 7 -2
437 1 1 0.5897 8.434854546658556 16.867311131545925 1.447495220308617 -2 4 0
749 1 1 0.5897 5.27018259887056 19.13908423331756 8.463119291129193 3 2 3
302 1 1 0.5897 3.5170481085839835 18.409700892504922 9.627410509912604 1 4 9
750 1 1 0.5897 5.8137182797492075 17.800974700278697 8.009571516929359 3 2 3
650 1 1 0.5897 7.005242919107348 20.69254836707821 8.672592933330115 0 0 1
412 1 2 -1.1794 8.743456727111859 20.436112497900957 8.628259566411838 1 -4 0
748 1 2 -1.1794 5.437570167549726 18.24738839631779 8.76809889306606 3 2 3
649 1 2 -1.1794 6.090071030687289 20.970356793211785 8.63500471590092 0 0 1
651 1 1 0.5897 5.807255170241915 20.989187901380035 9.549220692102399 0 0 1
328 1 2 -1.1794 2.8214000307121565 21.210936751180405 8.241707339245288 4 1 -1
462 1 1 0.5897 0.932902461772534 17.53855403480402 7.028236123184937 2 4 -2
162 1 1 0.5897 6.913381213428368 18.199157952492783 9.796757892063596 0 3 5
303 1 1 0.5897 2.2168330250718755 18.425136536788465 8.852274243383354 1 4 9
301 1 2 -1.1794 2.648827606119311 18.812373981459416 9.613554192826086 1 4 9
752 1 1 0.5897 5.427368179458013 20.56380274944477 6.156865485718092 0 0 0
330 1 1 0.5897 2.9834744108711586 20.382664788889535 8.693194070765813 4 1 -1
18 1 1 0.5897 7.8547136885283 17.868613317953198 6.304847008718177 0 4 1
161 1 1 0.5897 8.332237014532968 17.84587008336903 10.188773783982109 0 3 5
160 1 2 -1.1794 7.511250508864605 18.1862516211361 10.544093319240293 0 3 5
751 1 2 -1.1794 4.489554061607285 20.374192608110818 6.130867748891425 0 0 0
329 1 1 0.5897 3.303585463311428 21.133854700159063 7.418495699978686 4 1 -1
16 1 2 -1.1794 7.5828466672069545 17.242400493084453 6.975713431004393 0 4 1
460 1 2 -1.1794 1.727527876195034 18.052263760601804 7.172423782296272 2 4 -2
527 1 1 0.5897 1.1421475435583754 21.551928456024513 8.869503158650335 -3 -2 2
17 1 1 0.5897 8.400574781115264 16.95726049604044 7.3833114320426 0 4 1
740 1 1 0.5897 4.854212212419516 18.699336329171196 5.979438366937279 2 1 2
413 1 1 0.5897 8.808860816254315 19.63505533798407 8.108488727296367 1 -4 0
461 1 1 0.5897 2.428938682206816 17.519569258537402 6.79772942203037 2 4 -2
414 1 1 0.5897 8.99631878075741 21.134902635396855 8.025038779254672 1 -4 0
421 1 2 -1.1794 4.994964836042512 21.071788090142206 11.085753915965022 0 0 1
671 1 1 0.5897 2.4296368915594444 18.610500892935406 15.375688021498092 4 1 -2
845 1 1 0.5897 2.109121081085351 19.0736699360044 11.191701259853845 -2 -2 5
233 1 1 0.5897 4.775909777916983 17.750078474966777 11.929001270509229 0 -3 -1
847 1 2 -1.1794 3.757783227287002 19.8610624249511 15.033140530579063 0 -1 5
848 1 1 0.5897 3.1613067144626106 20.381983374840274 15.570737284488391 0 -1 5
169 1 2 -1.1794 8.204864653932603 19.495466733086097 12.724601233981025 -3 1 -1
670 1 2 -1.1794 1.8242282120154034 17.914458714352854 15.63088300281131 4 1 -2
123 1 1 0.5897 5.215396501057071 17.816169161854972 13.953404721152395 -1 -4 -2
844 1 2 -1.1794 1.9225476197726694 19.108822632504456 12.129829953323723 -2 -2 5
423 1 1 0.5897 5.5581093828193175 21.715135902010616 11.515979684187302 0 0 1
468 1 1 0.5897 7.674872099421868 21.450117288625627 12.180753053668363 4 -1 2