LAMMPS data file via write_data, version 30 Jul 2021, timestep = 7000000

972 atoms
2 atom types
648 bonds
1 bond types
324 angles
1 angle types

0.13309489051440515 19.866906109479164 xlo xhi
-0.0695828364407074 20.0695838364408 ylo yhi
0.05560351329629931 20.644394486702737 zlo zhi

Masses

1 1.008
2 15.999

Pair Coeffs # lj/cut/tip4p/long/omp

1 0 0
2 0.21084 3.1668

Bond Coeffs # harmonic/omp

1 450 0.9572

Angle Coeffs # harmonic/omp

1 55 104.52

Atoms # full

12 4 1 0.5897 2.6079328827027672 3.9031860324508334 3.7099872925742137 0 0 0
31 11 2 -1.1794 1.2807033595257922 1.8293473924855075 1.675533617645953 0 0 0
16 6 2 -1.1794 4.484720078938049 3.4467680764370296 3.4634667954760556 0 0 0
10 4 2 -1.1794 1.6564168468452083 3.9522158638229996 3.618057105363863 0 0 0
18 6 1 0.5897 4.378567574860686 2.510258588395679 3.296411664052824 0 0 0
22 8 2 -1.1794 2.048971630463008 0.4831084377576276 5.068657974478289 0 0 0
33 11 1 0.5897 1.8536781467317274 2.1470218794826037 0.9777234054184206 0 0 0
236 79 1 0.5897 1.5569874157190742 -0.05916177084753127 1.8908809959841584 0 1 0
4 2 2 -1.1794 4.237144389935499 0.5156525262758928 3.14547268662819 0 0 0
17 6 1 0.5897 4.814911329039469 3.801853940148266 2.638246314998032 0 0 0
23 8 1 0.5897 2.77974719012276 0.4876001291604056 4.450512403250134 0 0 0
11 4 1 0.5897 1.4499071053609018 3.326999429349904 2.923332418855838 0 0 0
6 2 1 0.5897 4.914904840190972 0.27067000356439846 3.77539819744673 0 0 0
32 11 1 0.5897 0.4040124681004523 2.1092978635949637 1.4123493944702938 0 0 0
356 119 1 0.5897 1.5994730325000817 2.34465002914869 8.473656185452226 0 0 0
561 187 1 0.5897 0.9397333771626992 0.18236480883145728 8.834381734715947 0 1 0
355 119 2 -1.1794 1.0112522945974765 2.012152561732871 9.151597620536362 0 0 0
325 109 2 -1.1794 2.579212492124119 2.404807637494936 7.030193882671124 0 0 0
326 109 1 0.5897 2.33992782823143 1.8091466053402083 6.3201857674947775 0 0 0
327 109 1 0.5897 3.5296215579882175 2.31919578361676 7.105241892889072 0 0 0
27 9 1 0.5897 2.474159160546831 4.3788198039835535 6.413983358244053 0 0 0
342 114 1 0.5897 4.415357518850006 4.584255964540327 9.889674755568036 0 0 0
330 110 1 0.5897 4.145339900804528 0.28548853436972094 9.661951154288777 0 0 0
341 114 1 0.5897 4.330735469859568 3.1028873368769063 10.190157892294499 0 0 0
357 119 1 0.5897 0.15489582721475814 1.9687666868887943 8.726193880333243 0 0 0
328 110 2 -1.1794 4.240543426720014 1.146323615502076 10.069540325117858 0 0 0
335 112 1 0.5897 1.2557623518757721 3.45346376484942 10.112321183512739 0 0 0
102 34 1 0.5897 0.30171631161796597 0.6865056627993672 5.244591980370638 1 0 0
348 116 1 0.5897 1.9413512448182655 1.1308385749600023 10.96531466525609 0 0 0
683 228 1 0.5897 4.613521799810057 2.6986417828168356 13.994629577454937 0 0 0
650 217 1 0.5897 2.6564439009081977 2.2156025784359072 12.713501948049585 0 0 0
347 116 1 0.5897 0.8269609549282209 0.8792658072092737 11.958576877433654 0 0 0
350 117 1 0.5897 2.7256802377908045 4.676807643267851 13.492380566282652 0 0 0
336 112 1 0.5897 2.474814425402758 3.9403825203990417 10.866332734897405 0 0 0
651 217 1 0.5897 2.194934034013453 2.421479228842299 14.140412955415707 0 0 0
649 217 2 -1.1794 2.8784616445377895 2.6781513330450495 13.521515175043021 0 0 0
346 116 2 -1.1794 1.7772907296830531 0.8256463391296129 11.857528451226218 0 0 0
334 112 2 -1.1794 1.5619018184304108 4.1601055526755735 10.680773830166602 0 0 0
329 110 1 0.5897 4.947471408593579 1.0340613350032244 10.705004651162264 0 0 0
340 114 2 -1.1794 4.339223159420867 3.9617176892001416 10.612714593457449 0 0 0
405 135 1 0.5897 0.17440516835926217 4.347908238138037 11.997291471512948 1 0 0
884 295 1 0.5897 0.808309515759035 0.40101942695840415 15.093046959005708 0 1 0
666 222 1 0.5897 4.7410633692129345 3.13639934827434 16.81086546560229 0 0 0
653 218 1 0.5897 3.609316735586146 1.0972301562481561 17.596342709997728 0 0 0
681 227 1 0.5897 1.1776556366593627 2.9919747267108225 16.107036146092533 0 0 0
665 222 1 0.5897 3.778672616704051 4.204791610382035 17.284391293464992 0 0 0
671 224 1 0.5897 1.0806869199721105 1.0861069211938081 18.261650778535525 0 0 0
652 218 2 -1.1794 4.419252710961317 1.3243453754316972 17.139594093076518 0 0 0
664 222 2 -1.1794 4.694195457594287 4.063792249243064 17.04326862497551 0 0 0
654 218 1 0.5897 4.416098029928814 0.7732019452092208 16.357111078753142 0 0 0
659 220 1 0.5897 1.351873004092588 4.4311231675629825 18.14996981565608 0 0 0
672 224 1 0.5897 2.30367243149185 1.5861711004586863 19.000623380167468 0 0 0
670 224 2 -1.1794 1.9855501729534522 0.8548505197559496 18.471295757532225 0 0 0
658 220 2 -1.1794 1.8924312978905713 4.335525868946284 17.365875748066777 0 0 0
3 1 1 0.5897 3.846181792514816 2.658314210714408 20.624857192076597 0 0 -1
679 227 2 -1.1794 0.9536065202341296 2.2510813152797207 15.543941480595471 0 0 0
1 1 2 -1.1794 2.9575564918099544 2.8341268885125923 20.315563854617302 0 0 -1
2 1 1 0.5897 2.9164711232274625 3.7868451030715584 20.232428313501273 0 0 -1
660 220 1 0.5897 1.5092048773737738 4.944428526233383 16.73455715567284 0 0 0
114 38 1 0.5897 3.42653736818682 7.375225984861544 4.02816137481241 0 0 0
14 5 1 0.5897 4.269897708304741 5.331009757097275 0.8820785001179468 0 0 0
110 37 1 0.5897 2.223603228967254 9.525040792726262 0.7879744800237808 0 0 0
141 47 1 0.5897 1.203206971059847 8.127621570357446 2.8687052017010806 0 0 0
15 5 1 0.5897 4.41472777142861 6.277858606467165 2.054352826123374 0 0 0
112 38 2 -1.1794 4.09809100893675 7.490488744181181 3.355928642234591 0 0 0
111 37 1 0.5897 3.672931497187227 9.239364319079415 0.4567236445723497 0 0 0
140 47 1 0.5897 1.2966183268792513 9.631022747552882 3.02051199680602 0 0 0
19 7 2 -1.1794 1.0711804200746642 5.945057805990469 1.7795102518616652 0 0 0
139 47 2 -1.1794 1.0994214770017228 8.945450009872372 2.3823127164211515 0 0 0
113 38 1 0.5897 4.92466338675011 7.482598056806151 3.838528833591088 0 0 0
126 42 1 0.5897 4.343168512650933 9.464911208618572 3.1888763326815086 0 0 0
674 225 1 0.5897 2.294015779376065 5.620522955778912 0.4795912467680038 0 0 1
20 7 1 0.5897 1.1289341771591428 5.460179707123105 2.602730017403026 0 0 0
13 5 2 -1.1794 4.865618257855828 5.571633653596384 1.5915675840214738 0 0 0
130 44 2 -1.1794 2.1037165228767583 7.601604293811995 5.1530762453403085 0 0 0
109 37 2 -1.1794 2.881534854964985 9.645576503895164 0.10330996994134267 0 0 0
344 115 1 0.5897 1.1394437848538694 5.454920117006205 9.25039440802628 0 0 0
131 44 1 0.5897 2.352739490982817 6.760972619196276 5.537225640984989 0 0 0
26 9 1 0.5897 2.064369043881613 5.595947746332509 7.215582706629271 0 0 0
435 145 1 0.5897 2.435557320946082 8.681905191280759 6.711405854194562 0 0 0
25 9 2 -1.1794 2.6531011440046917 5.313655442409403 6.515670198190702 0 0 0
345 115 1 0.5897 0.6708984132556577 6.804235687310207 8.74866381703017 0 0 0
339 113 1 0.5897 4.283350090117198 5.5226857988363465 7.598438180504968 0 0 0
437 146 1 0.5897 3.9679754547593085 7.5688017938200804 9.32445794703473 0 0 0
464 155 1 0.5897 1.3808905490505747 8.730699366031539 8.509940093158246 0 0 0
463 155 2 -1.1794 0.547530127396991 8.524887857863328 8.933454646752741 0 0 0
343 115 2 -1.1794 0.7842105486696761 5.893324371514114 8.477258693599849 0 0 0
468 156 1 0.5897 4.462911252828686 8.896617531336409 7.23668297667151 0 0 0
433 145 2 -1.1794 2.658819502523211 9.193821123222037 7.48872691427761 0 0 0
438 146 1 0.5897 3.6275119195597076 8.787112132531242 10.156079056192926 0 0 0
436 146 2 -1.1794 3.727425871670351 7.836736476898992 10.211272812192952 0 0 0
337 113 2 -1.1794 4.7451000385563145 5.7540090235480035 8.404289311033283 0 0 0
132 44 1 0.5897 1.1519397456729197 7.636584778688956 5.24861579083592 0 0 0
789 263 1 0.5897 1.5302805975373044 9.086170009204066 15.244416331224475 0 0 0
668 223 1 0.5897 1.4959125694269066 5.875546581569892 14.931852807429884 0 0 0
454 152 2 -1.1794 1.844113672237306 7.527164593608993 12.192723372336765 0 0 0
455 152 1 0.5897 2.413287758131002 7.498823537884289 11.42378082036418 0 0 0
456 152 1 0.5897 2.0810772868430902 6.747907854203255 12.695538621165706 0 0 0
533 178 1 0.5897 0.16731298855905408 7.344167904142738 12.044075349625677 1 0 0
759 253 1 0.5897 2.33466780927179 8.859655293909452 13.251644239558221 0 0 0
349 117 2 -1.1794 2.7255704550757063 5.567302739050133 13.843455488276776 0 0 0
757 253 2 -1.1794 2.856636702777635 9.38725688481835 13.856082948993867 0 0 0
351 117 1 0.5897 3.518447157670831 5.614775609308316 14.377548842637971 0 0 0
792 264 1 0.5897 4.696347181546855 9.122785486815046 14.611255631251893 0 0 0
661 221 2 -1.1794 5.0018189584647965 5.935355113348183 15.093086227787635 0 0 0
663 221 1 0.5897 4.756777042980691 6.773916852509506 15.484249546786815 0 0 0
443 148 1 0.5897 0.9639702493471495 9.66597417773973 10.819820222013368 0 0 0
761 254 1 0.5897 4.292781684798869 8.929095505419491 16.99307283290696 0 0 0
780 260 1 0.5897 3.0517201957164084 7.851154956565225 18.100119446111393 0 0 0
778 260 2 -1.1794 2.2532670412698192 7.854581052070984 18.627991894205167 0 0 0
762 254 1 0.5897 4.975905203722891 7.625223466675755 17.346954108000155 0 0 0
779 260 1 0.5897 2.476978553113065 8.377178128048238 19.39805882060279 0 0 0
787 263 2 -1.1794 1.018308803125669 8.689816915435042 15.94935433891374 0 0 0
675 225 1 0.5897 2.561985112874584 6.328219987800141 19.75728778888302 0 0 0
760 254 2 -1.1794 4.359232561632566 8.012392850329572 16.725662570568687 0 0 0
673 225 2 -1.1794 2.900950373684465 5.6390136764951615 20.328510478728532 0 0 0
788 263 1 0.5897 1.2111693011370268 9.227402103640483 16.71744562031646 0 0 0
662 221 1 0.5897 4.847918653237628 5.293153415078618 15.785963220309451 0 0 0
667 223 2 -1.1794 0.8494471710255135 6.029137448340417 15.6207897857357 0 0 0
669 223 1 0.5897 1.153738977113563 6.821646719937271 16.063023967540687 0 0 0
246 82 1 0.5897 4.879147719173406 14.001570981794917 4.9539715972040375 0 0 0
121 41 2 -1.1794 4.964195454187076 12.32615846299957 1.5268337220053452 0 0 0
129 43 1 0.5897 1.0907443165868789 13.536165910781156 2.078830892406928 0 0 0
120 40 1 0.5897 2.5327906587131603 10.831518188909568 3.924900947697003 0 0 0
127 43 2 -1.1794 1.082541341399835 12.605520275491088 1.8550432145147733 0 0 0
220 74 2 -1.1794 3.7815118983687954 14.110212001026735 3.459613488445421 0 0 0
240 80 1 0.5897 2.210824569776101 14.222805445964864 4.336502507228206 0 0 0
119 40 1 0.5897 1.4243166781516994 11.709377367969518 3.384021381629564 0 0 0
118 40 2 -1.1794 1.6166027543755557 11.068581509987233 4.06856204441832 0 0 0
124 42 2 -1.1794 4.168115413308652 10.368640428816091 3.451272542879505 0 0 0
222 74 1 0.5897 4.220407674098109 13.639524101665527 2.7510959515128866 0 0 0
125 42 1 0.5897 4.819006905741577 10.552220717345515 4.128586696604138 0 0 0
783 261 1 0.5897 2.06524133061034 12.462836691123682 0.33974568292298035 0 0 1
123 41 1 0.5897 4.328302288007314 12.389288978245798 0.8142220748417587 0 0 0
122 41 1 0.5897 4.6964274816926785 11.550287687333446 2.0193200810234524 0 0 0
221 74 1 0.5897 3.8751651343054765 15.034253664656083 3.2280373526976334 0 0 0
128 43 1 0.5897 0.20577544356003585 12.45092673539477 1.5035341474265427 0 0 0
188 63 1 0.5897 0.24252295619296405 11.509729219071273 5.124091458320675 1 0 0
238 80 2 -1.1794 1.7558242001195303 13.9513053191095 5.133623814116148 0 0 0
252 84 1 0.5897 4.8309284324717545 14.534094746686959 0.2935804275416487 0 0 0
133 45 2 -1.1794 2.718888704900433 11.709038136681107 6.861394349104583 0 0 0
134 45 1 0.5897 2.100064934998369 11.83762262822967 7.580199109815537 0 0 0
135 45 1 0.5897 3.556905816924039 12.014725330047467 7.208534438129251 0 0 0
446 149 1 0.5897 4.748403373352731 13.12370164884571 8.783018063784874 0 0 0
453 151 1 0.5897 1.1952810955256383 11.574505172068664 9.536613368423513 0 0 0
434 145 1 0.5897 2.6582957969209478 10.102017714089143 7.186355883428625 0 0 0
451 151 2 -1.1794 0.9812222340225957 12.205507273021933 8.849451274189162 0 0 0
239 80 1 0.5897 2.0261215625414573 13.042722197901183 5.2666283716230184 0 0 0
573 191 1 0.5897 1.1201662164048096 14.286332738034325 9.2211892179802 0 0 0
445 149 2 -1.1794 4.957766819319715 12.216378496722827 8.561269391634704 0 0 0
450 150 1 0.5897 4.370009887328229 11.090913050523431 9.710796191361588 0 0 0
543 181 1 0.5897 2.2584107770319286 14.944543008083611 6.377311272525244 0 0 0
564 188 1 0.5897 1.8177517764874898 13.314594625244341 12.34362746442254 0 0 0
546 182 1 0.5897 3.203785923001213 14.329490622828637 11.162304367045927 0 0 0
449 150 1 0.5897 4.484130031103095 10.896306805115863 11.207650998249576 0 0 0
563 188 1 0.5897 1.5771027871809573 14.807093651227344 12.2628804757929 0 0 0
457 153 2 -1.1794 2.327323008541138 12.142805956271092 13.603300586659683 0 0 0
458 153 1 0.5897 1.5844510971822203 12.135389226837196 14.206846699717993 0 0 0
459 153 1 0.5897 3.095685765397335 12.216246554204083 14.169273344684143 0 0 0
562 188 2 -1.1794 1.4158095355587728 13.987910616845074 11.794737222613039 0 0 0
444 148 1 0.5897 2.2644607817640705 10.439114759891163 10.87351877699491 0 0 0
448 150 2 -1.1794 4.02988990887668 10.563658685038405 10.433627078864973 0 0 0
758 253 1 0.5897 2.7604670405144995 10.284292622522345 13.53624323321823 0 0 0
442 148 2 -1.1794 1.315889446863317 10.547798285821605 10.94151300497209 0 0 0
545 182 1 0.5897 4.710808233303066 14.402596433275598 11.286606648191167 0 0 0
544 182 2 -1.1794 4.0062161149178195 14.350053446504074 10.640880799709523 0 0 0
512 171 1 0.5897 0.2797599250241305 10.932170148560592 12.266162383420422 1 0 0
769 257 2 -1.1794 4.425633759406095 12.550255479530744 15.111008586877892 0 0 0
870 290 1 0.5897 4.763231445069276 14.432873269843512 17.654106401780794 0 0 0
868 290 2 -1.1794 4.098792126396941 14.493902703048972 16.967844197571793 0 0 0
773 258 1 0.5897 3.30343929080042 10.77078916176642 17.5460673955235 0 0 0
768 256 1 0.5897 1.2448531399321976 11.50009113834667 17.16692348380669 0 0 0
772 258 2 -1.1794 4.247854167911493 10.82077089552734 17.398413172801064 0 0 0
888 296 1 0.5897 2.110276069599203 13.849578891531689 19.11632193949073 0 0 0
774 258 1 0.5897 4.346773254127489 11.45798018617938 16.69105230596815 0 0 0
869 290 1 0.5897 3.2841039441254796 14.672087466567294 17.437653498754422 0 0 0
886 296 2 -1.1794 1.8954326183528536 14.63549154803028 18.613945547382414 0 0 0
766 256 2 -1.1794 1.4449579451819463 10.80735179563612 17.79642327701395 0 0 0
777 259 1 0.5897 1.0244796370548266 13.475075471228838 15.8042491008854 0 0 0
782 261 1 0.5897 2.789396993221367 11.653575303661034 19.8738100616806 0 0 0
775 259 2 -1.1794 0.7915191503064509 12.550265348413857 15.886241987525533 0 0 0
771 257 1 0.5897 4.337298961698707 13.15936415176936 15.84405007101994 0 0 0
767 256 1 0.5897 0.7791710433529657 10.90241161527871 18.477495864904512 0 0 0
781 261 2 -1.1794 2.7045229793103513 12.541733030012589 20.22055218439175 0 0 0
250 84 2 -1.1794 4.695112119214048 15.373238115329116 0.7335730601002926 0 0 0
234 78 1 0.5897 3.491501053586117 17.14198927161909 3.808269179475559 0 0 0
232 78 2 -1.1794 4.380751298258698 16.866788138459697 3.585357168338727 0 0 0
235 79 2 -1.1794 1.4007384225812507 19.141426170127644 1.7863777595671881 0 0 0
226 76 2 -1.1794 1.6659438389895933 17.083251900516316 4.253361021160435 0 0 0
227 76 1 0.5897 1.3096342103833467 17.778606461927424 3.7004791332136295 0 0 0
249 83 1 0.5897 1.6747588231120805 15.460261403830991 1.7092616663766405 0 0 0
248 83 1 0.5897 1.113944373755682 15.861096743062864 3.056920364553396 0 0 0
228 76 1 0.5897 1.2315773357511954 17.20196730274769 5.097940668599796 0 0 0
233 78 1 0.5897 4.591220580118763 17.356319304563506 2.7902543585461284 0 0 0
890 297 1 0.5897 2.3798080111848554 19.02931057598294 0.15229574107255028 0 0 1
230 77 1 0.5897 4.454242498050255 18.873858700298108 0.6175163547073608 0 0 0
247 83 2 -1.1794 0.9660447681811808 15.265542478281423 2.3223757743061766 0 0 0
219 73 1 0.5897 2.994256998886109 16.244837821418372 0.34284950525538754 0 0 0
237 79 1 0.5897 0.46306011506248856 19.07278145006562 1.6067326279401173 0 0 0
5 2 1 0.5897 4.229602990986444 19.938623238883828 2.5104857426445832 0 -1 0
229 77 2 -1.1794 4.785880373258341 18.602701199921974 1.4734453176243762 0 0 0
241 81 2 -1.1794 2.576482699880934 18.618088415255528 7.000917422898618 0 0 0
576 192 1 0.5897 4.205793465389863 15.618395348342434 7.821093524696217 0 0 0
243 81 1 0.5897 1.8759213387032176 18.860537867770795 7.606410010640783 0 0 0
542 181 1 0.5897 1.968383689963536 15.384058788114059 7.796581277835476 0 0 0
242 81 1 0.5897 2.4684683456914542 17.675485246283095 6.873988526464104 0 0 0
559 187 2 -1.1794 0.8266267629854877 19.37422148638121 8.912193766226931 0 0 0
571 191 2 -1.1794 0.8446163303057229 15.165616713310115 8.961981842193047 0 0 0
24 8 1 0.5897 2.2420128471357947 19.89731904193325 5.66309252238578 0 -1 0
553 185 2 -1.1794 4.552965846264834 18.65947473198697 8.912971256667053 0 0 0
541 181 2 -1.1794 2.463001825626553 15.628848350847358 7.014544347636148 0 0 0
555 185 1 0.5897 4.0853647392831185 18.649855963065264 8.077875452825333 0 0 0
572 191 1 0.5897 0.888854737631107 15.678657094786441 9.76879578430766 0 0 0
556 186 2 -1.1794 4.176590907295516 17.131517175863692 11.138118118863792 0 0 0
885 295 1 0.5897 1.7642457717934195 19.61846131884083 14.366096936209377 0 0 0
865 289 2 -1.1794 2.406955592503208 16.098700972304115 13.396767597981222 0 0 0
565 189 2 -1.1794 3.1013820350835664 19.042580039567774 13.207354130605436 0 0 0
566 189 1 0.5897 2.818134441814109 18.13710949973798 13.08019735066411 0 0 0
550 184 2 -1.1794 1.448372202446186 17.210347846168936 10.868285010013587 0 0 0
867 289 1 0.5897 1.9025957079743492 15.849443890475639 14.171123994334755 0 0 0
866 289 1 0.5897 3.304352377484638 16.194887181894032 13.715552298799263 0 0 0
879 293 1 0.5897 4.18780007332085 19.301544333464655 14.546197270561047 0 0 0
567 189 1 0.5897 2.540012108946123 19.553775229423344 12.624478655441681 0 0 0
552 184 1 0.5897 2.401624461156748 17.14365602034357 10.92393727341893 0 0 0
557 186 1 0.5897 4.283334809257451 16.285298150384385 10.703661078328237 0 0 0
877 293 2 -1.1794 4.629558493797713 19.42767865854573 15.385871518341142 0 0 0
883 295 2 -1.1794 1.0134296333705364 19.614749615167668 14.959758795717258 0 0 0
621 207 1 0.5897 0.20041112421122165 17.763436825208807 12.054790542992862 1 0 0
895 299 2 -1.1794 1.003028510936951 15.259758385817836 15.463687350452783 0 0 0
558 186 1 0.5897 4.270631346824775 17.775343174396724 10.43610778954926 0 0 0
551 184 1 0.5897 1.2921045292313047 18.03021231607545 10.399651116040127 0 0 0
874 292 2 -1.1794 1.2100655291051468 17.69452600974619 16.829404234293797 0 0 0
891 297 1 0.5897 2.7528277724188 19.770891454374976 19.475143087153008 0 0 0
876 292 1 0.5897 1.091939393637288 18.48950065480505 16.309536157773856 0 0 0
875 292 1 0.5897 0.757101562807319 17.87671427321822 17.652659154758467 0 0 0
880 294 2 -1.1794 3.815542445872035 17.598132489580536 17.318848456485668 0 0 0
881 294 1 0.5897 2.87286222032114 17.763224920693737 17.300411715744197 0 0 0
878 293 1 0.5897 4.267204731185348 18.746472094252496 15.952323740172858 0 0 0
882 294 1 0.5897 3.910422157047292 16.70996984984548 16.974719635546364 0 0 0
897 299 1 0.5897 1.1559403656546237 15.937262650481008 16.122308446425876 0 0 0
887 296 1 0.5897 1.901975759675496 15.34227556419248 19.259399437319694 0 0 0
218 73 1 0.5897 2.4138449419691037 17.28524242063647 19.997604307999865 0 0 -1
889 297 2 -1.1794 3.000035102967378 19.01811956705732 20.01216922365034 0 0 0
873 291 1 0.5897 4.930184813146397 17.44517555470508 18.697401103706675 0 0 0
217 73 2 -1.1794 2.180145877638268 16.505302106594428 20.500849496240942 0 0 -1
68 23 1 0.5897 8.43084109581825 2.091999040472328 1.5463281438895609 0 0 0
9 3 1 0.5897 5.270307801355729 4.045849384060018 4.925510469861891 0 0 0
67 23 2 -1.1794 7.718873864937334 2.075153100696083 2.1858358248684273 0 0 0
69 23 1 0.5897 6.928028148065425 1.949995355986947 1.6613595752250165 0 0 0
47 16 1 0.5897 7.746036024731467 3.321514835422902 3.343143960749775 0 0 0
46 16 2 -1.1794 7.766570555784851 4.141225388286283 3.8369703904551495 0 0 0
48 16 1 0.5897 7.166832477657553 3.9957044081774633 4.568574623604535 0 0 0
34 12 2 -1.1794 5.348436230215133 2.052247756133449 0.3462382280466766 0 0 0
273 91 1 0.5897 7.436246726901785 0.12619416970712954 2.257723272801917 0 1 0
53 18 1 0.5897 9.603426533007072 4.092064783211567 4.025113025729235 0 0 0
29 10 1 0.5897 6.734208889321753 0.1969960273941863 5.024008669624697 0 0 0
58 20 2 -1.1794 8.661947505879098 0.34139162589424965 4.880112972151055 0 0 0
36 12 1 0.5897 5.8534402278818085 2.82144814255463 0.0825971270280732 0 0 0
391 131 2 -1.1794 7.649371376912292 2.1905990906812796 8.935089318937884 0 0 0
361 121 2 -1.1794 9.185333042575978 2.3955685474309147 6.700217826558464 0 0 0
360 120 1 0.5897 6.105518441083486 2.0311985266044092 7.901771275648685 0 0 0
392 131 1 0.5897 8.25887796024805 2.264982857519229 8.20083896028578 0 0 0
362 121 1 0.5897 8.970915428789722 3.326109859178125 6.6340301071923236 0 0 0
28 10 2 -1.1794 5.845382441275559 0.06191897295773818 5.352565436592139 0 0 0
59 20 1 0.5897 8.811065808566054 1.0620505582858595 5.492172639675219 0 0 0
8 3 1 0.5897 5.644371306597981 3.6013961944363024 6.323414746456142 0 0 0
358 120 2 -1.1794 5.466531384606298 2.036394106937144 7.189148178341944 0 0 0
393 131 1 0.5897 7.552419076464903 1.2481895491877204 9.07197419369332 0 0 0
7 3 2 -1.1794 5.815248386485967 4.284691017683282 5.675261951366934 0 0 0
359 120 1 0.5897 5.664326873638506 1.247921893997833 6.683759492818187 0 0 0
386 129 1 0.5897 9.473483454047534 4.3932236452118225 13.165611406622073 0 0 0
352 118 2 -1.1794 6.071463064415728 1.072423992793499 11.943459722437636 0 0 0
384 128 1 0.5897 9.544891605524358 1.0288500845123014 10.917636787667172 0 0 0
682 228 2 -1.1794 5.550008470715137 2.778757333653801 14.175718448047508 0 0 0
684 228 1 0.5897 5.795214570025923 3.625105739495647 13.801806467897551 0 0 0
353 118 1 0.5897 6.989458750677277 1.0460752064498124 11.673610818297675 0 0 0
686 229 1 0.5897 8.518388368094405 2.3557927766342948 14.395506226995847 0 0 0
370 124 2 -1.1794 8.136180429630006 4.213475114833385 10.825257329041072 0 0 0
382 128 2 -1.1794 8.751496927090344 1.0322259245816732 11.453069356614018 0 0 0
383 128 1 0.5897 8.94048900320791 1.6513807711508401 12.158119898912366 0 0 0
685 229 2 -1.1794 8.97290708366333 2.5751000553352226 13.582207790510274 0 0 0
331 111 2 -1.1794 6.088799359524465 4.845647979226483 12.619220972216276 0 0 0
332 111 1 0.5897 5.366901564850623 4.535085537361233 12.072787811327299 0 0 0
372 124 1 0.5897 7.443058534971732 4.302438708287661 11.479333616588853 0 0 0
354 118 1 0.5897 6.077708673906493 1.5576422817682394 12.768487893199671 0 0 0
687 229 1 0.5897 9.899952121280045 2.447114948540144 13.783305331684375 0 0 0
717 239 1 0.5897 6.442276129700703 1.8131676566434987 15.458592044338467 0 0 0
371 124 1 0.5897 7.9712762983965115 3.364595334705621 10.414860796725227 0 0 0
694 232 2 -1.1794 8.184630483794482 3.945656819495225 17.767214753172738 0 0 0
696 232 1 0.5897 8.008754568426559 4.569464145807442 17.062871710479953 0 0 0
716 239 1 0.5897 7.33453604861419 0.6718067921300686 15.898038723350767 0 0 0
655 219 2 -1.1794 6.07191939223777 4.428365618149304 19.450367734798952 0 0 0
677 226 1 0.5897 5.804892632418724 0.581248549735711 18.209060325267707 0 0 0
676 226 2 -1.1794 6.265635449445322 0.23069152071105442 18.971284809662443 0 0 0
706 236 2 -1.1794 8.94773177138978 0.38800605164373364 18.743433095878544 0 0 0
38 13 1 0.5897 9.15148086645329 1.8438181954417825 19.883635127381666 0 0 -1
710 237 1 0.5897 9.171033766067858 4.383126444478512 20.348924214632845 0 0 0
695 232 1 0.5897 7.897959702042434 3.1018988683835618 17.417731806060353 0 0 0
708 236 1 0.5897 7.991847321507628 0.3390779042413928 18.754651505043775 0 0 0
657 219 1 0.5897 6.967211338249559 4.4156116399166585 19.11198688655692 0 0 0
35 12 1 0.5897 5.420312551680155 1.4520728584207783 20.192919013694855 0 0 -1
715 239 2 -1.1794 7.204272780516729 1.6143358289014371 16.002672849787672 0 0 0
656 219 1 0.5897 5.530926786616034 4.158929050761471 18.708149585996203 0 0 0
37 13 2 -1.1794 9.333115670497818 2.4872712410050486 20.568579883005622 0 0 -1
175 59 2 -1.1794 7.561085906093103 8.723927431591374 2.297549691125537 0 0 0
56 19 1 0.5897 6.724440540935162 6.0392446171801435 1.7265933371231719 0 0 0
711 237 1 0.5897 8.597874495954189 5.497738393111163 0.6091725936451269 0 0 1
177 59 1 0.5897 8.126884717304973 8.736713654015967 1.5256296229862696 0 0 0
55 19 2 -1.1794 7.62098157334286 6.013732762691667 2.060914021492085 0 0 0
176 59 1 0.5897 7.764995756193555 7.895115759865861 2.73081513266498 0 0 0
166 56 2 -1.1794 8.735227386194115 7.359070149910007 4.703127793244653 0 0 0
143 48 1 0.5897 6.247353324840747 8.605382029130162 1.167676550005839 0 0 0
57 19 1 0.5897 7.626796173688774 5.280718842477575 2.6764330822845563 0 0 0
147 49 1 0.5897 9.768652181586502 9.35197792195973 0.4087316870332454 0 0 0
149 50 1 0.5897 9.799549519817516 7.977054743281297 3.3744409989188986 0 0 0
142 48 2 -1.1794 5.446454617210724 8.590266867782718 0.6438032474009354 0 0 0
167 56 1 0.5897 8.982303568676528 6.463826718644365 4.934977917245125 0 0 0
138 46 1 0.5897 6.989721014365076 7.286579438094942 5.168817987341888 0 0 0
144 48 1 0.5897 5.55069106693123 7.832802485006114 0.06797837876437285 0 0 0
500 167 1 0.5897 7.442934306666429 9.211932306987665 9.980333044861204 0 0 0
379 127 2 -1.1794 7.49322869263555 5.677846180964724 8.599068033859377 0 0 0
470 157 1 0.5897 8.698805072658052 8.953413335150184 7.657658288144695 0 0 0
61 21 2 -1.1794 9.121792069688507 5.082717665292909 6.487512802997284 0 0 0
499 167 2 -1.1794 7.532116404153222 8.545623861589958 9.298966155872394 0 0 0
501 167 1 0.5897 6.826231433265199 8.737695695426911 8.681710002348657 0 0 0
469 157 2 -1.1794 9.165910256723524 8.912221876618789 6.823245885020987 0 0 0
63 21 1 0.5897 9.946309591282304 5.0205287386481485 6.969678261315813 0 0 0
137 46 1 0.5897 6.0102463020906045 6.217749169360759 5.6048648217084684 0 0 0
380 127 1 0.5897 7.608823347263301 6.550655208358914 8.97469663342747 0 0 0
467 156 1 0.5897 5.699337160370936 8.11803491623641 6.840557580576439 0 0 0
62 21 1 0.5897 8.476997669353276 5.339362731641776 7.146710568231395 0 0 0
338 113 1 0.5897 5.645621925899913 5.92022142027962 8.125689729125858 0 0 0
381 127 1 0.5897 7.596935537274195 5.081673756237467 9.340683975027675 0 0 0
168 56 1 0.5897 8.875767642215305 7.86220805970569 5.505144600266263 0 0 0
136 46 2 -1.1794 6.078264757397529 7.156515022975867 5.430605149280477 0 0 0
466 156 2 -1.1794 5.41477594814476 8.885444617935786 7.336871319721043 0 0 0
461 154 1 0.5897 5.802917463300847 8.090187244727058 12.911996330303666 0 0 0
790 264 2 -1.1794 5.591485726997463 9.147243778125159 14.273133603514701 0 0 0
791 264 1 0.5897 6.134272170402061 8.868041462051982 15.01041342301196 0 0 0
385 129 2 -1.1794 9.740994415395516 5.251722883198687 13.493735895807006 0 0 0
793 265 2 -1.1794 9.33099782466466 9.122812332334966 13.959308820185473 0 0 0
387 129 1 0.5897 9.42790252145184 5.869470173336896 12.833053071341016 0 0 0
490 164 2 -1.1794 8.801256141273024 7.40994370124105 11.924142198580538 0 0 0
460 154 2 -1.1794 6.018161432506615 7.702544817759418 12.063779334195576 0 0 0
492 164 1 0.5897 7.870351039356202 7.502719160449459 11.721605827393635 0 0 0
491 164 1 0.5897 9.240332106667033 7.490859729879723 11.077506743325042 0 0 0
794 265 1 0.5897 9.204979866467175 8.60686023551493 13.163028363044681 0 0 0
333 111 1 0.5897 5.913612553517238 5.778829011593674 12.740693171260208 0 0 0
705 235 1 0.5897 8.314119636194159 5.924607092591834 14.952913857324948 0 0 0
462 154 1 0.5897 5.241198358687322 7.855338276563224 11.526095717772925 0 0 0
704 235 1 0.5897 6.851010816073696 5.744901995770754 15.297754213691496 0 0 0
824 275 1 0.5897 8.399149808506436 8.765231088240965 15.372516584015704 0 0 0
823 275 2 -1.1794 7.725860216031115 8.61358404389152 16.035727481501315 0 0 0
785 262 1 0.5897 6.0493164579874765 6.129151942321295 18.888206285780555 0 0 0
816 272 1 0.5897 8.548082687549872 8.167522683310962 19.24449786475276 0 0 0
825 275 1 0.5897 7.958694001597618 7.771022129631065 16.42576375518275 0 0 0
784 262 2 -1.1794 5.85820943149647 7.05902425343658 18.7653503133102 0 0 0
786 262 1 0.5897 6.699605985156892 7.447317315037735 18.525520065462317 0 0 0
814 272 2 -1.1794 8.452284355741321 7.453969323115922 18.613746459165625 0 0 0
815 272 1 0.5897 8.711874959449638 6.669703753733768 19.097238125029705 0 0 0
765 255 1 0.5897 5.839768977073419 9.830985551054878 19.817862148293152 0 0 0
797 266 1 0.5897 9.981852257546926 7.657377532710731 17.430647925537755 0 0 0
703 235 2 -1.1794 7.716010031069586 5.842960593877461 15.695707906587971 0 0 0
709 237 2 -1.1794 9.29728266867554 5.304985686974795 20.57365978947596 0 0 0
145 49 2 -1.1794 8.89068099719476 9.330622745731448 20.616830195226747 0 0 -1
164 55 1 0.5897 8.030055691249864 12.509484927215228 2.5621522731347883 0 0 0
275 92 1 0.5897 8.69731249481233 14.443873157698999 4.571651154820086 0 0 0
284 95 1 0.5897 7.3854078667381735 14.879508342827437 1.6553962760441534 0 0 0
165 55 1 0.5897 6.7036466454753905 12.968835299030907 1.9953520449709408 0 0 0
156 52 1 0.5897 9.341906527320987 10.86966698550369 3.6107611329137117 0 0 0
163 55 2 -1.1794 7.629037657516997 13.208230621670298 2.045341837025373 0 0 0
154 52 2 -1.1794 8.387176437419953 10.930169492380388 3.578363547928947 0 0 0
819 273 1 0.5897 8.50979589411542 12.40231866750727 0.572354083859928 0 0 1
155 52 1 0.5897 8.111989008173484 10.137778788082327 3.1173051349742558 0 0 0
115 39 2 -1.1794 6.2684793505498675 10.985845235736676 5.715555434951523 0 0 0
487 163 2 -1.1794 7.671293553458191 12.461152922586528 8.955898626048855 0 0 0
171 57 1 0.5897 9.64386359243592 11.700949892467175 5.878481756635803 0 0 0
170 57 1 0.5897 9.194058488941149 13.120348139340702 6.152261333295241 0 0 0