LAMMPS data file via write_data, version 30 Jul 2021, timestep = 3750000

1920 atoms
2 atom types
1280 bonds
1 bond types
640 angles
1 angle types

-0.06908235744421454 24.799083357434963 xlo xhi
-0.18153344947473293 24.911534449476346 ylo yhi
-0.05972115097114283 22.86972115097224 zlo zhi

Masses

1 1.008
2 15.999

Pair Coeffs # lj/cut/tip4p/long/omp

1 0 0
2 0.21084 3.1668

Bond Coeffs # harmonic/omp

1 450 0.9572

Angle Coeffs # harmonic/omp

1 55 104.52

Atoms # full

1 1 2 -1.1794 4.602135075590824 1.141616705468313 3.8419405509576197 0 0 0
2 1 1 0.5897 4.563905778931577 1.8278678355741094 4.50806859613317 0 0 0
3 1 1 0.5897 5.410953517548154 1.3183422151754516 3.3615357532496475 0 0 0
4 2 2 -1.1794 2.841823958973961 1.147258735875543 1.66396217465215 0 0 0
5 2 1 0.5897 3.1964495275240608 1.2362969591328477 2.548492668904042 0 0 0
6 2 1 0.5897 1.9013363422412328 1.292805598052506 1.7666433320171702 0 0 0
9 3 1 0.5897 5.0368664239934375 5.007276410791405 3.5175485101300907 0 0 0
10 4 2 -1.1794 3.204534666618065 4.634043202804249 3.285585690561242 0 0 0
11 4 1 0.5897 2.6941888246405155 5.152935956861444 3.9072536215636196 0 0 0
12 4 1 0.5897 2.624718380121147 4.524073134150782 2.532032413160858 0 0 0
13 5 2 -1.1794 1.574004047366675 2.7603503944901444 4.918890589471447 0 0 0
14 5 1 0.5897 2.468106937597132 3.0402530579382048 4.722751646038693 0 0 0
15 5 1 0.5897 1.6369199190476194 1.810787366611122 5.021728056594979 0 0 0
22 8 2 -1.1794 1.2700930493558584 4.154219357099442 1.3739033689604176 0 0 0
20 7 1 0.5897 3.9379408245264234 2.633793067601449 0.9731664498912524 0 0 0
23 8 1 0.5897 0.6205223148541843 4.151687699102791 2.0769002302888735 0 0 0
21 7 1 0.5897 5.4194113635706165 2.8064593674753735 1.2327075455816145 0 0 0
24 8 1 0.5897 1.0911380442620804 4.957279600944187 0.8847719228258641 0 0 0
19 7 2 -1.1794 4.747759989288878 2.9382082329173933 0.5636061041864999 0 0 0
26 9 1 0.5897 5.293823870892429 6.0443436058422195 1.1418943697747828 0 0 0
27 9 1 0.5897 4.516886130269711 4.9416635394248205 0.45469733278863067 0 0 0
25 9 2 -1.1794 4.586898961960387 5.894427850679933 0.5142456567032376 0 0 0
98 33 1 0.5897 0.29607122620309745 5.380843117373277 4.012548611252987 1 0 0
16 6 2 -1.1794 0.2961786875893505 1.4779723759405599 2.384943103828386 0 0 0
867 289 1 0.5897 4.522590777519809 -0.17111568842346686 5.310609136868695 0 1 0
28 10 2 -1.1794 1.498849879260008 0.05346189366443049 4.831471468143675 0 0 0
7 3 2 -1.1794 5.949710987161394 4.722439849843419 3.4747814655868576 0 0 0
386 129 1 0.5897 5.241285911886565 0.11013006035368628 0.18475274141960002 0 1 0
387 129 1 0.5897 4.351161138353977 -0.11820363431022765 1.3877341581923321 0 1 0
99 33 1 0.5897 0.3217929047553822 3.8703609810865434 4.110635426580372 1 0 0
17 6 1 0.5897 -0.053634305196794685 1.409522759568906 3.273217707760673 0 0 0
505 169 2 -1.1794 4.626842361356193 5.870935256697849 6.107730017092637 0 0 0
578 193 1 0.5897 0.34862138867228576 3.8489968416767386 9.73013359585714 1 0 0
482 161 1 0.5897 5.166319483252581 1.3637654586144181 9.261421636046348 0 0 0
501 167 1 0.5897 4.520801217408173 4.032395821403678 5.827473110425939 0 0 0
508 170 2 -1.1794 1.3827802371646254 0.027489016949106188 10.509539945482139 0 0 0
1347 449 1 0.5897 4.291939005795188 0.27770421500030745 11.199143546857481 0 1 0
579 193 1 0.5897 0.009722314967843648 5.31409426625163 9.555576077283114 1 0 0
493 165 2 -1.1794 1.6546148330826225 3.001672346704588 10.583898607949928 0 0 0
502 168 2 -1.1794 1.7959555097125304 4.486840305587546 7.150614787377242 0 0 0
494 165 1 0.5897 1.6609367667221666 2.0658143846163917 10.78471755606593 0 0 0
504 168 1 0.5897 1.6368824912006739 3.726248348858097 6.591724425730894 0 0 0
499 167 2 -1.1794 4.48033990281931 3.077279694693774 5.779254762675285 0 0 0
503 168 1 0.5897 1.1169882266262274 4.436411539453283 7.823376446069747 0 0 0
490 164 2 -1.1794 3.328593870516248 4.7350894887539345 9.33186058718766 0 0 0
491 164 1 0.5897 2.858070876091619 4.706017112794342 8.498867705283626 0 0 0
492 164 1 0.5897 2.877357202703997 4.097161131607454 9.88466577144891 0 0 0
484 162 2 -1.1794 2.7291972354648837 1.4543139381102532 7.477603914829082 0 0 0
486 162 1 0.5897 3.0640643770414293 0.630438020062197 7.123640970289069 0 0 0
483 161 1 0.5897 4.477916448353683 2.0867837091091226 10.399396584912001 0 0 0
498 166 1 0.5897 0.7327156771125244 1.5588832200872567 7.807004933581024 0 0 0
485 162 1 0.5897 3.1791319780445177 1.5556084571354776 8.316291029836652 0 0 0
481 161 2 -1.1794 4.368273047202021 1.356966359399347 9.789890834054253 0 0 0
500 167 1 0.5897 3.7477801362442404 2.839116761110591 6.347425306751825 0 0 0
489 163 1 0.5897 5.115217533042986 4.899144481947997 8.95383464317352 0 0 0
527 176 1 0.5897 6.001895935510713 0.7193207454692191 7.157482369819634 0 0 0
528 176 1 0.5897 5.81873903910688 2.2144603424915172 7.006305791448549 0 0 0
487 163 2 -1.1794 6.058159300937965 4.812386945391395 9.093802860850769 0 0 0
150 50 1 0.5897 1.511792340255627 6.05998947502539 5.789457209745803 0 0 0
961 321 2 -1.1794 4.239126637214295 1.5561242493121903 15.73893675373504 0 0 0
962 321 1 0.5897 4.927982677270071 1.4859779042215795 15.0780972699816 0 0 0
963 321 1 0.5897 4.2464992438377855 0.7088000052359156 16.184089266105264 0 0 0
964 322 2 -1.1794 2.693255028333568 1.2344975059222851 13.403268905393983 0 0 0
965 322 1 0.5897 2.986685759480927 1.172913451097125 14.312216947655148 0 0 0
966 322 1 0.5897 1.7517639957983897 1.3956844077455974 13.465380871015578 0 0 0
970 324 2 -1.1794 3.503881074250915 4.481398094437375 14.734425714887402 0 0 0
971 324 1 0.5897 4.436722943356033 4.5590588632896605 14.934466090659694 0 0 0
972 324 1 0.5897 3.2565593679717573 3.6210631009635548 15.073316530769324 0 0 0
973 325 2 -1.1794 1.4284230633051174 2.749980151930341 16.065088621271737 0 0 0
975 325 1 0.5897 0.7865829040773956 3.249506588504247 15.56040918940507 0 0 0
982 328 2 -1.1794 1.1443234333870826 4.793347358134612 12.633343591159264 0 0 0
983 328 1 0.5897 1.3004061863243004 5.504517578576055 12.01203583678689 0 0 0
984 328 1 0.5897 1.9469922591919855 4.748129709518055 13.152855493407442 0 0 0
990 330 1 0.5897 1.5006973743494394 0.9679098739213223 16.330829409125336 0 0 0
980 327 1 0.5897 3.7447061149704224 2.5003773640604896 12.398210803012539 0 0 0
981 327 1 0.5897 5.2578102364666455 2.5394693280102407 12.428692732211475 0 0 0
979 327 2 -1.1794 4.500452876760337 2.899317056000788 11.967048950465 0 0 0
987 329 1 0.5897 4.7642400929506925 4.769864760803952 12.469862088751347 0 0 0
1346 449 1 0.5897 3.6738871007430527 -0.09372731571455004 12.530156591288414 0 1 0
988 330 2 -1.1794 1.4627136340859104 0.053550176937464666 16.050274560665247 0 0 0
974 325 1 0.5897 1.1997386713197176 2.9196524480390496 16.9788634901159 0 0 0
986 329 1 0.5897 4.193083865591141 6.023599456940874 13.097318851177015 0 0 0
1006 336 2 -1.1794 6.030806970116662 1.3786742799572236 13.542011783558438 0 0 0
985 329 2 -1.1794 4.731660311430309 5.720870823074563 12.36628058705178 0 0 0
1110 370 1 0.5897 2.2477582029988836 5.734452108795545 15.67430445119181 0 0 0
1008 336 1 0.5897 5.724028165697356 0.650535503379773 13.00176028167471 0 0 0
1109 370 1 0.5897 0.762796285956235 5.7434855650323495 15.968788641065085 0 0 0
495 165 1 0.5897 1.4297322260757024 3.423564543854843 11.413073613451116 0 0 0
1539 513 1 0.5897 0.14971763963028645 4.956003921476676 21.322409574429567 1 0 0
1454 485 1 0.5897 2.622741821491452 3.1831807302557635 21.41097977842642 0 0 0
1488 496 1 0.5897 5.954922913574995 0.3994314238332901 18.627739527184705 0 0 0
1444 482 2 -1.1794 2.6376980156352183 0.9485252828899788 18.942728062771696 0 0 0
1460 487 1 0.5897 4.223413286695715 2.5505503047433096 17.299528912813763 0 0 0
1462 488 2 -1.1794 1.3597997237184947 4.49286681388069 18.335304685056943 0 0 0
1468 490 2 -1.1794 1.6748794052979936 -0.05146477645968833 21.69415136709561 0 0 0
1447 483 2 -1.1794 6.057452344069563 4.393047463117405 20.71456122047153 0 0 0
1452 484 1 0.5897 3.0379844142906243 4.759508254312155 19.79333276297414 0 0 0
1459 487 2 -1.1794 4.3006807013286945 2.959734992141692 18.16131795717934 0 0 0
1456 486 2 -1.1794 0.009777445574258081 1.2745337422759144 19.422756515947423 0 0 0
1469 490 1 0.5897 1.6421173195590844 0.9040381747937283 21.647809468733705 0 0 0
1538 513 1 0.5897 0.3356807505041342 3.567669093062561 20.74820111686521 1 0 0
1464 488 1 0.5897 0.7810332899954936 4.7936557633046215 19.035800617401872 0 0 0
1487 496 1 0.5897 5.815938106405442 1.0861902876850766 19.969593189606048 0 0 0
1451 484 1 0.5897 4.188144533946822 4.702006833214299 20.7759767053572 0 0 0
1465 489 2 -1.1794 4.444874683550085 5.823438835390782 17.550181477685303 0 0 0
1461 487 1 0.5897 5.022509854163794 2.4944392490150324 18.584003109334766 0 0 0
1453 485 2 -1.1794 2.0775785997147667 2.5367083450611467 21.85937584171163 0 0 0
1466 489 1 0.5897 4.504072455877534 4.909418869985948 17.82813143776253 0 0 0
1441 481 2 -1.1794 4.937193938604681 1.2305621332923322 21.56528485149791 0 0 0
1443 481 1 0.5897 4.976890023370324 1.9212005888629338 22.22678041087322 0 0 0
1463 488 1 0.5897 1.3277369113530768 5.190949307218021 17.681251795171665 0 0 0
1446 482 1 0.5897 2.9283522889476474 1.7747083924257754 18.55656276669343 0 0 0
1450 484 2 -1.1794 3.2324883417997685 4.731515555699259 20.73005605229733 0 0 0
1442 481 1 0.5897 4.067719128722716 1.3213876796722304 21.17543816387357 0 0 0
1445 482 1 0.5897 1.7394487278015942 1.1189743677560056 19.226144580597445 0 0 0
1455 485 1 0.5897 1.9162564139236906 2.916516883640856 22.72297641365896 0 0 0
1590 530 1 0.5897 2.018130509831105 5.67291464489946 21.84820905532791 0 0 0
121 41 2 -1.1794 4.562064378791917 7.752764792366001 3.9707267898458785 0 0 0
122 41 1 0.5897 3.849048549597402 7.862142413388671 3.3415888652213406 0 0 0
123 41 1 0.5897 5.3545490326615095 7.732514328530723 3.434307461634384 0 0 0
124 42 2 -1.1794 2.8074347367132564 7.91311316713951 1.9354974504681988 0 0 0
125 42 1 0.5897 3.027589635705074 7.009154655991661 1.7105799370548473 0 0 0
126 42 1 0.5897 3.401161582314901 8.443946471971337 1.4045701726332578 0 0 0
129 43 1 0.5897 5.028963611907743 10.416687950608011 3.360533401763865 0 0 0
130 44 2 -1.1794 3.3044655566814787 10.663501948394435 3.614996143405673 0 0 0
132 44 1 0.5897 2.831536809147253 9.922146702309622 3.993045549913737 0 0 0
133 45 2 -1.1794 1.4625753863705744 9.2178908881607 5.122525600636431 0 0 0
137 46 1 0.5897 0.945968152034879 8.346661570131827 1.7292374428314903 0 0 0
142 48 2 -1.1794 1.8862870252218211 10.838188292836486 1.1553030051363795 0 0 0
143 48 1 0.5897 2.3986320868337816 10.887544398064701 1.9622564377576763 0 0 0
144 48 1 0.5897 1.8663972474668118 11.737559946407705 0.8283122673559057 0 0 0
149 50 1 0.5897 1.676418985529462 7.318375668587079 4.964174464306132 0 0 0
139 47 2 -1.1794 4.950343235091133 9.157614472376435 0.7927649023121044 0 0 0
135 45 1 0.5897 0.8560150520547037 9.656264902408278 4.525800918256033 0 0 0
131 44 1 0.5897 2.9623000004379034 11.427950191579948 4.078368221605024 0 0 0
140 47 1 0.5897 4.8451885399648225 10.084832136096601 1.0058536694746032 0 0 0
621 207 1 0.5897 4.52803818975244 9.039991115670295 5.347438790686546 0 0 0
127 43 2 -1.1794 5.964626018649203 10.58369270735648 3.474062684699189 0 0 0
507 169 1 0.5897 4.657566652239304 6.43318287210642 5.333754616816754 0 0 0
148 50 2 -1.1794 1.659410784338319 6.363916790256974 4.8939630805439105 0 0 0
218 73 1 0.5897 0.1638781844305368 10.845550862828288 2.585316218321701 1 0 0
217 73 2 -1.1794 -0.04041075026939056 10.87694619881134 3.5198438552287286 1 0 0
270 90 1 0.5897 1.0254340737665377 12.26788972673032 4.404519883660123 0 0 0
145 49 2 -1.1794 4.729184298806845 11.877632121833795 0.6119461986701699 0 0 0
136 46 2 -1.1794 0.0018924675407325092 8.231374946292883 1.8373162947691994 0 0 0
147 49 1 0.5897 4.08478447250993 12.201585388732969 1.2412038691987388 0 0 0
128 43 1 0.5897 6.007949568052964 11.466250037754225 3.8420258430851764 0 0 0
146 49 1 0.5897 5.547106614346093 12.30644044044314 0.863655473728362 0 0 0
608 203 1 0.5897 6.096402466537112 11.46322270032783 9.563119540105259 0 0 0
628 210 2 -1.1794 1.3143831591789366 6.514367306305943 10.362162261466825 0 0 0
625 209 2 -1.1794 4.126976413664979 11.95810731206284 6.608995109485729 0 0 0
604 202 2 -1.1794 3.043928579354022 7.615976512496371 7.821637902834989 0 0 0
134 45 1 0.5897 1.4193623606280286 9.731822409139431 5.92881587351531 0 0 0
602 201 1 0.5897 4.5781042559170135 6.809775871700155 10.488191168926138 0 0 0
603 201 1 0.5897 3.988720023346046 7.606160679162888 9.343631027910126 0 0 0
605 202 1 0.5897 3.213319595317434 8.503592600457504 7.505969703491007 0 0 0
616 206 2 -1.1794 0.3798050157851049 7.640471473783086 7.796923258880006 0 0 0
607 203 2 -1.1794 5.860363143666278 10.678433539876862 9.068591637964609 0 0 0
698 233 1 0.5897 0.26601246609933454 11.22850002031419 9.92599165977376 1 0 0
614 205 1 0.5897 2.1622789008772503 9.195128849013098 10.338943632145014 0 0 0
699 233 1 0.5897 0.3520856170338382 10.685161796279592 8.515714865182035 1 0 0
610 204 2 -1.1794 3.1519944639199036 10.36703017079145 9.270566958160321 0 0 0
626 209 1 0.5897 4.19151917960426 11.019603494435199 6.432231011049515 0 0 0
606 202 1 0.5897 2.0909383275732054 7.565423823001236 7.895836145672079 0 0 0
620 207 1 0.5897 5.3787071885802 9.274371782244431 6.577497152532896 0 0 0
612 204 1 0.5897 2.968486754622699 11.17444714103439 9.750747419629858 0 0 0
611 204 1 0.5897 4.08424745432861 10.419715176448733 9.059894732405343 0 0 0
613 205 2 -1.1794 1.376231408036725 9.045043992836057 10.864106437272657 0 0 0
624 208 1 0.5897 1.7516980055778668 11.556043363100008 6.302437659816575 0 0 0
622 208 2 -1.1794 1.5376051165190971 11.05881382791922 7.091760891695382 0 0 0
619 207 2 -1.1794 4.494684093864355 9.401327995309389 6.233100260592677 0 0 0
601 201 2 -1.1794 4.605677246732538 7.671518890454559 10.072484065245668 0 0 0
615 205 1 0.5897 0.6712282954502525 9.456051519989838 10.36387935811831 0 0 0
630 210 1 0.5897 1.396299914764519 7.4246910543948745 10.646397698690794 0 0 0
623 208 1 0.5897 2.2808191136523677 11.205675425519942 7.676771951657964 0 0 0
748 250 2 -1.1794 1.7140723627679504 12.302299657239763 10.65197913709885 0 0 0
647 216 1 0.5897 6.093191891748169 7.760238823370585 8.445996138616083 0 0 0
648 216 1 0.5897 6.030860459591905 6.906004132870761 7.197809745231176 0 0 0
627 209 1 0.5897 4.787556086028758 12.121495778459323 7.282112647151031 0 0 0
629 210 1 0.5897 2.150130672426433 6.319189029809263 9.938323094470947 0 0 0
506 169 1 0.5897 3.9032820561741888 6.219170097252599 6.628679905798837 0 0 0
1081 361 2 -1.1794 4.418628846834261 7.882694017178821 15.846368847556082 0 0 0
1082 361 1 0.5897 4.452255516028243 8.557316063885082 16.524515127936812 0 0 0
1083 361 1 0.5897 4.365234556095844 7.058498244041629 16.330118702073705 0 0 0
1084 362 2 -1.1794 2.9093584910920502 7.816267378136954 13.606542890791077 0 0 0
1086 362 1 0.5897 3.4698846885004637 8.100491411394193 12.88462548574211 0 0 0
1089 363 1 0.5897 5.028581809257257 10.426885799758171 15.141269809050947 0 0 0
1090 364 2 -1.1794 3.278757612362314 10.833223571221245 15.298978074454917 0 0 0
1092 364 1 0.5897 2.7623810265573914 10.065358657715384 15.543815548751708 0 0 0
1095 365 1 0.5897 0.63885275902303 9.249483266744564 15.63959016249115 0 0 0
1097 366 1 0.5897 0.9466134542897373 8.032917242181572 13.5726257090025 0 0 0
1102 368 2 -1.1794 1.7584046635234687 10.86634101872336 12.968594802358876 0 0 0
1103 368 1 0.5897 1.8281410814699708 10.177730082730537 12.307471201197544 0 0 0
1104 368 1 0.5897 2.566196807999554 10.793620585412771 13.47692083319973 0 0 0
1099 367 2 -1.1794 4.912739345609953 9.248611807723416 12.253123362792968 0 0 0
1085 362 1 0.5897 3.40134321355393 8.042673845091825 14.395720986651854 0 0 0
1094 365 1 0.5897 1.353146028087441 7.972806430981173 16.029092091460384 0 0 0
1100 367 1 0.5897 5.645507124651121 8.880818205892865 12.747056079867049 0 0 0
1091 364 1 0.5897 2.7612649351004506 11.577995346993491 15.605115194099424 0 0 0
1093 365 2 -1.1794 1.309325700403561 8.907445620974192 16.23089891845952 0 0 0
1179 393 1 0.5897 0.5634645014259367 10.86171454174475 14.26586957022946 1 0 0
1178 393 1 0.5897 0.2364753661057667 11.46357950678666 15.615825946435045 1 0 0
1101 367 1 0.5897 4.922499520435224 8.775296897989868 11.421277622411058 0 0 0
1108 370 2 -1.1794 1.5884102012542292 6.152644031957012 16.227971782574507 0 0 0
1107 369 1 0.5897 4.695064972367829 11.088257110870872 12.148485992722865 0 0 0
1105 369 2 -1.1794 4.692435281027266 12.010515622854257 12.404675350187599 0 0 0
1096 366 2 -1.1794 0.009224377011864668 8.027505339148322 13.378948934638919 0 0 0
1127 376 1 0.5897 5.8711869115122415 7.674161428115362 14.516418641890812 0 0 0
750 250 1 0.5897 1.7448432297898382 11.942719379665165 11.538450169859562 0 0 0
1128 376 1 0.5897 5.923687851509908 6.6944028533881195 13.363629391655257 0 0 0
1088 363 1 0.5897 6.082687321238566 10.79719199704275 16.162761495581133 0 0 0
1087 363 2 -1.1794 5.963214326997441 10.341625391109826 15.329519649891772 0 0 0
1563 521 1 0.5897 3.9954786636429898 7.7191613934456 20.870289617210002 0 0 0
1588 530 2 -1.1794 1.3823187145878488 6.187874607624947 22.344940774564513 0 0 0
141 47 1 0.5897 4.881241204321185 9.12129890581112 22.768281020994834 0 0 -1
1576 526 2 -1.1794 0.10551093082064206 7.586618902080672 19.324100939794096 0 0 0
1581 527 1 0.5897 5.380584423118389 8.831551017444994 18.433593512502448 0 0 0
1230 410 1 0.5897 1.6363845694959032 12.138178812011018 17.282098649827937 0 0 0
1585 529 2 -1.1794 4.793874845188345 12.251759295597475 17.98396301598356 0 0 0
1566 522 1 0.5897 3.0724350901292596 6.837097958958235 18.61509459686417 0 0 0
1580 527 1 0.5897 3.873172209372718 8.958408270319568 18.493171830569075 0 0 0
1608 536 1 0.5897 6.101538745730174 7.0509933594292695 19.797795267944757 0 0 0
1574 525 1 0.5897 2.0510877326145356 9.671129975923154 21.347448833362435 0 0 0
1583 528 1 0.5897 0.5544073202507309 10.64762103571076 19.11952518692672 0 0 0
1565 522 1 0.5897 2.0287523545667314 7.624384965567158 19.378429586732416 0 0 0
1587 529 1 0.5897 4.7774051111905855 11.29594080561896 18.03237214780933 0 0 0
1570 524 2 -1.1794 2.929738261545897 10.893186825218866 20.538849862881445 0 0 0
1589 530 1 0.5897 1.514559385335571 7.08702441922185 22.044547297521756 0 0 0
1562 521 1 0.5897 4.661418313383733 7.067083432430426 22.063156768976615 0 0 0
1582 528 2 -1.1794 1.3195338469941427 10.666607720517838 18.5447208649828 0 0 0
1571 524 1 0.5897 2.6514500357692428 10.977839070668626 19.627005428221175 0 0 0
1561 521 2 -1.1794 4.8487171131449545 7.592060308628747 21.285068007623853 0 0 0
1573 525 2 -1.1794 1.403376749543052 9.266774415893874 21.924635487732065 0 0 0
1584 528 1 0.5897 1.2388760778157386 9.875701488496711 18.011692639205943 0 0 0
1572 524 1 0.5897 3.8353543228098093 10.587714925793271 20.48604410595186 0 0 0
1579 527 2 -1.1794 4.656842793407487 9.394288945695292 18.158383497601736 0 0 0
1564 522 2 -1.1794 2.96224696115996 7.611232995345583 19.16711566545463 0 0 0
1467 489 1 0.5897 5.151430452937882 6.264077895552462 18.02220353588624 0 0 0
1575 525 1 0.5897 1.4053701316340366 9.815297247567239 22.70900262199305 0 0 0
1567 523 2 -1.1794 5.6968124312767365 10.558246452076535 20.73838370418795 0 0 0
1569 523 1 0.5897 6.052267774332223 11.245628939127217 21.301690149020583 0 0 0
241 81 2 -1.1794 4.458596528878658 13.638983717908818 4.34124638182104 0 0 0
242 81 1 0.5897 4.348669176682557 13.16064101393789 5.1629494614091485 0 0 0
243 81 1 0.5897 3.6386589342538267 13.49564013673936 3.8686411681248103 0 0 0
244 82 2 -1.1794 2.8362825525850957 13.488570158860549 1.9552003722583309 0 0 0
245 82 1 0.5897 1.9013123706012833 13.669770507232526 1.8590725370339105 0 0 0
246 82 1 0.5897 3.2692725633007083 14.242882285803878 1.555553569559617 0 0 0
250 84 2 -1.1794 3.1529427369953282 17.126916340960456 3.7508192264252718 0 0 0
251 84 1 0.5897 2.782373081735145 17.308176824102873 2.887157667508853 0 0 0
252 84 1 0.5897 4.094183440976735 17.046910063744527 3.5961793500993746 0 0 0
253 85 2 -1.1794 1.1726698981779717 15.332051199382704 4.7061507421635635 0 0 0
254 85 1 0.5897 0.5953848061800207 16.083673459628997 4.571891119306312 0 0 0
255 85 1 0.5897 1.7732387326874677 15.354571246924301 3.961186826916604 0 0 0
259 87 2 -1.1794 4.2760011673682365 15.489196349377552 0.754725413083036 0 0 0
262 88 2 -1.1794 1.5985168681473019 17.689070066893258 1.3820873425451332 0 0 0
263 88 1 0.5897 1.6968878990979246 16.767516553684665 1.1427876383117774 0 0 0
269 90 1 0.5897 1.5538052965008866 13.576299299441274 4.952859738246145 0 0 0
264 88 1 0.5897 1.3311576849565012 18.12053656930464 0.5706356093648184 0 0 0
260 87 1 0.5897 4.319176705759703 16.39889337485831 0.4601492155663147 0 0 0
740 247 1 0.5897 4.485639674559829 15.322418342551863 5.4888052289167675 0 0 0
288 96 1 0.5897 5.8061906195759185 14.667343385309273 1.5950223701664548 0 0 0
339 113 1 0.5897 -0.01099442994739 18.283611111062797 4.01571826858033 1 0 0
389 130 1 0.5897 2.1530426461430854 18.46973412103359 4.715887035684044 0 0 0
257 86 1 0.5897 0.0004418014538103421 14.717326866206088 1.447899679616804 0 0 0
265 89 2 -1.1794 4.293130589232646 18.4116272737773 0.7129644123173762 0 0 0
338 113 1 0.5897 0.013695003009801934 17.512359198040073 2.713361919707363 1 0 0
249 83 1 0.5897 6.093168558548963 16.991791785962768 2.669625441553453 0 0 0
287 96 1 0.5897 5.925733476395505 13.852790514973549 2.8653643720986524 0 0 0
247 83 2 -1.1794 5.744217179077685 16.86375492944086 3.5516226059050315 0 0 0
268 90 2 -1.1794 1.7578770289897676 12.6430127503621 4.89339447725373 0 0 0
256 86 2 -1.1794 0.29071662805806103 13.953684949781195 1.9466621392549035 0 0 0
261 87 1 0.5897 4.43571487868362 14.973195353047046 -0.035431768148495024 0 0 0
745 249 2 -1.1794 4.2671689272597035 18.23934674964329 6.378399331759133 0 0 0
724 242 2 -1.1794 2.715780629718027 13.795461670598486 8.02009653644515 0 0 0
727 243 2 -1.1794 5.86899575455895 16.87562170540607 9.41301701120669 0 0 0
736 246 2 -1.1794 0.01465489332651318 14.147503002217787 7.81262902089797 0 0 0
870 290 1 0.5897 2.193628644407077 18.36905911808362 11.048659125058863 0 0 0
749 250 1 0.5897 1.4487194514937975 13.2141178093215 10.77190500604442 0 0 0
731 244 1 0.5897 2.5326957156892935 16.922797769753295 8.627284540629189 0 0 0
741 247 1 0.5897 4.239054166929427 16.481680510245788 6.430611167222515 0 0 0
721 241 2 -1.1794 4.559456825427107 13.507482056065601 10.170274166028273 0 0 0
739 247 2 -1.1794 4.329916574727233 15.529032695553234 6.410287562599223 0 0 0
735 245 1 0.5897 0.7719672744004272 15.441241819591626 10.621102714714906 0 0 0
742 248 2 -1.1794 1.4816193384352438 16.966848074336085 7.165980939107378 0 0 0
730 244 2 -1.1794 2.96461016949394 17.08279702137034 9.466302894226473 0 0 0
818 273 1 0.5897 0.14575838440361036 16.796769458159652 8.604823624176259 1 0 0
737 246 1 0.5897 0.9322317265607529 14.053377512437107 8.068427525248586 0 0 0
722 241 1 0.5897 3.7878012091734683 13.732040294235802 9.650358206568672 0 0 0
723 241 1 0.5897 5.299362588336153 13.676217717840597 9.586961926711195 0 0 0
732 244 1 0.5897 2.5926377222590933 16.427420004340014 10.056450817746995 0 0 0
725 242 1 0.5897 3.2037150121861684 14.501038639808952 7.595500076734563 0 0 0
743 248 1 0.5897 1.3198252637709125 17.69757348749053 6.5693119564440705 0 0 0
744 248 1 0.5897 1.3497100008415315 16.18518708702809 6.629543773921317 0 0 0
726 242 1 0.5897 3.0175636562506742 12.998689228647338 7.583912022866235 0 0 0
733 245 2 -1.1794 1.6216131568312637 15.126808872167953 10.930060522952962 0 0 0
728 243 1 0.5897 4.920967963484761 16.970905622727784 9.321316235508144 0 0 0
869 290 1 0.5897 0.7819069196282653 18.089629179972547 10.578710849246855 0 0 0
768 256 1 0.5897 5.883683387341146 14.213074010338401 7.113968338793588 0 0 0
747 249 1 0.5897 3.33143204997543 18.395636597289823 6.5057635936808165 0 0 0
1201 401 2 -1.1794 4.4125894652234585 14.057513705613182 16.038788634598934 0 0 0
1203 401 1 0.5897 4.742923203682675 13.493437600011315 16.73795037646061 0 0 0
1204 402 2 -1.1794 2.9925325430511336 14.080982553575573 13.62121790228899 0 0 0
1205 402 1 0.5897 3.3266098085639606 13.982060428256466 14.512667473530362 0 0 0
1206 402 1 0.5897 3.162039578319284 13.235266647600966 13.206238764037648 0 0 0
1210 404 2 -1.1794 3.273092416817075 17.1272464852115 15.120956249027719 0 0 0
1212 404 1 0.5897 4.221657825386941 17.20180759527257 15.016479885726842 0 0 0
1213 405 2 -1.1794 1.4486851041431006 15.215632317357061 16.468963980561533 0 0 0
1215 405 1 0.5897 2.110945223916937 15.702552274747687 15.978545045635009 0 0 0
1218 406 1 0.5897 1.0877429395951588 13.961321036013368 13.786000514921689 0 0 0
1222 408 2 -1.1794 1.2537654516175014 16.960784555674365 13.112423834685346 0 0 0
1223 408 1 0.5897 1.249774051416689 17.711960968907533 12.519229975448749 0 0 0
1224 408 1 0.5897 1.9851970918899995 17.128218762920547 13.706687584838404 0 0 0
1229 410 1 0.5897 1.5995499240954976 13.459640658918845 16.544442246534157 0 0 0
1219 407 2 -1.1794 4.858887029053548 15.722448412644457 12.300849117389406 0 0 0
1211 404 1 0.5897 3.0061668950336022 17.9667927889615 15.495267635397076 0 0 0
1202 401 1 0.5897 5.073499194272327 13.996773791201548 15.34910066587488 0 0 0
1214 405 1 0.5897 0.6135890820637065 15.546991465177625 16.138748648121165 0 0 0
1220 407 1 0.5897 4.17485177455911 15.312245136638811 12.830007688712495 0 0 0
1227 409 1 0.5897 4.3845471892123475 17.39309887831989 12.205833859191506 0 0 0
734 245 1 0.5897 1.631121962975071 15.339082798391088 11.863285821030841 0 0 0
1247 416 1 0.5897 6.046395883140756 14.364634870743037 13.393720850611176 0 0 0
1225 409 2 -1.1794 4.237107542136222 18.336415029806496 12.137865505060427 0 0 0
1228 410 2 -1.1794 1.394903259769791 12.530108622341228 16.44294991862415 0 0 0
1248 416 1 0.5897 5.941814813779223 12.880252267164584 13.672096364365732 0 0 0
1216 406 2 -1.1794 0.13329123706942794 13.969016127495266 13.713804452015466 0 0 0
1221 407 1 0.5897 4.807729967648334 15.276840207403769 11.45533042253025 0 0 0
1106 369 1 0.5897 4.713638370917878 12.489751596234415 11.576440010972386 0 0 0
1350 450 1 0.5897 0.6183926181648547 18.449253516444067 16.001848978808198 0 0 0
1207 403 2 -1.1794 5.881086549845852 16.886512152728955 15.027243907882841 0 0 0
1687 563 2 -1.1794 5.876527841196528 17.18552360705887 20.62179801929131 0 0 0
1708 570 2 -1.1794 1.396023886982083 12.859004400714923 22.05390082594704 0 0 0
1709 570 1 0.5897 0.6567997268267339 12.42219650225414 21.63086109497907 0 0 0
1696 566 2 -1.1794 0.14791261174048573 13.767637522551581 19.242801721063174 0 0 0
1710 570 1 0.5897 2.1662121777436747 12.53127655041933 21.58955172954988 0 0 0
1691 564 1 0.5897 2.8448172669060137 16.712233519342533 21.240408493296584 0 0 0
1700 567 1 0.5897 4.744630029022646 15.57599095258276 17.14969471891829 0 0 0
1586 529 1 0.5897 5.502260358298423 12.509753529992382 18.57371462197157 0 0 0
1779 593 1 0.5897 0.009850258969069131 17.98756879887432 21.26002844481942 1 0 0
1693 565 2 -1.1794 1.3675925187706175 15.54853003663365 22.300780490084442 0 0 0
1695 565 1 0.5897 1.4393623605605994 14.621412066320781 22.07383893176411 0 0 0
1703 568 1 0.5897 1.5224675272811923 16.42357077733545 17.850297734736856 0 0 0
1685 562 1 0.5897 3.5538785680885625 13.451552348729562 18.961294762204123 0 0 0
1707 569 1 0.5897 4.599759910499709 17.89871665193239 17.91610181750632 0 0 0
1682 561 1 0.5897 5.383546939517877 13.860582681793053 21.035742308689606 0 0 0
1681 561 2 -1.1794 4.593015864086548 13.799989483379681 21.572000601908986 0 0 0
1699 567 2 -1.1794 4.75425800165008 15.936085125026048 18.036438498879537 0 0 0
1689 563 1 0.5897 4.925822284469738 17.27027241435652 20.549519185017605 0 0 0
1697 566 1 0.5897 1.076702823996997 13.835285327274699 19.021411780546664 0 0 0
1683 561 1 0.5897 4.722035090534178 13.013162833847144 22.101547100087117 0 0 0
1704 568 1 0.5897 1.6751887242801244 17.92938897175118 17.882198833763802 0 0 0
1690 564 2 -1.1794 3.119151801467024 17.38761168860988 20.620117286015056 0 0 0
1694 565 1 0.5897 0.7242667817872522 15.897511270025701 21.683926403580344 0 0 0
1692 564 1 0.5897 2.5967121333454233 17.21958586887935 19.83593161477479 0 0 0
1686 562 1 0.5897 3.1646120152081076 14.310435926965669 20.145521543277866 0 0 0
1702 568 2 -1.1794 1.5623211338940157 17.167795408640238 18.45086984986709 0 0 0
1701 567 1 0.5897 4.016850318721297 15.512250935364948 18.475526072255498 0 0 0
1684 562 2 -1.1794 2.9831716336001843 14.176795417165378 19.215312355460995 0 0 0
361 121 2 -1.1794 4.625751147446421 20.209783701253237 4.326236233982804 0 0 0
362 121 1 0.5897 4.0443578669803655 20.113823986727468 3.571979436781852 0 0 0
364 122 2 -1.1794 2.832029950401858 20.49307150771788 2.1466887832605503 0 0 0
366 122 1 0.5897 3.1665070619337774 21.266654294103716 1.6929543863024736 0 0 0
370 124 2 -1.1794 3.220399468452772 23.311884792153833 3.330461919000324 0 0 0
371 124 1 0.5897 4.169065979026788 23.254203937217426 3.444253033556409 0 0 0
372 124 1 0.5897 2.8826639175080517 22.50443131841063 3.7179440216892203 0 0 0
373 125 2 -1.1794 1.2160651963296303 21.573879556900025 5.090814971879585 0 0 0
375 125 1 0.5897 0.5924356783723259 22.058098354521768 4.5497127625289835 0 0 0
381 127 1 0.5897 5.081920126974649 21.754921149823375 1.3624434332718904 0 0 0
382 128 2 -1.1794 1.5656286841963514 23.61236278165883 1.0757592478346227 0 0 0
383 128 1 0.5897 2.2951370189399922 23.586225852523988 1.6948695222392318 0 0 0
390 130 1 0.5897 1.4726641850871203 19.797461400345874 4.9729155971252945 0 0 0
384 128 1 0.5897 1.794321292656707 22.965799400951155 0.4080861375299895 0 0 0
363 121 1 0.5897 4.5175565919213865 19.395570052776968 4.81767891685053 0 0 0
365 122 1 0.5897 1.8853185714975325 20.52460263010945 2.008883472892533 0 0 0
379 127 2 -1.1794 4.447564898115866 22.190407821768105 0.7931171441887973 0 0 0