LAMMPS data file via write_data, version 30 Jul 2021, timestep = 6250000

864 atoms
2 atom types
576 bonds
1 bond types
288 angles
1 angle types

0.15998284074159308 18.047589559261155 xlo xhi
-0.015080619652311 23.64425841965445 ylo yhi
0.0724291176870615 22.140766682313945 zlo zhi

Masses

1 1.00794
2 15.9994

Atoms # full

707 1 1 0.5897 3.1159825279601816 1.9562722399853554 3.8165281314077952 0 0 0
706 1 2 -1.1794 3.1903287662678474 1.7305746335394543 2.889312679113659 0 0 0
30 1 1 0.5897 5.5690721154147615 3.888055354515788 2.279795508397469 0 0 0
708 1 1 0.5897 2.372534784581238 2.0408089604017667 2.500515009537791 0 0 0
29 1 1 0.5897 4.656346813058408 2.687993807880344 2.416678549086106 0 0 0
28 1 2 -1.1794 5.430646514836898 3.000624358931527 1.9487901938009355 0 0 0
846 1 1 0.5897 7.536717346938012 1.9799242669963362 4.410586784145555 0 0 0
595 1 2 -1.1794 0.6856426394440036 5.311725671372602 2.7115623899269186 0 0 0
495 1 1 0.5897 8.320299173242585 2.116427518977574 2.3701612729029677 0 0 0
494 1 1 0.5897 6.8077899357363485 2.0526305967845833 2.3609858963887764 0 0 0
493 1 2 -1.1794 7.58205320632033 1.6084580141687959 2.7065841731834657 0 0 0
181 1 2 -1.1794 0.791403268487674 5.43041036137267 5.4587248213463155 0 0 0
1 1 2 -1.1794 1.0107148262342927 2.769818128108817 1.5932077967559413 0 0 0
3 1 1 0.5897 1.1018094802837255 3.657655552864849 1.9391857651536462 0 0 0
668 1 1 0.5897 5.283022225838788 2.903361031235329 0.11932676676816845 0 0 0
136 1 2 -1.1794 5.418757902149905 5.613018100600501 3.078943319015968 0 0 0
137 1 1 0.5897 5.358308707634326 5.727542069771566 4.0272940628658205 0 0 0
597 1 1 0.5897 0.6152968612936657 5.334310615471995 3.665897901393901 0 0 0
2 1 1 0.5897 0.3947456292938014 2.3423652486480986 2.188235436038005 0 0 0
845 1 1 0.5897 7.326695452406335 0.9300688766828576 5.480904257977762 0 0 0
844 1 2 -1.1794 7.486135712793398 1.8661139639864266 5.359600746694125 0 0 0
84 1 1 0.5897 6.258270165973074 2.608819512233809 6.440239087255163 0 0 0
784 1 2 -1.1794 0.9206939635748451 3.14914304407223 6.94698508869511 0 0 0
82 1 2 -1.1794 5.5211268341928825 3.0997645604156716 6.8032753604261 0 0 0
488 1 1 0.5897 2.482088026929054 2.661804524164967 6.197888563336212 0 0 0
674 1 1 0.5897 3.3286587385612045 2.559509765552924 9.697288502260706 0 0 0
356 1 1 0.5897 7.138894878580614 0.802422340166567 10.419110161120038 0 0 0
176 1 1 0.5897 8.899172680232983 2.724161793169602 9.68758314835667 0 0 0
685 1 2 -1.1794 5.49621740960008 5.777376203036983 5.866581168523861 0 0 0
183 1 1 0.5897 0.9627229896315903 4.661170986516134 6.002012680029512 0 0 0
419 1 1 0.5897 8.899682360458259 2.6020838469352707 6.058523895802656 0 0 0
673 1 2 -1.1794 2.543290615555885 2.1683863335311764 10.079986786414873 0 0 0
274 1 2 -1.1794 5.027141852644002 3.285010018231443 9.461245631983154 0 0 0
678 1 1 0.5897 4.946774159223451 5.076458736356022 10.0156192299444 0 0 0
686 1 1 0.5897 5.493922273622676 4.8852061528380535 6.213424048313712 0 0 0
36 1 1 0.5897 0.9847803631071704 2.9270312557961815 9.763897827678168 0 0 0
355 1 2 -1.1794 7.191526666966742 1.7157442253209203 10.700909623341946 0 0 0
786 1 1 0.5897 0.21895061322479137 2.6277642618523864 6.5571773560089115 0 0 0
487 1 2 -1.1794 3.1441910503548183 2.2016089870793567 5.682090987310279 0 0 0
276 1 1 0.5897 5.712143418968275 2.8216811786165765 9.943228389539922 0 0 0
675 1 1 0.5897 2.615367710004606 1.2360570356947873 9.875426166109081 0 0 0
275 1 1 0.5897 5.160525864037513 3.028674247891518 8.548752155463026 0 0 0
83 1 1 0.5897 4.762852426880842 2.7996946405617704 6.302116163614196 0 0 0
489 1 1 0.5897 3.1195863873572423 1.3018539202511676 6.007822606985422 0 0 0
785 1 1 0.5897 0.677289175870257 3.2277034115211403 7.869334169740269 0 0 0
166 1 2 -1.1794 3.2962103125252025 1.8848613475808738 12.724085974872056 0 0 0
167 1 1 0.5897 3.3478063595099123 1.903440158827926 11.768506373269894 0 0 0
457 1 2 -1.1794 5.549096356221226 3.0293989488415027 13.831677390431146 0 0 0
458 1 1 0.5897 6.359889708477696 2.5817210262146166 13.590009677910913 0 0 0
459 1 1 0.5897 4.853426394467069 2.4595767981256036 13.503693291543776 0 0 0
762 1 1 0.5897 5.267225708064895 4.687866642262393 13.570310924112603 0 0 0
71 1 1 0.5897 5.242793949581408 3.027221825316715 15.590084982980935 0 0 0
168 1 1 0.5897 2.483170595615782 2.3463597358226544 12.929525179078638 0 0 0
357 1 1 0.5897 7.587508562635763 1.67582507345902 11.571395840876272 0 0 0
468 1 1 0.5897 1.2239463623476285 3.171496640068984 14.556923018489533 0 0 0
593 1 1 0.5897 7.950499017451988 0.9167800103423728 13.759901117448162 0 0 0
592 1 2 -1.1794 7.857666260606277 1.7156956192994444 13.240902960275918 0 0 0
594 1 1 0.5897 8.577889072743426 2.2754513016890914 13.531035235312729 0 0 0
365 1 1 0.5897 0.9814614356064323 5.208858225455384 13.47743918043264 0 0 0
466 1 2 -1.1794 1.16948336013682 3.4254151946248332 13.635669165266473 0 0 0
133 1 2 -1.1794 1.1442767929617284 2.7484399042523853 16.573384120455277 0 0 0
760 1 2 -1.1794 5.141476154043529 5.611894085264461 13.3543707129343 0 0 0
70 1 2 -1.1794 5.273188356400498 2.9763852261048642 16.54541954658082 0 0 0
467 1 1 0.5897 0.4169071514851404 2.9403866743913496 13.297171962440329 0 0 0
761 1 1 0.5897 5.077466466328307 5.6286033841096375 12.399501797477217 0 0 0
737 1 1 0.5897 2.914817592031729 0.15280594789244617 13.96638899936499 0 1 0
754 1 2 -1.1794 7.662518130081184 1.7897407763920292 17.29081168823309 0 0 0
667 1 2 -1.1794 5.369706000547157 2.8346809351719617 21.236915810397786 0 0 0
42 1 1 0.5897 7.6299456020191085 0.7743160528105397 20.428542786113574 0 0 0
755 1 1 0.5897 7.636602964386912 1.6959389966990799 18.24300480237069 0 0 0
21 1 1 0.5897 0.9321617730599198 3.6347970337357687 20.553689082769495 0 0 0
277 1 2 -1.1794 5.2775106420938735 5.685704917819712 17.645885379383273 0 0 0
289 1 2 -1.1794 3.3023196600922113 1.4139322364648095 17.53942044525718 0 0 0
41 1 1 0.5897 6.77204304750076 2.021709027537916 20.422138394397415 0 0 0
143 1 1 0.5897 5.10211054929829 4.39113710661999 20.677102790239868 0 0 0
569 1 1 0.5897 2.321268161270648 1.5911834667215339 20.640278071410442 0 0 0
646 1 2 -1.1794 0.4926444127958955 5.3206312479404705 20.153341343324538 0 0 0
570 1 1 0.5897 3.2226929656715577 1.3655469214532507 19.44519442261169 0 0 0
40 1 2 -1.1794 7.504303382725215 1.6042830106551225 19.968502383600562 0 0 0
290 1 1 0.5897 3.3009905167756752 0.5145695143216703 17.211679440960815 0 0 0
72 1 1 0.5897 4.410716531328646 2.6450101910927106 16.79561519415537 0 0 0
278 1 1 0.5897 4.955567939273036 4.827576841128956 17.369800538258676 0 0 0
568 1 2 -1.1794 3.2077042352740275 1.3205345128021873 20.40117089568738 0 0 0
756 1 1 0.5897 6.781485074730024 2.0795488300594407 17.054162837339504 0 0 0
669 1 1 0.5897 4.686037197784634 2.216909751303073 20.977587003083716 0 0 0
647 1 1 0.5897 1.1443710814396035 5.5938116798055315 20.798938647645468 0 0 0
142 1 2 -1.1794 4.948153922127624 5.284320012928332 20.369182172932295 0 0 0
19 1 2 -1.1794 0.989836947475401 2.7598854369918184 20.93770078104038 0 0 0
291 1 1 0.5897 2.611271951537585 1.8515708860165916 17.042290876207083 0 0 0
571 1 2 -1.1794 1.1277134649239795 5.4163687399101725 17.518487439091185 0 0 0
144 1 1 0.5897 5.064545810695004 5.234483395191896 19.42043503633775 0 0 0
648 1 1 0.5897 0.9077411152988799 5.4887622124975115 19.30740800709728 0 0 0
135 1 1 0.5897 0.3235138032184371 2.3528722414709353 16.86676269681583 0 0 0
134 1 1 0.5897 1.1082687740284136 3.647080064772264 16.901209637868043 0 0 0
360 1 1 0.5897 8.771061164042802 2.7783479110576454 20.722660392475216 0 0 0
573 1 1 0.5897 0.390209629996626 5.894753833283382 17.139758894963183 0 0 0
20 1 1 0.5897 1.0045021463407795 2.9129933461594666 21.882424081977682 0 0 -1
416 1 1 0.5897 6.975602642039708 6.712454313827435 2.549494699860807 0 0 0
123 1 1 0.5897 3.082262668345343 8.3237185479674 2.6790216194232066 0 0 0
121 1 2 -1.1794 3.0514012688792445 9.258870966569674 2.8810322221715663 0 0 0
122 1 1 0.5897 3.0224111643860136 9.297033653006041 3.836979895405274 0 0 0
44 1 1 0.5897 1.4041002246304695 9.970502924804462 2.245979029703717 0 0 0
218 1 1 0.5897 5.684526364605047 10.49561280731802 2.220936355737162 0 0 0
417 1 1 0.5897 8.469846533343281 6.853458825395993 2.3516632023759634 0 0 0
219 1 1 0.5897 4.197011029345903 10.232353225365477 2.1219674523156695 0 0 0
45 1 1 0.5897 0.9400904395727434 11.388176312021779 2.504619612779769 0 0 0
415 1 2 -1.1794 7.63217965214692 7.2346715102978765 2.0886274153259947 0 0 0
43 1 2 -1.1794 0.6569874471031677 10.556455523174044 2.1246461515349537 0 0 0
254 1 1 0.5897 3.029771735022954 6.491634063704099 1.050289150105721 0 0 0
217 1 2 -1.1794 4.8677817585332415 10.878304860784693 1.9005014803241043 0 0 0
66 1 1 0.5897 7.28019065367489 9.760315589839058 3.867021361126254 0 0 0
65 1 1 0.5897 7.352093439127145 8.877089197813602 2.6396184492236388 0 0 0
64 1 2 -1.1794 7.176823947402746 9.776741474221737 2.9156092423594036 0 0 0
396 1 1 0.5897 0.7423104927663149 10.847709115066351 0.37821945158563364 0 0 0
253 1 2 -1.1794 2.9972117096052617 6.681844436736804 1.9877852363999635 0 0 0
255 1 1 0.5897 2.2242983359177018 6.212195910080076 2.3012199763317724 0 0 0
773 1 1 0.5897 8.863889481584767 10.371476962873722 2.263674712633656 0 0 0
138 1 1 0.5897 4.595785577718352 5.966777433253145 2.7415874466613643 0 0 0
793 1 2 -1.1794 2.8189399500189034 9.444304879756347 5.464687121764153 0 0 0
162 1 1 0.5897 6.956564203677567 6.994391456648718 0.19154763680766895 0 0 1
363 1 1 0.5897 5.001715790935501 10.945660526086787 0.08405243604214618 0 0 1
550 1 2 -1.1794 0.8464634681886959 10.73269147185797 6.672186280488918 0 0 0
651 1 1 0.5897 3.607018907795143 6.82205993389885 9.584100484453222 0 0 0
10 1 2 -1.1794 2.853261372649174 6.857670103930115 6.503544976923241 0 0 0
795 1 1 0.5897 3.6274065502595905 9.72327112762328 5.894531112333594 0 0 0
526 1 2 -1.1794 7.421936949774896 6.985609188963141 9.464261848686363 0 0 0
794 1 1 0.5897 2.1211823493079898 9.848998099598075 5.980005375178267 0 0 0
145 1 2 -1.1794 7.466497434106943 7.344246482476424 6.771206490955002 0 0 0
822 1 1 0.5897 8.554501801683369 10.197730548384516 10.108562455598438 0 0 0
11 1 1 0.5897 2.1338764817442724 6.310040539522098 6.189110547766139 0 0 0
552 1 1 0.5897 0.8889208019883756 11.59965656612422 6.268662692657494 0 0 0
650 1 1 0.5897 2.8905240405247214 7.185757033960059 8.301102505329697 0 0 0
578 1 1 0.5897 6.011362689723235 10.195104307625542 6.275922911947407 0 0 0
527 1 1 0.5897 7.602074762011908 7.875790155302485 9.766561786803189 0 0 0
15 1 1 0.5897 1.2788544398518626 10.596873896355838 9.675348102277121 0 0 0
582 1 1 0.5897 5.026910280575814 10.710466796808273 8.510219115325569 0 0 0
687 1 1 0.5897 4.623523007054095 6.115291762676573 6.067622547193032 0 0 0
581 1 1 0.5897 6.1773322205227315 10.54999701930351 9.481060627995811 0 0 0
147 1 1 0.5897 7.446512462467533 7.312553086941584 7.727622300614242 0 0 0
649 1 2 -1.1794 2.8617170970023547 7.320060338432002 9.248352187930962 0 0 0
551 1 1 0.5897 0.7104822769663763 10.90782531173477 7.603309005813113 0 0 0
256 1 2 -1.1794 2.755323085611741 9.78699762783664 10.276917184339505 0 0 0
258 1 1 0.5897 3.5145396247249914 10.28325387961422 9.971079520176776 0 0 0
528 1 1 0.5897 8.245151647101148 6.515718558796672 9.597405118258866 0 0 0
257 1 1 0.5897 2.8868152712982593 8.906341217826174 9.925602255078976 0 0 0
580 1 2 -1.1794 5.259167528199355 10.81615228761944 9.432732697837432 0 0 0
820 1 2 -1.1794 7.759270703003876 9.674090574355116 10.206706210417279 0 0 0
13 1 2 -1.1794 0.5724102987507462 11.151049894037735 9.343593801952702 0 0 0
12 1 1 0.5897 2.8216460536570036 7.637208196604719 5.948961237371429 0 0 0
146 1 1 0.5897 6.70532837805214 6.83210278784512 6.498176450864531 0 0 0
114 1 1 0.5897 1.4247808468140213 6.534538604049654 10.181181065420168 0 0 0
577 1 2 -1.1794 5.1723347881834085 10.593456959071126 6.507336459191706 0 0 0
677 1 1 0.5897 5.881447432438961 6.267068699520662 10.043416544545398 0 0 0
714 1 1 0.5897 7.667570355854184 8.893826320876386 6.0409539861722665 0 0 0
713 1 1 0.5897 8.311140925185066 10.262029486706808 5.964483518570331 0 0 0
579 1 1 0.5897 5.264831961588221 11.511996181857299 6.254349530508435 0 0 0
112 1 2 -1.1794 0.6192092648570564 6.084375085599368 10.435375851895614 0 0 0
676 1 2 -1.1794 5.038921847524798 5.958229035313637 10.376531346458036 0 0 0
165 1 1 0.5897 8.892894026910588 5.9959334089860885 6.22668966292895 0 0 0
712 1 2 -1.1794 7.590404831669266 9.743465878095222 5.606892372329961 0 0 0
826 1 2 -1.1794 7.463248309465742 7.079820348331907 13.853135592521353 0 0 0
259 1 2 -1.1794 0.9104276901383417 11.241632906982343 14.047887441791833 0 0 0
332 1 1 0.5897 3.1357634847964846 8.351811538590907 13.842583885622775 0 0 0
797 1 1 0.5897 2.903962254560554 10.212151416390759 12.00276313985486 0 0 0
796 1 2 -1.1794 3.039512766297499 10.074725376160508 12.940246923102709 0 0 0
798 1 1 0.5897 2.332531102987525 10.565342392080687 13.359378980311698 0 0 0
722 1 1 0.5897 4.606933274777685 10.702277107746465 13.7905779626753 0 0 0
827 1 1 0.5897 6.602871557594242 6.7183250404367305 13.640308781047441 0 0 0
723 1 1 0.5897 5.49199771657389 10.899208760563496 15.002842375823965 0 0 0
828 1 1 0.5897 7.522232614655603 7.013688427807637 14.806181986453021 0 0 0
721 1 2 -1.1794 5.487070665067476 10.975923227193293 14.048786100406685 0 0 0
331 1 2 -1.1794 3.0035303038557792 7.452128434262594 14.141487932216398 0 0 0
366 1 1 0.5897 1.5904647493819415 6.591048225311148 13.374197914911836 0 0 0
261 1 1 0.5897 0.7083516376680676 11.264169435389723 14.98319637793406 0 0 0
475 1 2 -1.1794 7.577943687117649 9.682086405186695 13.045705966729399 0 0 0
476 1 1 0.5897 6.873965961809132 10.247727884211825 13.363029045193493 0 0 0
477 1 1 0.5897 7.412415367243794 8.836271023845573 13.46218614818815 0 0 0
225 1 1 0.5897 2.8987688739373514 7.594434599217276 15.928696586416446 0 0 0
333 1 1 0.5897 3.8027451382492297 6.993313105122469 13.882691553893023 0 0 0
260 1 1 0.5897 0.18004125944156374 10.762846969185073 13.65605817604706 0 0 0
104 1 1 0.5897 8.984307962783214 10.608716624471288 13.293835636920015 0 0 0
851 1 1 0.5897 8.859126986802732 6.227357300593706 13.004664595444625 0 0 0
113 1 1 0.5897 0.5542133981923001 6.223898999384356 11.380069211879707 0 0 0
364 1 2 -1.1794 0.7882525949230937 6.101786394018393 13.191738733645094 0 0 0
520 1 2 -1.1794 7.562443722550036 6.959303033803191 16.543698998729067 0 0 0
821 1 1 0.5897 7.638038386616059 9.596916844594908 11.153009485230921 0 0 0
287 1 1 0.5897 8.70607361094266 10.324556486350671 20.962254746623938 0 0 0
141 1 1 0.5897 7.146933240489652 8.652488806670942 20.575534961004347 0 0 0
5 1 1 0.5897 3.2723280415896423 5.93510827955799 20.675226108728832 0 0 0
679 1 2 -1.1794 5.3671378445986075 11.165193935173264 16.972619158668014 0 0 0
627 1 1 0.5897 2.3066756813366363 10.154090276473688 17.302083400305058 0 0 0
394 1 2 -1.1794 0.7291033395079553 10.866314730070966 21.489678309927342 0 0 0
572 1 1 0.5897 1.8986001990307695 5.923993032036378 17.264995048563385 0 0 0
711 1 1 0.5897 8.814225648045031 6.00687837068478 17.41619598615852 0 0 0
140 1 1 0.5897 6.471466787586544 9.988709403435081 20.351378563910416 0 0 0
160 1 2 -1.1794 7.130854600254963 6.940306706539994 21.320292443690857 0 0 0
690 1 1 0.5897 1.9508848446832074 9.66618942060546 20.987158211180667 0 0 0
625 1 2 -1.1794 3.1396031650502754 10.001115714269641 17.748194183963932 0 0 0
688 1 2 -1.1794 2.7383727505841247 9.256892422049956 20.62862808003521 0 0 0
361 1 2 -1.1794 5.100273894710424 10.868839180649957 21.203428138402685 0 0 0
9 1 1 0.5897 6.713971264525087 10.165355405615186 17.165101472960988 0 0 0
689 1 1 0.5897 3.449981251196948 9.846592406065382 20.877793133027925 0 0 0
161 1 1 0.5897 6.435326532805959 6.37807025044463 20.979186689153014 0 0 0
626 1 1 0.5897 2.928232469663358 10.06484371898907 18.679550949113715 0 0 0
139 1 2 -1.1794 7.278739530685177 9.508349767858508 20.16758832480498 0 0 0
6 1 1 0.5897 2.8152131235445106 7.343190618640373 20.992017119162256 0 0 0
680 1 1 0.5897 4.586416484131629 10.803499784905545 17.391961831206377 0 0 0
8 1 1 0.5897 7.2948691177190295 9.568109953349177 18.42906451850207 0 0 0
7 1 2 -1.1794 7.422912923194999 9.605292767844965 17.48124226334607 0 0 0
521 1 1 0.5897 6.930227770680113 6.385043857312476 16.97586017491464 0 0 0
522 1 1 0.5897 7.434616523334781 7.812399045105904 16.95863218636196 0 0 0
4 1 2 -1.1794 2.6623653758656265 6.427328352141246 21.22464551744984 0 0 0
224 1 1 0.5897 3.2094286636901384 8.119159197111745 17.314305378606115 0 0 0
246 1 1 0.5897 8.912020367123151 10.57669745130823 16.91406895888503 0 0 0
223 1 2 -1.1794 3.1248681748624088 7.307800870004216 16.81350456632426 0 0 0
362 1 1 0.5897 5.262544297972477 11.764010484209988 20.905773420357907 0 0 0
445 1 2 -1.1794 0.6622932988667773 10.835333652042383 16.847510438501658 0 0 0
446 1 1 0.5897 0.4380436577977294 11.685467986908648 17.22602747568344 0 0 0
462 1 1 0.5897 8.898494051916042 6.305465102404389 20.982976965627632 0 0 0
279 1 1 0.5897 4.516877819411452 6.2622171653061365 17.573119205981776 0 0 0
174 1 1 0.5897 5.169016804500532 12.551537523752012 2.726189870125241 0 0 0
173 1 1 0.5897 4.406825031760627 13.859057413242077 2.7636106309708306 0 0 0
172 1 2 -1.1794 5.251461809159125 13.468578838999091 2.9879165533369307 0 0 0
373 1 2 -1.1794 0.6403765247383849 13.061675008640009 3.1855967709435777 0 0 0
558 1 1 0.5897 2.8444659706941744 14.676577629204896 1.471774004711138 0 0 0
556 1 2 -1.1794 2.7033342915195386 14.5955569022559 2.4150054601153794 0 0 0
557 1 1 0.5897 1.996848858594333 13.955024419622243 2.4978141662611257 0 0 0
478 1 2 -1.1794 7.50977842430744 14.949293466923494 2.2602585262503254 0 0 0
374 1 1 0.5897 0.7103341930134301 13.178130124089334 4.133057846765836 0 0 0
293 1 1 0.5897 2.71978037449967 16.526205413753864 2.5972218504458855 0 0 0
479 1 1 0.5897 8.205892213667912 14.335707249378565 2.4951146449449957 0 0 0
449 1 1 0.5897 7.273229434897751 16.568025348612416 2.9056434167049914 0 0 0
480 1 1 0.5897 6.707466543628712 14.534915850060282 2.5777246061666133 0 0 0
200 1 1 0.5897 5.3981685451016 13.35114219070039 4.75605180405605 0 0 0
292 1 2 -1.1794 2.7487912571657263 17.428130421675007 2.916513297153796 0 0 0
317 1 1 0.5897 7.9755336957096565 14.892346633828664 0.43184162260070047 0 0 0
448 1 2 -1.1794 7.310199202450112 17.41879908020234 3.3427844191604836 0 0 0
294 1 1 0.5897 2.8518038357990863 17.3439192954063 3.864368979571756 0 0 0
384 1 1 0.5897 3.098293107703613 16.71676559219842 9.986297808470438 0 0 0
655 1 2 -1.1794 0.9733065327179069 13.304800405649454 5.851195162802504 0 0 0
454 1 2 -1.1794 5.4243469301477685 13.413644907245084 10.367175798465903 0 0 0
307 1 2 -1.1794 6.994767701287099 17.701961885238823 6.099727267828897 0 0 0
811 1 2 -1.1794 3.1734888331008104 14.955463997966728 9.33003195567914 0 0 0
239 1 1 0.5897 2.7473622666802737 16.51245912249243 5.959005376450025 0 0 0
813 1 1 0.5897 2.466422117137086 14.552344266852117 9.833757771587596 0 0 0
17 1 1 0.5897 3.3613871158957807 14.940921658932389 7.372095018904955 0 0 0
519 1 1 0.5897 7.999424112282473 14.616232673003488 6.4936494333345305 0 0 0
18 1 1 0.5897 3.9840719338627832 14.248643989654923 6.178463150725826 0 0 0
377 1 1 0.5897 6.909573889288094 14.34989382575583 9.835846727539083 0 0 0
518 1 1 0.5897 7.064658546777501 15.792854798614309 6.6772824944769145 0 0 0
201 1 1 0.5897 6.220656949137866 13.742710290269214 5.965142675621386 0 0 0
812 1 1 0.5897 3.9604263609455526 14.481949314082728 9.599696953715155 0 0 0
456 1 1 0.5897 5.333897626281032 12.474428551766787 10.20596341458675 0 0 0
376 1 2 -1.1794 7.710886360103924 14.771248035576987 9.525086455853469 0 0 0
16 1 2 -1.1794 3.2298118699435516 14.777642170722643 6.438197360290967 0 0 0
517 1 2 -1.1794 7.171716212544617 14.868739453141826 6.902715955412049 0 0 0
186 1 1 0.5897 7.318824688864916 16.49819565620343 9.708096253113068 0 0 0
378 1 1 0.5897 7.650990318242118 14.72649104282788 8.57085982922545 0 0 0
766 1 2 -1.1794 0.9840728171222926 13.711445494668055 10.373203026442118 0 0 0
382 1 2 -1.1794 2.9433387053410773 17.600233456247402 10.320589746611772 0 0 0
656 1 1 0.5897 1.8472557974339485 13.637424403520713 6.055592450940664 0 0 0
14 1 1 0.5897 0.7253290735846953 12.003988662760374 9.750256366384074 0 0 0
184 1 2 -1.1794 7.138987760588228 17.386249486713922 10.01681564057102 0 0 0
768 1 1 0.5897 0.29061358676281374 14.13634178006933 9.868443292291044 0 0 0
657 1 1 0.5897 0.3831487184765763 14.021293778772716 6.084841818777244 1 0 0
238 1 2 -1.1794 2.7931751972875776 17.39688362163428 5.595746999359901 0 0 0
199 1 2 -1.1794 5.449379423326914 13.238937833103275 5.705225038083465 0 0 0
296 1 1 0.5897 7.377468329395659 14.70575144221066 15.091764397958025 0 0 0
232 1 2 -1.1794 2.984869505212585 15.153320009114443 14.009713367959227 0 0 0
234 1 1 0.5897 2.9622594230200625 15.092563507717458 14.96468823436285 0 0 0
606 1 1 0.5897 2.7590126085355977 16.88071057924744 13.165143708899127 0 0 0
427 1 2 -1.1794 5.122999003260931 13.495156136380421 12.995426171842002 0 0 0
233 1 1 0.5897 3.6524150572287866 14.520533950061987 13.744750184286886 0 0 0
639 1 1 0.5897 1.5077399451170304 14.099493215343307 13.326446117525473 0 0 0
429 1 1 0.5897 5.949241761487036 13.858572760665021 13.313937386167305 0 0 0
638 1 1 0.5897 0.6534632186734068 12.8553790247215 13.446324623716071 0 0 0
297 1 1 0.5897 8.12202885579968 14.559543934992194 13.78181450600903 0 0 0
428 1 1 0.5897 5.155625127892441 12.571256467821065 13.243644645362316 0 0 0
295 1 2 -1.1794 7.325914708027547 14.930124578474462 14.162706087936742 0 0 0
270 1 1 0.5897 7.233210923774958 16.7757385612315 13.340053861814672 0 0 0
455 1 1 0.5897 5.18148807717147 13.523836342351784 11.2864309533192 0 0 0
637 1 2 -1.1794 0.6494840361169679 13.74528508543802 13.093698943250075 0 0 0
268 1 2 -1.1794 7.056722660348001 17.58045823770763 12.852681093786881 0 0 0
269 1 1 0.5897 6.995304236756147 17.29946211774496 11.939753863032195 0 0 0
767 1 1 0.5897 0.7658391847908759 13.89916204380126 11.28605024424197 0 0 0
50 1 1 0.5897 7.47314052491576 15.742204510831694 17.07051477192085 0 0 0
451 1 2 -1.1794 1.051672417195498 13.32640544228773 20.521555816876994 0 0 0
52 1 2 -1.1794 0.6045032039907732 13.469546564485002 17.756805804153647 0 0 0
664 1 2 -1.1794 3.100765100870703 14.752216392275255 21.702254108967242 0 0 0
316 1 2 -1.1794 7.862775467001419 14.730376987264597 21.563588533554373 0 0 0
584 1 1 0.5897 3.1089579352426515 16.615285761597242 17.46004353342998 0 0 0
125 1 1 0.5897 5.087135162304547 13.829639061701593 18.925953959782415 0 0 0
452 1 1 0.5897 1.0780000228241313 12.422241975724182 20.834833487118964 0 0 0
684 1 1 0.5897 4.688951462913624 13.99676157073813 21.152418350718612 0 0 0
53 1 1 0.5897 0.7368933439464734 13.457013823623981 18.70467114149655 0 0 0
666 1 1 0.5897 3.2110049079793765 15.633958163883296 21.346260103969524 0 0 0
824 1 1 0.5897 3.513702071609508 14.534680399809439 17.22524456804467 0 0 0
453 1 1 0.5897 0.273796559875164 13.701038937193019 20.93479341809604 0 0 0
318 1 1 0.5897 7.63807663811227 15.585798332174218 21.197481266771693 0 0 0
665 1 1 0.5897 2.444958815875355 14.34515298515869 21.1361875115961 0 0 0
126 1 1 0.5897 5.777498849950436 14.189148876753805 17.627550657492055 0 0 0
683 1 1 0.5897 6.193286506138647 13.977925434703197 20.98387909122294 0 0 0
825 1 1 0.5897 2.017013178196498 14.470930249417986 17.006927486312613 0 0 0
682 1 2 -1.1794 5.388307277919094 13.589597225791316 20.64123535509574 0 0 0
124 1 2 -1.1794 4.951095174702901 13.857827037864967 17.978940339695605 0 0 0
583 1 2 -1.1794 3.10321951793977 17.440079001548646 17.94576542092371 0 0 0
823 1 2 -1.1794 2.8015125952169533 14.948900840238716 16.738004270350743 0 0 0
716 1 1 0.5897 3.1346515368675005 17.371112354469034 19.862038495334296 0 0 0
157 1 2 -1.1794 7.398655976437559 17.22348134987738 20.663157288820653 0 0 0
51 1 1 0.5897 8.110847766486375 14.372146129435752 17.161622194375663 0 0 0
715 1 2 -1.1794 3.1337982689346604 17.299254598729426 20.816508354777245 0 0 0
159 1 1 0.5897 7.596433080129233 17.257310829382057 19.72727279724763 0 0 0
681 1 1 0.5897 5.403424403899619 12.072660238874114 17.275026539214316 0 0 0
158 1 1 0.5897 8.158561568600767 17.625825413785954 21.083711658416135 0 0 0
610 1 2 -1.1794 7.609639918398138 17.51278304983159 17.958841191528524 0 0 0
49 1 2 -1.1794 7.320572759213478 14.820761183651129 16.860893819850098 0 0 0
267 1 1 0.5897 5.793954013092173 21.84001765477708 2.5319866238675184 0 0 0
696 1 1 0.5897 1.1494231478871237 22.029963820872524 2.9157720575719197 0 0 0
266 1 1 0.5897 4.285708623485995 21.861330954826393 2.6605468240216763 0 0 0
265 1 2 -1.1794 5.068266822384712 21.42712399638298 3.0000551015477352 0 0 0
818 1 1 0.5897 8.135810764434027 22.297019579050577 2.3648292262358277 0 0 0
228 1 1 0.5897 5.050288159019078 19.873304502866723 2.3459958472646383 0 0 0
227 1 1 0.5897 4.190273307817459 18.630041285827033 2.4276541164290673 0 0 0
450 1 1 0.5897 6.632919610121259 17.93987194153032 2.911532834128814 0 0 0
343 1 2 -1.1794 0.5350268327350625 18.857030487051873 1.9230835491314628 0 0 0
226 1 2 -1.1794 5.0054817264929765 18.963240715953106 2.0526413103136214 0 0 0
187 1 2 -1.1794 2.781078431736004 22.73015828894936 2.2972293900029404 0 0 0
249 1 1 0.5897 4.8598558444145405 21.701942163556616 4.7014408229057985 0 0 0
344 1 1 0.5897 1.3296268914578053 18.5423640031752 2.354106988215068 0 0 0
695 1 1 0.5897 0.7059125760498812 20.585342618488937 2.824166313024544 0 0 0
817 1 2 -1.1794 7.395710303050642 22.677713466292545 1.891981425800912 0 0 0
189 1 1 0.5897 2.9155379068861644 22.740408582922463 1.3496210437815692 0 0 0
694 1 2 -1.1794 0.5142181035385305 21.40907066166067 3.2724707634489425 0 0 0
345 1 1 0.5897 0.7132255544801243 18.756192347464612 0.9880899750256942 0 0 0
321 1 1 0.5897 8.824660096566465 18.403588046893866 2.570131001340191 0 0 0
819 1 1 0.5897 7.344667797066025 23.578641400862722 2.2113287894808606 0 -1 0
498 1 1 0.5897 7.7883122556974795 22.802235450972653 0.08055711287301089 0 0 0
602 1 1 0.5897 5.279355540694537 18.955498084845523 0.27445247596607325 0 0 0
413 1 1 0.5897 0.4826966589193944 21.651728750706177 5.05312080863725 0 0 0
188 1 1 0.5897 3.1040514444149756 23.58074637800745 2.594636958773736 0 0 0
308 1 1 0.5897 7.035964135396767 17.760251508716834 5.145231662627819 0 0 0
555 1 1 0.5897 4.946704971731067 20.938541111263234 9.97764586904585 0 0 0
383 1 1 0.5897 3.636589824953423 18.130571202770376 9.927676948542171 0 0 0
87 1 1 0.5897 8.25763071867269 22.37148835678653 9.755982750113402 0 0 0
412 1 2 -1.1794 0.5166331541430788 21.777527363211583 6.0013808656828 0 0 0
342 1 1 0.5897 0.6672449523189288 19.06314615506225 7.663842319101626 0 0 0
248 1 1 0.5897 4.153667108653068 22.116180284099336 5.974786130513411 0 0 0
387 1 1 0.5897 4.893851023416852 19.946474871323957 6.563098701676332 0 0 0
403 1 2 -1.1794 0.8271717349395914 19.150487355060065 9.40176262965904 0 0 0
39 1 1 0.5897 3.7622201059496736 22.785713455661416 9.76267727987822 0 0 0
33 1 1 0.5897 6.446253561785267 22.49348180540501 6.102517535904033 0 0 0
701 1 1 0.5897 2.6025008469785793 23.358574946615 7.731673197628253 0 0 0
386 1 1 0.5897 5.427042001277255 18.53170549636451 6.641379559414675 0 0 0
341 1 1 0.5897 1.4785378613056008 18.690959280145762 6.441143691699777 0 0 0
102 1 1 0.5897 4.816124390166262 19.184258346860197 8.454966301563536 0 0 0
85 1 2 -1.1794 7.53810265052447 22.983158888498096 9.59988307769996 0 0 0
385 1 2 -1.1794 4.615169941040176 19.037602782744628 6.675199425819017 0 0 0
185 1 1 0.5897 7.978947386978656 17.83972999901301 9.94573848068043 0 0 0
38 1 1 0.5897 2.270079879271606 22.604216300649227 9.942685357414875 0 0 0
101 1 1 0.5897 5.684484089870505 18.854235415205693 9.650275641990149 0 0 0
31 1 2 -1.1794 7.173004495978347 23.0012835615182 6.463398046522302 0 0 0
37 1 2 -1.1794 2.920125314311555 23.192145251841026 9.557967996438911 0 0 0
32 1 1 0.5897 7.93470950273145 22.428949008560707 6.371324953281763 0 0 0
700 1 2 -1.1794 2.664890705052856 23.353616472876922 6.776554134112752 0 0 0
554 1 1 0.5897 6.018427218433736 21.929995310112815 10.378247320540423 0 0 0
86 1 1 0.5897 7.696701717463481 23.320269692666564 8.718203380810209 0 0 0
404 1 1 0.5897 1.529667179492274 18.71092504897181 9.880803371905612 0 0 0
94 1 2 -1.1794 0.9755298478491601 21.637838344626452 10.563416215763057 0 0 0
100 1 2 -1.1794 4.852484141206863 19.261002039580454 9.40835690360521 0 0 0
702 1 1 0.5897 1.8450060587990187 22.955191144181732 6.484578455062087 0 0 0
240 1 1 0.5897 3.497521716569776 17.82137266698841 6.085566686738266 0 0 0
553 1 2 -1.1794 5.086081984784613 21.739868855356143 10.482344249082493 0 0 0
340 1 2 -1.1794 0.649400173393196 19.088413302638102 6.707187955426264 0 0 0
405 1 1 0.5897 0.7736404591524796 20.019985624536503 9.798482271681594 0 0 0
414 1 1 0.5897 0.6842309344279397 20.90335846147176 6.353558912000632 0 0 0
309 1 1 0.5897 7.84477951257282 18.026584424950286 6.396874843871983 0 0 0
247 1 2 -1.1794 4.992559960114473 21.794326064327194 5.6448343872969025 0 0 0
95 1 1 0.5897 0.1605656573035219 22.103969106372034 10.376967747344203 1 0 0
474 1 1 0.5897 5.452194805262229 18.8025300877096 15.813087641412283 0 0 0
88 1 2 -1.1794 5.260692993851686 21.76181362873143 13.329993994493465 0 0 0
381 1 1 0.5897 1.517276000361954 21.95612480919938 13.51524945320098 0 0 0
90 1 1 0.5897 5.182399623420792 20.849418876720115 13.608738405260542 0 0 0
763 1 2 -1.1794 5.044415009810924 19.14979392744101 14.028185957398271 0 0 0
738 1 1 0.5897 3.7633729433224565 22.59106953889917 13.68188927179608 0 0 0
89 1 1 0.5897 4.97620019480784 21.75877794580103 12.416100738615834 0 0 0
788 1 1 0.5897 7.7409641384528864 22.73652516494743 15.344710888059895 0 0 0
379 1 2 -1.1794 0.7272640627283855 21.56336445077293 13.144014867271753 0 0 0