LAMMPS data file via write_data, version 30 Jul 2021, timestep = 17250000

972 atoms
2 atom types
648 bonds
1 bond types
324 angles
1 angle types

0.004708452742171687 19.995292547261833 xlo xhi
0.09684395104268617 19.903157048961432 ylo yhi
-0.08972367482981447 20.789721674824044 zlo zhi

Masses

1 1.008
2 15.999

Pair Coeffs # lj/cut/tip4p/long/omp

1 0 0
2 0.21084 3.1668

Bond Coeffs # harmonic/omp

1 450 0.9572

Angle Coeffs # harmonic/omp

1 55 104.52

Atoms # full

33 11 1 0.5897 1.405495884832379 2.5279065748474787 1.2439016877714826 0 0 0
11 4 1 0.5897 0.9031021112824842 3.599915586274116 3.2395033471631822 0 0 0
1 1 2 -1.1794 2.680575529308578 2.4081270382661435 0.04774344678696038 0 0 0
5 2 1 0.5897 3.896976783831219 0.6094227545663694 2.384008288765911 0 0 0
10 4 2 -1.1794 1.28949864724623 4.245092090796724 3.8317252169835663 0 0 0
12 4 1 0.5897 2.2018600565757778 3.9706863265723156 3.923202574655379 0 0 0
109 37 2 -1.1794 2.3967845859469854 9.319892171850269 -0.04677306358129466 0 0 0
31 11 2 -1.1794 0.7156342944037348 2.338251546059388 1.8797944969052032 0 0 0
14 5 1 0.5897 4.236721757585651 5.359285164671788 0.5225278343046424 0 0 0
21 7 1 0.5897 0.17646286437503986 6.059952687341981 1.3895049690024714 0 0 0
112 38 2 -1.1794 4.182382536003023 7.6733552585025 3.0856400902307555 0 0 0
16 6 2 -1.1794 4.002523139888002 3.7780888580236747 3.620477452736442 0 0 0
126 42 1 0.5897 4.388292675120008 9.672755917842952 3.6052735357392005 0 0 0
674 225 1 0.5897 2.007384025503503 5.489237784571154 0.11007955435724157 0 0 1
13 5 2 -1.1794 4.812459304610629 5.485803526290914 1.2766634427479377 0 0 0
24 8 1 0.5897 2.394166717017382 0.9039570389608632 4.354856990430832 0 0 0
18 6 1 0.5897 3.9097005568896166 2.8854300429961226 3.2875947601270874 0 0 0
113 38 1 0.5897 3.5145981084421436 7.549072834295346 3.7600249674363955 0 0 0
4 2 2 -1.1794 3.6692906971085812 1.0626501615982518 3.195861872420074 0 0 0
141 47 1 0.5897 1.3651198726977942 7.863797827746171 2.5629502495770837 0 0 0
15 5 1 0.5897 4.426399601424143 6.220993163698967 1.752805118558451 0 0 0
20 7 1 0.5897 1.0288403620542066 5.365767104737512 2.43044417911201 0 0 0
236 79 1 0.5897 0.7581475162488377 0.5292031582592905 1.8738762717563608 0 1 0
110 37 1 0.5897 3.2663454607330364 9.411002577186345 0.3426789566142443 0 0 0
111 37 1 0.5897 1.8231463596336457 9.11672823562061 0.692111611764439 0 0 0
139 47 2 -1.1794 1.1133114402487347 8.742497709118242 2.2788358585514183 0 0 0
19 7 2 -1.1794 1.0850089992692826 5.853699934181685 1.6087895549079023 0 0 0
140 47 1 0.5897 1.4014066742655062 9.316073530200278 2.9890173139757517 0 0 0
17 6 1 0.5897 4.331291894954628 4.279453405478128 2.8742229355018143 0 0 0
6 2 1 0.5897 4.390038864941302 0.8622830391137599 3.793009990808376 0 0 0
22 8 2 -1.1794 1.6964727568452183 0.716500527433012 4.982812109641705 0 0 0
132 44 1 0.5897 1.245383085603389 7.59242770182199 5.098267251994327 0 0 0
2 1 1 0.5897 2.861863684943921 3.346820096451172 0.0005430107378572302 0 0 0
3 1 1 0.5897 3.530775847404251 2.008375429146531 0.2306909092981826 0 0 0
325 109 2 -1.1794 2.7407578453450445 2.591685099903292 6.715809947973505 0 0 0
326 109 1 0.5897 2.5413657304819846 1.7976000633636615 6.219904424201402 0 0 0
327 109 1 0.5897 3.61981264889328 2.442825606566643 7.0639855776443845 0 0 0
356 119 1 0.5897 1.7369941371957847 2.43701023115806 8.403455127732252 0 0 0
355 119 2 -1.1794 1.0126452379483326 2.4811018987683373 9.027644676115496 0 0 0
560 187 1 0.5897 0.8736164362752145 0.44864907648276575 8.669682295332374 0 1 0
345 115 1 0.5897 0.8743615513446497 6.539737362038977 8.398832203266148 0 0 0
343 115 2 -1.1794 0.885049885248345 5.582648588099971 8.409325954469645 0 0 0
25 9 2 -1.1794 3.019548133159988 5.372382782771607 6.444162829564619 0 0 0
27 9 1 0.5897 2.939944543922294 4.483366709377462 6.098363694887648 0 0 0
339 113 1 0.5897 4.39065797764523 5.519327034474201 7.856196102425415 0 0 0
26 9 1 0.5897 2.467887110357044 5.375967355537267 7.226457689654687 0 0 0
463 155 2 -1.1794 0.8889784831193256 8.21788485771996 8.844561097329983 0 0 0
341 114 1 0.5897 4.167139277712188 3.0705465160050145 10.250683476847287 0 0 0
464 155 1 0.5897 1.5813377902898345 8.685883593389649 8.377852703982525 0 0 0
337 113 2 -1.1794 4.82773273945077 5.671241525002025 8.694206719369424 0 0 0
438 146 1 0.5897 4.051820570499148 8.613177941135296 10.063907008383438 0 0 0
437 146 1 0.5897 4.011879366251236 7.145907769070772 9.693124367552773 0 0 0
435 145 1 0.5897 2.597660120138551 8.577262019841474 6.674993472036999 0 0 0
468 156 1 0.5897 4.800758327029551 8.736695638183825 7.6968035216926864 0 0 0
433 145 2 -1.1794 3.0320358412604755 9.069385602136705 7.3717248626856335 0 0 0
344 115 1 0.5897 1.04960540463728 5.354499821451634 9.324361551792911 0 0 0
342 114 1 0.5897 4.421962617334565 4.515420556609493 9.877409276045748 0 0 0
434 145 1 0.5897 2.9091550326442026 9.987294800860004 7.12966639594411 0 0 0
131 44 1 0.5897 2.3732547720241186 6.7182299461596235 5.603632554536756 0 0 0
443 148 1 0.5897 1.206746628555988 9.32264155012406 10.274276561563244 0 0 0
328 110 2 -1.1794 3.8962836598421275 1.3537139946534988 10.146875329012076 0 0 0
357 119 1 0.5897 0.23696295834253656 2.623280797126141 8.48516800825188 0 0 0
465 155 1 0.5897 0.08499578078783812 8.456947160269289 8.383444250211454 0 0 0
335 112 1 0.5897 1.1722785332655843 3.733624899349283 10.316492821381605 0 0 0
130 44 2 -1.1794 2.2000362439904877 7.531988817297294 5.130263195038299 0 0 0
649 217 2 -1.1794 3.0416317547094223 2.6215645844808746 13.817980188057268 0 0 0
650 217 1 0.5897 2.704230761808682 2.2908562116334816 12.985429133454273 0 0 0
651 217 1 0.5897 2.4842170560142263 2.214987070762108 14.481499496321346 0 0 0
347 116 1 0.5897 0.7136716057385121 1.0707212456650894 11.633006742364234 0 0 0
757 253 2 -1.1794 3.0159703654374237 9.293869592083066 14.139569327833696 0 0 0
680 227 1 0.5897 0.5099586781925347 2.316556771296785 15.197473212457826 0 0 0
351 117 1 0.5897 2.6723815874806522 4.3856527407843435 13.771086176050682 0 0 0
346 116 2 -1.1794 1.6676642281985423 1.0966086279236387 11.705497630408694 0 0 0
456 152 1 0.5897 2.1567974975026987 6.530024056352833 12.71795607629618 0 0 0
455 152 1 0.5897 2.581914245973955 7.522694186854245 11.656810674405957 0 0 0
329 110 1 0.5897 3.032472465811009 1.2652813427631098 10.549537675534415 0 0 0
683 228 1 0.5897 4.825080346930528 2.5829524666541244 14.151442253752675 0 0 0
533 178 1 0.5897 0.1449392844698927 7.392879750491109 12.612964602034802 1 0 0
454 152 2 -1.1794 1.924620557600503 7.377036537360797 12.337256330632732 0 0 0
350 117 1 0.5897 3.517299419863027 5.478303173917788 14.39082383228593 0 0 0
792 264 1 0.5897 4.798127558185624 9.018928100485347 14.618166204434322 0 0 0
349 117 2 -1.1794 2.721063771056644 5.335482587969757 13.879162591107066 0 0 0
758 253 1 0.5897 2.6012535447380936 8.6233922728275 13.59665984840655 0 0 0
668 223 1 0.5897 1.3216543719610225 6.04836105846663 14.98025438111537 0 0 0
334 112 2 -1.1794 1.389433120245355 4.397652280625518 10.970898780716876 0 0 0
330 110 1 0.5897 4.508513390685992 1.0806971130857845 10.830188743143552 0 0 0
336 112 1 0.5897 2.344315737338262 4.457364183886365 10.94440631678191 0 0 0
348 116 1 0.5897 1.8872736093549716 0.34260731692030294 12.252803620347192 0 0 0
340 114 2 -1.1794 4.255092770126054 3.945700711347336 10.628367499679785 0 0 0
436 146 2 -1.1794 3.862765368119097 7.746455427603851 10.42351574253113 0 0 0
666 222 1 0.5897 3.9578070127870357 3.1010061878840163 17.172990499004122 0 0 0
671 224 1 0.5897 2.063603744336882 1.4455022641628286 19.464123630446096 0 0 0
653 218 1 0.5897 3.2180789042563394 1.1632165899348719 17.66096048836628 0 0 0
670 224 2 -1.1794 1.733637661092257 0.8182712642072223 18.82067671639603 0 0 0
652 218 2 -1.1794 4.084628420107036 1.3281778909425734 17.28945890494088 0 0 0
672 224 1 0.5897 0.8080364852358327 1.040781604758219 18.721485666939515 0 0 0
858 286 1 0.5897 0.5990373823510959 7.343563086214096 18.668606048243774 1 0 0
788 263 1 0.5897 1.174905430690089 9.68556512517597 17.149914939137233 0 0 0
659 220 1 0.5897 0.36928695107575976 4.332697955511821 18.346125237035864 0 0 0
665 222 1 0.5897 2.879038675794196 4.059973626149121 17.629434796607 0 0 0
658 220 2 -1.1794 1.1112443972694053 4.318036000197064 17.741560526137896 0 0 0
673 225 2 -1.1794 2.623360813659384 5.128853820354822 20.35159624886375 0 0 0
681 227 1 0.5897 1.276172073974341 2.7858157483988033 16.416017563384123 0 0 0
660 220 1 0.5897 0.8508336355126472 4.900156143650669 17.027647373496386 0 0 0
654 218 1 0.5897 4.168562983945316 0.6881664008430299 16.582562633806383 0 0 0
761 254 1 0.5897 4.456868474637562 9.208928986193484 17.282569079921743 0 0 0
663 221 1 0.5897 4.4290127156561425 6.835245428861771 16.035563740831513 0 0 0
664 222 2 -1.1794 3.7764282825641033 4.032547252025989 17.297718656430803 0 0 0
675 225 1 0.5897 2.536548987489192 5.697350266496221 19.586351982671992 0 0 0
780 260 1 0.5897 2.5116778826370694 8.156571332222041 19.393937652090735 0 0 0
760 254 2 -1.1794 4.419721070407512 8.266862003458426 17.11710607612774 0 0 0
778 260 2 -1.1794 2.3305073834201835 7.511883675865807 18.709903834357043 0 0 0
779 260 1 0.5897 2.9269402720686415 7.743257360451067 17.99785049947122 0 0 0
787 263 2 -1.1794 1.1241978470141958 9.061328107669787 16.42596178583215 0 0 0
669 223 1 0.5897 0.9225171076993942 7.003013468771853 16.085460418441812 0 0 0
789 263 1 0.5897 1.7946589029121538 9.354389981926397 15.808838464735583 0 0 0
762 254 1 0.5897 4.8630345121233125 7.873530471278892 17.868832514679227 0 0 0
662 221 1 0.5897 4.346222898540088 5.337487510920682 16.24001948653212 0 0 0
667 223 2 -1.1794 0.7051571178224244 6.151902678731789 15.705172530344923 0 0 0
679 227 2 -1.1794 1.2092470565334215 2.0580420582458623 15.79780049174434 0 0 0
885 295 1 0.5897 0.8578170631272343 0.18356480368386358 15.912469388931028 0 1 0
661 221 2 -1.1794 4.681960001801302 6.001920337950999 15.638257971300357 0 0 0
120 40 1 0.5897 1.134463432584577 11.461871761859303 3.29844589417008 0 0 0
220 74 2 -1.1794 3.9971557060728524 14.282537141606852 3.806999647237666 0 0 0
217 73 2 -1.1794 2.353208179659704 15.865742792996972 0.07554374879692144 0 0 0
240 80 1 0.5897 2.702320471445895 14.040041168168196 4.880378716504187 0 0 0
123 41 1 0.5897 4.529692043937878 11.723890385519088 2.584462645822023 0 0 0
247 83 2 -1.1794 1.0194999548957868 15.333303917318904 2.433255423335618 0 0 0
118 40 2 -1.1794 1.2948131364671842 10.894870568482407 4.052870969543049 0 0 0
129 43 1 0.5897 0.9429815090751491 13.618508675957377 2.3128992318981076 0 0 0
249 83 1 0.5897 1.0728436942773558 16.18725906952684 2.862437857376335 0 0 0
783 261 1 0.5897 1.7971209255884355 12.219394466969609 0.8166670407901572 0 0 1
234 78 1 0.5897 4.077887098948999 17.558226511044726 2.6720733252201097 0 0 0
125 42 1 0.5897 4.541881953090921 10.655784605039186 4.746413213885866 0 0 0
230 77 1 0.5897 4.080296731812139 18.536831411275514 0.5608520395761489 0 0 0
228 76 1 0.5897 0.4762309634608592 17.706964779806686 4.339527813097263 0 0 0
124 42 2 -1.1794 4.096419878813235 10.532584644865873 3.9081209565631743 0 0 0
222 74 1 0.5897 4.159350364754553 13.865024311555063 2.9609580510463305 0 0 0
232 78 2 -1.1794 3.8007941293683367 17.133936353041673 3.484213180045595 0 0 0
248 83 1 0.5897 1.3835991406692176 15.480236243030324 1.5601916042072241 0 0 0
221 74 1 0.5897 4.045181406107487 15.220975035749353 3.6245767602337033 0 0 0
229 77 2 -1.1794 4.536001016888705 18.870393460450796 1.3337793004462142 0 0 0
127 43 2 -1.1794 0.7397030595767985 12.704072567137658 2.1161514225596103 0 0 0
119 40 1 0.5897 2.246267812435334 10.897038547583119 4.156745527259707 0 0 0
233 78 1 0.5897 2.881309083706775 17.380882558961765 3.5823530792090077 0 0 0
227 76 1 0.5897 0.9156088380595636 18.436310429291122 3.0876320667104227 0 0 0
226 76 2 -1.1794 1.1953226965343802 17.765385209266448 3.710481519758723 0 0 0
235 79 2 -1.1794 0.6681791432894121 19.43905703666601 1.5506194953881085 0 0 0
781 261 2 -1.1794 2.5040863558151605 12.09026219798164 0.18440129816865208 0 0 1
122 41 1 0.5897 3.784491630004277 12.224863707554968 1.365528693465065 0 0 0
890 297 1 0.5897 1.9194793366266591 18.873526983862437 0.13091688188841868 0 0 1
219 73 1 0.5897 3.23957006474664 15.735196904569873 0.4123379876267492 0 0 0
121 41 2 -1.1794 4.591243051774222 12.35194470069593 1.8646574606862467 0 0 0
782 261 1 0.5897 2.4506390822596202 11.163614967905787 -0.049492072821431865 0 0 1
250 84 2 -1.1794 4.942793029176084 15.338888370948673 0.7005840659068238 0 0 0
133 45 2 -1.1794 2.5623182530815916 11.765368001744452 7.239338126504086 0 0 0
134 45 1 0.5897 1.8804326369310658 12.072365621298722 7.836845287655669 0 0 0
135 45 1 0.5897 3.3792236398454225 12.082155974033757 7.624648767915716 0 0 0
23 8 1 0.5897 1.8804843388152859 19.634407353313833 5.287982448415589 0 -1 0
561 187 1 0.5897 0.9267664938422978 18.828204721450827 9.173155193374356 0 0 0
571 191 2 -1.1794 0.9613093430091477 15.251093339785434 9.19633384726608 0 0 0
239 80 1 0.5897 2.3146109032120377 13.193707378194153 6.07436927697669 0 0 0
450 150 1 0.5897 4.218401059229439 11.379146502715178 9.78708036430512 0 0 0
558 186 1 0.5897 4.451644333169526 17.984035253977574 9.924068838534124 0 0 0
573 191 1 0.5897 1.0594098777290648 14.308414794421822 9.062300053288983 0 0 0
576 192 1 0.5897 4.636693552971164 16.04442614424697 7.696339481471785 0 0 0
543 181 1 0.5897 2.5155240806787758 15.45823350741367 6.548344644876401 0 0 0
446 149 1 0.5897 4.4871664497516734 13.67040487668121 9.309943178703156 0 0 0
553 185 2 -1.1794 4.740539478077805 19.03225383441314 8.393740883046025 0 0 0
453 151 1 0.5897 0.6543480926015333 11.732065759032437 9.594688694427925 0 0 0
559 187 2 -1.1794 0.777754968231539 19.34689882962246 8.382502937352337 0 0 0
241 81 2 -1.1794 2.6338957460293604 18.53596719757224 6.51827160314301 0 0 0
572 191 1 0.5897 1.4296368040863785 15.64794598168422 8.461861513328648 0 0 0
541 181 2 -1.1794 2.7490220063731523 16.056530717796296 7.258162278718213 0 0 0
542 181 1 0.5897 2.65621133667145 16.929444804186854 6.876495923484878 0 0 0
243 81 1 0.5897 3.4663672680202966 18.668704958837388 6.97162726985566 0 0 0
242 81 1 0.5897 1.9871917085472672 18.974700926821292 7.070987675764377 0 0 0
451 151 2 -1.1794 0.5117386436564865 12.319297998441627 8.852283297272068 0 0 0
445 149 2 -1.1794 4.538271285394455 12.84001368776773 8.836573435875998 0 0 0
554 185 1 0.5897 4.500438212436075 19.831872620627525 8.861977803378245 0 0 0
552 184 1 0.5897 1.2483161568397545 16.803136957127034 10.014712498903732 0 0 0
448 150 2 -1.1794 4.150716950741457 10.544802430801454 10.251381146489553 0 0 0
238 80 2 -1.1794 2.0303200348503454 13.946243668624321 5.555566355546662 0 0 0
317 106 1 0.5897 0.2811645688298235 13.517117966318278 5.4601617792973745 1 0 0
457 153 2 -1.1794 2.1885482805094587 12.06468350178982 13.758763535357282 0 0 0
458 153 1 0.5897 1.5550832200386306 12.237787122081105 14.455202027431843 0 0 0
459 153 1 0.5897 3.0407757325382345 12.22105586272984 14.165456916419211 0 0 0
563 188 1 0.5897 2.072376106650641 13.162757730883518 12.35985699961945 0 0 0
562 188 2 -1.1794 1.963311169531429 13.95784764852764 11.83809117329742 0 0 0
564 188 1 0.5897 2.2422723506646287 14.665950745580963 12.418676137996483 0 0 0
879 293 1 0.5897 3.6157059428086074 18.8842973923654 14.58670164239385 0 0 0
867 289 1 0.5897 2.148867333167274 15.658761066116213 14.557124502739438 0 0 0
557 186 1 0.5897 4.05276774368108 16.604381155752353 10.402972880390049 0 0 0
769 257 2 -1.1794 4.464603991036953 12.353401394305603 15.231717278906936 0 0 0
759 253 1 0.5897 2.7741470417012812 10.121934629834234 13.724715722175786 0 0 0
545 182 1 0.5897 3.18787408638334 14.380311413667867 10.774971085684141 0 0 0
866 289 1 0.5897 3.564462641955075 15.835590416426824 14.050729069771347 0 0 0
865 289 2 -1.1794 2.6538519517701538 15.80670720544424 13.757506765860676 0 0 0
449 150 1 0.5897 4.393398954888294 10.751926247193065 11.153948295545367 0 0 0
442 148 2 -1.1794 1.4212019433864937 10.131742238079038 10.73865856007655 0 0 0
567 189 1 0.5897 1.596834790736308 18.63444955361253 14.00233615958123 0 0 0
566 189 1 0.5897 2.3090128862409336 17.55348155457574 13.217298162655787 0 0 0
565 189 2 -1.1794 2.2211588243168556 18.503978211429587 13.288556077558013 0 0 0
444 148 1 0.5897 2.3514947579972385 10.270636377449417 10.56159570857746 0 0 0
551 184 1 0.5897 2.3555813271237445 17.578678944607535 10.696075568644494 0 0 0
550 184 2 -1.1794 1.407706803960657 17.570983700751302 10.563577192717851 0 0 0
546 182 1 0.5897 4.601546765666438 14.80938938725172 11.104941182235487 0 0 0
512 171 1 0.5897 0.2122939107256647 10.725063460443499 11.98766312719595 1 0 0
877 293 2 -1.1794 4.094982135383953 19.16297671205093 15.367073119856101 0 0 0
556 186 2 -1.1794 4.207086065847465 17.49734356182286 10.711266792928102 0 0 0
544 182 2 -1.1794 3.922296845821941 14.891797691497937 10.435626618456892 0 0 0
888 296 1 0.5897 2.287415333390899 13.317473438574305 19.361866832668 0 0 0
768 256 1 0.5897 1.2961994909454 11.859193880480023 17.39270818533523 0 0 0
895 299 2 -1.1794 0.950087813065121 15.490057990536474 15.925771075647406 0 0 0
965 322 1 0.5897 0.36727849160197557 13.945729282672607 19.373491867788843 1 0 0
886 296 2 -1.1794 2.1103757829512833 14.102146144623969 18.84300140981025 0 0 0
875 292 1 0.5897 1.0595219059435952 17.80354048134955 18.61384426214687 0 0 0
771 257 1 0.5897 4.293680073121103 13.101237046067343 15.804258273242942 0 0 0
772 258 2 -1.1794 4.08338266762677 10.861413946740656 17.67916529747373 0 0 0
876 292 1 0.5897 1.038015027910191 18.330671572510926 17.19466714332799 0 0 0
766 256 2 -1.1794 1.4275077302140518 11.159182496655951 18.032248482343817 0 0 0
777 259 1 0.5897 0.9686699146523859 13.751153984984127 16.22793550187594 0 0 0
767 256 1 0.5897 0.7538017498753248 11.310091648522837 18.695228918693054 0 0 0
868 290 2 -1.1794 4.122300398627439 14.418488103900728 16.996947851489722 0 0 0
869 290 1 0.5897 3.329010230728325 14.398200146098082 17.532152326799313 0 0 0
887 296 1 0.5897 2.276001992836264 14.829142283677209 19.443290571842432 0 0 0
880 294 2 -1.1794 4.154154201508928 17.185776480258756 17.37777183725443 0 0 0
882 294 1 0.5897 4.2836548087746875 16.248424652053068 17.23344601894447 0 0 0
874 292 2 -1.1794 1.4207298429969952 17.644678039242446 17.74166851461746 0 0 0
891 297 1 0.5897 2.287275789349462 19.082827356699273 19.556644782981223 0 0 0
881 294 1 0.5897 3.2649035681945473 17.254492287146945 17.72508771132199 0 0 0
897 299 1 0.5897 1.1554679063423992 16.319890060012053 16.356408052413123 0 0 0
773 258 1 0.5897 3.145210087888808 11.013742592072681 17.791780604143568 0 0 0
878 293 1 0.5897 4.108761042439063 18.38862019214001 15.929650655421066 0 0 0
889 297 2 -1.1794 2.5313892059374825 18.581427270180807 20.334696396248333 0 0 0
774 258 1 0.5897 4.321499353441118 11.38548523466923 16.91430743029332 0 0 0
775 259 2 -1.1794 0.7017378933640102 12.849339244807634 16.049861241438535 0 0 0
870 290 1 0.5897 4.833607636855742 14.254660402522072 17.61617205722758 0 0 0
218 73 1 0.5897 2.3204079255758785 16.79267396981402 20.718487771284934 0 0 -1
883 295 2 -1.1794 0.6385507393103195 19.107845519943552 15.612201433619727 0 0 0
896 299 1 0.5897 0.01981548103227378 15.55530807065584 15.71029638954275 0 0 0
48 16 1 0.5897 7.307105967728157 4.156589489623872 4.4331966051724025 0 0 0
46 16 2 -1.1794 7.972175658867996 4.1842026766398055 3.745318801538431 0 0 0
143 48 1 0.5897 5.788806361974215 9.03728024391018 1.101129961102339 0 0 0
142 48 2 -1.1794 5.239044494867854 9.313541718467205 0.3678311246620127 0 0 0
273 91 1 0.5897 7.3581175020716 0.4126200496879726 1.7248866795222741 0 1 0
69 23 1 0.5897 6.64906959358145 2.3323462830577384 1.0978198522058995 0 0 0
67 23 2 -1.1794 7.273419077215213 2.3180844959909153 1.8232702723952061 0 0 0
47 16 1 0.5897 7.685136318699488 3.530742592831997 3.107423871269248 0 0 0
68 23 1 0.5897 8.129344948930134 2.41013882856764 1.404860865012699 0 0 0
55 19 2 -1.1794 7.399146786914545 6.218702937006821 1.645631298171869 0 0 0
57 19 1 0.5897 7.592354839443438 5.622840570262337 2.3694639539575952 0 0 0
711 237 1 0.5897 8.757558531669101 5.539870678678665 0.5511388710237574 0 0 1
37 13 2 -1.1794 9.473081823141046 2.5669521280234306 0.12988925087856132 0 0 0
56 19 1 0.5897 6.485828776089075 6.038193821576403 1.4234518447447269 0 0 0
177 59 1 0.5897 7.767410530929885 9.362920157006428 1.5036315778065845 0 0 0
176 59 1 0.5897 7.450695563452035 7.980662031453649 2.033704118542074 0 0 0
145 49 2 -1.1794 9.364730055076963 9.311146238250677 0.18381600177094964 0 0 0
175 59 2 -1.1794 7.175453750571578 8.89551477217846 2.0929760701508857 0 0 0
58 20 2 -1.1794 8.868938558505798 0.8945630302945285 4.6521466803104765 0 0 0
29 10 1 0.5897 7.027848516365195 0.9414356797787184 4.833266960225938 0 0 0
166 56 2 -1.1794 8.769974673716156 7.786304647185539 4.892100949779124 0 0 0
28 10 2 -1.1794 6.131518875237319 0.6542122398248104 5.0068798209313305 0 0 0
53 18 1 0.5897 9.696237101911999 4.177130965231471 3.4538764168984994 0 0 0
114 38 1 0.5897 5.011059607995111 7.508625989167704 3.5354370557495347 0 0 0
9 3 1 0.5897 5.3334245070709825 4.103945596308645 4.923515951450643 0 0 0
34 12 2 -1.1794 5.308891638584875 1.7859186984729405 0.06732471253178574 0 0 0
362 121 1 0.5897 8.983757320366248 3.734540272591534 6.673027585839288 0 0 0
380 127 1 0.5897 7.633993296313604 6.86723347424818 9.058593339051441 0 0 0
500 167 1 0.5897 7.620309551790224 9.629304316091215 9.794904009574488 0 0 0
470 157 1 0.5897 8.91067226564029 9.405969508037963 7.756047446261165 0 0 0
338 113 1 0.5897 5.745048528527943 5.8172037804178345 8.463287244309425 0 0 0
8 3 1 0.5897 5.851628437273242 3.813552308809067 6.316157091602412 0 0 0
391 131 2 -1.1794 7.7785746865420045 1.8255559764634475 9.078742732006338 0 0 0
392 131 1 0.5897 8.34298642840831 1.9007258549212143 8.309267223077015 0 0 0
63 21 1 0.5897 9.964951518215111 5.946552625608921 6.598269003008947 0 0 0
393 131 1 0.5897 7.708607747126018 0.8836197736904939 9.2339474205645 0 0 0
359 120 1 0.5897 6.150762426539024 2.0845638676114753 8.006702109044223 0 0 0
361 121 2 -1.1794 8.969612023670136 2.778634240640983 6.720677894623392 0 0 0
61 21 2 -1.1794 9.164142454541937 5.462748860487492 6.396350962492134 0 0 0
62 21 1 0.5897 8.567541846981792 5.676244017425695 7.113836895565126 0 0 0
363 121 1 0.5897 9.887735405834194 2.530037573545476 6.827122692392493 0 0 0
469 157 2 -1.1794 9.319280895881622 9.617211568503063 6.916550571234413 0 0 0
501 167 1 0.5897 6.941832032413399 8.715707764512317 8.796370348691125 0 0 0
379 127 2 -1.1794 7.619094351003877 6.104258069004155 8.480714209739162 0 0 0
360 120 1 0.5897 5.851383402406786 1.6837163800676296 6.577696139300167 0 0 0
467 156 1 0.5897 5.751850481425543 8.274263817355276 6.613481701407833 0 0 0
381 127 1 0.5897 7.841304020839089 5.367622473921958 9.050188384102062 0 0 0
499 167 2 -1.1794 7.7245508741422935 8.792496715213753 9.341940355814085 0 0 0
136 46 2 -1.1794 6.002202588103476 7.198130704027824 5.26656820646106 0 0 0
466 156 2 -1.1794 5.731127059500962 8.684128383322275 7.478339774719279 0 0 0
7 3 2 -1.1794 5.93310188751814 4.434657391621756 5.592321186572857 0 0 0
358 120 2 -1.1794 5.52897871434003 2.230997671011306 7.293826032591971 0 0 0
137 46 1 0.5897 6.010239554618863 6.2607741717647905 5.460335001843699 0 0 0
167 56 1 0.5897 8.975165540887849 6.889477017238465 5.156386856572164 0 0 0
371 124 1 0.5897 7.740693378774939 3.380622468130221 10.15192395720136 0 0 0
168 56 1 0.5897 9.07140724150963 8.326618866597641 5.622479548994338 0 0 0
59 20 1 0.5897 8.972407697709341 1.6801553600105843 5.189147698792632 0 0 0
377 126 1 0.5897 9.932439536013492 4.182578808832221 10.280784076982899 0 0 0
138 46 1 0.5897 6.926061704118134 7.4340160686493375 5.1838314012460245 0 0 0
60 20 1 0.5897 9.06499870815996 0.17016175845440173 5.246330410208802 0 0 0
353 118 1 0.5897 7.251936695121975 1.2316515696898922 11.726262764568531 0 0 0
682 228 2 -1.1794 5.771268505939241 2.559824761520046 14.009245517891372 0 0 0
461 154 1 0.5897 5.732547683842213 7.948642833722793 12.852933675016716 0 0 0
685 229 2 -1.1794 9.09762586951022 2.7364058324791265 14.20093739890974 0 0 0
372 124 1 0.5897 7.447771228920754 4.5271498014539135 11.09625844146007 0 0 0
331 111 2 -1.1794 6.110567246606756 4.708325532621061 12.377872775364326 0 0 0
354 118 1 0.5897 6.062119269586682 1.5660361990959675 12.600527306504809 0 0 0
352 118 2 -1.1794 6.343582070428 0.9823170662610707 11.895976679512737 0 0 0
460 154 2 -1.1794 6.002747066071106 7.445922731708552 12.084412941068503 0 0 0
684 228 1 0.5897 5.954977569539745 3.3421800905123455 13.489184608567651 0 0 0
686 229 1 0.5897 8.679176530676623 2.274343710493372 14.927387360467138 0 0 0
791 264 1 0.5897 6.2311013390044065 8.944872582855648 15.10051562703682 0 0 0
386 129 1 0.5897 8.891157790712228 4.606427705755862 13.926201397845338 0 0 0
385 129 2 -1.1794 8.893224360775177 5.525844415476326 14.192505739216717 0 0 0
382 128 2 -1.1794 9.077864570322664 0.9948178944013805 11.83410621322645 0 0 0
490 164 2 -1.1794 8.58438317912798 7.29820258050642 11.651232544380779 0 0 0
383 128 1 0.5897 9.307100003466267 1.5337291190606575 12.591325190796532 0 0 0
794 265 1 0.5897 9.185888251497094 8.38057268749312 13.132266397709516 0 0 0
795 265 1 0.5897 9.150426941013198 9.820689202135103 13.59780462076086 0 0 0
491 164 1 0.5897 8.872536053750187 7.755863100491744 10.861364685588661 0 0 0
790 264 2 -1.1794 5.702874237025043 9.021757462129429 14.3059033148009 0 0 0
387 129 1 0.5897 8.570412014572659 5.99861255481545 13.425340773978013 0 0 0
462 154 1 0.5897 5.312283279855616 7.602405205120296 11.440188160155502 0 0 0
333 111 1 0.5897 5.995353281876962 5.6568635357418255 12.321129600488966 0 0 0
384 128 1 0.5897 9.705428602034965 1.2510051764825552 11.15823313259156 0 0 0
492 164 1 0.5897 7.706820883611909 7.640742232999882 11.820374756976753 0 0 0
793 265 2 -1.1794 9.265299153544882 8.925094294947131 13.915562072564745 0 0 0
332 111 1 0.5897 5.513892285230761 4.354189994727743 11.718462236505607 0 0 0
370 124 2 -1.1794 8.01417171191856 4.272131084845566 10.367934777615872 0 0 0
657 219 1 0.5897 6.466627815033216 4.152668944717546 19.078601442528758 0 0 0
696 232 1 0.5897 7.4707359916638945 4.613127295309768 17.39935042636332 0 0 0
710 237 1 0.5897 9.418650013437396 4.348666144946679 20.770415157144534 0 0 0
708 236 1 0.5897 7.943734499397716 0.6402669739871549 18.5775961736946 0 0 0
677 226 1 0.5897 5.484706158672419 0.5532927590404411 18.10373076995438 0 0 0
655 219 2 -1.1794 5.588444672380521 4.197717311033755 19.456611673826266 0 0 0
706 236 2 -1.1794 8.845907638650367 0.8266558698733918 18.837275458943182 0 0 0
786 262 1 0.5897 6.688984609808091 7.523182800863109 19.275011156950477 0 0 0
825 275 1 0.5897 7.5558647324930535 7.864000374691642 16.302624636333455 0 0 0
784 262 2 -1.1794 5.790690388445207 7.203570580334714 19.35872726125288 0 0 0
694 232 2 -1.1794 7.810974320335284 3.9101447441062094 17.952832083102926 0 0 0
695 232 1 0.5897 7.607418050736195 3.107225881447659 17.473164068972885 0 0 0
38 13 1 0.5897 9.23825012611342 2.095935506185829 20.209738475952932 0 0 -1
702 234 1 0.5897 9.700215618545181 4.217918949298462 17.523621560482255 0 0 0
785 262 1 0.5897 5.882924785392032 6.259878199940977 19.489719320348307 0 0 0
676 226 2 -1.1794 6.0863069841820145 0.19033642176586696 18.75378246547087 0 0 0
689 230 1 0.5897 9.864174684280622 0.9205185000031697 17.47380094203109 0 0 0
815 272 1 0.5897 8.794129731192362 6.638832632977968 19.55257617970971 0 0 0
716 239 1 0.5897 7.314494238898702 0.6477456235073211 16.169019151106248 0 0 0
823 275 2 -1.1794 7.73770223151091 8.7980572343571 16.199146166236766 0 0 0
656 219 1 0.5897 5.002367487817511 4.001514781175634 18.725662657332897 0 0 0
814 272 2 -1.1794 8.685706973941368 7.4459022345839605 19.049405910837024 0 0 0
816 272 1 0.5897 9.020078930007742 8.134044754567514 19.624695704744717 0 0 0
35 12 1 0.5897 5.593281741048023 1.1417387899847091 20.298322157002147 0 0 -1
709 237 2 -1.1794 9.406384215225575 5.305781070187332 20.7669262816734 0 0 0
704 235 1 0.5897 6.462471125350871 6.014275955924668 16.043909455434942 0 0 0
36 12 1 0.5897 5.347484533450826 2.623788948048355 20.48549250587743 0 0 -1
797 266 1 0.5897 9.885619161533798 7.401110141537634 17.726629025382607 0 0 0
715 239 2 -1.1794 7.507678165524369 1.585219057637623 16.16971520245948 0 0 0
703 235 2 -1.1794 7.354013320227651 6.035045262108566 16.391512648275985 0 0 0
144 48 1 0.5897 5.3213066386641215 8.607470821786952 20.606155678137803 0 0 -1
824 275 1 0.5897 8.508796771630486 8.831153161011457 15.63300222184354 0 0 0
705 235 1 0.5897 7.9127690780979005 5.893154891516539 15.627355323129144 0 0 0
717 239 1 0.5897 6.799312233369723 1.9766288011490583 15.658634548918293 0 0 0
285 95 1 0.5897 7.611884255455304 14.797437947950494 2.1094017682152795 0 0 0
276 92 1 0.5897 9.027007741158522 14.475865973880037 4.135711223956317 0 0 0
264 88 1 0.5897 9.049676200850723 17.765011686848858 4.216354810337843 0 0 0
155 52 1 0.5897 7.51874438029229 10.052273659859923 3.764459165737154 0 0 0
254 85 1 0.5897 8.456891330758337 15.85319453783958 0.27846360297535644 0 0 0
154 52 2 -1.1794 7.707325742653177 10.934371741352576 4.084765705689677 0 0 0
163 55 2 -1.1794 7.340378417630306 12.814367434357095 2.0468736513147885 0 0 0
165 55 1 0.5897 6.4870001777647905 12.495672578969195 1.7531137496697888 0 0 0
164 55 1 0.5897 7.57864110794129 12.232130417169145 2.768384423457731 0 0 0
251 84 1 0.5897 5.643395967829593 15.706878797824277 1.2390418864858397 0 0 0
231 77 1 0.5897 5.46495747016776 18.791188534734786 1.1173244142432752 0 0 0
263 88 1 0.5897 7.552654018662372 17.56457095218006 4.317652383356631 0 0 0
284 95 1 0.5897 7.8574305563172535 16.25962042715595 2.415138601306378 0 0 0
275 92 1 0.5897 7.729237636032993 14.103174494918722 4.820249646730889 0 0 0