LAMMPS (30 Jul 2021)
  using 1 OpenMP thread(s) per MPI task
package omp 0
using multi-threaded neighbor list subroutines
echo both

include		in.partitions
variable        pid world 0
include		in.temp
variable        temperature equal 254.51
variable	tempDamp equal 100.0
include		in.pressure
variable        pressure equal 10250.0
variable        pressureDamp equal 1000.0 # This is 1 ps
include		in.seed
variable        seed world 745823

units		real
atom_style	full
read_restart	restart.lmp.${pid}
read_restart	restart.lmp.0
Reading restart file ...
  restart file = 30 Jul 2021, LAMMPS = 30 Jul 2021
  restoring atom style full from restart
  orthogonal box = (0.70193957 1.9183234 0.85636464) to (17.505633 21.710854 21.356831)
  4 by 4 by 4 MPI processor grid
  restoring pair style lj/cut/tip4p/long/omp from restart
  restoring bond style harmonic/omp from restart
  restoring angle style harmonic/omp from restart
  864 atoms
  576 bonds
  288 angles
Finding 1-2 1-3 1-4 neighbors ...
  special bond factors lj:    0        0        0       
  special bond factors coul:  0        0        0       
     2 = max # of 1-2 neighbors
     1 = max # of 1-3 neighbors
     1 = max # of 1-4 neighbors
     2 = max # of special neighbors
  special bonds CPU = 2.030 seconds
  read_restart CPU = 2.339 seconds
include 	in.setup
variable	out_freq equal 1000
variable	out_freq2 equal 10000
variable	out_freq3 equal 1000

timestep	2.0

neigh_modify    delay 7 every 1

include		in.tip4p
# This is TIP4P/Ice

# create groups ###
group ox type 2
288 atoms in group ox
group hy type 1
576 atoms in group hy

# set charges - beside manually ###
set group ox charge -1.1794
Setting atom values ...
  288 settings made for charge
set group hy charge 0.5897
Setting atom values ...
  576 settings made for charge

# ### TIP3P Potential Parameters ###
pair_style lj/cut/tip4p/long/omp 2 1 1 1 0.1577 8.5
pair_coeff 1 1*2 0.000 0.000
pair_coeff 2 2 0.21084 3.1668
bond_style  harmonic
bond_coeff  1 450 0.9572
angle_style harmonic
angle_coeff 1 55 104.52
kspace_style pppm/tip4p/omp 1.0e-5
pair_modify tail yes

thermo          ${out_freq}
thermo          1000
thermo_style    custom step temp pe etotal epair emol press lx ly lz vol pxx pyy pzz pxy pxz pyz enthalpy

restart 	${out_freq3} restart.lmp.${pid} restart2.lmp.${pid}
restart 	1000 restart.lmp.${pid} restart2.lmp.${pid}
restart 	1000 restart.lmp.0 restart2.lmp.${pid}
restart 	1000 restart.lmp.0 restart2.lmp.0


include         in.dump
dump            myDump all atom ${out_freq2} dump.water.${pid}
dump            myDump all atom 10000 dump.water.${pid}
dump            myDump all atom 10000 dump.water.0
dump            myDump2 all dcd ${out_freq2} dump.dcd
dump            myDump2 all dcd 10000 dump.dcd
dump_modify     myDump append yes
dump_modify     myDump2 append yes


variable natoms 	equal  "count(all)"                        # NUMBER ATOMS
variable H      	equal  "enthalpy/v_natoms"                 # ENTHALPY-per-atom
variable Vol      	equal  "vol/v_natoms"                 # volume-per-atom
fix AVG all 		ave/time ${out_freq} 1 ${out_freq} v_Vol v_H file vol_enthalpy.dat
fix AVG all 		ave/time 1000 1 ${out_freq} v_Vol v_H file vol_enthalpy.dat
fix AVG all 		ave/time 1000 1 1000 v_Vol v_H file vol_enthalpy.dat


timer           timeout 23:50:00 every 1000
New timer settings: style=normal  mode=nosync  timeout=23:50:00

fix 		1 all shake 1e-6 200 0 b 1 a 1
       0 = # of size 2 clusters
       0 = # of size 3 clusters
       0 = # of size 4 clusters
     288 = # of frozen angles
  find clusters CPU = 0.411 seconds
fix             2 all nph iso ${pressure} ${pressure} ${pressureDamp}
fix             2 all nph iso 10250 ${pressure} ${pressureDamp}
fix             2 all nph iso 10250 10250 ${pressureDamp}
fix             2 all nph iso 10250 10250 1000
fix             3 all temp/csvr ${temperature} ${temperature} ${tempDamp} ${seed}
fix             3 all temp/csvr 254.51 ${temperature} ${tempDamp} ${seed}
fix             3 all temp/csvr 254.51 254.51 ${tempDamp} ${seed}
fix             3 all temp/csvr 254.51 254.51 100 ${seed}
fix             3 all temp/csvr 254.51 254.51 100 745823

run             250000
PPPM initialization ...
  extracting TIP4P info from pair style
  using 12-bit tables for long-range coulomb (../kspace.cpp:340)
  G vector (1/distance) = 0.37509634
  grid = 24 24 24
  stencil order = 5
  estimated absolute RMS force accuracy = 0.0030670584
  estimated relative force accuracy = 9.2363552e-06
  using double precision FFTW3
  3d grid and FFT values/proc = 2535 216
Last active /omp style is kspace_style pppm/tip4p/omp
Neighbor list info ...
  update every 1 steps, delay 7 steps, check yes
  max neighbors/atom: 2000, page size: 100000
  master list distance cutoff = 10.8154
  ghost atom cutoff = 10.8154
  binsize = 5.4077, bins = 4 4 4
  1 neighbor lists, perpetual/occasional/extra = 1 0 0
  (1) pair lj/cut/tip4p/long/omp, perpetual
      attributes: half, newton on, omp
      pair build: half/bin/newton/omp
      stencil: half/bin/3d
      bin: standard
Per MPI rank memory allocation (min/avg/max) = 9.237 | 9.241 | 9.245 Mbytes
Step Temp PotEng TotEng E_pair E_mol Press Lx Ly Lz Volume Pxx Pyy Pzz Pxy Pxz Pyz Enthalpy 
25000000    252.69027   -3847.7986   -3414.6961   -3847.7986            0    10009.863    16.803693    19.792531    20.500467    6818.2014    9361.4838    10487.492    10180.613   -1521.2623    35.294771    1298.0427   -2419.3506 
25001000    262.04906   -3902.1445   -3453.0014   -3902.1445            0    10234.331    16.796617    19.784196    20.491834    6809.5914    11550.704    9347.8789    9804.4101     193.9806    -631.7128   -687.39185   -2436.6207 
25002000    254.55786   -3904.3515   -3468.0481   -3904.3515            0    8662.5501    16.875117    19.876659    20.587604    6905.5136    9375.9774    6713.0275    9898.6453   -1403.5233     684.4052    2000.0779   -2595.6441 
25003000    249.09275   -3892.8028   -3465.8664   -3892.8028            0    9120.5484    16.850397    19.847541    20.557444      6875.21    7127.2473    11143.513    9090.8848    396.74156   -1107.7309    224.48805   -2551.3683 
25004000    247.94972   -3950.6409   -3525.6636   -3950.6409            0    9296.0011    16.833622    19.827783     20.53698    6854.6977    9557.8995    8517.6032    9812.5008   -1374.4387   -751.23388   -197.61719   -2596.3541 
25005000    263.69139   -3912.0838   -3460.1258   -3912.0838            0      8920.91    16.830677    19.824314    20.533387    6851.1007    8433.1584    9255.5553    9074.0162    325.24799   -1015.6934   -420.97289   -2568.7817 
25006000     254.8674   -3896.6708   -3459.8368   -3896.6708            0    11940.826    16.760869     19.74209    20.448221    6766.2056    10038.572    12976.732    12807.176    6.3454143   -895.68985    1302.9425   -2281.5379 
25007000    260.33407   -3904.6236   -3458.4199   -3904.6236            0    10035.677    16.826023    19.818833    20.527709    6845.4188     12087.34    10358.729    7660.9614   -320.78971    -814.2281   -197.96118    -2456.524 
25008000    266.48273   -3897.6546   -3440.9123   -3897.6546            0    8343.1023    16.865321     19.86512    20.575652    6893.4939    9567.7272     8104.818    7356.7618    154.54167   -401.87222    125.99545   -2602.1423 
25009000    268.51203   -3890.0466   -3429.8262   -3890.0466            0    10322.766    16.887557    19.891312     20.60278    6920.7967    9500.8626    10614.961    10852.474   -612.45903   -445.47937   -943.84737   -2387.9213 
25010000    246.13171   -3879.8443    -3457.983   -3879.8443            0    9881.9604    16.868574    19.868953    20.579621    6897.4845    9609.7302    9643.5044    10392.647   -1100.7166   -366.10813    611.07073   -2463.9295 
25011000    255.71107   -3881.2467   -3442.9667   -3881.2467            0    11480.437    16.783388    19.768614    20.475694    6793.5137    12861.319     11035.02    10544.974    -912.1872   -668.49172    1152.4305   -2305.5259 
25012000    275.95606   -3885.3004   -3412.3212   -3885.3004            0    10084.576    16.854821    19.852753    20.562842    6880.6274    10721.643    10087.035    9445.0497    929.92659    275.22096   -729.54221   -2400.3653 
25013000    246.99219   -3888.6578   -3465.3216   -3888.6578            0    10192.275    16.933323    19.945217    20.658614    6977.2154    12037.165    8180.0374    10359.623   -98.974356    790.71379    118.90944   -2428.2013 
25014000    239.00388   -3904.5652   -3494.9207   -3904.5652            0    9665.1043    16.823212    19.815522     20.52428    6841.9889    9780.5556    8596.4595    10618.298    629.44476    1588.3521    188.58196   -2530.5038 
25015000    241.45558   -3890.5218   -3476.6752   -3890.5218            0    8203.2633    16.914437    19.922972    20.635573    6953.8963    7605.4037    7919.0133    9085.3728   -881.25543   -91.199837     665.2568   -2644.7376 
25016000     264.0471   -3908.9764   -3456.4087   -3908.9764            0    9677.0512    16.835771    19.830314    20.539601    6857.3227    9960.6406    9417.0675    9653.4457    193.61623   -29.001771    -1601.755   -2488.6357 
25017000    259.31298   -3902.5224   -3458.0689   -3902.5224            0    10996.829     16.77279    19.756131    20.462765    6780.6531    11341.427    9747.4391     11901.62   -795.28994   -152.03213    343.95546   -2370.6049 
25018000    246.85416   -3930.2904   -3507.1908   -3930.2904            0    11319.177    16.752976    19.732793    20.438591    6756.6507    11241.663    9957.6176    12758.251     174.5902   -158.75945   -1401.7225   -2391.8125 
25019000      259.857   -3920.7013   -3475.3153   -3920.7013            0    12084.867    16.807505     19.79702    20.505117     6822.842    10108.221    15094.868    11051.512   -764.78358    384.99548   -1263.2945   -2272.8209 
25020000     235.1757   -3911.9669   -3508.8838   -3911.9669            0    8991.0176    16.863942    19.863497     20.57397     6891.804    7719.8843    9603.6799    9649.4885   -1593.3927    272.99474   -1208.3997   -2605.1976 
25021000    243.15343    -3887.499   -3470.7423    -3887.499            0    10225.088    16.784626    19.770072    20.477204    6795.0174    10700.984    9528.6715    10445.608    2034.0561    -1357.969   -1620.0769   -2457.4529 
25022000    267.12937   -3892.6533   -3434.8027   -3892.6533            0     10520.78    16.789403    19.775699    20.483033    6800.8215    10961.719     10743.16    9857.4613    252.99501      285.266    1496.8254   -2391.3201 
25023000    244.85975   -3909.0425   -3489.3612   -3909.0425            0    11962.143    16.781211     19.76605    20.473039    6790.8716    12259.039    12080.041     11547.35   -1614.2144    -2201.524   -492.84152   -2304.6557 
25024000    269.19617     -3877.22    -3415.827     -3877.22            0    9809.6064    16.852396    19.849897    20.559884     6877.658    11373.143    9681.5376     8374.139    1201.4212    1768.2753    1045.2878   -2431.8883 
25025000    249.83814    -3909.035    -3480.821    -3909.035            0    7407.2272    16.826717     19.81965    20.528556     6846.266    7580.3509    7145.3651    7495.9655    3107.8354    2177.7992    550.63736   -2741.2407 
25026000     270.9386   -3904.5977   -3440.2182   -3904.5977            0    9457.2807     16.79773    19.785507    20.493191    6810.9451    9479.4579    9110.2237    9782.1606    480.48684    -1068.188   -316.01328   -2500.8204 
25027000    255.50704   -3881.5509   -3443.6206   -3881.5509            0    12121.938    16.757316    19.737904    20.443886    6761.9031    12499.895    11718.863    12147.057    92.784534    -366.2501    1155.6966   -2248.2106 
25028000    253.66934    -3925.371   -3490.5905    -3925.371            0    10435.185    16.814344    19.805076     20.51346    6831.1745    11023.709    9863.4808    10418.366    657.08827    1248.0301    -487.1941   -2450.9781 
25029000    248.57273   -3934.2096   -3508.1644   -3934.2096            0    10124.405    16.788896    19.775102    20.482414    6800.2049    8116.2947    9865.0178    12391.904    -577.7209     24.03463    1772.1826   -2504.0865 
25030000    257.95867   -3896.5082   -3454.3759   -3896.5082            0    12142.922    16.784368    19.769768     20.47689    6794.7043    12409.701    10236.089    13782.974    923.20636   -160.66605    995.39114   -2251.0878 
25031000    268.82672   -3904.8576   -3444.0978   -3904.8576            0    10771.163    16.829876    19.823371    20.532409    6850.1224     12588.11    12272.015    7453.3642   -1175.2872    1247.5074   -601.35822    -2368.037 
25032000    260.44641   -3901.1975   -3454.8013   -3901.1975            0    10910.797    16.818097    19.809497    20.518039    6835.7497    10851.641    11436.633    10444.117    383.72569    1260.0109    1599.5017   -2367.0778 
25033000    261.47126   -3911.2294   -3463.0766   -3911.2294            0    10653.824    16.826201    19.819042    20.527925    6845.6356    9253.1589    13293.318    9414.9936    596.09401    369.83789    1594.2599   -2399.4354 
25034000    248.21518   -3896.4089   -3470.9766   -3896.4089            0    9815.2703    16.794352    19.781528     20.48907    6806.8369    9024.5436    9071.5615    11349.706    20.949063    -343.7721    276.53295   -2496.6075 
25035000    244.27621   -3900.1961    -3481.515   -3900.1961            0    11866.912    16.788255    19.774347    20.481632    6799.4267    12659.645    11760.752     11180.34    197.50174    293.12602    953.22441   -2304.7604 
25036000    250.62283   -3898.1691   -3468.6101   -3898.1691            0    11299.377    16.788494    19.774628    20.481923    6799.7165    12957.054    9055.7455    11885.332    1791.8297    422.81781    794.50573    -2348.086 
25037000    256.95882   -3898.9721   -3458.5535   -3898.9721            0    8990.3482    16.877024    19.878905    20.589929    6907.8543    8241.3001    9238.3771    9491.3675    217.57499    -302.5517    1225.7107   -2552.8301 
25038000    255.63085   -3923.0346   -3484.8921   -3923.0346            0    7626.5637    16.918962    19.928303    20.641094    6959.4793    6675.2112    8441.4745    7763.0054   -857.87572   -6.9776973    734.57085   -2710.8198 
25039000    260.48602   -3915.1078   -3468.6437   -3915.1078            0    8129.2868    16.877131    19.879031     20.59006    6907.9859    8283.0636    8156.3125    7948.4842    228.54767   -65.761803   -395.90456   -2649.6515 
25040000    250.45377   -3879.2331   -3449.9639   -3879.2331            0    12173.694    16.814162    19.804862    20.513239    6830.9529     12976.93    12544.612    10999.539    342.85343   -1123.0134   -638.62418   -2237.1908 
25041000    240.55414   -3876.6913   -3464.3897   -3876.6913            0    10459.086    16.887158    19.890842    20.602294    6920.3064     10133.66    11841.987    9401.6094    2677.1406   -95.813135   -1696.7241   -2408.8005 
25042000    259.30552   -3921.6186   -3477.1778   -3921.6186            0    9530.7345    16.847906    19.844608    20.554406    6872.1616    9519.9642    10056.488    9015.7512    314.06303      295.896    1405.5304   -2521.9749 
25043000     259.8029   -3902.1255   -3456.8322   -3902.1255            0    10099.669    16.816403    19.807501    20.515972    6833.6843    10073.096    11072.262    9153.6499   -180.73045    112.12033   -1069.7185   -2450.2762 
25044000    265.79654   -3917.8588   -3462.2926   -3917.8588            0    11088.909    16.773787    19.757305    20.463981     6781.862    10374.474    11522.052    11370.201    -269.5633    1328.3275    387.83651   -2365.5274 
25045000    242.49428   -3947.8538   -3532.2269   -3947.8538            0    12101.535    16.841477    19.837035    20.546562    6864.2973    12833.255    12786.121    10685.228   -633.42955   -1283.0649   -222.18939   -2320.7575 
25046000    263.74525   -3932.6719   -3480.6216   -3932.6719            0    10161.108    16.875142    19.876688    20.587634    6905.5443    10832.422    11059.323    8591.5783   -521.76029    106.06158    1457.4706   -2457.2936 
25047000     255.8635   -3941.9917   -3503.4504   -3941.9917            0    11185.157    16.828382    19.821611    20.530587    6848.2985    11946.241    10287.273    11321.957   -2029.3332   -626.33017    816.05992   -2386.3283 
25048000    255.94048   -3915.0848   -3476.4116   -3915.0848            0    11358.481    16.780781    19.765543    20.472513    6790.3489    11778.697     11599.86    10696.885   -416.33439    331.91091     883.3557   -2351.5781 
25049000    254.63083    -3908.322   -3471.8935    -3908.322            0    11538.688    16.825934    19.818727      20.5276    6845.3099    11379.015    11437.002    11800.047   -935.17093     270.4203    854.66741   -2319.9652 
25050000    249.20205   -3924.5997    -3497.476   -3924.5997            0    11186.396     16.78358     19.76884    20.475928     6793.747    10373.344    11000.035     12185.81    1355.5319    1444.1016    813.83309   -2389.1297 
25051000    263.75173   -3925.7629   -3473.7015   -3925.7629            0     9059.087    16.877386    19.879331    20.590371    6908.2989    11169.865    6823.2983    9184.0979    1106.9911   -1236.8657    952.85801   -2560.9943 
25052000    263.42466   -3934.6122   -3483.1114   -3934.6122            0    10677.102    16.783947    19.769272    20.476376    6794.1925    10325.608    8727.0152    12978.683    519.19471   -311.29124    656.33722   -2425.1565 
25053000     242.9702   -3923.5609   -3507.1183   -3923.5609            0    10336.018     16.81066    19.800737    20.508966    6826.6855    10247.177    9929.9988    10830.879    132.64266   -499.38892    594.05677   -2478.0622 
25054000    255.00972   -3918.3302   -3481.2522   -3918.3302            0     9865.689    16.840089      19.8354    20.544869    6862.6007    7694.5205    10108.703    11793.843    30.046346   -347.64742    68.005368   -2493.8547 
25055000    250.33935   -3915.8566   -3486.7836   -3915.8566            0    11589.581    16.811072    19.801222    20.509468     6827.187     11284.95    12938.299    10545.494    592.79722   -1021.6723    245.68144   -2332.8377 
25056000     265.6585   -3902.7114   -3447.3818   -3902.7114            0    8725.3468    16.850956      19.8482    20.558127    6875.8944    8700.1109    7928.8149    9547.1145   -350.67267   -894.48441    360.57676   -2572.4226 
25057000    255.14379   -3910.3877   -3473.0799   -3910.3877            0     10050.82    16.824162     19.81664    20.525438    6843.1475    9947.3103    10837.001      9368.15     723.9444   -437.73153   -252.96263   -2470.0052 
25058000    256.96878   -3883.4212   -3442.9855   -3883.4212            0    9007.7454    16.794698    19.781936    20.489493    6807.2581    6953.0885    12027.583     8042.565   -755.32021    -509.9183   -1074.9502   -2548.7246 
25059000    252.90114   -3877.7268   -3444.2629   -3877.7268            0    9350.0372    16.863579    19.863069    20.573527     6891.359    8033.3946    9883.2686    10133.449    952.20335    117.30304   -1773.5044   -2504.5524 
25060000    247.11609   -3911.5349   -3487.9863   -3911.5349            0    10832.393    16.809363     19.79921    20.507384    6825.1057    10242.019    10043.811     12211.35   -1334.6337    1056.6048    1634.9248   -2409.7606 
25061000    250.31235   -3876.0231   -3446.9963   -3876.0231            0    10907.292    16.799414     19.78749    20.495245    6812.9933    12254.388    8102.1833    12365.306   -195.61899   -1728.7398   -708.01615    -2363.242 
25062000     253.7601   -3865.0459   -3430.1098   -3865.0459            0    11001.462    16.798719    19.786671    20.494397    6812.1476    13112.509    10488.038    9403.8398    418.66898   -1039.1877    804.89166   -2337.1344 
25063000    259.71951    -3875.687   -3430.5367    -3875.687            0    9960.0677    16.851788     19.84918    20.559142    6876.9134    12229.066    9141.6702    8509.4669     239.5485    685.81139   -446.98918   -2431.6143 
25064000    261.48894   -3916.2876   -3468.1045   -3916.2876            0    9425.9137     16.86006    19.858923    20.569234     6887.045    10584.595    9155.6284     8537.518   -489.62445    453.74472    1334.6956   -2521.3611 
25065000    236.95567   -3903.5075   -3497.3736   -3903.5075            0    9507.3023    16.870054    19.870695    20.581427    6899.2998    8658.2618    9444.3952     10419.25    308.19207   -158.89955   -1733.3215   -2540.7563 
25066000    272.43728   -3902.1272    -3435.179   -3902.1272            0    9059.2834    16.840411    19.835779    20.545262    6862.9942    9075.8692    9880.6349    8221.3461   -2933.2986    -696.9079   -880.39172   -2528.4377 
25067000    247.18744    -3912.948   -3489.2772    -3912.948            0    10481.884    16.816669    19.807815    20.516297     6834.009    7988.5208    12410.625    11046.506    629.56147   -595.13538   -563.93143   -2444.5791 
25068000    256.48367   -3899.3468   -3459.7426   -3899.3468            0    10125.948    16.855649    19.853728    20.563853    6881.6414    9778.0708    9170.2255    11429.549    1254.7858    1347.4356    392.46681   -2443.4854 
25069000    248.13819   -3929.1224    -3503.822   -3929.1224            0    8660.6019    16.856143     19.85431    20.564455    6882.2466    7370.0827    9369.9883    9241.7347   -105.71729   -323.82909   -2063.2685    -2634.553 
25070000    256.21258   -3893.6071   -3454.4675   -3893.6071            0    10773.085    16.884927    19.888214    20.599572    6917.5635    9088.8504    11759.609    11470.797   -274.46123    238.32939   -270.42717   -2367.6187 
25071000     239.6558   -3876.5288   -3465.7669   -3876.5288            0    9087.0443    16.917073    19.926077     20.63879    6957.1482    9280.7014    7868.6298    10111.802   -1208.1272    1770.4885    -39.26013   -2543.7693 
25072000    264.52196   -3865.0686    -3411.687   -3865.0686            0    10201.721    16.882625    19.885502    20.596763    6914.7347    9862.4924    12050.738    8691.9325    794.63892   -300.94556    952.20443   -2382.9014 
25073000    245.59719   -3909.1577   -3488.2125   -3909.1577            0    11460.382    16.803138    19.791878     20.49979    6817.5261    13765.283    10662.091    9953.7725   -632.21078    446.72027    237.72862   -2348.7454 
25074000    254.75562   -3917.7579   -3481.1155   -3917.7579            0    11153.644    16.831348    19.825104    20.534205    6851.9195    11305.968    11564.748    10590.216   -421.70327    5.0415764   -477.99872   -2366.5517 
25075000    244.53258   -3891.1802   -3472.0597   -3891.1802            0     10708.73    16.840518    19.835905    20.545392     6863.125    11328.615    10984.715    9812.8599   -1067.4322   -1379.1581    761.42223   -2400.2054 
25076000    244.34916   -3895.9676   -3477.1615   -3895.9676            0    10602.217    16.846085    19.842463    20.552184    6869.9338    10582.877    11025.724    10198.051   -228.88924    784.76501    1952.5944   -2414.9155 
25077000    253.46814   -3932.5764   -3498.1407   -3932.5764            0    10567.424       16.832    19.825872       20.535    6852.7161    10035.864    10627.075    11039.333   -272.11965    806.80616   -167.11055   -2442.0341 
25078000    271.55609   -3906.5979     -3441.16   -3906.5979            0    9652.8192    16.887823    19.891624    20.603104    6921.1229    10092.388    8982.6948    9883.3754   -109.18655    1988.3493    339.84576   -2466.8288 
25079000    257.25783   -3919.4728   -3478.5417   -3919.4728            0    9389.2005    16.878578    19.880735    20.591825    6909.7627    11791.048    8289.2042    8087.3496   -824.35849   -599.39803   -778.92089   -2532.3751 
25080000    267.99923   -3872.3776    -3413.036   -3872.3776            0    10642.884    16.873252    19.874462    20.585328    6903.2239    9215.5612    10956.056    11757.035    993.94987    1209.9978    967.84428   -2341.5484 
25081000    250.85968   -3897.1945   -3467.2296   -3897.1945            0     11183.56     16.87337    19.874601    20.585472    6903.3692    10592.629    11682.353    11275.698   -2199.8035   -1217.3251    826.81472   -2341.2848 
25082000    251.64138   -3921.5496   -3490.2449   -3921.5496            0    10140.101    16.823429    19.815777    20.524544    6842.2531    10441.918    9665.6914    10312.693   -165.04066    465.91678   -372.19953   -2478.3922 
25083000     248.7693   -3924.5743   -3498.1922   -3924.5743            0    8190.7501    16.909236    19.916846    20.629228    6947.4832     7195.766    9247.2197    8129.2646    288.33656    709.34809    902.16448   -2668.2897 
25084000    263.93744   -3863.0185   -3410.6387   -3863.0185            0    11338.072    16.824025    19.816479    20.525271    6842.9807    11689.948    12537.366    9786.9025   -716.09313    447.89572   -347.58193   -2279.1235 
25085000    255.63686   -3908.6073   -3470.4545   -3908.6073            0    8315.4907    16.865601     19.86545    20.575994    6893.8379    8457.1535    7867.9043    8621.4143    418.92987    1775.4145    -1363.909   -2634.4188 
25086000    248.30586   -3888.5646   -3462.9769   -3888.5646            0    9570.9913    16.827267    19.820298    20.529227    6846.9376    9468.7537    9806.4882     9437.732    -1286.515    25.585839   -455.95579   -2507.2602 
25087000    246.42096   -3879.3663   -3457.0092   -3879.3663            0    12194.474     16.80823    19.797875    20.506002    6823.7256    11385.238     11833.51    13364.673    1187.5837   -3071.4414   -834.50383   -2243.4513 
25088000    267.69155   -3888.9888   -3430.1746   -3888.9888            0    9463.4777    16.862303    19.861566     20.57197    6889.7943    10705.248    10172.812    7512.3733    -278.1292   -40.175032    38.861639   -2479.2789 
25089000    241.36803   -3910.1076    -3496.411   -3910.1076            0    9849.7677    16.829282    19.822671    20.531685    6849.3973    10004.221     11784.97    7760.1121   -139.49049   -1072.4666    405.65346   -2512.5036 
25090000    262.49475   -3913.3548   -3463.4478   -3913.3548            0    10121.521    16.761096    19.742357    20.448498    6766.4805    9515.0124    8699.4341    12150.116    36.424225   -564.36484    -237.8365   -2464.6341 
25091000    242.61992   -3921.0128   -3505.1706   -3921.0128            0    8660.1873    16.845736    19.842052    20.551759    6869.5074    8631.8373    8763.6226     8585.102    157.67138    565.68841    1720.2814   -2637.5521 
25092000    265.56127   -3906.0485   -3450.8856   -3906.0485            0      9525.25    16.817987    19.809367    20.517905    6835.6158    9500.5836    9046.2446    10028.922    281.39859   -1290.5127    1046.2013   -2501.3092 
25093000    246.09163   -3905.1778   -3483.3852   -3905.1778            0    11404.122    16.804442    19.793413     20.50138     6819.113    11450.109    10494.689    12267.569   -1108.0095   -1746.1964   -683.20679   -2349.2478 
25094000    252.79247   -3910.6017   -3477.3241   -3910.6017            0    12158.073    16.814082    19.804767     20.51314    6830.8548    10281.152    12940.105    13252.962    980.13739   -419.60528    -1204.878   -2266.1246 
25095000    250.77261   -3928.4396   -3498.6239   -3928.4396            0    10387.251    16.793593    19.780634    20.488144    6805.9138     9236.378    11857.576      10067.8    1272.0641    1438.0751     262.8719   -2467.6137 
25096000    265.88419   -3907.3473   -3451.6309   -3907.3473            0    9788.3914    16.804314    19.793262    20.501223    6818.9565    10384.096     9427.562     9553.516     864.0707    1263.6823    469.84034      -2478.2 
25097000     262.4251   -3924.6353   -3474.8476   -3924.6353            0    11109.733    16.830385    19.823971    20.533031    6850.7445    14136.619    9840.2174    9352.3633    931.70955     536.0871   -1862.6082   -2364.8622 
25098000    240.05085   -3921.0584   -3509.6194   -3921.0584            0    10660.567    16.840056    19.835362     20.54483     6862.561    12055.659    10015.058    9910.9841    3627.2354    1325.3729    515.57237   -2442.6735 
25099000    258.99715   -3918.1705   -3474.2582   -3918.1705            0    9270.3702    16.877561    19.879537    20.590585    6908.5139    11769.047    7533.1429    8508.9209    1646.9661    730.83128   -1038.9612   -2540.2352 
25100000    250.65143   -3922.9268   -3493.3188   -3922.9268            0    11525.712    16.847356     19.84396    20.553735    6871.4889    11773.078     11137.28    11666.779    196.08242    259.62429    631.28247   -2338.2855 
25101000    256.58226    -3937.097   -3497.3237    -3937.097            0    11966.146    16.844309    19.840371    20.550018    6867.7611    11496.769    12221.306    12180.363     1195.553    922.13092   -527.91332   -2298.8035 
25102000     260.8871   -3886.3072   -3439.1556   -3886.3072            0     10815.93    16.833738    19.827919     20.53712    6854.8388     9635.677    11783.105     11029.01    235.74917    345.60378    255.77248   -2357.8785 
25103000    246.34757   -3877.1543    -3454.923   -3877.1543            0     11972.42    16.872533    19.873615     20.58445    6902.3411    10952.265    11762.255    13202.739   -431.76397   -736.67566   -1506.7127   -2249.7366 
25104000    250.27164   -3898.8094   -3469.8523   -3898.8094            0    9799.9163    16.861118     19.86017    20.570525    6888.3422    9385.2087    10781.787    9232.7536    249.22984    186.93114   -1163.4387   -2485.3586 
25105000     254.9799   -3876.9262   -3439.8994   -3876.9262            0    10395.368    16.825861    19.818641    20.527511    6845.2207    10417.426    9411.8573    11356.822   -89.933314   -777.39824   -921.34321   -2402.1243 
25106000     237.3461   -3880.7585   -3473.9554   -3880.7585            0    9900.1759    16.802931    19.791634    20.499537    6817.2739    8320.7151    11038.439    10341.373    912.20711   -559.48647   -12.240852   -2489.6507 
25107000    244.61933   -3876.2221   -3456.9529   -3876.2221            0    9598.1477    16.843724    19.839682    20.549303    6867.0453     9041.123    9783.6132     9969.707    1737.2189    1000.6255   -1384.3442   -2495.7098 
25108000    249.94482   -3856.2615   -3427.8646   -3856.2615            0    10312.271    16.840736    19.836163    20.545659    6863.3921    9775.8747    11732.962    9427.9764    2230.6316    81.513011   -198.68242   -2395.6524 
25109000    252.00206   -3892.1245   -3460.2016   -3892.1245            0      9524.12    16.870052    19.870693    20.581424    6899.2973    9263.1752    9526.5032    9782.6815   -294.54344    710.84885     130.7366   -2501.8925 
25110000    257.27816   -3883.4283   -3442.4623   -3883.4283            0    10226.923    16.852049    19.849487     20.55946    6877.2326    9446.1426    11389.131    9845.4943   -4.0856599    1148.4659    401.94936   -2416.7287 
25111000    261.04457   -3888.5369   -3441.1155   -3888.5369            0    11278.743    16.826128    19.818956    20.527837    6845.5469    10778.259    11259.234    11798.737    330.69986   -151.56387    23.262914    -2315.099 
25112000    234.03947   -3848.9696   -3447.8339   -3848.9696            0    9777.4146    16.873132     19.87432    20.585181    6903.0765    9700.4727    11087.312    8544.4588    1378.5492     476.2149    348.14259   -2463.4997 
25113000    249.01695   -3894.8152   -3468.0087   -3894.8152            0    8910.4696    16.887471     19.89121    20.602675    6920.6903    7910.9146    9858.9107    8961.5834   -901.92788    166.58612    1320.0024   -2568.6646 
25114000    269.04334   -3862.2451    -3401.114   -3862.2451            0    10567.142    16.828093    19.821271    20.530234    6847.9456    11528.714    9496.8318    10675.881   -25.213002   -122.94247    520.70568   -2345.7707 
25115000    260.57211   -3870.4131   -3423.8014   -3870.4131            0    9956.9866     16.86737    19.867533    20.578152    6896.0068    9320.1142    12323.235    8227.6111    405.16275   -709.74263   -819.40212   -2422.4155 
25116000    251.30311   -3925.8696   -3495.1446   -3925.8696            0    11133.699    16.857199    19.855553    20.565743    6883.5392    10845.774    12039.902    10515.422   -56.137923    657.40007     622.4328   -2377.4397 
25117000    252.36142   -3939.3376   -3506.7988   -3939.3376            0    10526.218    16.846019    19.842386    20.552104    6869.8534    9235.4131    10465.589    11877.653    286.99717     450.1313   -287.29609   -2452.1795 
25118000    262.23774   -3945.2308   -3495.7643   -3945.2308            0     10669.87    16.843139    19.838993    20.548591    6866.3306    10490.012    10434.762    11084.835    859.11039   -1187.0023   -82.929004   -2427.3007 
25119000    253.25631   -3904.8715   -3470.7988   -3904.8715            0    11020.827    16.858064    19.856573    20.566799    6884.5996    11613.237    10909.293    10539.952    191.69968    1413.6533   -2192.9718   -2364.2546 
25120000    253.00535   -3916.3536   -3482.7111   -3916.3536            0     10950.04    16.804269    19.793209    20.501168    6818.9018     10359.81    11069.926    11420.384   -579.21962   -424.77407     106.5013   -2393.7659 
25121000    250.53117   -3917.8659    -3488.464   -3917.8659            0    10443.562    16.848814    19.845678    20.555514    6873.2734    9887.4256    9800.6937    11642.568    1536.4188    -341.9658   -738.48186   -2441.6051 
25122000    264.57845   -3879.9761   -3426.4977   -3879.9761            0    8867.0947      16.8902    19.894424    20.606004    6924.0462     11970.72     7946.603    6683.9608    650.06417    14.506466    84.812455   -2531.0974 
25123000    238.74409   -3900.9575   -3491.7583   -3900.9575            0    10862.054    16.835163    19.829598     20.53886    6856.5805    12543.874    10655.986     9386.302   -947.80785    1584.6729    762.81002   -2405.5942 
25124000    269.55864   -3887.3463    -3425.332   -3887.3463            0    11384.841    16.812192    19.802541    20.510835    6828.5515    12012.238    12233.941    9908.3438   -393.10757     1508.108   -657.11641   -2291.5451 
25125000    274.65919   -3900.7573   -3430.0008   -3900.7573            0    9597.4985    16.871545    19.872452    20.583246    6901.1295    11347.099    7496.9024     9948.494    370.36766    516.06225    2460.9226    -2464.052 
25126000    259.84066   -3903.3501   -3457.9921   -3903.3501            0    9579.0496    16.856387    19.854597    20.564752    6882.5446    9629.5496    10780.543    8327.0563   -534.56106     515.8489    792.40458   -2496.4964 
25127000    259.82455   -3898.1459   -3452.8155   -3898.1459            0    10964.569    16.812925    19.803405     20.51173    6829.4455    10894.178    12681.608    9317.9202     2032.167    583.28529   -848.04234   -2360.7395 
25128000    263.35661   -3891.2875   -3439.9033   -3891.2875            0    11653.558    16.791914    19.778656    20.486096    6803.8726     11226.94    11629.785     12103.95   -1488.4575    -211.6987    1520.4062   -2283.5498 
25129000    263.97082   -3892.8686   -3440.4316   -3892.8686            0     9059.874    16.833538    19.827684    20.536877    6854.5953    9031.6485    9990.0835      8157.89   -1791.8993   -1826.0677   -1179.9293    -2534.741 
25130000    256.12931   -3927.4466   -3488.4497   -3927.4466            0    8997.1158    16.854517    19.852395    20.562472    6880.2553    9589.4561    9287.0011    8114.8903    787.06091    1686.3512   -806.72126   -2585.6659 
25131000    249.89716    -3901.698   -3473.3828    -3901.698            0    10822.013     16.76503    19.746991    20.453298    6771.2465    10897.759    10227.285    11340.996    1056.0645   -1030.7351   -811.03711   -2404.6907 
25132000    263.26133   -3877.5274   -3426.3065   -3877.5274            0    11525.455    16.810959    19.801089     20.50933    6827.0492    10166.047    11596.599    12813.718   -1683.2337    65.411603    646.76834   -2278.7687 
25133000    248.74297   -3896.0019    -3469.665   -3896.0019            0    11213.482    16.781507    19.766398    20.473399    6791.2301    10422.751    12793.029    10424.667    733.78233    171.54002   -897.54567   -2359.0467 
25134000    241.62091    -3905.416    -3491.286    -3905.416            0    9553.4457    16.842959    19.838781    20.548371    6866.1107    8721.8648    8415.3085    11523.164   -142.88293    364.11083   -50.253534     -2534.65 
25135000    239.38617   -3927.5831   -3517.2834   -3927.5831            0    8580.4104    16.842921    19.838736    20.548324    6866.0635    8923.2951    9269.6259    7548.3103   -920.14614    318.05646    489.65171   -2658.0883 
25136000    252.87754   -3907.3865   -3473.9631   -3907.3865            0    10566.175    16.807573    19.797101      20.5052    6822.9254    9517.4337    9555.0593    12626.031   -1872.0422   -441.15331    1756.6789   -2422.5719 
25137000    256.94373   -3924.5533   -3484.1606   -3924.5533            0    11027.023     16.81018    19.800171     20.50838    6826.1004    12118.346    9317.3312     11645.39     1358.159    2356.0638    681.10931    -2386.402 
25138000    247.43352   -3907.5399   -3483.4473   -3907.5399            0    9653.8071     16.81826    19.809689    20.518238    6835.9483     11354.54    8537.6969    9069.1845   -39.186142    648.19012   -1090.5679   -2521.0082 
25139000    239.78905   -3938.4527   -3527.4625   -3938.4527            0    11198.745    16.817422    19.808702    20.517216    6834.9269    10653.219    12081.433    10861.581   -895.33772   -4.6730438    960.13066   -2411.1672 
25140000    237.87298   -3900.8552    -3493.149   -3900.8552            0    9727.1901    16.825182    19.817842    20.526683    6844.3926    11238.887    9690.6478    8252.0358    1140.4727   -30.405664   -800.50637    -2522.196 
25141000    241.73016   -3928.0324   -3513.7151   -3928.0324            0    8161.7643    16.858107    19.856624    20.566852    6884.6526    7842.6473    8739.1387     7903.507   -94.467961   -554.05936    556.56731   -2694.2283 
25142000    253.77599   -3920.1833   -3485.2199   -3920.1833            0    8891.7665    16.819196    19.810792     20.51938    6837.0901    8351.1951    9614.6503    8709.4542   -1258.7039    840.58754    2090.5412   -2598.6045 
25143000    240.75008   -3901.1205   -3488.4831   -3901.1205            0    10028.591    16.811973    19.802284    20.510568    6828.2851    9483.4991    10590.964     10011.31   -997.03214   -1135.4435    213.52572   -2489.8006 
25144000    255.58146   -3905.9189    -3467.861   -3905.9189            0    10219.736    16.821489    19.813492    20.522177    6839.8865    10131.494    10836.333    9691.3811   -18.491413     639.7202    1347.5669   -2448.4145 
25145000    262.72612   -3901.9098   -3451.6062   -3901.9098            0    7967.4692    16.855859    19.853976    20.564109     6881.899    7501.0493    6761.9908    9639.3676    111.01833   -58.420034   -440.37266   -2651.9477 
25146000    257.70339   -3918.7134   -3477.0186   -3918.7134            0    10720.332    16.750454    19.729823    20.435515    6753.6004    11700.255     7447.039    13013.701    78.739585   -1494.8999   -162.91139   -2421.1267 
25147000    244.82267   -3940.1298   -3520.5121   -3940.1298            0    9100.3355    16.839151    19.834295    20.543725    6861.4539    9680.6316    8457.1364    9163.2386    1650.5517    -437.6962    686.21275   -2609.8664 
25148000     236.3125    -3915.017   -3509.9855    -3915.017            0     10320.88    16.814065    19.804748     20.51312    6830.8346    11311.408    11798.918    7852.3128    989.11322    1057.7283    869.70063   -2481.8121 
25149000    255.73054    -3877.375   -3439.0616    -3877.375            0    8661.7268    16.867786    19.868024     20.57866    6896.5178    7487.5862    8390.7558    10106.838   -279.83501   -1266.1419   -1019.5366   -2567.8769 
25150000    250.04404   -3902.6576   -3474.0906   -3902.6576            0    10959.265     16.77209    19.755307    20.461911     6779.804    11011.106    12327.709    9538.9811     130.2378   -1464.1206    620.26154    -2390.477 
25151000    263.95605   -3884.5873   -3432.1757   -3884.5873            0    8598.5971    16.817578    19.808886    20.517406    6835.1169    9153.9165    8025.3576    8616.5171   -1685.9545     -108.168     1193.749   -2575.0403 
25152000    248.00006   -3926.2691   -3501.2055   -3926.2691            0    9649.6457    16.780647    19.765386     20.47235    6790.1864    9346.9346    11034.349    8567.6539   -80.582625    1677.7231   -529.03824   -2545.6213 
25153000    250.89719   -3895.3734   -3465.3442   -3895.3734            0    8299.1079    16.883628    19.886683    20.597987    6915.9669    5953.7959    10655.783    8287.7442    -48.92635    -460.4861    1682.0858   -2628.2773 
25154000    250.36462   -3914.8973   -3485.7809   -3914.8973            0    10581.909    16.807097     19.79654    20.504619    6822.3454    12808.965    10456.511    8480.2521   -848.70122    227.22058   -508.96341   -2432.9137 
25155000    255.32647   -3912.9134   -3475.2926   -3912.9134            0    10466.531    16.849614    19.846619    20.556489    6874.2515    11594.835    9243.6745    10561.082   -143.69577    840.59096    1286.9574    -2425.982 
25156000      246.689   -3930.0019   -3507.1853   -3930.0019            0     8941.599    16.824589    19.817144     20.52596    6843.6692    9538.0938    10359.509    6927.1941   -486.54779    229.36936   -1557.9436   -2614.7432 
25157000     246.1043   -3907.1379   -3485.3235   -3907.1379            0    10886.129     16.86113    19.860184    20.570539    6888.3568     10640.78    11993.784    10023.822    653.61669   -668.92439    249.91563   -2391.7072 
25158000    264.44826   -3914.9456   -3461.6904   -3914.9456            0     10478.38    16.826155    19.818988     20.52787    6845.5803    10106.966    9955.7437     11372.43   -182.08235    1869.5094    1152.0819   -2415.5733 
25159000    250.38623   -3897.4908   -3468.3374   -3897.4908            0    10229.642    16.797407    19.785127    20.492797    6810.5521    10403.362    12376.941     7908.621    616.95315   -473.35538    292.18936   -2452.2791 
25160000    251.12237   -3867.8502    -3437.435   -3867.8502            0    10211.764    16.834352    19.828643     20.53787    6855.5891    10939.611    8992.3806      10703.3   -112.41496    525.13048   -968.49859   -2416.4452 
25161000    233.37136   -3908.3652   -3508.3747   -3908.3652            0    9366.2692     16.86422    19.863823    20.574308    6892.1439    9413.8624    8985.8957    9699.0495   -1405.5808    288.00571    401.54684   -2566.9255 
25162000    246.42248   -3919.2433   -3496.8836   -3919.2433            0    9220.9574    16.805303    19.794428    20.502431    6820.1615    8251.3639    9954.9261    9456.5821    476.59046    2265.2774    170.33265   -2579.7205 
25163000    256.31992   -3894.4799   -3455.1563   -3894.4799            0    10943.071    16.772658    19.755976    20.462604    6780.4933    11430.038    10387.377    11011.799   -689.62571    719.42723   -318.87408   -2373.0339 
25164000    254.87568   -3918.2428   -3481.3946   -3918.2428            0    10045.024    16.801154     19.78954    20.497369     6815.111     9378.746    8262.8251      12493.5   -506.55898   -91.898513     459.6991   -2483.0056 
25165000    243.17245   -3874.0872    -3457.298   -3874.0872            0    11381.609    16.821819     19.81388    20.522579    6840.2887    11520.286    12778.504    9846.0371    69.932465    242.97995   -192.23491   -2321.8846 
25166000    266.00591   -3891.3964   -3435.4714   -3891.3964            0     8008.507     16.86318    19.862599     20.57304    6890.8696     7986.668    8345.5109    7693.3421    516.08774    1296.6076    909.26545   -2630.6463 
25167000    242.06709   -3891.7356   -3476.8409   -3891.7356            0    9670.2371    16.820666    19.812523    20.521173    6838.8827    8755.3104     9702.728    10552.673   -1321.0498   -1381.6625   -395.59899   -2512.3499 
25168000    265.72492   -3880.1296   -3424.6862   -3880.1296            0    9261.6072    16.881851     19.88459    20.595818     6913.783     10341.25    8860.3232    8583.2485   -434.16369   -266.87632    99.480296   -2490.8343 
25169000    266.87369   -3886.1181   -3428.7058   -3886.1181            0    9165.2814    16.897506     19.90303    20.614918    6933.0353    8518.1489    9724.1714    9253.5238   -295.72212   -468.24948    1154.1536   -2501.9931 
25170000    259.84854   -3898.2498   -3452.8783   -3898.2498            0    11299.164    16.830873    19.824545    20.533626    6851.3402    11342.996    11906.914     10647.58    1630.7478   -208.90704   -331.40605   -2323.8685 
25171000    252.19509   -3913.0264   -3480.7727   -3913.0264            0    8742.2242    16.876759    19.878593    20.589606    6907.5292     10167.29    9230.9509    6828.4321    408.06042   -753.37932   -1620.6355   -2600.0878 
25172000    253.65897    -3928.819   -3494.0562    -3928.819            0    9466.5358    16.877894    19.879929    20.590991    6908.9227    10896.123    8245.7509    9257.7338   -188.84791    597.98315    344.44318   -2540.2123 
25173000    249.97885   -3919.1913   -3490.7361   -3919.1913            0    14208.635    16.803432    19.792223    20.500148    6817.8832    17785.933    11063.544    13776.427    741.19545    1566.9494   -425.23095   -2077.9455 
25174000    247.53699   -3914.1632   -3489.8933   -3914.1632            0    9494.7012    16.892823    19.897514    20.609205    6927.2729    9787.5667     9763.909     8932.628   -1978.6435   -597.88104   -547.85138   -2530.6705 
25175000    260.74589   -3889.1112   -3442.2016   -3889.1112            0    12379.401    16.794877    19.782146     20.48971    6807.4748    11409.123    12523.615    13205.466   -2074.3226   -32.579241   -187.33967   -2213.1742 
25176000    251.32094   -3895.4488   -3464.6933   -3895.4488            0    9931.5136    16.762147    19.743595     20.44978    6767.7537    10256.601    10781.803    8756.1371    0.6967596   -1044.8901    1579.6534   -2484.4455 
25177000    263.87192   -3880.3575   -3428.0901   -3880.3575            0    10086.272    16.844732    19.840869    20.550534    6868.2786    9453.3684    9573.4548    11231.992     1828.677     1062.734    1169.9812   -2417.7805 
25178000    259.19992   -3912.4535   -3468.1937   -3912.4535            0    7090.4321    16.906277    19.913361    20.625618    6943.8368    7437.3594    5954.4628    7879.4742     91.08696    1898.0894    1351.8605   -2750.1546 
25179000     243.9902   -3902.4783   -3484.2874   -3902.4783            0    9068.5528    16.887623     19.89139    20.602861    6920.8781    10277.673    7915.0574    9012.9283    1786.7304   -49.929615    -504.6814   -2568.9629 
25180000    247.14421   -3891.4377   -3467.8409   -3891.4377            0    10291.112    16.839502     19.83471    20.544154    6861.8838    10344.773    9428.7154    11099.848    -937.0937   -555.39309    791.36395    -2437.973 
25181000    241.08389   -3868.0028   -3454.7933   -3868.0028            0    9970.7183    16.806383    19.795699    20.503748    6821.4757    10178.019    9540.0106    10194.125    444.68183    605.00132    699.43994   -2462.8641 
25182000    276.02939   -3883.2175   -3410.1126   -3883.2175            0    12533.053    16.788845    19.775042    20.482352     6800.143    11136.926    13801.308    12660.926   -346.93152   -144.19853    748.79218   -2167.1707 
25183000    252.09392   -3906.4585   -3474.3781   -3906.4585            0    11277.174    16.789856    19.776233    20.483585    6801.3718    11003.889    11604.986    11222.648    657.14381   -422.38569    2361.9038   -2355.7836 
25184000    248.48116   -3890.7002    -3464.812   -3890.7002            0    12079.114    16.782014    19.766996    20.474018    6791.8462    13239.724    12368.745    10628.872   -836.55147    -922.6804    587.70509   -2268.3503 
25185000    263.92918   -3878.4762   -3426.1106   -3878.4762            0     10244.29     16.85231    19.849795    20.559778     6877.552    8836.7843     11298.24    10597.847    -1182.655   -132.51912     1808.373   -2398.5874 
25186000    247.95209   -3849.6532   -3424.6718   -3849.6532            0    12233.749    16.821254    19.813215    20.521891       6839.6    13294.596    11190.965    12215.685    771.96208   -1985.2696    364.23391    -2204.373 
25187000    253.96833    -3904.667    -3469.374    -3904.667            0    7742.4388    16.927574    19.938446    20.651601    6970.1119    7115.8682    8745.8839    7365.5643   -592.96415    9.3422586   -427.96799   -2682.3401 
25188000    263.49843   -3871.3277   -3419.7004   -3871.3277            0    10270.774    16.833589    19.827745     20.53694    6854.6576    9449.0298    8738.4581    12624.833   -1259.2606   -1980.3098   -1264.0087   -2392.9502 
25189000    245.22918    -3878.747   -3458.4326    -3878.747            0    10813.086    16.799318    19.787377    20.495128    6812.8764    10703.879    12329.463    9405.9147     1110.006    445.64989    2171.8963   -2384.0573 
25190000    265.24458    -3853.674   -3399.0538    -3853.674            0    12194.858    16.847993     19.84471    20.554512     6872.268    13495.974      10206.2      12882.4      300.084   -1018.1552   -1430.1805   -2176.8244 
25191000    258.28603   -3874.0005   -3431.3071   -3874.0005            0    11535.913    16.843907    19.839897    20.549527    6867.2691    9971.8379    11764.726    12871.174    648.06648    974.21539   -1216.7067   -2275.9615 
25192000    253.49855   -3869.9137   -3435.4259   -3869.9137            0    9351.4881    16.886579    19.890159    20.601587    6919.5938    10052.064    9234.3894    8768.0109   -294.94335    477.48918    41.709509   -2491.7188 
25193000    263.25843   -3898.0135   -3446.7975   -3898.0135            0    10400.626    16.852533    19.850058    20.560051    6877.8257    9286.6332    10770.469    11144.776    485.12829    1241.8268    163.65106    -2403.552 
25194000    259.40178    -3866.054   -3421.4482    -3866.054            0    10530.347    16.876744    19.878575    20.589588    6907.5105    10636.111    9144.2633    11810.667   -186.00024    117.51789   -841.26816    -2360.632 
25195000    255.47446   -3888.3615    -3450.487   -3888.3615            0    11034.182     16.81135     19.80155    20.509808    6827.5261    11582.385     12011.16         9509    903.50625   -1775.8697    811.47784   -2351.7864 
25196000    258.43453   -3912.2274   -3469.2795   -3912.2274            0    9806.2655    16.827938    19.821089    20.530045    6847.7567    10496.376    8637.7734    10284.647    181.99298   -513.64265    235.71838   -2489.9522 
25197000      255.683   -3883.9967   -3445.7648   -3883.9967            0    11814.596    16.785994    19.771684    20.478873    6796.6793    10994.318    12677.721    11771.748   -59.191645   -234.71646    63.309525   -2274.6714 
25198000     251.5506   -3889.5821    -3458.433   -3889.5821            0    10442.182    16.858787    19.857425    20.567681    6885.4859    9788.4958    10284.361    11253.691    -1564.182   -39.820475   -912.66775   -2409.8525 
25199000    254.47326   -3877.5129   -3441.3544   -3877.5129            0     10451.04    16.829591    19.823035    20.532062    6849.7745    10723.825    10711.811    9917.4828     1178.294    877.31887    603.92322   -2397.3276 
25200000    257.97429   -3878.8286   -3436.6695   -3878.8286            0    10496.564    16.810704    19.800789     20.50902    6826.7393    10743.291    10178.287    10568.112    250.45648    919.20272    1072.6671   -2391.6213 
25201000    251.44689   -3873.6658   -3442.6945   -3873.6658            0    9487.5446    16.851822    19.849221    20.559184    6876.9555    10298.708    10463.549    7700.3773   -260.86861   -1491.6019    1336.6211   -2491.1569 
25202000    269.68958   -3894.3406   -3432.1019   -3894.3406            0    9316.9842    16.786025    19.771721    20.478912    6796.7175    10116.057    8065.7404    9769.1549   -3.0318444    1106.9966   -485.62962    -2508.573 
25203000    242.88051   -3876.8979    -3460.609   -3876.8979            0    10549.116    16.743416    19.721533    20.426929    6745.0908    10846.159    8537.6867    12263.501   -851.70721    1584.9854   -226.18548   -2422.8901 
25204000    255.43567   -3917.8048   -3479.9968   -3917.8048            0    9961.7595    16.772192    19.755427    20.462035    6779.9281    13543.259    7826.1492    8515.8701   -1198.9326    -2215.968    236.58967   -2494.9949 
25205000    244.73663   -3916.4625   -3496.9922   -3916.4625            0    8820.0854    16.812371    19.802753    20.511054    6828.7706    8589.0103    9363.1875    8508.0582    273.43382   -2010.8357   -285.70024   -2618.5945 
25206000    250.47873   -3911.3774   -3482.0654   -3911.3774            0    10631.052    16.802406    19.791014    20.498896     6816.634    10270.784    10734.213    10888.157    1979.2914     519.9225    268.39933   -2425.1941 
25207000    255.18707   -3895.7768   -3458.3948   -3895.7768            0     10638.19    16.814779    19.805589    20.513991    6831.7045    7839.9791    11375.958    12698.633    1623.0547     953.4541    -214.8108   -2398.4758 
25208000     255.9449    -3910.949   -3472.2682    -3910.949            0    9669.2969    16.823106    19.815397     20.52415    6841.8593    10202.874    10470.124    8334.8929    78.319026     505.6337    208.27764   -2507.4512 
25209000    260.25792   -3918.5453   -3472.4721   -3918.5453            0    12780.256    16.751831    19.731444    20.437195    6755.2659    12374.151    11853.244    14113.373     864.8669   -131.88656   -364.21667   -2213.3789 
25210000     269.0131   -3899.8099   -3438.7307   -3899.8099            0    11236.196    16.807951    19.797546    20.505661    6823.3857    10903.346    10143.491     12661.75   -772.18134   -1060.3387   -687.31663   -2320.5935 
25211000     263.3428   -3954.9058   -3503.5453   -3954.9058            0    8737.8888    16.815708    19.806682    20.515124    6832.8366     8352.045    8221.3927    9640.2287   -267.57551    1675.6335   -408.64147   -2632.8154 
25212000    258.66894   -3926.2406   -3482.8909   -3926.2406            0    8256.0239    16.857277    19.855646    20.565839    6883.6355    8736.8849    7912.7974    8118.3893    -301.6177    -417.4534   -23.800994   -2654.0623 
25213000    258.72835   -3916.9022   -3473.4506   -3916.9022            0    9516.1932    16.855756    19.853854    20.563983    6881.7724    10265.063    8766.4263    9517.0902   -250.64089   -161.76437    126.20949   -2518.3713 
25214000     247.5298   -3921.1276     -3496.87   -3921.1276            0    8337.5075    16.846146    19.842534    20.552258    6870.0079    8401.7111      8334.14    8276.6714    1156.1515   -1063.8854    593.73262   -2661.5183 
25215000    239.07095   -3951.0844    -3541.325   -3951.0844            0    8823.7885    16.835392    19.829869    20.539139    6856.8607    9159.6014    8387.6996    8924.0644    249.72436   -2.8737321   -1226.4705   -2658.9436 
25216000    258.59987   -3942.6293    -3499.398   -3942.6293            0    9330.9425    16.779681    19.764248    20.471171    6789.0135    9325.5489    9576.4931    9090.7856   -928.23021    2413.8617    31.563309   -2575.5339 
25217000    249.80711   -3937.1897   -3509.0289   -3937.1897            0    10849.164    16.748035    19.726973    20.432563    6750.6741     10912.46     11709.18    9925.8529   -1298.8429    1122.3898    800.41294   -2440.9107 
25218000    253.08258   -3920.5093   -3486.7344   -3920.5093            0    10471.692    16.811396    19.801604    20.509864    6827.5821    10810.356    9237.8314    11366.887    993.42136    62.616082   -1184.2802   -2444.0338 
25219000    253.86758   -3906.3232   -3471.2029   -3906.3232            0    9460.1451    16.835548    19.830052    20.539329    6857.0509    9451.5581    12812.192    6116.6856   -764.77315   -1338.7874    2.6299082   -2525.1595 
25220000    247.66358    -3929.512   -3505.0251    -3929.512            0    11820.102    16.740021    19.717533    20.422786    6740.9882    11439.636    10704.542     13316.13    1447.9099    38.087116    604.50805   -2342.9862 
25221000    270.15034   -3935.6308   -3472.6024   -3935.6308            0    10458.883     16.77626    19.760219    20.466998    6784.8626     8586.695    10623.554    12166.401   -991.54104   -40.810355    1306.5374   -2437.6932 
25222000    248.89219   -3942.1987    -3515.606   -3942.1987            0    9572.9794       16.869    19.869454     20.58014    6898.0063    11582.314     7654.135    9482.4889   -573.11312    366.54685     498.8401   -2552.5609 
25223000    248.09505   -3934.7313   -3509.5048   -3934.7313            0    7572.1583    16.867819    19.868063      20.5787    6896.5577    7440.3336    7987.7471    7288.3942    749.27308    466.64584    104.50281   -2747.9031 
25224000    257.62341   -3935.1095   -3493.5518   -3935.1095            0    11256.423    16.856799    19.855082    20.565255    6883.0493    11553.175    10118.427    12097.666    -1416.841   -2067.2624    1337.0613   -2363.6072 
25225000    250.12138   -3940.5558   -3511.8563   -3940.5558            0    11071.658     16.83649    19.831162    20.540479    6858.2023    9261.2539    11190.391     12763.33   -1358.2109    -51.26668    291.07876   -2404.4707 
25226000    249.35123   -3910.3994   -3483.0199   -3910.3994            0    11592.849    16.897867    19.903456    20.615359      6933.48    11670.105    11360.712    11747.729   -1540.2884   -112.64176    435.41277   -2310.7778 
25227000    272.91857   -3914.3243   -3446.5512   -3914.3243            0    8656.1933    16.894401    19.899373     20.61113    6929.2144     8286.926    8730.3159     8951.338   -255.15569   -1517.4168    802.20869   -2571.7953 
25228000    268.98428   -3942.8872   -3481.8574   -3942.8872            0    9815.1898    16.890074    19.894276     20.60585    6923.8911    10219.989    10263.366    8962.2143   -1644.8053    768.16435    123.73433   -2490.7406 
25229000    249.51064   -3874.5841   -3446.9314   -3874.5841            0    11896.037    16.846778    19.843279     20.55303    6870.7814    11028.226    11421.764     13238.12   -1320.5914    369.69531    127.38597   -2254.9093 
25230000    249.25376   -3868.6141   -3441.4017   -3868.6141            0    10662.843    16.856218    19.854398    20.564546    6882.3375    8464.2872    12908.243        10616   -971.69114    169.58595    -1339.645   -2371.1525 
25231000    253.44334   -3874.5371   -3440.1439   -3874.5371            0     10851.48    16.839844    19.835112     20.54457    6862.3014    11766.798    9412.1113    11375.531    784.99084    776.56975    1510.8684   -2354.1318 
25232000    257.00961    -3898.776   -3458.2703    -3898.776            0    10258.764      16.8044    19.793364    20.501329    6819.0621    9787.6868    8138.4225    12850.183    1217.6541   -878.61269   -363.85764   -2438.0462 
25233000    255.56377   -3909.9273   -3471.8997   -3909.9273            0    9449.6352    16.816393     19.80749     20.51596    6833.6723     8977.323    7584.1651    11787.418   -29.321976    1066.5311   -259.34639   -2530.1292 
25234000    259.24835   -3909.9542   -3465.6114   -3909.9542            0    9492.0862     16.86002    19.858876    20.569185     6886.996    10787.067    7519.0155    10170.176   -160.47275    839.00146   -1523.3416   -2512.2284 
25235000    239.44133   -3898.4545   -3488.0602   -3898.4545            0    9206.2583    16.826433    19.819316     20.52821    6845.9198    8105.8819    7985.0043    11527.889   -773.53759    1245.5538     4.968545   -2568.9008 
25236000    253.37648   -3914.5146   -3480.2359   -3914.5146            0    10646.469    16.818574    19.810059    20.518621    6836.3315    9095.9408    10784.263    12059.202     77.62818    1254.0178    2073.8991   -2418.7736 
25237000    248.45244   -3897.9813   -3472.1423   -3897.9813            0    10824.876    16.784713    19.770175    20.477311    6795.1237    9372.8912     12686.22    10415.516   -1378.3041   -172.56239   -385.13743   -2399.3981 
25238000    268.57246   -3914.9351   -3454.6111   -3914.9351            0    9412.7841    16.822935    19.815195    20.523941    6841.6501    9688.2254     10077.25    8472.8765    339.72215   -560.66156   -87.027539   -2515.4181 
25239000    258.62711   -3898.2867   -3455.0087   -3898.2867            0    11307.845    16.828247    19.821453    20.530423    6848.1341    9845.9893    11988.076    12089.468    1126.1919    164.14817       1002.8   -2325.6602 
25240000    245.69088    -3885.154   -3464.0482    -3885.154            0    9189.2424    16.883419    19.886438    20.597732    6915.7102    6596.5212    10611.024    10360.182   -695.51506    1277.7682    -266.8637   -2537.2347 
25241000    241.34234   -3891.8306   -3478.1781   -3891.8306            0     10414.83    16.826388    19.819263    20.528154    6845.8645    10806.274    11120.946    9317.2686   -718.82676   -1429.6968    320.96611   -2438.3624 
25242000    260.51677   -3903.0894   -3456.5726   -3903.0894            0    9256.8752    16.896347    19.901665    20.613504    6931.6086    9596.3232     9108.123    9066.1792   -47.061686    260.58627   -1160.8084   -2520.7914 
25243000    259.06841   -3865.0774    -3421.043   -3865.0774            0    11651.891    16.829171     19.82254    20.531549    6849.2615    13507.015    10038.379    11410.278   -306.95697    1564.0977    578.24361    -2257.142 
25244000    264.47363    -3914.675   -3461.3763    -3914.675            0    12905.307    16.785932    19.771611    20.478798    6796.6041    14058.694    13278.013    11379.215   -531.25028   -631.93339    266.99669   -2182.1828 
25245000     269.8884   -3887.0638   -3424.4843   -3887.0638            0    11951.485    16.843681    19.839631    20.549251    6866.9928    11169.316    13016.828     11668.31   -350.93301   -706.80166   -621.17161   -2227.5665 
25246000    249.32664   -3904.2231   -3476.8857   -3904.2231            0    9518.8514    16.881581    19.884272    20.595489    6913.4516    7461.7327      9989.59    11105.232   -1264.0862    -876.0535   -97.788978   -2517.1418 
25247000    245.48255   -3899.9909   -3479.2423   -3899.9909            0    9860.0239    16.851293    19.848597    20.558538    6876.3069      9879.27     9007.266    10693.536    566.88908     908.1279   -654.43852   -2490.4408 
25248000     269.2466   -3898.8294     -3437.35   -3898.8294            0    9805.6361    16.850993    19.848244    20.558172    6875.9405    8345.5999    11024.744    10046.564   -233.60919    51.227506    166.95611   -2454.0551 
25249000    241.64628   -3911.0722   -3496.8988   -3911.0722            0    11247.516    16.846092    19.842471    20.552193    6869.9421     12247.05    9295.7797    12199.719    401.73778   -559.33541   -1541.9207   -2369.9982 
25250000    276.22811   -3891.7815   -3418.3359   -3891.7815            0     8832.586    16.919091    19.928454    20.641251     6959.638    8846.6744    9769.2623    7881.8213    794.78736   -736.51147    -124.8622   -2521.8357 
Loop time of 465.844 on 64 procs for 250000 steps with 864 atoms

Performance: 92.735 ns/day, 0.259 hours/ns, 536.661 timesteps/s
99.1% CPU use with 64 MPI tasks x 1 OpenMP threads

MPI task timing breakdown:
Section |  min time  |  avg time  |  max time  |%varavg| %total
---------------------------------------------------------------
Pair    | 22.295     | 27.529     | 31.965     |  48.8 |  5.91
Bond    | 0.27192    | 0.28009    | 0.29407    |   0.9 |  0.06
Kspace  | 199.02     | 210.82     | 224.24     |  39.6 | 45.26
Neigh   | 4.9553     | 5.9327     | 7.5728     |  28.0 |  1.27
Comm    | 89.412     | 105.46     | 117.03     |  62.1 | 22.64
Output  | 1.6679     | 1.6713     | 1.6834     |   0.3 |  0.36
Modify  | 106.01     | 109.14     | 112.07     |  17.9 | 23.43
Other   |            | 5.014      |            |       |  1.08

Nlocal:        13.5000 ave          19 max           9 min
Histogram: 2 3 4 13 10 13 11 3 1 4
Nghost:        2283.44 ave        2316 max        2252 min
Histogram: 4 2 6 12 6 13 9 7 4 1
Neighs:        4428.94 ave        6361 max        2654 min
Histogram: 3 4 4 13 15 8 5 8 1 3

Total # of neighbors = 283452
Ave neighs/atom = 328.06944
Ave special neighs/atom = 2.0000000
Neighbor list builds = 13110
Dangerous builds = 1

unfix		3
unfix		2
unfix		1

write_data	data.final.${pid}
write_data	data.final.0
System init for write_data ...
PPPM initialization ...
  extracting TIP4P info from pair style
  using 12-bit tables for long-range coulomb (../kspace.cpp:340)
  G vector (1/distance) = 0.37453343
  grid = 24 24 24
  stencil order = 5
  estimated absolute RMS force accuracy = 0.0031301262
  estimated relative force accuracy = 9.4262821e-06
  using double precision FFTW3
  3d grid and FFT values/proc = 2535 216
Last active /omp style is kspace_style pppm/tip4p/omp
WARNING: Not all mixed pair coeffs generated from mixing. Use write_data with 'pair ij' option to store all pair coeffs. (../write_data.cpp:312)

write_restart   restart.lmp.${pid}
write_restart   restart.lmp.0
System init for write_restart ...
PPPM initialization ...
  extracting TIP4P info from pair style
  using 12-bit tables for long-range coulomb (../kspace.cpp:340)
  G vector (1/distance) = 0.37453343
  grid = 24 24 24
  stencil order = 5
  estimated absolute RMS force accuracy = 0.0031301262
  estimated relative force accuracy = 9.4262821e-06
  using double precision FFTW3
  3d grid and FFT values/proc = 2535 216
Last active /omp style is kspace_style pppm/tip4p/omp
Total wall time: 0:07:50
