LAMMPS (30 Jul 2021)
Processor partition = 1
  using 4 OpenMP thread(s) per MPI task
using multi-threaded neighbor list subroutines
variable        pid world 0 1
variable        phase world IceII IceIh

shell cd ${phase}
shell cd IceIh
include Restart.lmp
echo both
log log.lammps
#include		in.partitions
include		in.temp
variable        temperature equal 27.60
variable	tempDamp equal 100.0
include		in.pressure
variable        pressure equal 1999.0
variable        pressureDamp equal 1000.0 # This is 1 ps
include		in.seed
variable        seed equal 745823

units		real
atom_style	full
#include		in.box
read_restart	restart.lmp.${pid}
read_restart	restart.lmp.1
Reading restart file ...
  restart file = 30 Jul 2021, LAMMPS = 30 Jul 2021
  restoring atom style full from restart
  orthogonal box = (0.18498704 0.16518722 0.15743787) to (18.022585 23.463991 22.055758)
  2 by 4 by 2 MPI processor grid
  restoring pair style lj/cut/tip4p/long/omp from restart
  restoring bond style harmonic/omp from restart
  restoring angle style harmonic/omp from restart
  864 atoms
  576 bonds
  288 angles
Finding 1-2 1-3 1-4 neighbors ...
  special bond factors lj:    0        0        0       
  special bond factors coul:  0        0        0       
     2 = max # of 1-2 neighbors
     1 = max # of 1-3 neighbors
     1 = max # of 1-4 neighbors
     2 = max # of special neighbors
  special bonds CPU = 0.001 seconds
  read_restart CPU = 0.006 seconds
include 	in.setup
variable	out_freq equal 1000
variable	out_freq2 equal 10000
variable	out_freq3 equal 1000

timestep	2.0

neigh_modify    delay 7 every 1

include		in.tip4p
# This is TIP4P/Ice

# create groups ###
group ox type 2
288 atoms in group ox
group hy type 1
576 atoms in group hy

# set charges - beside manually ###
set group ox charge -1.1794
Setting atom values ...
  288 settings made for charge
set group hy charge 0.5897
Setting atom values ...
  576 settings made for charge

# ### TIP3P Potential Parameters ###
pair_style lj/cut/tip4p/long/omp 2 1 1 1 0.1577 8.5
pair_coeff 1 1*2 0.000 0.000
pair_coeff 2 2 0.21084 3.1668
bond_style  harmonic
bond_coeff  1 450 0.9572
angle_style harmonic
angle_coeff 1 55 104.52
kspace_style pppm/tip4p/omp 1.0e-5
pair_modify tail yes

thermo          ${out_freq}
thermo          1000
thermo_style    custom step temp pe etotal epair emol press lx ly lz vol pxx pyy pzz pxy pxz pyz enthalpy

restart 	${out_freq3} restart.lmp.${pid} restart2.lmp.${pid}
restart 	1000 restart.lmp.${pid} restart2.lmp.${pid}
restart 	1000 restart.lmp.1 restart2.lmp.${pid}
restart 	1000 restart.lmp.1 restart2.lmp.1


include         in.dump
dump            myDump all atom ${out_freq2} dump.water.${pid}
dump            myDump all atom 10000 dump.water.${pid}
dump            myDump all atom 10000 dump.water.1
dump            myDump2 all dcd ${out_freq2} dump.dcd
dump            myDump2 all dcd 10000 dump.dcd
dump_modify     myDump append yes
dump_modify     myDump2 append yes


variable natoms 	equal  "count(all)"                        # NUMBER ATOMS
variable H      	equal  "enthalpy/v_natoms"                 # ENTHALPY-per-atom
variable Vol      	equal  "vol/v_natoms"                 # volume-per-atom
fix AVG all 		ave/time ${out_freq} 1 ${out_freq} v_Vol v_H file vol_enthalpy.dat
fix AVG all 		ave/time 1000 1 ${out_freq} v_Vol v_H file vol_enthalpy.dat
fix AVG all 		ave/time 1000 1 1000 v_Vol v_H file vol_enthalpy.dat


timer           timeout 23:50:00 every 1000
New timer settings: style=normal  mode=nosync  timeout=23:50:00

fix 		1 all shake 1e-6 200 0 b 1 a 1
Finding SHAKE clusters ...
       0 = # of size 2 clusters
       0 = # of size 3 clusters
       0 = # of size 4 clusters
     288 = # of frozen angles
  find clusters CPU = 0.000 seconds
fix             2 all nph aniso ${pressure} ${pressure} ${pressureDamp}
fix             2 all nph aniso 1999 ${pressure} ${pressureDamp}
fix             2 all nph aniso 1999 1999 ${pressureDamp}
fix             2 all nph aniso 1999 1999 1000
fix             3 all temp/csvr ${temperature} ${temperature} ${tempDamp} ${seed}
fix             3 all temp/csvr 27.6 ${temperature} ${tempDamp} ${seed}
fix             3 all temp/csvr 27.6 27.6 ${tempDamp} ${seed}
fix             3 all temp/csvr 27.6 27.6 100 ${seed}
fix             3 all temp/csvr 27.6 27.6 100 745823


run             250000
PPPM initialization ...
  extracting TIP4P info from pair style
  using 12-bit tables for long-range coulomb (../kspace.cpp:340)
  G vector (1/distance) = 0.37217449
  grid = 24 27 25
  stencil order = 5
  estimated absolute RMS force accuracy = 0.0031085498
  estimated relative force accuracy = 9.3613055e-06
  using double precision FFTW3
  3d grid and FFT values/proc = 6300 1296
Last active /omp style is kspace_style pppm/tip4p/omp
Neighbor list info ...
  update every 1 steps, delay 7 steps, check yes
  max neighbors/atom: 2000, page size: 100000
  master list distance cutoff = 10.8154
  ghost atom cutoff = 10.8154
  binsize = 5.4077, bins = 4 5 5
  1 neighbor lists, perpetual/occasional/extra = 1 0 0
  (1) pair lj/cut/tip4p/long/omp, perpetual
      attributes: half, newton on, omp
      pair build: half/bin/newton/omp
      stencil: half/bin/3d
      bin: standard
Setting up Verlet run ...
  Unit style    : real
  Current step  : 42500000
  Time step     : 2
  Walltime left : 23:49:59.97
Per MPI rank memory allocation (min/avg/max) = 12.26 | 12.29 | 12.31 Mbytes
Step Temp PotEng TotEng E_pair E_mol Press Lx Ly Lz Volume Pxx Pyy Pzz Pxy Pxz Pyz Enthalpy 
42500000    32.164194   -4686.4956   -4631.3673   -4686.4956            0    2134.0737    17.837598    23.298803     21.89832    9100.8257     2643.971    1866.8154    1891.4347    134.24849    202.59284    133.02293   -4348.1198 
42501000     28.16884   -4692.9403   -4644.6599   -4692.9403            0    1726.2149     17.90257    23.257481    21.921606    9127.4701     1891.198    1371.0255    1916.4213    365.36932    -60.96491    329.69542   -4414.8752 
42502000    26.970905   -4690.3978   -4644.1706   -4690.3978            0    1969.2545    17.921552    23.214804    21.894371    9109.0507    1627.1167    2295.6499    1984.9968   -128.04696    127.59941    14.808524   -4382.5627 
42503000    27.674479   -4692.7931     -4645.36   -4692.7931            0     2206.385    17.913753    23.288377    21.816005    9101.2492    2030.5687    2060.8013     2527.785   -164.19247      10.8937   -18.338777   -4352.5012 
42504000    25.846226   -4692.8268   -4648.5272   -4692.8268            0    1564.9596     17.93826    23.261206    21.859376    9121.1648    1456.1291    1526.8019    1711.9478   -219.64276   -41.527545     218.1751   -4440.3519 
42505000    28.241397   -4691.5507   -4643.1459   -4691.5507            0    2334.2865     17.92285    23.233257    21.843029    9095.5721    2079.9609    2427.6593    2495.2393   -193.79905    52.148815   -16.820691   -4333.5038 
42506000    27.838825   -4690.4699   -4642.7551   -4690.4699            0    2000.3433    17.839796    23.354047    21.871547     9112.374     2054.935    1861.2356    2084.8593     549.8622    10.066059    27.172598   -4376.9202 
42507000    26.447214   -4690.3709   -4645.0413   -4690.3709            0     1761.046    17.937241    23.227616    21.886662    9118.8447    1776.0277    2015.8742     1491.236    -538.0535    -200.5243    2.7818345   -4410.8416 
42508000     27.65523    -4688.587   -4641.1869    -4688.587            0     2233.577    17.887262    23.191818    21.939482    9101.3333    2401.6165    2826.2545    1472.8601    30.711176   -130.86553   -44.289386   -4344.7161 
42509000     27.65789   -4688.1953   -4640.7906   -4688.1953            0    2343.2181    17.957356      23.2232    21.802991    9092.4419    2141.2531    2640.0026    2248.3988   -295.46678    -150.7261    28.538587   -4330.0707 
42510000    27.188416    -4691.666    -4645.066    -4691.666            0    1801.4201     17.84961    23.311484    21.920868    9121.2931    1670.7984    2005.5316    1727.9302   -150.21243    377.86042   -208.23118   -4405.4326 
42511000    28.023856   -4692.3169    -4644.285   -4692.3169            0    1837.6934     17.84006    23.290475    21.951149    9120.7784    2050.6577    1827.7013    1634.7211    189.73498   -51.126251   -125.62219   -4399.8402 
42512000    29.488952   -4690.4335   -4639.8904   -4690.4335            0    2283.7813    17.920894    23.197422      21.8823    9096.8775    2270.7831    2463.4496    2117.1112    47.402714   -242.05272   -25.821049   -4336.9043 
42513000    28.691949   -4691.4493   -4642.2723   -4691.4493            0    1790.2343    17.855856    23.264075     21.94695    9116.7621    1780.5568    2132.8992     1457.247   -388.09752   0.85344532    40.371982   -4404.2452 
42514000    25.344152   -4689.8636   -4646.4246   -4689.8636            0    1841.9286    17.909325    23.303344    21.837117    9113.6588    2028.3503    1630.1438    1867.2918    -66.55486    -130.7397    159.40587   -4401.6077 
42515000    27.206114   -4690.5947   -4643.9644   -4690.5947            0    2151.2795    17.870378    23.295819    21.851262    9096.7919    2054.9753    2306.1527    2092.7106   -102.75098    93.175861    218.14509   -4358.5598 
42516000    26.710901   -4691.0979   -4645.3163   -4691.0979            0    2028.8584    17.872471    23.224145    21.954379     9112.667    2032.1335    2430.9748    1623.4668    301.00182   -24.091847   -5.0370194   -4375.6832 
42517000    28.738249   -4693.3421   -4644.0858   -4693.3421            0    1725.1697    17.852733    23.275078    21.951635    9121.4255    2079.8181    1745.8236    1349.8675    17.433724    86.725019   -76.524944   -4414.5922 
42518000    26.245825   -4691.3673   -4646.3828   -4691.3673            0    1843.3296    17.918149    23.194198    21.931653    9114.7313    1680.4632    2352.6243    1496.9012   -99.180525   -122.10432    25.553795   -4401.3508 
42519000    27.461666    -4690.688   -4643.6197    -4690.688            0     2503.453    17.822096    23.264436    21.916916    9087.2143     2749.543    2900.6026    1860.2134    373.68224    25.416391    320.95348   -4311.8428 
42520000    25.275461   -4690.4905   -4647.1692   -4690.4905            0    1891.2437    17.908301    23.201831    21.946219    9118.7717    1745.1668    1984.2354    1944.3288    -111.1168   -280.71297    101.87232   -4395.6566 
42521000    26.674258   -4692.4119   -4646.6931   -4692.4119            0     2037.697     17.89719    23.250475    21.896383    9111.4828    1740.4516    2198.3959    2174.2435   -86.635977   -91.249125   -199.53023   -4375.9206 
42522000    28.760989   -4692.8442   -4643.5488   -4692.8442            0    1918.9279    17.911799    23.282037    21.864354     9117.942    1813.7939    2047.0851    1895.9045   -137.99379   -98.710095    287.55218   -4388.3778 
42523000    26.093609   -4691.9834   -4647.2598   -4691.9834            0    1861.4297    17.936672    23.259059    21.863301    9121.1533    1684.4381    1877.9751    2021.8759     49.65209    212.81064    98.170728   -4399.6475 
42524000    28.670353   -4688.2334   -4639.0934   -4688.2334            0    1941.8703    17.858646    23.301592      21.8933    9110.5659    1947.9391    1822.6301    2055.0417    -38.07103   -288.82287     136.8408   -4381.0804 
42525000    27.996066   -4692.3855   -4644.4012   -4692.3855            0    1856.8469    17.930979    23.277932    21.852185    9121.0171    1404.9862    2131.4401    2034.1143   -120.04698     2.618514    166.76433   -4397.4021 
42526000    29.108442   -4691.0452   -4641.1544   -4691.0452            0     1989.994    17.913002    23.236907    21.900618    9115.9734    2379.4636     2049.134    1541.3844    127.14134    -131.2431     118.2185   -4376.5904 
42527000    28.064087   -4690.6138   -4642.5129   -4690.6138            0    1878.3904     17.96687    23.297893    21.780468    9117.0909    1850.0563    1945.2063    1839.9086    -39.26881   -266.84438     205.6014   -4392.7557 
42528000    26.852127   -4691.6555   -4645.6319   -4691.6555            0    2097.4843    17.897361    23.233209     21.90187    9107.0848     1987.814    2497.7937    1806.8452    176.17748    161.08101   -42.883904   -4367.0493 
42529000    27.282262   -4695.3188    -4648.558   -4695.3188            0    1878.0899    17.941535    23.289756    21.811773    9114.1361    1662.3253    1441.4801    2530.4642    -427.9021    214.58041    280.60821   -4398.9217 
42530000    28.466193   -4690.5341    -4641.744   -4690.5341            0    2040.7856    17.896647    23.285501    21.865803    9112.1888     2014.117    1911.7711    2196.4688   -213.43868   -113.52358    48.680705     -4370.54 
42531000    28.711393   -4691.0348   -4641.8244   -4691.0348            0    1854.3061    17.927249    23.264866    21.862547    9118.3231    1282.1273    2340.7681     1940.023    36.215156   -51.504948     155.3158   -4395.2362 
42532000    27.358326   -4689.5825   -4642.6912   -4689.5825            0    2175.2722    17.904844    23.223882    21.879379    9097.8834    2147.4185    2061.9662    2316.4318    -31.04095   -247.02136    59.615824    -4354.069 
42533000    27.962747   -4692.7336   -4644.8064   -4692.7336            0    1923.4785    17.892357    23.264755    21.887886    9111.0799    1782.1661    2007.6615    1980.6079    19.102653    185.83995   -13.610822   -4389.2227 
42534000     27.11111    -4692.563   -4646.0955    -4692.563            0    1938.2334    17.831368     23.36442    21.865519    9109.6031     2048.264    1298.1756    2468.2605    20.240637   -98.924013    3.2387717    -4388.593 
42535000    27.145159   -4695.5252   -4648.9993   -4695.5252            0    2049.7981    17.897424    23.262115    21.882611    9110.4298    2389.2177    1668.6326     2091.544   -262.46659    157.31368    33.538114   -4376.6503 
42536000     25.53313   -4688.6226   -4644.8597   -4688.6226            0    2488.4462    17.874753    23.241004    21.880491    9089.7511    2554.3846    2696.5929     2214.361   -47.691137   -42.144377   -4.1016356   -4314.9796 
42537000    27.421795   -4691.7329   -4644.7329   -4691.7329            0    1737.9418    17.906029    23.282056    21.893057    9126.9782    1617.2848    2153.5126     1443.028    98.029631    198.72041   -132.68861   -4413.3996 
42538000    27.289733   -4690.7937   -4644.0201   -4690.7937            0    1867.3808    17.884753    23.267467    21.925449    9123.9005    1955.1563    2275.0951     1371.891   -268.22252    68.171441    279.45778   -4395.5413 
42539000    27.661712   -4691.7093   -4644.2981   -4691.7093            0    2026.8796    17.862781    23.258311     21.93315    9112.3051    2302.1892     1682.861    2095.5887   -194.80458     33.93799    101.84169   -4374.9387 
42540000    27.273992   -4691.7687    -4645.022   -4691.7687            0    2317.8773    17.895405    23.216226    21.896167    9097.0642    2256.1946    2144.9955    2552.4418   -107.40472   -229.85547   -91.981116   -4337.5061 
42541000    27.766877   -4693.7898   -4646.1984   -4693.7898            0     1909.163    17.871265    23.354264    21.836195    9113.7781    1642.5189    1973.9882    2110.9818    64.878243    -153.7803   -40.522327   -4392.4418 
42542000     28.03801   -4692.3246   -4644.2684   -4692.3246            0    2098.3713    17.927835    23.268521    21.826925    9105.1934    2073.7928    1768.5215    2452.7997   -44.013758    196.67938    268.19793   -4365.6258 
42543000    27.850543   -4690.7804   -4643.0455   -4690.7804            0    2385.5338    17.884883    23.251509    21.857306    9089.3719    2452.5429    2088.0628    2615.9958   -491.07883    22.741216   -188.21762   -4326.8212 
42544000    28.112963   -4692.8094   -4644.6247   -4692.8094            0    1744.9841     17.90047    23.304898    21.862554    9120.3718    1299.7045    1591.0627    2344.1852    273.19975   -116.89719    153.32088   -4412.5222 
42545000    26.053844   -4693.7117   -4649.0563   -4693.7117            0     1620.709    17.860751    23.358761    21.874912    9126.3229    1426.5395    1138.4295    2297.1578   -206.23447   -137.33236    44.602777   -4433.3431 
42546000     28.93258   -4692.1593   -4642.5698   -4692.1593            0    2226.4669    17.953181    23.186331    21.863534    9101.0983      2578.79    2019.6604    2080.9502    151.22348   -26.221604   -41.748674   -4347.0505 
42547000     26.77458   -4693.1579   -4647.2672   -4693.1579            0    1834.5461      17.9356    23.299913    21.817837    9117.6289    1314.1591    1982.6773     2206.802   -15.821059    55.172953    229.64785   -4403.3253 
42548000    26.884011   -4688.5521   -4642.4739   -4688.5521            0    2274.9943    17.920748    23.270642    21.814213    9097.1228    2282.9014    2282.4127    2259.6689   -400.29198    98.847425    221.88062   -4340.6454 
42549000    27.932737    -4691.287   -4643.4113    -4691.287            0    2080.8878    17.863206    23.313436    21.857345    9102.5508    2143.5894    1771.5842    2327.4897   -33.397751   -170.45033    81.801498   -4367.1706 
42550000    26.714215   -4691.9386   -4646.1513   -4691.9386            0    1970.5768    17.922515     23.23389    21.887535    9114.1828      2107.41    1741.4211    2062.8994   -155.11148   -448.15735   -343.82532   -4384.2203 
42551000    27.734722   -4689.4317   -4641.8954   -4689.4317            0    2112.9825    17.964341    23.176533    21.878515    9109.1449    2032.8654    2359.7663    1946.3157   -377.59779    74.222529    224.80912   -4361.1909 
42552000    28.330006   -4694.1984   -4645.6418   -4694.1984            0    1882.4524    17.938998    23.233166    21.870684    9115.2576    2000.9874     2258.038    1388.3319   -168.96311   -159.31607    183.25358   -4395.3948 
42553000    27.447092    -4693.221   -4646.1776    -4693.221            0    1733.7737    17.917581    23.215293    21.922535    9118.9392    1612.5283    2016.3232    1572.4697   -389.82854   -265.17393   -90.130644   -4415.6024 
42554000    28.618435   -4690.5347   -4641.4837   -4690.5347            0    2348.5921    17.914571    23.190953    21.873883    9087.6355     2318.358    2352.0498    2375.3686   -18.747097    17.973623    57.930067   -4330.2158 
42555000    27.203264   -4690.7692   -4644.1437   -4690.7692            0    2051.5292    17.841943    23.296328    21.898694    9102.2307    2168.0006    1992.8275    1993.7594    132.62696   -269.08601    94.852917     -4371.81 
42556000    27.818579   -4688.3417   -4640.6616   -4688.3417            0    2283.2287    17.851319    23.263987     21.90053    9095.1335     2326.091    2085.3782    2438.2171   -485.57492    119.18211   -113.10941   -4337.8069 
42557000    28.750242   -4694.2446   -4644.9677   -4694.2446            0    1858.4509    17.832119    23.304705     21.91985    9109.2817    2053.1325    1624.8027    1897.4174    2.6844052    -62.43029    126.84383   -4398.0734 
42558000    27.766709   -4691.7958   -4644.2046   -4691.7958            0    2104.2303    17.903054    23.281143    21.857384    9110.2357    2180.4605    2014.7718    2117.4587   -78.240303   -148.96432    2.5354961   -4364.6293 
42559000    26.973592   -4690.1435   -4643.9117   -4690.1435            0    2286.1667    17.936568    23.219727    21.819729    9087.5293    2052.2993    2405.2649     2400.936   -134.22837    151.68138    172.36463   -4340.9208 
42560000    26.620449   -4694.8877   -4649.2611   -4694.8877            0    2096.0065    17.892222    23.307042    21.833964    9105.0852    2325.8158    1878.2705    2083.9331   -189.68064    -31.58765    90.998711   -4370.9359 
42561000    26.820056    -4689.984   -4644.0153    -4689.984            0    2152.2048    17.879383     23.21527    21.930035    9102.6026    2329.8736    2097.6543    2029.0865     98.08145   -158.67639   -203.47587   -4358.3055 
42562000    28.677487   -4692.5746   -4643.4223   -4692.5746            0    2280.2353     17.90627    23.316694    21.784389    9095.3098     2168.574    2107.9301    2564.2018     34.68884    107.22222    118.16962   -4340.9588 
42563000    28.304121   -4690.4931   -4641.9808   -4690.4931            0    1765.4816    17.897773    23.282818    21.894655    9123.7345    1812.1072    1728.1468    1756.1908    19.135004    46.623026    298.10796   -4407.0652 
42564000    27.678605   -4692.8693   -4645.4291   -4692.8693            0    1887.4508    17.914975    23.289886    21.850027    9116.6553    1414.6173     1955.282     2292.453    49.953483    153.98901   -236.52662   -4394.4792 
42565000    26.080429   -4692.0124   -4647.3114   -4692.0124            0     2045.158    17.897914    23.248054    21.887172    9107.0704    2008.4809    2372.4326    1754.5607   -502.32517    109.50562     56.65644   -4375.6791 
42566000    27.746716   -4690.3468   -4642.7898   -4690.3468            0    1917.1411    17.851557    23.330265     21.87651    9111.1628    2256.7152    1763.7808    1730.9273   -350.30405    79.311697    84.861449    -4388.046 
42567000    26.098135   -4693.1645   -4648.4332   -4693.1645            0    1982.1145    17.930655    23.277911    21.826473    9110.1123    2265.2641     1876.544    1804.5355   -343.98907   -170.56071    53.287422   -4385.0862 
42568000    27.776258   -4692.2717   -4644.6642   -4692.2717            0     2113.685    17.906039    23.176155    21.935996    9103.2876    1875.1063    2499.7626    1966.1861   -202.59158   -16.493399   -70.098376   -4364.0469 
42569000    25.510363   -4692.9461   -4649.2222   -4692.9461            0    2108.1542    17.942838    23.217835    21.855728    9104.9618     1811.248    2195.9046    2317.3098   -260.27759   -379.16065   -83.951705   -4369.2878 
42570000    27.502613   -4691.0015   -4643.8629   -4691.0015            0    1960.6095    17.945087    23.208134    21.863834    9105.6741     1772.239    2292.8315     1816.758    91.635473   -153.26383    151.42887      -4383.5 
42571000    27.350943   -4690.8232   -4643.9446   -4690.8232            0    2054.0319    17.902492     23.19935    21.927714    9107.1538    2124.3948    2583.8406    1453.8605   -102.27303    173.70449    202.72795   -4371.1312 
42572000    30.249938     -4690.55   -4638.7026     -4690.55            0    2118.9728    17.934761    23.211199    21.870134    9104.2594    2194.2876    1937.9697     2224.661   -154.20669    81.243475    371.86886   -4357.3533 
42573000    25.977111    -4693.406   -4648.8821    -4693.406            0    1650.2109     17.93714    23.185592     21.94495    9126.5365    1285.5766    1896.3048    1768.7512    450.58461     295.5624   -235.62621   -4429.2371 
42574000    27.633442   -4691.5939   -4644.2311   -4691.5939            0    1983.5433    17.824188    23.240681    21.993378    9110.6743    2008.5716    2193.1618    1748.8966   -119.99892   -119.14689    89.234475    -4380.678 
42575000     28.02772   -4692.8424   -4644.8038   -4692.8424            0     2524.522    17.846374    23.281636    21.885887    9093.4281    3160.6798    2055.6665    2357.2195    201.50268   -307.18926    176.97187   -4310.0059 
42576000    25.769423   -4690.2733   -4646.1054   -4690.2733            0    1891.8017     17.91163    23.191114    21.952362    9118.8061     2156.395    2056.8163    1462.1938   -135.23325    317.29138   -121.61625   -4394.5176 
42577000    25.593673   -4690.5921   -4646.7254   -4690.5921            0    1623.1128     17.85633    23.318747    21.931798    9132.1206    1861.9029    1573.7469    1433.6887   -156.45856   -321.46276   -7.9274361    -4430.555 
42578000    31.243958   -4693.4789   -4639.9278   -4693.4789            0     2037.829    17.891772    23.322032    21.817378    9103.7915    2046.6787    2176.7399    1890.0684    194.24448    272.94265    108.13603   -4369.3664 
42579000    27.433418   -4692.8222   -4645.8023   -4692.8222            0    1831.6846    17.942876    23.246406    21.859185    9117.6272    1765.8922    1674.0805    2055.0811   -128.82111    122.04068   -101.78094   -4402.2409 
42580000    29.044531   -4689.2303   -4639.4489   -4689.2303            0    2050.7155    17.840489    23.302642    21.878346    9095.4965    2004.5044    2039.1336    2108.5084    -476.5079    -3.735541    7.0800415   -4367.4246 
42581000    27.564132   -4692.5401   -4645.2961   -4692.5401            0    1811.3305    17.890605    23.349276    21.808821    9110.2571    1876.7348    2003.7062    1553.5504   -145.23204     -110.348   -104.54349    -4404.636 
42582000     27.05597   -4692.7817   -4646.4087   -4692.7817            0    1949.6315    17.972911    23.161762    21.884084    9110.0002    1823.2255    2416.0141     1609.655   -111.19479    138.30516   -241.17091   -4387.3806 
42583000    27.059606   -4693.8498   -4647.4706   -4693.8498            0     2068.552    17.845755     23.29268    21.894056    9100.8218    1985.9565    2338.1902    1881.5092   -98.262801   -191.75211    452.07403   -4372.9196 
42584000    28.838798   -4690.7568   -4641.3281   -4690.7568            0    1936.9378    17.926434    23.213972    21.902495    9114.5862    1946.2589    2126.6346      1737.92   -274.52996   -112.81628   -158.81075   -4383.8569 
42585000    28.344459   -4693.3496   -4644.7682   -4693.3496            0    1658.1715    17.931517    23.257368    21.872008    9121.4997    1566.7439    1979.2075    1428.5632  -0.71379339   -71.372513    196.39428   -4424.1854 
42586000     27.55236   -4691.9045   -4644.6807   -4691.9045            0    2016.8418    17.954972    23.251215     21.81953    9109.1065    2248.6659    1932.7514    1869.1083   -276.52047    87.220598   -7.9585017   -4376.7494 
42587000     26.14386    -4690.628   -4645.8183    -4690.628            0    2124.7346    17.806065    23.311875    21.932622    9104.0728    2347.6001    2161.2141    1865.3897   -205.92966   -65.153423    199.41732   -4363.7097 
42588000    28.254587   -4689.7893   -4641.3619   -4689.7893            0     2194.411    17.941422     23.15653    21.911921    9103.5503    2341.9626    2142.0425    2099.2278   -62.727868   -107.86003    298.04488   -4350.0189 
42589000     26.39162   -4693.7179   -4648.4836   -4693.7179            0    1920.2841    17.920687    23.254055    21.861399    9110.2714    1879.4324    1869.8408     2011.579    262.12932    6.7353337    218.69409   -4393.3471 
42590000     28.14557   -4690.7998   -4642.5593   -4690.7998            0    2261.4569    17.845595    23.300553    21.853998    9087.1597    2097.3644    2302.7103    2384.2961   -209.54934   -422.07399   -24.048395   -4342.8554 
42591000    26.600115   -4694.0315   -4648.4398   -4694.0315            0    2210.7158    17.859484    23.228201    21.938962    9101.2398    2263.4584    2014.1552    2354.5339    255.47556    376.85752   -54.725436   -4355.0065 
42592000    28.168314   -4691.6686   -4643.3891   -4691.6686            0    1690.3034    17.841461     23.32371    21.916262    9119.9938    1838.1482     1588.755    1644.0069   -304.62309     -176.051    448.67943    -4418.569 
42593000    26.092818   -4692.1004   -4647.3782   -4692.1004            0    2121.1832     17.89586    23.294073    21.846513    9107.1007    1653.7562    2501.5459    2208.2475   -224.29378   -310.89302   -371.24755   -4365.6474 
42594000    26.570866   -4691.3374   -4645.7959   -4691.3374            0    1774.4779    17.960385     23.20479    21.892489    9124.0663    1574.3924    2079.5717    1669.4696   -678.66433    172.75414    136.25571   -4409.6747 
42595000    27.037169   -4692.8783   -4646.5375   -4692.8783            0    2094.7264    17.882091    23.251035    21.884216    9098.9564    2308.2722    2063.9434    1911.9636    84.586726   -78.127263    66.255018   -4368.5695 
42596000     28.35134   -4692.7792    -4644.186   -4692.7792            0    1986.2019    17.818859    23.358511    21.890177    9111.1732    2370.8653    1686.6189    1901.1216   -395.32901   -83.014152   -44.746193   -4380.2652 
42597000    28.276207   -4693.6385   -4645.1741   -4693.6385            0    1359.4058    17.866802     23.26565    21.992702    9141.9868    1568.9241    1467.5186    1041.7748    41.131852   -68.122279    242.62454   -4463.9293 
42598000    26.881513    -4694.524     -4648.45    -4694.524            0    1696.7596    17.872019     23.34326    21.868001    9123.1372    1715.6936    1743.2508    1631.3344   -131.89674    87.457815    49.519132   -4422.6934 
42599000    28.633751   -4692.9364   -4643.8592   -4692.9364            0    2136.1697    17.915622    23.275574    21.847967    9110.5237    1821.6671    2255.5343    2331.3076   -275.58946    -321.6596   -191.79625   -4360.0313 
42600000    27.419023   -4694.3847   -4647.3894   -4694.3847            0    2038.0011    17.955966     23.21983     21.85642    9112.6948    2199.6569    2074.1869    1840.1595    -21.58742    394.49442    282.97895   -4376.5405 
42601000    27.293473    -4695.329    -4648.549    -4695.329            0    1740.7473    17.957386    23.267719    21.838286    9124.6346    1503.2916    1581.7633    2137.1869    509.08388   -155.71229    75.128015   -4416.9017 
42602000    27.800483   -4689.8575   -4642.2084   -4689.8575            0    1864.6085    17.900485    23.282403     21.87893    9118.4008    1852.8708    1901.8774    1839.0773    111.38109   -86.912115    -45.31912   -4394.2481 
42603000    27.713058   -4690.5854   -4643.0862   -4690.5854            0    2326.0451    17.834498    23.225845    21.946847    9090.8512    2725.1721    2215.0203    2037.9429    167.76926    206.58014    66.692274   -4334.6974 
42604000    28.125244   -4694.4672   -4646.2615   -4694.4672            0    1520.6767    17.938139     23.28231    21.874264    9135.5961    1511.6518    1483.0563    1567.3219    106.16884   -188.45019    103.26936   -4443.6567 
42605000    29.178685   -4691.9601   -4641.9488   -4691.9601            0     1983.069    17.939347    23.198047    21.890596    9109.9425    1902.3804    1990.8136    2056.0131   -228.47035     45.63981    16.814133   -4378.4799 
42606000    26.694246    -4691.834    -4646.081    -4691.834            0    2224.1163     17.87968    23.345734    21.785054    9093.3922    2452.5512    2017.8275    2201.9702   -268.88729   -163.67683    266.08138   -4351.1236 
42607000     27.26667   -4694.3253   -4647.5912   -4694.3253            0    1987.3688    17.849443    23.291437    21.908395    9108.1785    2160.0435    1855.2652    1946.7976    304.81592    149.19528    21.362752   -4383.6021 
42608000    27.940784   -4693.3784   -4645.4888   -4693.3784            0    1840.7715    17.912329    23.275476    21.879566    9121.9842    1799.8249    2117.8499    1604.6396   -683.03616   -27.496913    120.12476   -4400.6022 
42609000    27.058958   -4691.5294   -4645.1513   -4691.5294            0    1781.9041    17.823758    23.272067    21.969786    9112.9722    2209.9492    1460.7726    1674.9906   -32.583311    137.30874    30.871228   -4408.3302 
42610000    28.681658   -4694.2475   -4645.0881   -4694.2475            0    2057.4685    17.867084    23.266571    21.889253    9099.4891    2353.3485    1810.5711     2008.486   -286.22782   -221.84683    277.40372   -4372.0482 
42611000    28.877847   -4693.8438   -4644.3482   -4693.8438            0    1878.7241    17.879023    23.290701    21.875502    9109.2867    1911.0057    1997.4189    1727.7475   -140.28337    37.192984     3.483862   -4394.7604 
42612000    26.923353   -4690.2183   -4644.0726   -4690.2183            0    2011.2601    17.879751    23.348004    21.815236    9106.9116    1842.0115    2177.1384    2014.6305    16.992617    42.936764   -21.382683   -4376.9471 
42613000    27.132226   -4692.6011   -4646.0974   -4692.6011            0    1859.0593    17.909361    23.242756    21.887221     9110.838     1941.139    2228.0703    1407.9688   -101.15037   -48.058609    218.44514     -4399.08 
42614000     28.73773   -4690.7205    -4641.465   -4690.7205            0    1800.7539    17.956337     23.26655    21.817565    9114.9865      1491.69    1784.0306    2126.5411    96.985498    195.82959    20.884854   -4402.0859 
42615000     29.01365   -4692.1467   -4642.4182   -4692.1467            0    2022.7373    17.890079    23.226564     21.91504    9106.2485    1690.3647    2540.1047    1837.7424   -350.81987    322.96495    229.40349    -4373.788 
42616000    27.100894    -4692.552    -4646.102    -4692.552            0    1956.3727    17.932233    23.226281    21.863301    9106.0447    1766.5416    2008.1321    2094.4445   -59.896015    67.848384   -290.01303   -4386.2911 
42617000     26.40499    -4693.279   -4648.0217    -4693.279            0    2022.6843    17.874791    23.234695    21.930442    9108.0483    2192.0196    1980.3804    1895.6529    45.730288   -32.213554    209.07661   -4379.3455 
42618000    27.636555   -4694.2557   -4646.8876   -4694.2557            0    2281.5461     17.92316    23.217956    21.831163    9084.8018    1942.3426    2297.1719    2605.1236    -329.7091    123.22445    36.691791   -4344.5999 
42619000    28.629876   -4693.8367   -4644.7661   -4693.8367            0      1488.98    17.895725    23.332438    21.890137    9140.2461    1611.8881    1062.3308    1792.7212    334.95311     175.8724    66.631212   -4446.2834 
42620000    26.923535   -4692.2811    -4646.135   -4692.2811            0    2080.2355    17.822744    23.357323    21.868148     9103.526     2280.194    1436.1302    2524.3824    9.7846582   -248.05525    251.57845   -4369.9513 
42621000    27.534285   -4693.1487   -4645.9558   -4693.1487            0     2348.516    17.917289    23.213047    21.852016    9088.5783     1920.553    2423.8928    2701.1023    -120.1505   -91.238163   -339.74836   -4334.6657 
42622000    29.537783   -4692.7052   -4642.0784   -4692.7052            0    1846.1543    17.892495    23.236534     21.92254    9114.5056     1864.233    1629.8262    2044.4037    -14.81779   -84.823358    131.90924    -4396.677 
42623000    25.724002   -4692.9415   -4648.8514   -4692.9415            0    1968.0856    17.948131    23.264768    21.822017     9111.982    2131.5038    1617.8187    2154.9343    344.07555    134.63978   -27.733754   -4387.3147 
42624000    27.613114   -4690.0512   -4642.7233   -4690.0512            0    1891.9004    17.947489    23.249391    21.858078     9120.681    1743.4655    1608.1924    2324.0433   -78.480098   -129.80454    39.256053   -4391.0707 
42625000    28.772682   -4689.2446   -4639.9292   -4689.2446            0    2253.3433    17.878686    23.243878    21.887541    9095.8056    2093.7603     2298.157    2368.1126   -353.59904   -6.0163001    372.00797   -4341.0165 
42626000    28.054806   -4693.9151   -4645.8301   -4693.9151            0    2060.8851     17.87745    23.282496    21.892577    9112.3835    1910.5115     2122.251    2149.8927    -373.1638   -46.850965     22.53058   -4371.9493 
42627000    28.357932   -4692.6297   -4644.0252   -4692.6297            0    1828.5863    17.914778    23.185945    21.966449    9124.2272    1561.6445    1924.6097    1999.5048    -268.1494     77.51594    74.730354   -4400.6998 
42628000    27.201998     -4690.47   -4643.8467     -4690.47            0    1968.3932     17.92151    23.223712    21.882536    9107.5983    1774.3754    2008.8149    2121.9892    126.72347     87.37962     40.66183   -4382.3949 
42629000    29.636078   -4692.5152     -4641.72   -4692.5152            0    2134.1492    17.882174    23.250098    21.892618    9102.1251    1958.9562    2270.4431    2173.0483   -68.315183   -251.56648   -103.55711    -4358.422 
42630000    27.656236   -4694.4642   -4647.0624   -4694.4642            0    1810.4558    17.836934    23.255879    21.966528    9112.0142    1715.6711    2238.1926    1477.5038   -135.63328    6.2128236   -36.074956    -4406.472 
42631000    25.486095   -4690.3333    -4646.651   -4690.3333            0    2151.9307    17.879561    23.330755    21.817051    9100.8446     2228.021    1973.8814    2253.8896   -138.92278    89.719017    214.27206   -4361.0328 
42632000    29.195471   -4691.7402   -4641.7001   -4691.7402            0    1911.1236    17.941089    23.156688    21.933532    9112.4217    1792.8193    2579.0153    1361.5362    265.60757   -375.92862    107.40073   -4387.7207 
42633000    26.727586    -4691.339   -4645.5288    -4691.339            0    2178.7604    17.885171    23.301441    21.846747    9104.6375    2278.1629     2088.314    2169.8044   -213.62585    237.55364    18.832903   -4356.2291 
42634000    26.468305    -4694.286   -4648.9202    -4694.286            0    2419.4292    17.847207    23.345434    21.817988    9090.4823    2463.7642    2155.1706    2639.3527   -390.00031   -160.52859    124.82455   -4328.1635 
42635000    25.926365   -4693.5758   -4649.1389   -4693.5758            0    1905.8257    17.840618    23.285227    21.920272    9106.1817    1693.7078    1917.6074    2106.1619    32.144729   -63.473344   -98.753539    -4396.037 
42636000    27.782253   -4691.7548   -4644.1369   -4691.7548            0    2186.8297    17.872528    23.288406    21.857714    9097.6764    1954.7477    1897.9142    2707.8271    58.318518   -3.2027787   -179.33423   -4353.9878 
42637000     26.74009   -4693.4706    -4647.639   -4693.4706            0    1991.3024    17.841597    23.265939    21.921131    9099.4944    2115.0925    1845.0129    2013.8018    94.198111   -180.24211    63.514501   -4383.3796 
42638000    28.207295   -4692.7516   -4644.4053   -4692.7516            0    1916.6113    17.981806    23.148227    21.900158    9115.8734    1405.1819    2019.4577    2325.1943   -45.227574   -176.27182   -215.61725   -4389.6001 
42639000    26.786063   -4695.6164    -4649.706   -4695.6164            0    2296.3659     17.87945    23.278003    21.840601     9090.012    2077.9386    2152.1455    2659.0135    32.121918   -159.28261    379.88874   -4345.2803 
42640000    27.102344   -4693.5634   -4647.1109   -4693.5634            0    1719.0025    17.880724    23.313177    21.869546    9116.4616     1630.083    1898.4621    1628.4624   -370.11263   -65.417927    205.47316   -4418.5622 
42641000    26.870142   -4694.0195    -4647.965   -4694.0195            0    1711.5013    17.932993    23.246492    21.870389    9117.3094    2073.2435    1671.3467    1389.9136   -480.16192   -46.864941   -103.15983   -4420.3925 
42642000    26.901869   -4693.2593   -4647.1504   -4693.2593            0    1935.2929    17.923015    23.264215    21.846304    9109.1413    1872.6485    2047.5292    1885.7012    -349.3634   -17.058343    111.79282   -4390.0516 
42643000    25.961117   -4691.1465     -4646.65   -4691.1465            0    1911.1928    17.931568    23.230181    21.877398    9113.1084    1952.4378    2150.3589    1630.7817   -483.47077    23.287763    87.956835   -4392.6423 
42644000    28.170733   -4695.3337     -4647.05   -4695.3337            0    1777.2275    17.882365    23.344333     21.85712    9124.2959    1542.6624    1895.5812    1893.4391    208.71976    32.070068   -12.223679    -4410.557 
42645000    28.111036   -4689.2891   -4641.1077   -4689.2891            0    1930.1949     17.85985    23.300452    21.892842    9110.5438    2541.5445    1789.7258    1459.3145   -409.98673    91.891393    300.51986   -4384.6467 
42646000    27.821928   -4694.2813   -4646.5955   -4694.2813            0    2140.7569    17.856508    23.279214    21.892823    9100.5285    2615.7018    2120.8865    1685.6825    181.73595    193.81864   -308.42654   -4362.4702 
42647000    26.314253     -4693.32   -4648.2182     -4693.32            0    2117.2706    17.918592     23.23679    21.858288    9101.1476    2275.1844    2228.3017    1848.3257    275.66052   -60.535415    126.22725    -4367.191 
42648000    26.777422   -4694.2746    -4648.379   -4694.2746            0    1910.4096    17.877771    23.236977     21.94498     9116.501    1760.3681    2257.5879    1713.2729     38.63155   -8.3983301   -81.011172   -4394.3808 
42649000    29.554876    -4691.619   -4640.9629    -4691.619            0    2176.2324    17.921447    23.234256    21.858476    9101.6835    2199.5363    1857.6426    2471.5182    -197.7249   -91.427399   -99.087025   -4352.0926 
42650000     27.51334   -4694.7238   -4647.5669   -4694.7238            0    1875.8133    17.891259    23.325959    21.827561    9109.3132    1798.5364    1749.3718    2079.5316   -180.54609   -220.94625    53.877514   -4398.3651 
42651000    27.408022   -4689.8253   -4642.8489   -4689.8253            0    1595.9786    17.909333    23.331999    21.821552    9118.3655    1452.3081    1498.2876    1837.3402    -638.9055     342.7449    123.52932   -4430.6125 
42652000    26.853561   -4694.3837   -4648.3576   -4694.3837            0    1861.4087    17.887703    23.256649    21.880986     9102.666    2009.4776    1797.2345    1777.5141   -381.60355    -152.6281   -61.560692   -4401.2499 
42653000    27.233036   -4690.7882   -4644.1117   -4690.7882            0     1896.038    17.872932    23.353416     21.83232    9112.6794    1987.8389    1760.5648    1939.7102    399.35516   -91.178942    338.56806     -4392.13 
42654000    26.268325   -4692.4357   -4647.4127   -4692.4357            0    1717.5698    17.839562     23.36076    21.858542     9109.454    2014.2851    1614.3625     1524.062   -56.902287    122.57826   -91.235651   -4419.2301 
42655000     26.51491   -4688.6059   -4643.1603   -4688.6059            0    2457.0573    17.778613    23.264095    21.965613    9085.0509    2567.1251    2584.4928    2219.5539    231.82162   -364.97354   -51.717271   -4317.6097 
42656000    25.701381   -4695.4871   -4651.4358   -4695.4871            0    1981.4448    17.941292    23.233408    21.849313    9107.6101    1544.1248    2066.1428    2334.0669   -289.87288     81.48693    430.16488   -4388.2501 
42657000    25.966644   -4690.8247   -4646.3188   -4690.8247            0    1684.9458    17.865283    23.298489    21.934264    9129.7884    1651.5541      1461.55    1941.7332   -39.783845     395.9974   -127.73133   -4421.9706 
42658000    27.949248   -4694.4888   -4646.5848   -4694.4888            0    2332.4526    17.949482    23.207917     21.85059    9102.3022     2096.979    2297.4597    2602.9191    219.08763   -394.41787   -9.9142157   -4336.9569 
42659000    27.217489   -4692.6471   -4645.9973   -4692.6471            0    1729.5242     17.87694     23.27505     21.90578    9114.7029    1677.7879    2008.8208     1501.964   -82.915928    146.90694     256.8213   -4416.0941 
42660000    27.721766   -4688.8709   -4641.3567   -4688.8709            0    1912.4058    17.921658    23.217832    21.927553    9124.0995    2170.4458    1591.4842    1975.2873     228.8206   -193.27137   -156.26042   -4386.8813 
42661000    26.937046   -4694.0699   -4647.9008   -4694.0699            0    2139.2004    17.834518    23.293535    21.921969    9107.0213    2087.9855    2240.5548    2089.0608   -131.46757    228.84309  -0.51232612   -4363.7795 
42662000    26.770848   -4692.0117   -4646.1274   -4692.0117            0    2404.4565    17.863212    23.328854    21.819737    9092.9014    2478.2591    2188.8289    2546.2815   -23.026214    -391.2334    161.33691   -4327.2709 
42663000    28.023957    -4694.373   -4646.3409    -4694.373            0    1910.3608    17.888298    23.229641     21.92301    9109.8601    2326.5166     1802.204    1602.3619    117.42225   -32.851494    218.37796   -4392.5342 
42664000    27.903607   -4694.3055   -4646.4797   -4694.3055            0    1466.6474     17.98199    23.216111    21.886297    9136.9133    1131.2915    1685.6421    1583.0087   -8.0038271    81.593986    171.66165   -4451.0452 
42665000    27.403555   -4692.4032   -4645.4344   -4692.4032            0    2064.0564    17.875151    23.323798    21.842612    9106.5435    1803.4868    2449.5673    1939.1151   -19.593948   -185.70505     215.9364   -4371.3079 
42666000    27.347761   -4691.0335   -4644.1604   -4691.0335            0    2172.8966    17.859833    23.301753    21.875867    9103.9789    2560.4026    2105.3779    1852.9092    21.272543    68.021573   -112.57561   -4355.6601 
42667000    26.386429   -4693.7166   -4648.4911   -4693.7166            0    1727.9522    17.857791    23.349061    21.875529    9121.2784    1804.7895    1500.7539    1878.3131   -271.12039   -319.89093   -153.04001   -4418.6312 
42668000    29.486608   -4692.0736   -4641.5345   -4692.0736            0    2107.3532     17.83106    23.320992    21.911518    9111.6422    2138.5597    2138.1533    2045.3467   -216.31757   -23.113923    183.43505   -4361.5011 
42669000    28.086942   -4690.3405   -4642.2004   -4690.3405            0    1894.6903    17.887519    23.288413    21.877692    9113.6321    2187.9076    1405.0076    2091.1557   -290.41303    172.47435    83.441348   -4390.3715 
42670000    26.883977   -4691.9628   -4645.8846   -4691.9628            0    2002.8053    17.901414    23.347424    21.810025    9115.5416    1853.2408    1920.1382    2235.0368   -345.11585   -201.90299    379.66382     -4379.63 
42671000    27.580479   -4692.1169   -4644.8449   -4692.1169            0     2181.043    17.870313    23.290824    21.877464    9105.7137    2411.2702      2085.83    2046.0288   -194.32667     189.4428    191.09981   -4355.2079 
42672000    28.286494   -4695.1565   -4646.6744   -4695.1565            0     2023.881    17.902969    23.314846    21.826216    9110.3714    1946.9923    1715.6027     2409.048    5.4371406    24.942902   -103.26584   -4377.7706 
42673000     26.95166   -4692.2317   -4646.0374   -4692.2317            0    1853.5844    17.906925    23.243616     21.91173    9120.1371    1562.9252    1758.5174    2239.3106    257.75042   -107.35719    125.08132   -4399.4962 
42674000    27.202135   -4693.4584   -4646.8348   -4693.4584            0     1894.737    17.915643    23.235815     21.88596    9110.7871     1862.119    1816.4542    2005.6377   -47.490313    223.36687     194.3574   -4395.0783 
42675000    27.877326   -4690.5644   -4642.7836   -4690.5644            0    1999.9784    17.823793    23.251207    21.952984    9097.8585    1984.0261     2186.422    1829.4871   -76.966299   -60.617347   -198.95035   -4377.4206 
42676000    27.417833   -4692.1082   -4645.1149   -4692.1082            0    2012.3544    17.982884    23.169261    21.870304    9112.2653    2004.1533    2213.6666    1819.2434    201.98321    53.197464    448.02891    -4377.687 
42677000    27.948437   -4689.8109   -4641.9082   -4689.8109            0    2031.1026    17.900177    23.195928    21.931699    9106.2874    2280.6768    2385.3577    1427.2732   -271.16803   -64.081937    287.97007   -4372.1659 
42678000    27.988815   -4691.6725   -4643.7006   -4691.6725            0    2268.1735    17.830535    23.352164    21.861985    9102.9281    2685.9315    2161.7403    1956.8486    159.44858    19.349478   -98.975616    -4342.585 
42679000    26.979598   -4691.9275   -4645.6854   -4691.9275            0    1820.5732    17.839526    23.346123    21.902514    9122.0414    2141.1581     1950.698    1369.8635    65.536358    169.40397    122.01704   -4403.4843 
42680000    28.660202   -4695.5698   -4646.4471   -4695.5698            0    2125.8195    17.928852    23.243601    21.853849     9107.178    2505.1564    2051.0242    1821.2778   -56.247678   -12.222267     230.0754   -4364.0983 
42681000    28.292893   -4693.1544   -4644.6613   -4693.1544            0    1728.2613    17.905039    23.349105    21.827513    9125.3549    1875.7278    1988.7041     1320.352    125.79473     10.26801    144.72997   -4414.6575 
42682000     28.27577   -4690.2911   -4641.8274   -4690.2911            0    2079.2897    17.933846    23.265872     21.82302    9105.5803     1967.228     2402.674     1867.967   -265.57272     153.5161    105.89172    -4365.707 
42683000     27.83341   -4693.5271   -4645.8216   -4693.5271            0    2062.2493     17.84071     23.29879     21.89781     9102.196    2394.6692    1977.4603    1814.6184    125.18278   -281.13711   -217.77692   -4372.0658 
42684000    27.469281   -4694.3374    -4647.256   -4694.3374            0    2480.3028    17.860489    23.352467    21.799039    9092.0841    2498.5156    2253.1508    2689.2419    29.819203    314.86549    315.11711    -4318.371 
42685000    28.525718   -4692.3283   -4643.4362   -4692.3283            0    1827.6048    17.832485    23.323491    21.929721    9120.9178    2065.2047    1864.0033    1553.6065   -186.24213    375.33259   -222.35967   -4400.3296 
42686000    28.398616   -4691.6562    -4642.982   -4691.6562            0    2034.1021    17.883567    23.327548     21.82809    9106.2373    1975.0345    1896.0557    2231.2161   -57.152658   -314.50995    104.98998   -4372.8428 
42687000    27.140219   -4692.7428   -4646.2254   -4692.7428            0    2234.2133    17.906399    23.257563    21.851026     9100.061    1985.7707    2485.9339    2230.9354     71.63635    75.894906    186.69384   -4349.7117 
42688000    28.805459   -4690.7688   -4641.3972   -4690.7688            0    2195.7254    17.886026    23.246614    21.887282     9100.503    2047.2523    2325.4483    2214.4756    395.13657    348.99908    2.4792042   -4349.9773 
42689000    25.744698   -4692.0791   -4647.9535   -4692.0791            0    1989.7752    17.852172    23.245939    21.950852    9109.3948    2157.5259       1857.5    1954.2998   -33.046024   -202.43807     22.51825   -4383.6095 
42690000    29.605621   -4691.5842   -4640.8412   -4691.5842            0    1636.4548    17.902524    23.245374    21.926868    9124.8849    1596.9228    1628.7108    1683.7309   -196.90292     138.0872    98.247135   -4423.0665 
42691000    27.476975   -4691.1434   -4644.0488   -4691.1434            0    2018.7756    17.912154     23.21967    21.900478    9108.7219    1922.7229    1954.3543    2179.2497    393.14179     116.3734    91.832385   -4375.8719 
42692000    28.125771   -4691.6943   -4643.4877   -4691.6943            0     2016.035      17.8978    23.272377    21.872653    9110.4927    1768.0716    1936.7636      2343.27    198.71341   -198.68641    127.96477   -4375.6228 
42693000    27.016171    -4690.826   -4644.5212    -4690.826            0     2044.596    17.941401    23.192374    21.908382    9116.1588    1886.9256    2129.4365    2117.4257   -56.491709    439.13418    216.60805   -4372.6925 
42694000    26.913565   -4687.1961   -4641.0671   -4687.1961            0    2150.5094    17.949728      23.2433    21.808204    9098.6209    1967.1978    2118.4624    2365.8681   -73.505984   -6.3834012    72.915089   -4355.7073 
42695000    27.762101   -4693.1035   -4645.5202   -4693.1035            0    2016.3227     17.89158    23.278982    21.871241    9109.3229    1962.2281    1959.3101    2127.4298   -223.45191    26.099323   -53.326736   -4377.6515 
42696000    27.294776   -4691.9053    -4645.123   -4691.9053            0    1744.0778    17.855526    23.253892    21.974854    9124.1895    1692.6556    2009.9643    1529.6134     267.5651    29.739443    220.23318   -4413.0439 
42697000    28.469692   -4692.9833   -4644.1872   -4692.9833            0     2024.227     17.89262    23.198585    21.958026    9114.4137    2208.6357    2276.8593     1587.186   -374.98759     80.50537    237.96619   -4375.1181 
42698000     27.80003   -4691.6452   -4643.9968   -4691.6452            0    1841.3474    17.875845    23.237844     21.94773    9117.0012    1942.6143    2059.6427    1521.7851    467.26931   -212.15332    -102.8157   -4399.1674 
42699000    28.085693   -4691.0103   -4642.8724   -4691.0103            0    2094.9819    17.949889    23.280131    21.802543    9110.7542    1664.6811    2579.1506     2041.114   -38.748337   -45.384859   -8.1256738     -4364.51 
42700000     28.17831   -4694.3232   -4646.0266   -4694.3232            0    1896.5592    17.852554    23.372258    21.847942    9116.1521    2174.1104    1577.7749    1937.7922   -129.16106     -70.7305   -68.410338   -4393.8795 
42701000    27.871342   -4692.1793   -4644.4087   -4692.1793            0     1943.149     17.83942    23.253652    21.968939    9113.4115    2506.0152    1901.5538     1421.878     -317.934   -8.5266564    94.177974   -4386.1453 
42702000    27.230289   -4690.0098    -4643.338   -4690.0098            0    2046.2991    17.925923    23.262768    21.840739    9107.7319    1720.8165    2328.8309    2089.2498   -185.64362    79.030635    280.61616   -4371.5344 
42703000    27.200774   -4694.6057   -4647.9845   -4694.6057            0    1950.0466    17.945509    23.287815     21.80474    9112.4555    1771.8972    1921.3645    2156.8781    115.03783   -357.78069    26.420309   -4388.8315 
42704000    26.585698    -4692.792   -4647.2251    -4692.792            0    1409.7333    17.911386    23.294538    21.892671    9134.4423    1690.2548    1550.4931    988.45213    37.854625    166.71611    3.5858949   -4459.4254 
42705000    26.321912   -4691.9348     -4646.82   -4691.9348            0    1923.2796    17.848767    23.320106    21.889387    9111.1324    2213.1854    2206.7477    1349.9056   -117.76469   -184.07031   -19.099053   -4391.2613 
42706000    27.086056   -4694.0009   -4647.5764   -4694.0009            0    2261.7922    17.871471    23.234147    21.909395    9097.4026    2646.7931    2477.2147    1661.3689   -93.515475   -60.119361    185.95864   -4347.4902 
42707000    26.170288   -4690.9967   -4646.1417   -4690.9967            0    2065.4717    17.896979     23.25467    21.884725    9108.1674    2109.2507    2144.6028    1942.5614   -260.88808     122.9817    353.60305   -4371.7783 
42708000    28.788457   -4693.4071   -4644.0647   -4693.4071            0     1946.604    17.928527    23.211277    21.880652    9105.5022    2327.9521    1998.4537    1513.4062      267.895   -124.31378     123.1057   -4385.5666 
42709000    27.605906   -4692.0837   -4644.7682   -4692.0837            0    2133.6394    17.930405    23.239703    21.839054    9100.2749    1960.0503    2578.9444    1861.9236   -425.53494   -60.940614    114.28768   -4361.5954 
42710000    28.968301   -4690.9752   -4641.3245   -4690.9752            0    2192.3877     17.81592    23.223626     21.99035    9098.5134     2282.185    2129.2319    2165.7462   -32.160373   -187.78116   -178.53042   -4350.4111 
42711000    26.983067   -4691.9642   -4645.7161   -4691.9642            0    2071.7799    17.937793    23.287294    21.804227    9108.1197    1971.3865    1804.8054    2439.1478    4.4772111   -74.025504   -96.483242   -4370.5163 
42712000    28.043665   -4692.7127   -4644.6468   -4692.7127            0    2077.2983     17.89742    23.294471     21.83911     9104.964     1582.985    1971.2485    2677.6615   -12.303368    94.236397    110.33453   -4368.8095 
42713000    28.796075   -4692.6192   -4643.2637   -4692.6192            0    1886.0457    17.912116    23.309617     21.81547    9108.4945    1914.9682    1653.0924    2090.0765   -61.289738   -3.4448757   -122.30568   -4392.7251 
42714000    27.583962   -4692.6638   -4645.3858   -4692.6638            0     2238.052    17.764117    23.330454    21.945614    9095.2476    2164.8155     2285.157    2264.1835   -170.77935    306.02669    79.952371   -4348.5197 
42715000    27.216289   -4698.4005   -4651.7527   -4698.4005            0    1911.4864    17.925522    23.220347    21.874242    9104.8656    2193.8959    1808.3195    1732.2437    -70.25817    85.984774    182.54323   -4397.9358 
42716000    27.171054   -4692.8273   -4646.2571   -4692.8273            0    1942.2973    17.896981    23.120059    21.998186    9102.3933    1740.9588    2012.5965    2073.3366    229.65398    119.47537   -207.84709   -4388.4189 
42717000    26.617078   -4693.5478    -4647.927   -4693.5478            0    1836.5193    17.933392    23.154083    21.918753    9101.3512    1671.8978    2131.6739    1705.9863    257.85593   -50.252787   -83.446547   -4404.1587 
42718000    27.818779   -4691.4854   -4643.8049   -4691.4854            0    2105.7348    17.898483      23.1949    21.921757    9100.8944    1861.0728    2343.8906    2112.2409   -69.082742   -213.33321   0.14743404   -4364.3166 
42719000    27.419859   -4690.5761   -4643.5794   -4690.5761            0    2099.1104    17.921051    23.337624    21.762112    9101.6715    2118.6029    1758.2977    2420.4305    217.68684   -149.03688    71.413205   -4364.9466 
42720000    26.354799   -4692.8601   -4647.6888   -4692.8601            0    1915.6426    17.866166    23.306795    21.876061    9109.2591    1735.4546    1981.5208    2029.9524   -327.59894    65.608864    104.51286   -4393.1973 
42721000    27.339621    -4692.149   -4645.2898    -4692.149            0    2020.1536    17.965223    23.273749    21.765466    9100.5356    1650.5486    2079.5427    2330.3696    251.09549    173.80773    48.957327    -4377.171 
42722000    27.326293   -4693.8055   -4646.9691   -4693.8055            0    1769.2984    17.831055    23.301413     21.94836    9119.2976    2018.6093    1939.2997    1349.9862    61.437946    282.20174    189.02468   -4411.6602 
42723000    27.039227   -4690.4712   -4644.1269   -4690.4712            0    2246.0149    17.917174    23.165748    21.914463    9095.9209     2318.979    2819.4372    1599.6285    219.69528    147.48608    133.64451   -4346.1825 
42724000    27.334056   -4691.4186   -4644.5689   -4691.4186            0    2285.7534    17.873958    23.245101    21.872411    9087.5924    2185.6589    2427.9178    2243.6836    179.95728    77.377368    -224.9176   -4341.6307 
42725000    26.745563   -4694.3116   -4648.4706   -4694.3116            0    1804.6955    17.866594    23.334237    21.852181    9110.2472    1619.7969    1892.7365    1901.5531   -104.37771   -254.16547    217.31429   -4408.6922 
42726000    27.839367   -4692.5623   -4644.8466   -4692.5623            0    1928.5057    17.967316    23.203222    21.851742     9109.983    1585.4316     2034.774    2165.3114    165.13038    -154.6321    23.665633   -4388.6258 
42727000    28.750597   -4687.8513   -4638.5738   -4687.8513            0    2249.2402    17.912198    23.242375    21.855595    9098.9656    2454.0722    2288.3555    2005.2929    9.5335951   -258.53927    -186.7839   -4340.1017 
42728000    27.682483   -4689.6683   -4642.2214   -4689.6683            0     2089.076    17.965121    23.128794    21.905347    9101.9255    1776.5725    2351.6191    2139.0363    142.01582   -120.45161    177.98077   -4364.9128 
42729000    28.018698   -4692.5795   -4644.5564   -4692.5795            0    1772.6111    17.907985    23.232509    21.926026    9122.2669    1777.8794    1817.2395    1722.7144    25.703386    10.030579    83.213702   -4408.7302 
42730000    28.137435   -4690.3105   -4642.0839   -4690.3105            0     1776.108    17.942153    23.237587      21.8774    9121.3957    1748.2011    1632.8919    1947.2311    80.088305    205.19036    407.39321    -4405.815 
42731000    28.206844   -4691.1734   -4642.8279   -4691.1734            0    2041.8147    17.929854    23.223987    21.882092     9111.762    1634.8197    2308.7694    2181.8551   -241.52818   -12.729631    221.23129   -4371.4999 
42732000    27.982728   -4692.0612   -4644.0998   -4692.0612            0    1847.5371    17.948929    23.203776    21.863422    9105.7417    1753.6253    1951.2259    1837.7602   -224.73436    118.79053   -122.85677   -4398.7507 
42733000    27.086108   -4692.6589   -4646.2342   -4692.6589            0    2147.6097    17.943136    23.236086    21.808641    9092.6385    1631.5739    2027.3269    2783.9282    110.44984   -107.17085   -28.732419   -4361.4466 
42734000    27.179762   -4689.6248   -4643.0396   -4689.6248            0    1937.9371    17.886218    23.309722    21.873682    9119.6365    1858.4801    2169.4045    1785.9266   -308.04549    219.78932    146.76513   -4385.2929 
42735000    27.028517   -4694.2807   -4647.9547   -4694.2807            0    1866.4238    17.811996    23.377563    21.883282    9112.2217    2290.8625    1960.9532    1347.4558    352.99266   -55.000497    1.1080611   -4399.9212 
42736000    27.009605   -4692.6163   -4646.3228   -4692.6163            0    1838.1145    17.857068    23.321413    21.903676    9121.8309    2321.5506    1425.9496    1766.8431   -350.95275    25.194359    205.11715   -4401.7938 
42737000    27.675334   -4693.2892   -4645.8547   -4693.2892            0    2017.0243     17.91244    23.252303    21.867762    9108.0425    1746.1286    2413.2522     1891.692   -185.96564    112.87977   -132.63589   -4377.9304 
42738000    27.422461   -4690.4613   -4643.4601   -4690.4613            0    1647.2112    17.842849    23.360989    21.861971    9112.6511    2079.8239    1537.2091    1324.6005    45.431831    135.66323    260.28005   -4424.5479 
42739000    26.448589   -4688.8772   -4643.5452   -4688.8772            0    2458.7677    17.860233    23.203392    21.926892    9086.8984    2831.9614    2529.2383    2015.1033    -216.3752    233.39039    162.02115   -4317.7017 
42740000    27.031988   -4690.6596   -4644.3277   -4690.6596            0    2001.8341    17.880123    23.253639    21.905869    9107.9764    1984.8542    1953.0293    2067.6187   -162.32865     177.6157     290.2465   -4378.4231 
42741000    26.827608   -4694.2127   -4648.2311   -4694.2127            0    1861.4761    17.895167    23.288957    21.891453    9123.4767    1825.1106    1617.9263    2141.3914    313.69714    245.82518    2.6732513   -4400.5495 
42742000     28.17829   -4694.0946    -4645.798   -4694.0946            0    2057.7753    17.864456    23.312865    21.878354    9111.7145    1726.9849       2084.6    2361.7409   -14.116937   -274.35847    213.99937   -4372.3505 
42743000    28.503908   -4690.4077    -4641.553   -4690.4077            0    1788.8915    17.805857    23.408565    21.864521    9113.3416    2155.1394    1414.5262    1797.0087    3.3564733    115.16464   -54.033072   -4403.7936 
42744000    27.708611   -4689.4757   -4641.9841   -4689.4757            0    2511.1126    17.955402    23.233912    21.779009    9085.6416     2391.639    2417.0419     2724.657   -267.39526    93.942983    30.909664   -4309.2497 
42745000    28.552244   -4691.3347   -4642.3971   -4691.3347            0    2121.0557    17.855246    23.229724    21.943898    9101.7241    2604.9242    2146.7363    1611.5065    216.86973    141.60806   -139.71439   -4360.8497 
42746000    27.859606    -4693.123   -4645.3726    -4693.123            0    1741.6435    17.986717    23.167233    21.888185    9120.8605    2105.9598    2002.6309    1116.3399    228.41355    -128.0406    63.226361   -4413.7019 
42747000    25.930513   -4689.5404   -4645.0963   -4689.5404            0    2102.5749    17.865585    23.271354    21.892041    9101.7551    2350.7335    2341.5762    1615.4151   -183.33866   -148.02438    215.28298    -4366.001 
42748000    27.883453   -4690.1131   -4642.3218   -4690.1131            0    2177.3403    17.911923    23.231042    21.879788    9104.4566     2362.827    2537.7747    1631.4193   -92.153913    104.34294    -97.42981   -4353.2164 
42749000    26.714827   -4693.5882   -4647.7999   -4693.5882            0    1607.8109    17.906876    23.304351     21.88099     9131.115    1753.1343    1471.7933    1598.5051    234.77676    187.18579   -61.753832    -4433.691 
42750000    28.702953   -4689.5629   -4640.3671   -4689.5629            0    2364.2757    17.844968    23.264303    21.898331    9091.1087    2378.7207    2798.7179    1915.3884   -31.228073   -158.51228     97.63085   -4326.9008 
Loop time of 355.343 on 64 procs for 250000 steps with 864 atoms

Performance: 121.573 ns/day, 0.197 hours/ns, 703.545 timesteps/s
382.0% CPU use with 16 MPI tasks x 4 OpenMP threads

MPI task timing breakdown:
Section |  min time  |  avg time  |  max time  |%varavg| %total
---------------------------------------------------------------
Pair    | 24.055     | 26.51      | 30.634     |  36.7 |  7.46
Bond    | 1.4145     | 1.7428     | 2.3601     |  15.0 |  0.49
Kspace  | 188.05     | 195.91     | 203.26     |  27.0 | 55.13
Neigh   | 0.06685    | 0.073201   | 0.082844   |   1.6 |  0.02
Comm    | 43.986     | 48.18      | 52.21      |  35.1 | 13.56
Output  | 0.47443    | 0.47465    | 0.4759     |   0.0 |  0.13
Modify  | 55.426     | 62.803     | 68.473     |  52.0 | 17.67
Other   |            | 19.65      |            |       |  5.53

Nlocal:        54.0000 ave          62 max          46 min
Histogram: 2 2 2 2 0 0 2 2 2 2
Nghost:        2590.31 ave        2621 max        2561 min
Histogram: 4 1 2 1 0 0 1 2 3 2
Neighs:        13363.3 ave       15098 max       11466 min
Histogram: 1 2 4 1 0 0 1 2 2 3

Total # of neighbors = 213813
Ave neighs/atom = 247.46875
Ave special neighs/atom = 2.0000000
Neighbor list builds = 250
Dangerous builds = 0

unfix		3
unfix		2
unfix		1

write_data	data.final.${pid} nocoeff
write_data	data.final.1 nocoeff
System init for write_data ...
PPPM initialization ...
  extracting TIP4P info from pair style
  using 12-bit tables for long-range coulomb (../kspace.cpp:340)
  G vector (1/distance) = 0.37221091
  grid = 24 27 25
  stencil order = 5
  estimated absolute RMS force accuracy = 0.0031040952
  estimated relative force accuracy = 9.3478904e-06
  using double precision FFTW3
  3d grid and FFT values/proc = 6300 1296
Last active /omp style is kspace_style pppm/tip4p/omp

write_restart   restart.lmp.${pid}
write_restart   restart.lmp.1
System init for write_restart ...
PPPM initialization ...
  extracting TIP4P info from pair style
  using 12-bit tables for long-range coulomb (../kspace.cpp:340)
  G vector (1/distance) = 0.37221091
  grid = 24 27 25
  stencil order = 5
  estimated absolute RMS force accuracy = 0.0031040952
  estimated relative force accuracy = 9.3478904e-06
  using double precision FFTW3
  3d grid and FFT values/proc = 6300 1296
Last active /omp style is kspace_style pppm/tip4p/omp
Total wall time: 0:05:55
