LAMMPS data file via write_data, version 30 Jul 2021, timestep = 23500000

864 atoms
2 atom types
576 bonds
1 bond types
288 angles
1 angle types

0.5454610945659226 17.66211130543728 xlo xhi
1.7340123899083082 21.895165410083756 ylo yhi
0.6654612613167039 21.547734538696528 zlo zhi

Masses

1 1.00794
2 15.9994

Pair Coeffs # lj/cut/tip4p/long/omp

1 0 0
2 0.21084 3.1668

Bond Coeffs # harmonic/omp

1 450 0.9572

Angle Coeffs # harmonic/omp

1 55 104.52

Atoms # full

274 1 2 -1.1794 2.6051108738577207 4.643959024549025 0.8069472700029809 -3 4 -1
574 1 2 -1.1794 2.077975706297272 5.564825213920258 3.3917876781777765 6 0 0
575 1 1 0.5897 2.4026289639665404 4.862837277601908 3.9558106608606955 6 0 0
796 1 2 -1.1794 2.35263147962764 3.3857624227993357 5.2528281191035555 3 -6 -5
328 1 2 -1.1794 2.924860303864786 2.0432994197372936 2.0747204443326854 2 8 1
762 1 1 0.5897 4.216297136167698 3.8433611936343435 5.004493886057682 -1 -5 2
576 1 1 0.5897 2.386904239885424 6.369503620769944 3.808164155095915 6 0 0
275 1 1 0.5897 2.133888638342455 5.16019069996336 1.4610017014761945 -3 4 -1
408 1 1 0.5897 0.9554646065402073 2.793376654531489 2.8451698205651885 -4 -2 3
797 1 1 0.5897 2.6681923376177963 2.4824679301272123 5.224618033552494 3 -6 -5
276 1 1 0.5897 2.84363261249913 3.83745994835518 1.264084536720762 -3 4 -1
330 1 1 0.5897 3.5582683539113216 1.770619028156573 2.738611646224208 2 8 1
233 1 1 0.5897 4.815656223193604 6.11432928324276 2.784874631924885 0 4 0
350 1 1 0.5897 3.1993264392000715 6.608483611719214 6.247312286299828 -8 5 -5
798 1 1 0.5897 1.8805582131293042 3.4492294939914645 6.083148585390333 3 -6 -5
335 1 1 0.5897 4.0865569605540735 5.564694240341751 9.912230447023743 13 3 3
349 1 2 -1.1794 3.646428635125243 6.187190735459482 6.981426034879285 -8 5 -5
7 1 2 -1.1794 1.6796113399086765 4.063096255624556 7.941141021772744 2 1 1
8 1 1 0.5897 1.3176760741692877 3.3502181170564613 8.46758232569528 2 1 1
334 1 2 -1.1794 3.7047724488238747 5.251130281772818 10.732125052650307 13 3 3
383 1 1 0.5897 1.2567303559735474 3.2179362381855228 10.846522201663243 -6 -6 -3
351 1 1 0.5897 3.0927824402214985 5.437977853112907 7.201594596671286 -8 5 -5
336 1 1 0.5897 3.9920274898831623 4.3403629869995175 10.797771322396482 13 3 3
133 1 2 -1.1794 4.056553624399547 2.407864863283494 10.606755495092603 -4 -5 1
9 1 1 0.5897 1.3555083740030576 4.859969711694599 8.360999186666792 2 1 1
135 1 1 0.5897 3.6612216184526676 2.1406785113978324 9.77689898021222 -4 -5 1
511 1 2 -1.1794 0.5760392341818275 6.135637822322114 9.020543607416359 2 3 -5
823 1 2 -1.1794 2.2473474442018517 2.3661573061355536 14.212304517037555 -1 3 2
825 1 1 0.5897 3.064382199232207 2.806113462156257 14.44724105426393 -1 3 2
625 1 2 -1.1794 3.952245536963267 4.605792769827213 13.889190691010874 -8 0 3
626 1 1 0.5897 4.1591580462426645 5.082202337842384 14.693258348822148 -8 0 3
104 1 1 0.5897 1.3496277277415887 2.785233750032874 16.07205821829146 -2 0 7
824 1 1 0.5897 1.8902023144481195 2.8901480079927566 13.495236307050982 -1 3 2
382 1 2 -1.1794 1.5993289450248451 3.7439150018922476 11.569220911131515 -6 -6 -3
588 1 1 0.5897 0.9981375755747692 5.626163891170892 15.994520199798671 1 3 0
637 1 2 -1.1794 4.752262251771696 6.433004655642439 16.032722299617213 -6 2 3
627 1 1 0.5897 3.7518119514869728 5.289531856884443 13.249944543122181 -8 0 3
134 1 1 0.5897 3.704936581728006 1.7917474570656446 11.249474247855101 -4 -5 1
384 1 1 0.5897 2.205315599704713 4.357276237166494 11.153439365733554 -6 -6 -3
840 1 1 0.5897 4.700131636895233 6.353032098050847 11.564918033384442 -2 -2 -1
201 1 1 0.5897 1.6228392885488416 4.264643924801783 20.2511660389738 5 -4 -4
199 1 2 -1.1794 1.4259498676180167 4.178704634631861 19.318334471885837 5 -4 -4
828 1 1 0.5897 3.713348319433458 3.863225374284599 16.748854179878432 0 -1 5
115 1 2 -1.1794 2.388187923876189 5.268714654432648 17.08655217014949 0 -3 2
277 1 2 -1.1794 2.686959764126428 1.7750590291528285 18.877106030240952 0 2 4
472 1 2 -1.1794 4.118254470194689 6.248348468724576 20.14830871095829 1 1 0
116 1 1 0.5897 2.0391341595808954 5.134091730219063 17.96765492095602 0 -3 2
117 1 1 0.5897 3.035820459073757 5.966136545196008 17.188940471439672 0 -3 2
474 1 1 0.5897 3.56695549391366 5.587426008915628 20.567303415719994 1 1 0
200 1 1 0.5897 1.765538634238752 3.3160850124491894 19.07983836105474 5 -4 -4
279 1 1 0.5897 2.712461784793853 1.7453621319986585 17.92066269905162 0 2 4
103 1 2 -1.1794 0.746305350426029 2.3155679251664294 16.648050003203032 -2 0 7
826 1 2 -1.1794 4.393346255050972 3.196333323172291 16.844695326838565 0 -1 5
702 1 1 0.5897 1.8424498228075397 7.866123476330754 1.6618726579025567 5 -2 4
234 1 1 0.5897 4.129429886454816 7.38524891270806 2.330857784249725 0 4 0
208 1 2 -1.1794 2.115243532202233 10.831172739237527 1.0561718780531124 -1 -1 2
398 1 1 0.5897 4.561662315407227 9.735785132274948 3.989640520365149 4 6 -9
210 1 1 0.5897 2.254133814678142 9.929015233534537 1.3444928000536174 -1 -1 2
701 1 1 0.5897 1.8573588892866955 8.552630420930846 3.0111666772892476 5 -2 4
700 1 2 -1.1794 2.359192078626548 8.46524157986337 2.2007048481922205 5 -2 4
397 1 2 -1.1794 3.9434182213378413 9.977506441524621 4.67933192301872 4 6 -9
429 1 1 0.5897 2.7576504869076994 8.679892933675688 4.942582326382863 3 3 -6
427 1 2 -1.1794 2.229391109298472 7.884697280507248 5.012650086971401 3 3 -6
209 1 1 0.5897 2.564925548375513 11.364531933624264 1.7116243065703414 -1 -1 2
428 1 1 0.5897 1.5715962046037273 8.09128614545814 5.676678384516401 3 3 -6
399 1 1 0.5897 4.475817701867113 10.023631702038818 5.473514234035029 4 6 -9
492 1 1 0.5897 3.588430599924961 11.463138550669024 3.6970402650041962 -2 2 3
232 1 2 -1.1794 4.778185362715408 7.056016043560848 2.9530005417894936 0 4 0
565 1 2 -1.1794 0.6086488531637357 11.582550096214433 5.100461012160243 0 8 -8
616 1 2 -1.1794 1.2467683952360469 9.8656408696349 7.5897156377797135 2 2 -1
518 1 1 0.5897 3.5088866278668394 7.73487160947426 8.000425666825166 1 -4 -7
519 1 1 0.5897 2.712206079272601 9.022246630184512 7.993900440811139 1 -4 -7
214 1 2 -1.1794 3.8808475807052063 8.903792281806739 10.908180061685668 0 2 1
523 1 2 -1.1794 1.4323680666547087 10.427064566591735 10.373032390869621 0 -1 5
517 1 2 -1.1794 3.5080249144900684 8.626316602113338 8.34917652819832 1 -4 -7
618 1 1 0.5897 1.0375798117448842 10.694031991681957 7.158052226054757 2 2 -1
216 1 1 0.5897 3.8777380342128955 8.791373975653324 9.95756597040011 0 2 1
525 1 1 0.5897 1.463882252621252 10.38835397694822 9.417097388617005 0 -1 5
524 1 1 0.5897 2.2742367990396435 10.069676015581601 10.65558214415787 0 -1 5
537 1 1 0.5897 0.6214283994792993 8.592919580967617 10.983046962642732 4 6 5
25 1 2 -1.1794 2.056773459099049 7.088360190627372 13.297244112419213 1 4 6
231 1 1 0.5897 2.302271694506823 8.91768138842761 13.485897825319466 -1 7 -1
229 1 2 -1.1794 2.406059515089578 9.789011387692875 13.868409739954775 -1 7 -1
404 1 1 0.5897 4.138377990603426 8.965921350985596 14.246079670039801 4 -3 -3
230 1 1 0.5897 1.8578280305739923 9.773558783489332 14.652951485268241 -1 7 -1
390 1 1 0.5897 3.0046956867582955 11.213810466675993 12.81819401106013 0 5 3
27 1 1 0.5897 1.5299482382190375 7.160424513178284 12.501272008501651 1 4 6
36 1 1 0.5897 4.345424777655182 10.921570221565723 15.844888477340538 -1 -1 0
34 1 2 -1.1794 4.600201179708105 11.745768824160121 15.430044361047914 -1 -1 0
26 1 1 0.5897 1.4412292182633817 6.788283268713324 13.96610448746258 1 4 6
215 1 1 0.5897 4.406267200541043 8.173201165786745 11.234512034183986 0 2 1
529 1 2 -1.1794 3.626334464025553 9.727279003492104 17.006125429840697 -3 1 -6
42 1 1 0.5897 3.0323135217444914 10.470984703871364 20.404359389087826 2 -3 1
375 1 1 0.5897 1.7071927094190413 7.44275774416351 20.004927919786066 3 6 -5
449 1 1 0.5897 1.9842642288489016 10.301755877689121 16.83284362588236 7 2 -1
402 1 1 0.5897 0.722550466973896 7.336215679414999 17.960432309081686 -6 1 6
531 1 1 0.5897 4.107192732480412 8.916649429944297 16.838873964047337 -3 1 -6
530 1 1 0.5897 3.6319594564607667 9.817377771315547 17.959102585211692 -3 1 -6
373 1 2 -1.1794 2.088571380560854 7.740795190784402 19.179068638976467 3 6 -5
40 1 2 -1.1794 3.556885193226862 10.190019339148511 19.654568988507936 2 -3 1
41 1 1 0.5897 4.290849969920783 9.712056068519605 20.040781401020215 2 -3 1
374 1 1 0.5897 2.4547346526306315 8.601968485460027 19.380728890773867 3 6 -5
112 1 2 -1.1794 0.7270126307797887 6.923845044733154 21.44166962755332 -4 -1 -1
863 1 1 0.5897 0.8498514965893482 11.655057855765598 20.746977226206695 2 -1 -3
448 1 2 -1.1794 1.079915256960871 10.532682552688977 16.62037521327808 7 2 -1
450 1 1 0.5897 1.024136387801761 11.471795467635909 16.797214864027605 7 2 -1
473 1 1 0.5897 3.4992499275660855 6.879192608184309 19.780642667652522 1 1 0
532 1 2 -1.1794 3.265157621177994 15.285514190478038 2.980324123008478 -6 -2 0
323 1 1 0.5897 0.8513120119583502 13.202593243648774 3.500269293255109 8 -1 -3
490 1 2 -1.1794 3.152617526958889 12.146488482942909 3.187663747014989 -2 2 3
534 1 1 0.5897 2.5020586639427176 14.709859642709224 2.9292186035569547 -6 -2 0
533 1 1 0.5897 3.8620254821400013 14.952897811731633 2.309933539519636 -6 -2 0
100 1 2 -1.1794 3.5707092540772245 15.150749871983068 5.777400174776804 5 -4 3
547 1 2 -1.1794 4.812886987027078 14.511426210622544 0.8358836613843823 10 -3 6
101 1 1 0.5897 3.666944198108011 15.276382353084399 4.833336016253503 5 -4 3
491 1 1 0.5897 3.8287378416796725 12.809503234407343 3.0475460583661724 -2 2 3
322 1 2 -1.1794 0.5588180358120951 13.963789661485503 2.9989119824075936 8 -1 -3
207 1 1 0.5897 0.9239213286950871 16.722327054900532 2.0351111852153227 -1 1 2
665 1 1 0.5897 2.2137308808267697 12.07759920399806 5.760289109687067 -1 -1 1
69 1 1 0.5897 1.3670119907632277 12.875256946346964 9.00594699984756 2 -5 -2
666 1 1 0.5897 2.846064157536048 13.356087906851972 6.267944263288945 -1 -1 1
705 1 1 0.5897 2.818064997162644 14.98843517117765 9.967633142387317 2 -3 -5
551 1 1 0.5897 3.4178639327700577 12.562077978646654 9.497290214681023 0 1 -3
664 1 2 -1.1794 2.839956503719335 12.408609309882388 6.404175857052561 -1 -1 1
704 1 1 0.5897 3.6102411166209887 15.961228554538128 10.815110459898191 2 -3 -5
317 1 1 0.5897 4.5918355952005845 12.523200715636218 6.255602125575153 -5 -2 -2
550 1 2 -1.1794 2.7250061601632045 13.051359839543805 9.94098588490166 0 1 -3
703 1 2 -1.1794 2.899753121732814 15.919370787301643 10.174981468207994 2 -3 -5
552 1 1 0.5897 2.757914139303413 12.745452249474589 10.847442959592486 0 1 -3
726 1 1 0.5897 2.339258234251332 16.53000038525697 6.09165955552039 2 -5 3
102 1 1 0.5897 4.403998593424167 15.445493076610385 6.144912102637853 5 -4 3
489 1 1 0.5897 3.1385983992131283 13.028791291016123 14.911301707754118 -2 -3 3
157 1 2 -1.1794 0.5874635045000304 13.456442144193266 13.149067823186847 2 2 0
2 1 1 0.5897 1.7711311511965946 16.335213504872186 11.512774792445756 1 -3 7
389 1 1 0.5897 3.445193032658406 12.601994051916172 13.231707861070356 0 5 2
487 1 2 -1.1794 2.9468706536686438 13.83888267920135 14.438761256932779 -2 -3 3
488 1 1 0.5897 3.7350075780540655 14.371504818810024 14.545903522443913 -2 -3 3
159 1 1 0.5897 1.222117731306133 13.711668829227618 13.818689588776351 2 2 0
1 1 2 -1.1794 0.9415918984854649 16.610963987357554 11.90281439880424 1 -3 7
388 1 2 -1.1794 3.4443867700702957 11.997857484683514 12.489189085645826 0 5 3
819 1 1 0.5897 0.5801001902770402 13.893122762116112 16.25468924169025 5 0 3
817 1 2 -1.1794 1.0487028374571867 13.328637770219744 16.86958143903075 5 1 3
697 1 2 -1.1794 2.338024961819934 15.827250701872128 17.399635561468425 -3 -1 -4
131 1 1 0.5897 3.1452555442878602 13.338818911265918 19.161493479144262 -7 6 0
132 1 1 0.5897 3.087903207454017 13.853120365784259 20.584279602989305 -7 6 0
690 1 1 0.5897 1.0836182369641842 14.679948038146085 20.051376091498256 4 -1 1
864 1 1 0.5897 0.6119691712603047 12.56353363909363 19.559477592200828 2 -1 -3
130 1 2 -1.1794 2.5315913045826397 13.61134688878585 19.84373783951251 -7 6 0
698 1 1 0.5897 2.487454673948797 15.771389747899578 18.343485505200892 -3 -1 -4
699 1 1 0.5897 1.477963297351163 16.2392393519145 17.31678222745455 -3 -1 -4
818 1 1 0.5897 1.8265253160467558 13.831269266196948 17.111857892581487 5 1 3
243 1 1 0.5897 4.554856078821341 12.515178633799248 16.942101542541355 3 1 -1
241 1 2 -1.1794 4.481711731977955 12.887479258928428 17.820936871562647 3 1 -1
562 1 2 -1.1794 2.5167979480282803 16.811453144821485 20.32119737351721 5 -1 6
97 1 2 -1.1794 4.1927783081719845 18.942796588476337 5.419234462159287 4 -4 8
12 1 1 0.5897 4.0791305879847535 18.055533363135144 2.2092634163022256 2 0 4
10 1 2 -1.1794 3.6131891226480133 17.88021804250313 3.026878533867908 2 0 4
11 1 1 0.5897 3.339796291771678 16.96558594805505 2.9559516535331953 2 0 4
99 1 1 0.5897 3.9875944004605466 18.357146950442623 4.690369442848589 4 -4 8
695 1 1 0.5897 1.0350095682651714 19.731304967901693 2.2657532430601983 -1 -1 -3
155 1 1 0.5897 2.654922061762907 19.7378827688069 5.82305109509561 3 3 -1
696 1 1 0.5897 2.4769312250541207 19.307373485514166 2.0833447577285065 -1 -1 -3
694 1 2 -1.1794 1.7879106389430732 19.838839877334333 1.6844560395531232 -1 -1 -3
803 1 1 0.5897 4.514487809374804 20.559913794678746 4.5672571265372826 6 -1 -2
329 1 1 0.5897 2.367010129631695 21.437309565739298 1.9458146672926018 2 7 1
843 1 1 0.5897 1.3576533462495826 19.10180961203197 9.624181514406644 -1 -3 3
98 1 1 0.5897 4.579687669969316 18.37258856498371 6.083682094182195 4 -4 8
154 1 2 -1.1794 2.0483054127782676 20.40502553835437 6.144390233344874 3 3 -1
156 1 1 0.5897 2.358735141594561 20.606437111283512 7.02722906451103 3 3 -1
861 1 1 0.5897 3.366744684842219 20.15306487766508 8.914760545168543 -1 -2 4
498 1 1 0.5897 3.6606923640918687 18.20007823657477 8.045131094903944 1 2 0
496 1 2 -1.1794 2.768046996934752 18.185369471718854 8.390571708311283 1 2 1
725 1 1 0.5897 1.7874370181667396 17.56194126264061 7.052234945846754 2 -5 3
859 1 2 -1.1794 3.3583881463059773 21.005394548042457 8.479124702264867 -1 -2 4
497 1 1 0.5897 2.802707666957438 17.56502432088743 9.118810622910482 1 2 1
860 1 1 0.5897 4.230381991503997 21.085885366825167 8.092515351537358 -1 -2 4
607 1 2 -1.1794 4.795264154516015 19.410568566551614 10.721639290376572 1 6 1
724 1 2 -1.1794 1.5221609469807564 16.941610450971922 6.373172449756469 2 -5 3
29 1 1 0.5897 2.445842692671854 19.996417408371645 15.829631084088172 -8 2 5
175 1 2 -1.1794 0.8498863154547407 17.346773729187255 14.517277357843229 0 -4 6
844 1 2 -1.1794 2.527790342370526 20.56158985732663 12.351256245870653 -4 0 1
184 1 2 -1.1794 0.817834452223428 20.143065077051553 15.109365764096637 -1 3 4
845 1 1 0.5897 2.6434927089927767 21.212527271692963 13.043500706857024 -4 0 1
855 1 1 0.5897 3.097913986528587 19.068145674029978 13.094854680621115 0 2 -1
846 1 1 0.5897 1.6082597823886386 20.303499936875934 12.415766854241554 -4 0 1
853 1 2 -1.1794 3.281096656562476 18.192756042018992 13.43613660891275 0 2 -1
854 1 1 0.5897 2.455660811195651 17.911539735715444 13.83098452215512 0 2 -1
30 1 1 0.5897 3.8672567538233076 20.498639987598175 15.690221922715631 -8 2 5
177 1 1 0.5897 0.5638733231983171 18.259620382636978 14.552415255612248 0 -4 6
608 1 1 0.5897 4.065756753324587 19.344603902982826 11.33789833569919 1 6 1
176 1 1 0.5897 0.8285308273111223 17.124236939198813 13.586498975263648 0 -4 6
186 1 1 0.5897 1.1411404306258737 20.897650296654135 14.617044897713642 -1 3 4
28 1 2 -1.1794 3.303973817875367 19.967082729826714 16.25277711350601 -8 2 5
260 1 1 0.5897 2.7278962195045815 18.948059985036082 17.771400952315233 2 -2 3
563 1 1 0.5897 1.7620597423101583 16.863662940140284 20.907669117595866 5 -1 6
494 1 1 0.5897 1.1858605399960007 21.103368469614047 19.74382780533263 -3 -2 0
564 1 1 0.5897 2.3239948683841805 17.43996212650009 19.62541182400302 5 -1 6
261 1 1 0.5897 1.9040782674880268 19.42917294585747 18.946966643410885 2 -2 3
259 1 2 -1.1794 2.065070950373081 18.660684926066647 18.39939828147233 2 -2 3
773 1 1 0.5897 3.902870000899959 18.04923718654996 20.84624467573868 -3 -1 2
852 1 1 0.5897 0.650069979403778 17.6678350351602 18.33682147239096 -4 -4 -3
752 1 1 0.5897 4.142565596605383 18.054228306609563 16.346947494171168 4 -3 -2
772 1 2 -1.1794 4.645223393269699 18.328327915787174 21.382273589694876 -3 -1 2
495 1 1 0.5897 0.891254952943153 20.116699416020502 20.853676631850856 -3 -2 0
213 1 1 0.5897 4.5576624204912255 19.77807602674026 20.236016645218694 4 2 1
278 1 1 0.5897 3.5352787133386765 21.587252808979912 19.15076078934439 0 1 4
753 1 1 0.5897 3.649682699515787 16.893965796951047 17.185384152694276 4 -3 -2
751 1 2 -1.1794 4.420587905868168 17.43825967580647 17.02489231608063 4 -3 -2
493 1 2 -1.1794 0.657680764207647 20.332325258621687 19.95076306707022 -3 -2 0
368 1 1 0.5897 8.602093063448331 2.4605785940060483 2.3138709838416527 1 9 -2
443 1 1 0.5897 5.384294377978878 3.6378840892226885 1.6931418506879226 5 6 -3
14 1 1 0.5897 7.245115019968088 6.3423942603086445 4.813192435776675 0 -3 -2
237 1 1 0.5897 8.455679460258931 2.9479167602461267 5.004742223637972 2 -3 -6
15 1 1 0.5897 7.670289282554722 6.029878696561283 3.3941644248227942 0 -3 -2
151 1 2 -1.1794 7.829902168322382 5.830205298318881 1.3840585433677899 0 -6 1
760 1 2 -1.1794 5.144058328030541 4.07568412585933 5.0443296149562995 -1 -5 2
13 1 2 -1.1794 7.906318111671551 5.8693717164118615 4.307858858362163 0 -3 -2
444 1 1 0.5897 6.322761251377396 4.823417108035934 1.7698282860169516 5 6 -3
367 1 2 -1.1794 7.7323063351121055 2.0631004393244616 2.271476642632659 1 9 -2
442 1 2 -1.1794 5.584134326561728 4.412363501693715 2.219023512482069 5 6 -3
191 1 1 0.5897 6.827183851662881 2.3866407316522773 0.6768042911656614 6 6 -5
761 1 1 0.5897 5.416904755358471 4.131981916227382 4.128527234736676 -1 -5 2
152 1 1 0.5897 7.9874119908062635 5.193670716696126 0.686679104484351 0 -6 0
236 1 1 0.5897 8.64921262727419 4.320944838726467 4.3969441280686805 2 -3 -6
153 1 1 0.5897 7.906681316173019 6.681738309755047 0.9535735466327495 0 -6 1
244 1 2 -1.1794 6.34184363714563 3.801035015984195 7.5390240100400225 1 4 -2
287 1 1 0.5897 8.669427918546013 6.501199632451291 10.520779450179504 2 3 1
246 1 1 0.5897 5.907379998482934 3.9563395871288844 6.70031247542013 1 4 -2
577 1 2 -1.1794 8.924927271727183 4.811097053930514 7.094951029537419 4 0 -2
578 1 1 0.5897 7.985398016312014 4.631354426695035 7.131331620280746 4 0 -2
245 1 1 0.5897 6.041758364519082 4.515702454264657 8.100721752721842 1 4 -2
320 1 1 0.5897 6.449434793556688 5.403811769956354 9.903792197067519 0 -1 -1
370 1 2 -1.1794 6.8248537937957146 3.4861489187988037 10.80377660339165 4 8 0
371 1 1 0.5897 6.134743439762336 2.8666907281556613 10.566434470195775 4 8 0
319 1 2 -1.1794 5.9305925993394215 5.906288846574821 9.275583953730752 0 -1 -1
416 1 1 0.5897 8.989400020926938 3.8152671380625245 8.746622927281527 -3 -1 -1
417 1 1 0.5897 8.593430308422784 3.617942239565778 10.194505068822314 -3 -1 -1
470 1 1 0.5897 6.3340623116969015 1.903732965971261 7.692600950946906 0 -4 0
321 1 1 0.5897 6.388468183239183 6.743642780772923 9.201488604576475 0 -1 -1
437 1 1 0.5897 8.70827659034232 6.710696067885088 6.913071897832989 -4 8 3
45 1 1 0.5897 5.304617877366328 6.701222123498329 5.889770262861605 -1 9 -2
709 1 2 -1.1794 7.153798873119539 2.9156280569823574 13.47123441647102 -5 -1 -3
710 1 1 0.5897 6.550339191903494 2.4045092559099235 14.010587409710144 -5 -1 -3
220 1 2 -1.1794 6.962448733835476 5.464346807093184 14.359356119457814 1 -7 5
372 1 1 0.5897 6.938495294618868 3.369002478249021 11.747001307638424 4 8 0
222 1 1 0.5897 6.908970034298203 5.464808492397708 15.315110623691156 1 -7 5
286 1 2 -1.1794 8.091515976496229 6.209094670251738 11.225757932391213 2 3 1
221 1 1 0.5897 6.053715476430991 5.3886049388647566 14.068169777597326 1 -7 5
711 1 1 0.5897 7.202066378786805 3.7670291755728433 13.90610745406469 -5 -1 -3
288 1 1 0.5897 8.543960374930458 5.459011721370785 11.611731442149633 2 3 1
839 1 1 0.5897 6.144348385344439 6.751036754637347 11.78379697590133 -2 -2 -1
377 1 1 0.5897 4.9603496110120116 1.9284630392744635 15.717490469942675 0 5 2
309 1 1 0.5897 6.097395572842731 3.6238747739028767 19.513301463045043 2 6 -2
161 1 1 0.5897 8.2448095806145 4.074888016914901 17.13311662733576 0 5 2
307 1 2 -1.1794 5.82723642889052 4.285874229250088 18.876826590343587 2 6 -2
308 1 1 0.5897 5.494998646823559 5.008905069952787 19.40894536178394 2 6 -2
160 1 2 -1.1794 7.809571462244387 4.92627938112798 17.088197758817653 0 5 2
162 1 1 0.5897 7.096205395412867 4.864966269767386 17.723540539258426 0 5 2
190 1 2 -1.1794 6.15089772624478 2.637971946446578 20.92997048910214 6 6 -6
118 1 2 -1.1794 8.861207615801991 4.43075461346263 20.241563746690446 -2 -4 -4
827 1 1 0.5897 4.975272848602124 3.542458388439682 17.52135778649347 0 -1 5
192 1 1 0.5897 5.758404728365462 1.8091285344532322 20.6556060277139 6 6 -6
120 1 1 0.5897 8.689954317176815 3.650553349000735 19.71398413419065 -2 -4 -4
673 1 2 -1.1794 8.982632388112725 2.3717015536787516 17.141398351534914 -3 -2 -6
674 1 1 0.5897 9.050641912304584 1.8357942556415823 17.931648743008523 -3 -2 -6
624 1 1 0.5897 8.577144381191667 6.357218279563387 17.89922020808287 5 -2 -1
238 1 2 -1.1794 8.071340773098145 11.431709603084656 5.457795470348134 -4 -5 -1
572 1 1 0.5897 8.949459771895844 11.383614215151475 1.776382619164895 4 -3 -5
848 1 1 0.5897 7.541600702161613 8.473642962500165 4.803645539712666 -3 -3 5
788 1 1 0.5897 5.824550079051127 10.775588367534025 1.833683129548386 1 -5 6
847 1 2 -1.1794 7.736813150206114 9.019925966049737 4.042215872490248 -3 -3 5
787 1 2 -1.1794 5.686945165677246 10.046079136607544 2.43803374211703 1 -5 6
849 1 1 0.5897 6.882310981262217 9.198222839633026 3.649350618061686 -3 -3 5
43 1 2 -1.1794 5.819694471540515 7.347846609982828 5.40718099786426 -1 9 -2
789 1 1 0.5897 5.535191312163489 9.28997105662698 1.870932049501936 1 -5 6
240 1 1 0.5897 7.902965340217764 10.596758321624954 5.020954775480249 -4 -5 -1
44 1 1 0.5897 5.561506256152282 7.226822824476097 4.493400479328088 -1 9 -2
691 1 2 -1.1794 5.725643579027741 9.441279063385299 7.011965407234557 3 2 3
198 1 1 0.5897 7.291045358730629 9.205673709134281 8.952262095803619 0 -6 -1
692 1 1 0.5897 4.911507222773953 9.339032196705812 7.504960255989333 3 2 3
436 1 2 -1.1794 8.630420761162334 7.658065489027621 6.800221782459674 -4 8 3
693 1 1 0.5897 5.753526911808843 8.67880265133718 6.433863673288868 3 2 3
197 1 1 0.5897 7.521550273421445 8.551096945412093 10.297848527495743 0 -6 -1
359 1 1 0.5897 8.771097707421974 11.033705553949549 7.2134022153772115 5 0 -3
196 1 2 -1.1794 7.217096179592815 8.367664840830681 9.409019729776427 0 -6 -1
438 1 1 0.5897 8.333104057239243 7.977611611314731 7.652160426210632 -4 8 3
812 1 1 0.5897 5.496238628559707 10.835814811341606 9.127171887310348 2 4 -7
358 1 2 -1.1794 8.971584262056025 10.717069471849152 8.094230440208008 5 0 -3
811 1 2 -1.1794 5.1810289523693305 11.696858717999792 8.852303237416061 2 4 -7
466 1 2 -1.1794 6.907453306974454 10.691524771650295 14.401124136478497 5 -5 7
468 1 1 0.5897 6.507077585251155 9.830198826226676 14.519952100506915 5 -5 7
405 1 1 0.5897 4.9513736307018 7.9352103261749125 13.491926861089611 4 -3 -3
595 1 2 -1.1794 8.454403706569494 7.920673978591013 13.951720023943016 3 -6 0
136 1 2 -1.1794 6.10297800202992 11.62404466132651 11.898184804265593 5 -10 5
597 1 1 0.5897 7.9077363172333435 7.1353002230953635 13.977183155787259 3 -6 0
467 1 1 0.5897 6.590136529204253 10.98806085091935 13.548082940823955 5 -5 7
516 1 1 0.5897 7.209932307902876 10.09655435494031 11.866970148545658 0 -3 0
838 1 2 -1.1794 5.263994280182915 6.8699762739458246 12.140357933272544 -2 -2 -1
514 1 2 -1.1794 7.892856942587406 9.427062774492747 11.825363790291497 0 -3 0
441 1 1 0.5897 8.70500737022109 11.116662456577565 14.257774283310875 1 -2 -2
515 1 1 0.5897 7.862991646836953 9.000250134121295 12.681682278501446 0 -3 0
35 1 1 0.5897 5.478517461299373 11.580447184762534 15.087210538920193 -1 -1 0
138 1 1 0.5897 5.194309531019841 11.789962989695985 12.1493803410863 5 -10 5
776 1 1 0.5897 8.766293934790816 8.870900405379242 15.569896000440977 6 -4 4
403 1 2 -1.1794 4.9553497130880535 8.468718837149325 14.286694971582559 4 -3 -3
639 1 1 0.5897 4.839582047257149 7.089644101601685 15.341704294981758 -6 2 3
121 1 2 -1.1794 6.03633373063373 8.012528886262997 17.74507704672871 1 2 -2
123 1 1 0.5897 6.888565318429096 7.646302665825119 17.98150168810223 1 2 -2
622 1 2 -1.1794 8.586250217576016 7.206988719700653 18.339798773234826 5 -2 -1
142 1 2 -1.1794 6.1563820983658575 10.816491474806739 18.74163563587396 -3 5 1
75 1 1 0.5897 8.537203402604218 10.726331420078571 16.83678478783314 3 -3 2
122 1 1 0.5897 6.053417442649362 8.904152692948985 18.092984480504075 1 2 -2
82 1 2 -1.1794 8.04796297948487 8.153161032772001 20.90643512481982 -2 -2 -8
143 1 1 0.5897 5.356972594795412 11.33920116538116 18.678199725924905 -3 5 1
84 1 1 0.5897 8.200306737781577 7.730966382435532 20.06093783130928 -2 -2 -8
623 1 1 0.5897 9.031505950093141 7.790936373807804 17.72574014757575 5 -2 -1
338 1 1 0.5897 6.189584411875986 8.520416750067623 20.76829069243233 0 1 2
638 1 1 0.5897 5.1837772593948745 6.8248314677831985 16.792047181144135 -6 2 3
144 1 1 0.5897 6.788030092718526 11.275835222747096 18.188168260797326 -3 5 1
83 1 1 0.5897 8.721546574942813 8.831106985229312 20.960990794099025 -2 -2 -8
339 1 1 0.5897 4.951755764653124 7.657448984507298 20.89134923484269 0 1 2
337 1 2 -1.1794 5.272748767122767 8.546563053793943 21.042220439388302 0 1 2
73 1 2 -1.1794 8.440223607779636 11.642105238715002 17.09804906615995 3 -3 2
141 1 1 0.5897 6.050641453491458 11.443946029993036 20.533669907827782 -1 -1 -1
573 1 1 0.5897 9.102706132054605 11.658685633739646 21.177781391701515 4 -3 -6
604 1 2 -1.1794 8.78355454819434 16.26870295702244 5.12365696106474 -5 -1 1
148 1 2 -1.1794 8.204354946485843 13.838095086518326 3.8161299368166914 -1 3 0
296 1 1 0.5897 5.876926223224465 15.441188320422993 3.4656981477283155 0 -1 2
615 1 1 0.5897 5.421916853417977 13.139430124040988 4.642812530205317 -4 -2 3
295 1 2 -1.1794 6.172905442977066 16.347534817778733 3.550753884020007 0 -1 2
571 1 2 -1.1794 8.70531016018932 12.008095556017361 1.093208989683456 4 -3 -5
613 1 2 -1.1794 5.539956332555272 13.499662603161466 3.7638329195471254 -4 -2 3
150 1 1 0.5897 8.394755753996733 13.043838442216131 4.315339987672157 -1 3 0
297 1 1 0.5897 6.750389612778107 16.482932020871623 2.79939181609452 0 -1 2
549 1 1 0.5897 5.390155088898109 13.75363751380798 0.9298193298982582 10 -3 6
22 1 2 -1.1794 8.726221316386315 16.554899277178706 2.232169402643639 -6 2 0
614 1 1 0.5897 6.48846405369719 13.57960983566305 3.662609408877842 -4 -2 2
23 1 1 0.5897 8.81837066381782 15.694777512767864 1.822283645946426 -6 2 0
149 1 1 0.5897 8.406538683863584 14.554251757325423 4.418247455083359 -1 3 0
239 1 1 0.5897 7.203660475495065 11.815821780081684 5.583925920058943 -4 -5 -1
605 1 1 0.5897 8.159450888959423 16.751099058692372 5.665958971537248 -5 -1 1
24 1 1 0.5897 8.761800944188922 16.377837284860746 3.1722307302836104 -6 2 0
594 1 1 0.5897 8.559313337624415 13.773885131003764 0.7469761815757217 -3 -4 -1
77 1 1 0.5897 8.189805304097154 13.29692634554252 10.115500472415789 -4 -7 -1
793 1 2 -1.1794 6.305831069336567 15.002913140212582 7.562483658682877 -3 0 5
767 1 1 0.5897 6.0362231403032585 13.150368202128835 10.074601881663993 1 -6 3
795 1 1 0.5897 6.371483580924632 14.594817373456804 8.425888952574375 -3 0 5
76 1 2 -1.1794 9.006504236036779 12.849304435283516 9.894248593004129 -4 -7 -1
768 1 1 0.5897 5.877544602009239 14.55734981773105 10.610638516433989 1 -6 3
810 1 1 0.5897 5.707656509621497 16.595237759741387 7.46913583858742 4 -3 -3
766 1 2 -1.1794 6.53635916222601 13.932776910791365 10.307012133823191 1 -6 3
318 1 1 0.5897 5.625316147687962 13.550611897229285 6.6660756332178135 -5 -2 -1
794 1 1 0.5897 7.202780627824143 15.002752319298448 7.228125717060264 -3 0 5
316 1 2 -1.1794 5.534211060832265 12.691499377550565 6.253851082942385 -5 -2 -1
660 1 1 0.5897 8.505036499786161 16.22815937643676 8.417650792682844 1 -2 0
463 1 2 -1.1794 9.073594677098386 14.412976560606111 7.50504380700737 2 2 -1
78 1 1 0.5897 8.743536532944265 12.15483739432001 9.290188135951341 -4 -7 -1
813 1 1 0.5897 5.559540002114074 11.824534960226995 7.982399563825801 2 4 -7
598 1 2 -1.1794 5.117467523124047 15.65829548642712 11.73686033437662 -1 -4 -8
325 1 2 -1.1794 8.77985844678616 14.149127210810999 12.837549495136624 3 -1 -3
568 1 2 -1.1794 7.333469794814485 13.783444588950166 15.353137744862845 5 0 -1
86 1 1 0.5897 5.985223976174835 15.094354962624749 14.784594992651543 -1 6 2
569 1 1 0.5897 8.08280171872929 13.6194857668306 14.780487736265272 5 0 -1
85 1 2 -1.1794 5.249742864095391 15.580120296986687 14.411193115282655 -1 6 2
570 1 1 0.5897 7.653724207417418 14.421665292648727 15.990648948055352 5 0 -1
137 1 1 0.5897 6.508309588572111 12.490981612660201 11.877208270103337 5 -10 5
87 1 1 0.5897 5.262593160854626 16.422218764152273 14.866218287632506 -1 6 2
600 1 1 0.5897 5.262056310860736 15.609718393059916 12.681872720808984 -1 -4 -8
830 1 1 0.5897 8.487079590485806 15.971777995055152 13.61203834213889 6 1 7
599 1 1 0.5897 5.616093467362504 16.425966451744774 11.456926897464983 -1 -4 -8
707 1 1 0.5897 8.708851622318798 16.317901657419334 15.964376323914662 -2 -6 -4
829 1 2 -1.1794 8.311337906561324 16.722384822790588 14.179539793686653 6 1 7
706 1 2 -1.1794 8.506387076042575 16.004936445229834 16.846075661355975 -2 -6 -4
90 1 1 0.5897 6.87155843493708 15.716503434108656 17.436179184084153 7 -4 4
89 1 1 0.5897 5.383484542799984 15.952873541895952 17.58418359340093 7 -4 4
88 1 2 -1.1794 6.090760835400614 15.376163386341242 17.87309094926071 7 -4 4
778 1 2 -1.1794 6.439056156846004 16.46650525214003 20.641226531598303 -3 -1 -2
242 1 1 0.5897 5.110058348317307 13.609598943802162 17.82874527893679 3 1 -1
74 1 1 0.5897 7.976376204301751 12.052129913747162 16.36795099408792 3 -3 2