LAMMPS data file via write_data, version 30 Jul 2021, timestep = 14000000

1296 atoms
2 atom types
864 bonds
1 bond types
432 angles
1 angle types

-10.743127942267662 12.723127942267663 xlo xhi
-9.32516483244769 12.31516283244769 ylo yhi
0.09337313755647436 21.766625862449704 zlo zhi
-9.383264206124865 2.16130714280835 2.7756658724176857 xy xz yz

Masses

1 1.008
2 15.999

Pair Coeffs # lj/cut/tip4p/long/omp

1 0 0
2 0.21084 3.1668

Bond Coeffs # harmonic/omp

1 450 0.9572

Angle Coeffs # harmonic/omp

1 55 104.52

Atoms # full

163 55 2 -1.1794 -7.331019817978937 -7.995638858091584 1.046358365428032 1 1 0
270 90 1 0.5897 -8.578389359608899 -7.485706532821901 2.325892439161458 1 1 0
269 90 1 0.5897 -9.323185948392116 -6.210002453538799 2.657050342855068 1 1 0
268 90 2 -1.1794 -9.21433227392472 -7.118066686938862 2.9395867262979154 1 1 0
164 55 1 0.5897 -6.501591419862694 -8.349068465494407 1.3676474522037725 1 1 0
323 108 1 0.5897 -6.592704878785509 -5.948658793772587 3.4332577666511277 1 1 0
324 108 1 0.5897 -7.207610583554194 -4.573763442829554 3.5862572317409964 1 1 0
281 94 1 0.5897 -9.112824078479067 -3.9902861858346617 1.83820582989479 1 1 0
165 55 1 0.5897 -7.7399885038653515 -8.726650887322323 0.5830529258749626 1 1 0
1226 409 1 0.5897 -9.738934910418163 -5.837590648309274 0.1809285958784139 0 0 1
280 94 2 -1.1794 -9.78731749203632 -4.645296624549209 1.6585381579671368 1 1 0
299 100 1 0.5897 -6.503912700818834 -8.317194526851374 4.148118021787215 1 1 0
298 100 2 -1.1794 -6.0078063028791355 -7.512545977447141 4.2988161848139566 1 1 0
314 105 1 0.5897 -9.140915093800446 -7.023347736525071 4.7388569522844 1 1 0
275 92 1 0.5897 -10.65637376518324 -8.032132241900808 3.4531423538325603 1 1 0
73 25 2 -1.1794 -8.228479875312058 -3.7917304926771482 4.795935324629029 1 0 0
300 100 1 0.5897 -5.097989702102004 -7.801251135360371 4.3692868199533565 1 1 0
282 94 1 0.5897 -10.612793848526522 -4.167056857963492 1.735867704039403 1 1 0
322 108 2 -1.1794 -6.528661648650178 -5.05039812975096 3.108744147083785 1 1 0
261 87 1 0.5897 -6.699883609172348 -4.832784642901512 1.2562375581040777 1 1 0
257 86 1 0.5897 -12.68630419361364 -3.7015309788938717 2.4809662396157086 1 1 0
315 105 1 0.5897 -8.891753414527631 -5.66020905616271 5.3486761465033625 1 1 0
74 25 1 0.5897 -7.833829542084664 -3.264116403328863 5.490319919510743 1 0 0
260 87 1 0.5897 -7.0979345085787235 -5.968694103274322 0.33787262356366055 1 1 0
419 140 1 0.5897 -8.875508764107568 -5.77693559811999 8.684108601649223 1 0 0
418 140 2 -1.1794 -9.582327146791407 -6.294791134767468 9.069385059109184 1 0 0
428 143 1 0.5897 -6.459524685431127 -7.332008850416457 10.072080262658474 1 0 0
427 143 2 -1.1794 -5.842785765190408 -7.103237202034762 9.376708941263896 1 0 0
313 105 2 -1.1794 -9.145149779428762 -6.555391748148138 5.573916308395956 1 1 0
420 140 1 0.5897 -9.160761750916992 -6.792920917189225 9.769645218175667 1 0 0
414 138 1 0.5897 -7.039845416430218 -5.029525826442268 7.640689765129447 1 0 0
413 138 1 0.5897 -7.834826116057231 -3.7507033986217193 7.796922267067769 1 0 0
412 138 2 -1.1794 -7.683754955803524 -4.602836568082138 8.20594634777706 1 0 0
616 206 2 -1.1794 -7.513079223894678 -8.063477179384837 7.494970053550069 1 1 0
350 117 1 0.5897 -7.081080484504269 -4.405258076861581 9.820568928108052 0 0 0
618 206 1 0.5897 -8.062357953459399 -7.508965022411759 6.940905105969095 1 1 0
627 209 1 0.5897 -10.804729529930222 -6.572005995537042 6.433882930242457 1 1 0
429 143 1 0.5897 -6.273213299082621 -7.388435385364979 8.57067881370349 1 0 0
349 117 2 -1.1794 -7.11563049758168 -4.18173098920272 10.750704677230665 0 0 0
633 211 1 0.5897 -6.021736511372895 -6.354836040590627 5.669424496872135 1 1 0
631 211 2 -1.1794 -5.814229670284019 -5.68250495058979 6.318447632201325 1 1 0
351 117 1 0.5897 -7.207706469949614 -3.229065786123945 10.76533304621102 0 0 0
661 221 2 -1.1794 -9.512800650502655 -4.816081373213207 12.336237475189561 0 0 0
788 263 1 0.5897 -4.779379550503455 -4.8141332818491955 15.603398889747877 0 0 0
780 260 1 0.5897 -7.571924590374326 -4.329415582628363 15.257323552121058 0 0 0
779 260 1 0.5897 -7.32830088105809 -3.4155219505508487 14.075172077495393 0 0 0
778 260 2 -1.1794 -7.997195485701933 -3.967951626631776 14.479688062899644 0 0 0
740 247 1 0.5897 -10.76666130441961 -3.5714936976461082 12.11707422042798 1 0 0
662 221 1 0.5897 -9.173305937042967 -4.614348866276552 13.208214813938696 0 0 0
652 218 2 -1.1794 -5.588505002292141 -5.588266568126266 12.529025184053634 0 0 0
654 218 1 0.5897 -6.046349221976429 -5.0239939591286795 11.905983650026117 0 0 0
653 218 1 0.5897 -6.279108209011059 -5.926558010053838 13.098982925757065 0 0 0
663 221 1 0.5897 -8.756148214971013 -4.72517840884033 11.757095246516217 0 0 0
767 256 1 0.5897 -10.882782175277184 -3.2174659405469095 14.69740537709876 0 0 0
768 256 1 0.5897 -9.43793239189888 -2.842803522694868 14.949729947412086 0 0 0
682 228 2 -1.1794 -7.610468757795569 -7.131231102256826 13.729963978114652 0 0 0
684 228 1 0.5897 -8.375815623099575 -6.783160977697943 14.187402584018088 0 0 0
766 256 2 -1.1794 -10.33096169828711 -2.5064222538870373 15.023264429881364 0 0 0
729 243 1 0.5897 -8.045492968799806 -7.351270719184848 11.856128154843237 1 0 0
758 253 1 0.5897 -9.59706575455119 -5.7735609212671815 16.16201851042762 0 0 0
727 243 2 -1.1794 -8.061064601254227 -7.727046505149639 10.975876717946141 1 0 0
739 247 2 -1.1794 -11.564755711314154 -3.15831676581427 11.787774259280672 1 0 0
789 263 1 0.5897 -4.693877521683686 -4.790728942100924 14.092035592622072 0 0 0
772 258 2 -1.1794 -5.94613197522172 -2.261707338761841 13.539723210202478 0 0 0
1087 363 2 -1.1794 -6.462960434013237 -5.097135413130065 16.308758305125153 0 0 0
1089 363 1 0.5897 -6.409222172293168 -4.7558274626892185 17.201477449407626 0 0 0
1141 381 2 -1.1794 -8.61796640717338 -6.450124679960769 21.659716846578405 0 0 0
1227 409 1 0.5897 -8.520460156180093 -3.219818158017274 20.680277809028468 0 0 0
1143 381 1 0.5897 -8.252058484354908 -5.582287146283552 21.488633832092837 0 0 0
1088 363 1 0.5897 -6.762519267862993 -6.0001022251705605 16.414658296993018 0 0 0
1225 409 2 -1.1794 -7.776356807178075 -3.636509896052239 21.114801229013004 0 0 0
1152 384 1 0.5897 -6.627388026311105 -4.367251065731187 19.485267170187008 0 0 0
1248 416 1 0.5897 -5.464422499517944 -1.4688985394654104 20.80007177674799 0 0 0
1151 384 1 0.5897 -5.785794911757927 -5.607688651086385 19.69683598107803 0 0 0
1150 384 2 -1.1794 -5.917971412246917 -4.876487691774749 19.093418632900864 0 0 0
1109 370 1 0.5897 -8.89182951066705 -3.866499710952766 17.85553559399191 0 0 0
1129 377 2 -1.1794 -7.829430109552218 -2.3484193355817187 18.016789586194335 0 0 0
1130 377 1 0.5897 -7.497600178235659 -1.9880203978283575 18.839161064236244 0 0 0
1108 370 2 -1.1794 -9.491371283745888 -4.61270536386354 17.85768506532081 0 0 0
1097 366 1 0.5897 -8.798343625460857 -6.048321710007107 18.555068354490516 0 0 0
1219 407 2 -1.1794 -10.098301214630219 -2.1262857201817162 20.32697600319006 0 0 0
1121 374 1 0.5897 -4.6821279615771365 -3.339963732109519 18.78840236385431 0 0 0
1096 366 2 -1.1794 -8.460830235234901 -6.925434664813349 18.736655497658546 0 0 0
1131 377 1 0.5897 -7.228008733174546 -2.0174960509365096 17.349685070162018 0 0 0
82 28 2 -1.1794 -8.907267714408714 0.13952947285867268 4.133115247743324 1 0 0
67 23 2 -1.1794 -10.39690216582329 -2.159282175176733 4.2845907275647575 1 0 0
272 91 1 0.5897 -9.46539891153945 -1.200314990940539 1.1681018134472876 1 1 0
256 86 2 -1.1794 -12.020961295190974 -3.1029565807009947 2.1414344128083678 1 1 0
271 91 2 -1.1794 -10.276649733077146 -0.8518659378714624 0.7985471170153734 1 1 0
83 28 1 0.5897 -9.454937409125737 -0.6391642373819906 4.233001709004961 1 0 0
69 23 1 0.5897 -10.998411488158794 -2.2217709229991476 3.542628249346615 1 0 0
75 25 1 0.5897 -8.993479520594462 -3.288392948411886 4.5174974585434535 1 0 0
98 33 1 0.5897 -11.891399589964253 0.38809386824075176 4.611336047167439 1 0 0
54 18 1 0.5897 -11.44792635681774 -0.24784014604955829 1.9179857218483292 1 0 0
53 18 1 0.5897 -12.160665394302773 1.0236157947591717 2.3269485473982825 1 0 0
52 18 2 -1.1794 -11.981540587598882 0.12931380851880547 2.6174461248270737 1 0 0
258 86 1 0.5897 -12.423813386622182 -2.710695625534142 1.36678847232345 1 1 0
302 101 1 0.5897 -7.70876997322483 -1.957888493394428 2.47596185400668 1 1 0
68 23 1 0.5897 -10.962373188096468 -2.1974844487687974 5.055973546649602 1 0 0
99 33 1 0.5897 -11.65368321996764 1.5821324380193182 5.51127143499482 1 0 0
107 36 1 0.5897 -9.34961814066847 1.5344583540160865 3.037737501820091 1 0 0
301 101 2 -1.1794 -7.941464657310904 -2.5023226813002006 1.7238056737989418 1 1 0
59 20 1 0.5897 -13.355465389878447 -0.6852264843978535 3.281507219695195 1 0 0
273 91 1 0.5897 -10.502875195069668 -1.462966461403199 0.0973326594138706 1 1 0
1010 337 1 0.5897 -13.166379254165232 1.4295571012739643 0.1651750587401522 0 -1 1
426 142 1 0.5897 -8.785491646199569 -1.598325340221388 7.061239292730666 1 0 0
410 137 1 0.5897 -13.732607417746618 0.5330506402402406 8.106855451621588 1 0 0
528 176 1 0.5897 -12.052030319994056 0.48029358073039674 10.002349526555525 1 0 0
402 134 1 0.5897 -10.696160972369917 -0.23026009266439829 6.715985305174272 1 0 0
401 134 1 0.5897 -11.19960999457401 -1.3119241831395136 7.647943059893286 1 0 0
400 134 2 -1.1794 -10.4056268523779 -0.8427049060778842 7.391800878838469 1 0 0
527 176 1 0.5897 -11.835883697677566 1.4620479760566614 8.87032165465701 1 0 0
526 176 2 -1.1794 -12.520461548063542 0.9782225009164982 9.332390518600677 1 0 0
424 142 2 -1.1794 -7.922673313089476 -2.010786438621402 7.022327551375663 1 0 0
537 179 1 0.5897 -9.31710132942138 -0.23500000199798343 8.630890305079367 1 0 0
536 179 1 0.5897 -9.385150240131646 -0.011008476501135789 10.126647772809081 1 0 0
535 179 2 -1.1794 -8.782861165924459 0.019399442167980396 9.383308950753332 1 0 0
435 145 1 0.5897 -7.466317063453977 -0.9707234680395231 9.822672917502652 0 0 0
411 137 1 0.5897 -13.275746424179829 0.8393270945874658 6.696347258423102 1 0 0
425 142 1 0.5897 -7.325652587393764 -1.297406004923154 6.796666374801361 1 0 0
430 144 2 -1.1794 -12.267076740449884 -2.3937620107191053 8.30613502966143 1 0 0
417 139 1 0.5897 -8.856480476283446 0.9329044999100482 5.6864173088737076 1 0 0
522 174 1 0.5897 -10.077571317693957 2.1684876385143124 7.520523843632005 1 0 0
433 145 2 -1.1794 -6.75782470125063 -1.4408538080292743 10.262159263490505 0 0 0
415 139 2 -1.1794 -8.847801683562679 1.5398581738338262 6.426585104249531 1 0 0
369 123 1 0.5897 -12.684151447098074 -2.438015731412789 6.531734384583609 1 0 0
520 174 2 -1.1794 -10.66341397448495 2.524799390618494 8.188394278474567 1 0 0
97 33 2 -1.1794 -11.841188080755737 0.6436806202189853 5.532462381188836 1 0 0
760 254 2 -1.1794 -9.01723563302968 2.0269600641172136 13.015049867419515 0 0 0
790 264 2 -1.1794 -10.99297329243015 0.007718014284286312 13.873205572186345 0 0 0
791 264 1 0.5897 -10.811751226889069 -0.7563408681814323 14.420584373038825 0 0 0
836 279 1 0.5897 -11.016747480789205 -1.3690369508043343 11.173542825885233 1 0 0
762 254 1 0.5897 -9.353588104204668 2.255638458730246 12.148542847823474 0 0 0
761 254 1 0.5897 -9.700075370209339 1.4778643496169455 13.400362295656674 0 0 0
835 279 2 -1.1794 -11.030760855404028 -0.41698497483308294 11.075158601664194 1 0 0
792 264 1 0.5897 -11.696741124081697 0.468520611802445 14.329862240087289 0 0 0
837 279 1 0.5897 -10.976286220221388 -0.08235617802808903 11.970356882456471 1 0 0
769 257 2 -1.1794 -12.211340956290057 2.577276907860787 12.254061386912468 0 0 0
770 257 1 0.5897 -11.919234598810622 2.965170947208362 13.07900255665078 0 0 0
888 296 1 0.5897 -10.624990363127639 3.2941277952257693 15.278389701023258 0 0 0
897 299 1 0.5897 -7.866537124927924 2.592133426385068 14.230432057956612 0 0 0
896 299 1 0.5897 -7.824735254068802 2.4475437051674582 15.736895638272106 0 0 0
865 289 2 -1.1794 -12.827474106397013 1.2035332490347397 15.618074206796415 0 0 0
786 262 1 0.5897 -7.380251906562023 0.8526885717301091 12.549515940914153 0 0 0
771 257 1 0.5897 -11.442228459511083 2.61487024579446 11.685514936831684 0 0 0
817 273 2 -1.1794 -6.069375394190768 -1.442748164942401 16.192773938516417 0 0 0
857 286 1 0.5897 -13.309902749334881 1.2058112158364747 12.244517485745863 1 0 0
818 273 1 0.5897 -5.859810752836278 -1.8522294103747718 15.353301357236903 0 0 0
1205 402 1 0.5897 -12.03639540687805 1.1753046197902677 18.532208445453357 0 0 0
1216 406 2 -1.1794 -12.64520031256779 2.852012735715853 17.867022187141913 0 0 0
1250 417 1 0.5897 -11.29561872983166 0.7461670371854687 20.59571100461003 0 0 0
1259 420 1 0.5897 -9.264315270607545 1.6520980039912452 19.56115037096034 0 0 0
1258 420 2 -1.1794 -9.330106269444508 2.571914934178352 19.30450870070417 0 0 0
1236 412 1 0.5897 -7.650786861364712 -0.18410153774839166 20.092529263617877 0 0 0
1204 402 2 -1.1794 -11.721251672212242 0.33625249178561667 18.868163700310816 0 0 0
1099 367 2 -1.1794 -10.063318417016259 -0.7362593245479836 17.042380317796294 0 0 0
1234 412 2 -1.1794 -8.529965369467138 0.15278781515522333 20.26473272734163 0 0 0
1196 399 1 0.5897 -9.659398448724769 0.9126308422591833 16.62737159567895 0 0 0
1100 367 1 0.5897 -9.439434672295938 -1.2133705902496779 17.58946280694824 0 0 0
1235 412 1 0.5897 -9.071939973586916 -0.6300867053925501 20.362999856494653 0 0 0
1009 337 2 -1.1794 -11.365850966359718 3.6039245758981107 21.186818375857015 0 -1 0
1260 420 1 0.5897 -9.905074842448402 2.963883855150126 19.961761504052348 0 0 0
1197 399 1 0.5897 -9.50044971691972 2.142132499105598 17.496381741969003 0 0 0
1206 402 1 0.5897 -11.012884141672032 0.09040302995016702 18.273215111825664 0 0 0
1011 337 1 0.5897 -12.137090132337686 4.055678666440144 20.844444137847063 0 -1 0
1195 399 2 -1.1794 -9.502731936832928 1.8559112960104223 16.58293224923348 0 0 0
1101 367 1 0.5897 -10.431539448267651 -1.4021966460041746 16.461647066626583 0 0 0
1246 416 2 -1.1794 -5.986388732241293 -1.2287288441199635 20.034509732812303 0 0 0
1229 410 1 0.5897 -7.709377747023096 3.5108084318616264 18.695359953018155 0 0 0
1217 406 1 0.5897 -11.931924129903297 3.4864199844521924 17.79621351628036 0 0 0
1218 406 1 0.5897 -13.385096500171095 3.3591883947422936 18.20089502897727 0 0 0
1249 417 2 -1.1794 -11.238659401396486 0.9083803126509054 21.537390838032458 0 0 0
1251 417 1 0.5897 -11.326261069004024 1.857721148081378 21.62314070404831 0 0 0
44 15 1 0.5897 -7.433589593234962 3.432158084732345 21.646680762477516 1 0 -1
866 289 1 0.5897 -12.585785866795778 1.690707974110106 16.405837821743205 0 0 0
55 19 2 -1.1794 -13.399332914060704 6.301972578725572 0.5276131176866554 1 0 0
66 22 1 0.5897 -13.432401786920003 2.830735014381961 1.677286236458827 1 0 0
167 56 1 0.5897 -16.73678812149723 6.415167821622429 3.224154507682356 1 0 0
56 19 1 0.5897 -12.722563257220301 5.846954714232506 1.028704496987837 1 0 0
65 22 1 0.5897 -11.992682797525495 3.2267298911105087 1.4281156022076533 1 0 0
64 22 2 -1.1794 -12.562733903237422 2.4632673517968335 1.52000346478347 1 0 0
177 59 1 0.5897 -13.99880060558048 4.674443412960716 3.0752793717061415 1 0 0
162 54 1 0.5897 -14.753732209681687 6.891676434795965 1.8889706781479207 1 0 0
40 14 2 -1.1794 -14.829989571164802 4.057345824657359 1.6142230525817953 1 0 0
183 61 1 0.5897 -12.118234069248786 3.7808240028407667 4.1479661761760305 1 0 0
182 61 1 0.5897 -11.075937638627607 3.848240422492678 5.243799662357354 1 0 0
191 64 1 0.5897 -12.493963543648693 6.385562809983849 4.02582838429762 1 0 0
181 61 2 -1.1794 -11.411620501521169 3.277609096093734 4.5524249551342235 1 0 0
175 59 2 -1.1794 -13.585851709435513 4.8875504084416495 3.9121475623142055 1 0 0
176 59 1 0.5897 -14.312824625530846 4.9371551212071285 4.532830659292728 1 0 0
42 14 1 0.5897 -15.37752595916568 4.7221090156997505 1.1965351128042514 1 0 0
190 64 2 -1.1794 -12.149534778184034 7.253789655592122 4.2351933673711954 1 0 0
41 14 1 0.5897 -15.450182221337279 3.403219255131404 1.9363117211293064 1 0 0
108 36 1 0.5897 -10.331395947176542 2.6843732252619557 2.9635658878868965 1 0 0
85 29 2 -1.1794 -11.154895198063837 5.032784567573849 1.5347418533084085 1 0 0
45 15 1 0.5897 -9.751764341127629 1.8225806425791458 0.9261695472568272 1 0 0
508 170 2 -1.1794 -13.457455077291094 6.399796798375952 7.0679845495022215 1 0 0
477 159 1 0.5897 -15.627991536452587 4.635408844114135 6.3429488556786815 1 0 0
510 170 1 0.5897 -13.742252493165488 6.945578160674803 6.335016350660709 1 0 0
509 170 1 0.5897 -14.258022181748414 6.225691793362902 7.562909295500412 1 0 0
459 153 1 0.5897 -9.815857179146175 3.9751572141491547 10.771951594575919 0 0 0
645 215 1 0.5897 -12.507611268481686 7.010468170036972 8.594935816465032 1 0 0
644 215 1 0.5897 -12.852759229005972 7.2930244181049915 10.041696994444967 1 0 0
521 174 1 0.5897 -10.921260851044712 3.381812372307614 7.84887010142159 1 0 0
534 178 1 0.5897 -11.864172607140048 5.2887148708083895 6.547912195937824 1 0 0
532 178 2 -1.1794 -11.046830369729157 4.817783158572414 6.710014067691971 1 0 0
643 215 2 -1.1794 -12.124421206566932 7.3062182809648775 9.420767184893766 1 0 0
457 153 2 -1.1794 -9.936483603465271 3.0360951759742765 10.630845019463196 0 0 0
458 153 1 0.5897 -10.144457809813517 2.9580555693579296 9.699736955807529 0 0 0
636 212 1 0.5897 -15.284012498607822 7.7204545308403105 9.810165184193423 1 0 0
543 181 1 0.5897 -10.800799978087928 6.169306572101112 10.098907667670709 0 0 0
533 178 1 0.5897 -10.369694162147612 5.493464638714007 6.675385114283195 1 0 0
518 173 1 0.5897 -16.700575677786382 7.805646912990561 7.710267858043007 1 0 0
538 180 2 -1.1794 -15.487846791474919 4.656870854088137 8.316351964953 1 0 0
541 181 2 -1.1794 -9.995232554725655 5.82113774051191 10.480934771191793 0 0 0
519 173 1 0.5897 -16.750649600877345 7.470325261150137 6.23474334368093 1 0 0
900 300 1 0.5897 -15.100860238225625 7.810092221670853 14.281633301270764 0 0 0
898 300 2 -1.1794 -14.351492811802796 7.4036994606640825 13.846379202304487 0 0 0
944 315 1 0.5897 -14.352672309586724 6.032824103754402 11.238743165000832 1 0 0
887 296 1 0.5897 -10.318200093471043 4.1532655969409475 14.070160390363721 0 0 0
899 300 1 0.5897 -14.272157447612198 6.543417578151047 14.258541502298478 0 0 0
945 315 1 0.5897 -14.181190779561959 7.325653613586091 12.007706881917724 1 0 0
874 292 2 -1.1794 -13.85799910121045 4.632039165325658 15.162110569364948 0 0 0
876 292 1 0.5897 -12.92265380831138 4.448978733856245 15.074280087849749 0 0 0
886 296 2 -1.1794 -11.040720836686853 3.85201112869618 14.621008859134987 0 0 0
869 290 1 0.5897 -12.833944303586929 8.437075493274733 13.252296879327485 0 0 0
848 283 1 0.5897 -13.684171056601532 3.7929715877543906 12.180527636455166 1 0 0
1209 403 1 0.5897 -13.00820184509538 5.850701295896652 16.144439837638743 0 0 0
847 283 2 -1.1794 -14.494499757013916 4.183678237710186 11.853686435335 1 0 0
943 315 2 -1.1794 -14.243741189613235 6.976233350872434 11.118708811506101 1 0 0
980 327 1 0.5897 -12.553524880033802 8.396570056355415 16.213054851389437 0 -1 0
1032 344 1 0.5897 -8.702363690814455 5.248620482753836 20.825127951785255 0 -1 0
1208 403 1 0.5897 -11.863698481852026 6.153363826335056 17.08801529451049 0 0 0
1033 345 2 -1.1794 -14.636026205123148 8.08094646677019 21.58314134820595 0 -1 0
990 330 1 0.5897 -14.169187770611163 7.252547993004793 17.839883580570024 0 -1 0
1018 340 2 -1.1794 -11.716659235451615 7.24943319841411 20.312558673766617 0 -1 0
1019 340 1 0.5897 -12.333406363711372 6.517962481026226 20.283493562208392 0 -1 0
1020 340 1 0.5897 -10.8537049109837 6.83549452291356 20.31983972105502 0 -1 0
1030 344 2 -1.1794 -9.229739120139927 5.852038164435038 20.30173493411923 0 -1 0
1237 413 2 -1.1794 -10.644486549938687 4.897486435071315 17.656668913608712 0 0 0
1207 403 2 -1.1794 -12.571022259502822 6.571826712272932 16.597381392294103 0 0 0
1043 348 1 0.5897 -12.38139903091241 8.607348132509536 19.25610102246391 0 -1 0
1238 413 1 0.5897 -10.25272482192958 5.31381344904549 18.424457714920045 0 0 0
1003 335 2 -1.1794 -13.409876285610956 5.123941555997636 20.16461930396035 0 -1 0
1239 413 1 0.5897 -10.034134069613392 5.085937562400055 16.943783996675236 0 0 0
988 330 2 -1.1794 -14.797064029679989 7.47760558859018 18.52642231987231 0 -1 0
989 330 1 0.5897 -15.081616465267292 8.365452145853059 18.30965724367718 0 -1 0
1035 345 1 0.5897 -14.5733848670908 9.02972280475521 21.472784313620338 0 -1 0
1005 335 1 0.5897 -13.928963265600476 5.164216160202788 19.361394949361674 0 -1 0
57 19 1 0.5897 -11.493402247890792 8.453996652395372 21.5210316979097 1 0 -1
1034 345 1 0.5897 -14.426636229417355 7.724563332890959 20.719751896034232 0 -1 0
174 58 1 0.5897 -16.504391559708242 10.575559337209977 1.5032741170515957 1 0 0
173 58 1 0.5897 -14.991731008800041 10.609771526557292 1.5508849827458602 1 0 0
172 58 2 -1.1794 -15.737561193265433 10.012643410104943 1.6091440209081556 1 0 0
161 54 1 0.5897 -15.389529833380589 8.238189868931268 2.1619684949531246 1 0 0
215 72 1 0.5897 -12.785409668227599 8.47633304170796 3.0877326935139067 1 0 0
207 69 1 0.5897 -14.983940020881462 8.688469597362932 5.399587020390362 1 0 0
148 50 2 -1.1794 -18.333368081048675 11.051103195584801 1.9343358846748824 1 0 0
150 50 1 0.5897 -18.916960673236687 11.634825355257053 1.4497369502816004 1 0 0
214 72 2 -1.1794 -12.90648298701926 9.358549059150548 2.7365976890513917 1 0 0
291 97 1 0.5897 -15.078776546901391 10.831068379893857 4.491472259276921 1 0 0
284 95 1 0.5897 -17.580923573957442 11.422666610039109 4.802524189721028 1 0 0
285 95 1 0.5897 -17.184402229262037 11.204562801615904 3.357782797311059 1 0 0
289 97 2 -1.1794 -14.300129101432566 10.488743362228398 4.930384395090531 1 0 0
283 95 2 -1.1794 -16.828164465168886 11.449274519912755 4.211897505750313 1 0 0
216 72 1 0.5897 -13.377093535696428 9.828356342957342 3.4251130106201138 1 0 0
153 51 1 0.5897 -13.058855840765537 9.31441694400111 1.081343089301635 1 0 0
160 54 2 -1.1794 -15.353493198351817 7.3383608403030856 2.486437152543175 1 0 0
205 69 2 -1.1794 -15.140282653547871 7.763604032948674 5.208561434413174 1 0 0
149 50 1 0.5897 -18.910902982479804 10.576150104648551 2.5319444656446644 1 0 0
193 65 2 -1.1794 -14.164301568024152 12.433200311873104 1.6366543026316498 1 0 0
206 69 1 0.5897 -15.015707805404537 7.689562228959176 4.262353069843528 1 0 0
1118 373 1 0.5897 -16.00836229517553 8.503318025062025 0.09873286670683522 0 -1 1
151 51 2 -1.1794 -13.149694876697607 9.145884703343661 0.14344330167274214 1 0 0
634 212 2 -1.1794 -15.71858388721515 8.252143975987252 9.143332492801814 1 0 0
640 214 2 -1.1794 -14.448489644901024 12.408872916776957 7.008374306381501 1 0 0
566 189 1 0.5897 -13.182749208361644 10.032352383069082 9.83702424715941 0 0 0
630 210 1 0.5897 -12.991273860331273 9.758559934941431 7.537091401438694 1 0 0
629 210 1 0.5897 -13.831224058104045 10.972339492233626 7.873243804432675 1 0 0
628 210 2 -1.1794 -13.69056136296792 10.05775890488778 8.118178543426122 1 0 0
642 214 1 0.5897 -15.33343605922672 12.76463332074782 7.0883345979111505 1 0 0
567 189 1 0.5897 -12.921895179537715 11.087095245384518 10.891352893140335 0 0 0
635 212 1 0.5897 -15.022083042552687 8.800302663118956 8.78188404751174 1 0 0
617 206 1 0.5897 -17.510433209640787 13.153804058647676 8.095120369584468 1 0 0
565 189 2 -1.1794 -13.226866205796666 10.18650396051503 10.780741363491067 0 0 0
290 97 1 0.5897 -14.099143543141341 11.138489070186704 5.604002895485556 1 0 0
327 109 1 0.5897 -13.652846634525437 13.498605187168408 10.13861700004083 0 -1 0
641 214 1 0.5897 -13.884631308491747 13.179889316829161 6.946094459545595 1 0 0
683 228 1 0.5897 -16.887541186605848 13.624116741556666 14.078956508974217 0 -1 0
870 290 1 0.5897 -12.323742798380735 9.517062614884605 12.322064595930621 0 0 0
877 293 2 -1.1794 -15.691312476469482 9.917389490063254 12.261612757920673 0 0 0
658 220 2 -1.1794 -16.548631663685708 12.03065882100502 14.836597309352214 0 -1 0
672 224 1 0.5897 -13.87794497674647 10.12375368266521 15.224075888435078 0 -1 0
671 224 1 0.5897 -13.648332768989945 11.24212559895161 14.229814157654726 0 -1 0
670 224 2 -1.1794 -14.256638218026314 10.535853475562455 14.44754641108919 0 -1 0
660 220 1 0.5897 -15.70708558012156 11.577434664428917 14.786750969215573 0 -1 0
680 227 1 0.5897 -11.078044457596528 10.031012859796874 15.57475581157006 0 -1 0
878 293 1 0.5897 -15.239479895367484 10.089208429987167 13.087812445992446 0 0 0
956 319 1 0.5897 -17.12717594927264 10.924965311530805 11.944585709062796 1 0 0
879 293 1 0.5897 -15.039773942011081 10.109522692976764 11.587216572827746 0 0 0
868 290 2 -1.1794 -12.0275368950886 8.83910477737031 12.92940740270117 0 0 0
659 220 1 0.5897 -17.195746169237758 11.32846141845203 14.903084102931155 0 -1 0
979 327 2 -1.1794 -12.671259148407685 9.3378977352465 16.340779490343742 0 -1 0
728 243 1 0.5897 -17.723603207993932 13.007079566367484 11.10665611075797 1 -1 0
664 222 2 -1.1794 -12.447702418743416 12.335807968315919 13.655627157515992 0 -1 0
650 217 1 0.5897 -16.09935051939486 9.015632757065202 16.158437673767608 0 -1 0
1022 341 1 0.5897 -13.477919176276037 12.44991409922666 18.92007348720029 0 -1 0
1042 348 2 -1.1794 -12.51510040611236 9.518137397677414 18.993720402373732 0 -1 0
992 331 1 0.5897 -15.585094929728026 13.344654347147806 17.629284232062354 0 -1 0
1023 341 1 0.5897 -13.222156891913409 12.237268571431699 17.44309804662288 0 -1 0
1119 373 1 0.5897 -14.888808448414672 11.404834675725862 20.680778643471008 0 -1 0
1138 380 2 -1.1794 -12.459650493930326 13.569662832815872 20.115929008360126 0 -1 0
1002 334 1 0.5897 -16.3628520059126 10.291860671398709 18.04011085642376 0 -1 0
1140 380 1 0.5897 -12.049915501996544 12.975520212060253 20.74467042610798 0 -1 0
1127 376 1 0.5897 -15.527073346648361 13.67450269857602 20.72792659582774 0 -1 0
1128 376 1 0.5897 -14.113830564950582 14.213919968722266 20.66869665139592 0 -1 0
152 51 1 0.5897 -11.235042737273533 10.99828304870794 21.761529612184006 1 0 -1
991 331 2 -1.1794 -16.047884143089668 13.764436181887302 16.90414407534746 0 -1 0
1000 334 2 -1.1794 -15.486053807142582 9.98992361923197 17.803113732831676 0 -1 0
1044 348 1 0.5897 -12.999269975315983 9.908820512474698 19.72117904248534 0 -1 0
1001 334 1 0.5897 -14.923095176068031 10.750447659314055 17.947895600255627 0 -1 0
1021 341 2 -1.1794 -13.91147033982423 12.194337312211523 18.105824186073797 0 -1 0
1117 373 2 -1.1794 -14.090120612975397 10.93162540398189 20.91374603772779 0 -1 0
1098 366 1 0.5897 -17.212009139658186 14.551373589842257 18.036694195424296 0 -1 0
1111 371 2 -1.1794 -16.548527992787164 12.195692785385226 20.491298288729183 0 -1 0
981 327 1 0.5897 -12.7508791848385 9.443364492895974 17.288856080215865 0 -1 0
1126 376 2 -1.1794 -15.022219568409813 14.48439715708533 20.801986941086277 0 -1 0
1013 338 1 0.5897 -11.032011889034324 10.721567736172979 18.643638422798368 0 -1 0
993 331 1 0.5897 -16.342473630983765 13.037970610313398 16.35479159231962 0 -1 0
243 81 1 0.5897 -1.2103810268763198 -5.446150115462348 5.310530230936991 0 1 0
311 104 1 0.5897 -2.582600482105814 -8.321011440588247 3.4647911786772627 1 1 0
305 102 1 0.5897 -1.4649820586009774 -6.486148566533041 2.2358643671661733 1 1 0
304 102 2 -1.1794 -1.3078621020795467 -7.370376441886124 2.5670862022926015 1 1 0
316 106 2 -1.1794 -2.0189043837767464 -4.756938405792746 1.716993772788313 1 1 0
242 81 1 0.5897 -1.396042486954304 -6.645871901910235 4.4059196846118365 0 1 0
306 102 1 0.5897 -0.4681933373549114 -7.624318838555206 2.184197632917508 1 1 0
310 104 2 -1.1794 -3.3821228507686314 -8.441288445476752 3.9771194470013937 1 1 0
201 67 1 0.5897 0.5728116927058515 -8.838149612965317 0.12556602164531083 1 1 0
318 106 1 0.5897 -2.909152089788946 -4.40843976731303 1.7627968214902854 1 1 0
241 81 2 -1.1794 -1.2235849336962854 -6.403275478602182 5.315709518567023 0 1 0
194 65 1 0.5897 -4.424101585155361 -8.883961014438794 2.4639675286993308 1 1 0
317 106 1 0.5897 -1.4578507898033166 -3.981436583355616 1.7072184753929516 1 1 0
293 98 1 0.5897 -5.14321486599535 -3.9966731090140994 2.393707700920502 1 1 0
1177 393 2 -1.1794 -2.5729906514966743 -8.907291815823713 0.1919562790023553 0 0 1
195 65 1 0.5897 -4.050069486886513 -9.150289050114097 1.0213203963638922 1 1 0
1 1 2 -1.1794 -0.7279361449354216 -3.746066128348386 5.029524615341664 0 0 0
259 87 2 -1.1794 -6.662906235259878 -5.1160338741595295 0.3426051912810839 1 1 0
3 1 1 0.5897 -1.5563504022806338 -3.368704633672883 4.733854869507029 0 0 0
348 116 1 0.5897 -1.2541928716519042 -6.718221866355547 10.076179959504625 0 0 0
347 116 1 0.5897 -0.8401057975860979 -5.76384014436718 8.976300089342933 0 0 0
346 116 2 -1.1794 -1.6106297348917682 -6.132568017291455 9.408208255424439 0 0 0
336 112 1 0.5897 -3.2324803793549197 -5.316881179811241 9.516668812279441 0 0 0
544 182 2 -1.1794 0.3003503691224356 -7.935729360874154 7.159301942512619 0 1 0
334 112 2 -1.1794 -4.078235721267672 -4.884445722652905 9.39922080687828 0 0 0
555 185 1 0.5897 -2.786163112233389 -6.753558427059307 6.325265780382406 0 1 0
546 182 1 0.5897 -0.004028868967875354 -7.288211378484402 6.523448711468564 0 1 0
554 185 1 0.5897 -3.0274474137040412 -6.8865589612071725 7.813944946191596 0 1 0
359 120 1 0.5897 -4.643999214055009 -3.295706499592886 8.803629574350149 0 0 0
553 185 2 -1.1794 -3.4541929753661123 -7.000626042115589 6.964741122931844 0 1 0
356 119 1 0.5897 0.9307440492761181 -7.4788922981381685 9.927029223351555 0 0 0
632 211 1 0.5897 -5.005819602558622 -5.987689816195143 6.730100861953911 1 1 0
404 135 1 0.5897 -5.372625533399795 -3.8059850947242513 5.7393144944755505 1 0 0
335 112 1 0.5897 -4.722982685570737 -5.581531003140297 9.52018543487202 0 0 0
357 119 1 0.5897 1.2091720617852015 -7.1186278805883925 8.48315796227525 0 0 0
545 182 1 0.5897 -0.49736090138628875 -8.242164066490615 7.590518190259105 0 1 0
793 265 2 -1.1794 -1.774067482293681 -6.180785741836502 15.38295797401756 0 0 0
657 219 1 0.5897 -0.1411750484509966 -7.469735986505368 12.072189172231562 0 0 0