LAMMPS data file via write_data, version 30 Jul 2021, timestep = 40250000

1920 atoms
2 atom types
1280 bonds
1 bond types
640 angles
1 angle types

0.027116494838063332 24.702884505151843 xlo xhi
0.02105409514917511 24.708946904828668 ylo yhi
0.06471843561719837 22.745281564390424 zlo zhi

Masses

1 1.008
2 15.999

Pair Coeffs # lj/cut/tip4p/long/omp

1 0 0
2 0.21084 3.1668

Bond Coeffs # harmonic/omp

1 450 0.9572

Angle Coeffs # harmonic/omp

1 55 104.52

Atoms # full

1 1 2 -1.1794 4.498082830045441 1.588295871917095 4.264701096183925 0 0 0
2 1 1 0.5897 4.647850058027986 2.264810711282448 4.925093451890736 0 0 0
3 1 1 0.5897 5.204928036598535 1.7109204569368703 3.63097677431879 0 0 0
4 2 2 -1.1794 2.9358924183050554 1.5019451911884623 1.9482220625010684 0 0 0
5 2 1 0.5897 3.296548863129033 1.5345702688424858 2.8342669291017812 0 0 0
6 2 1 0.5897 1.9886652218302783 1.4503529526050414 2.0763769184769663 0 0 0
10 4 2 -1.1794 3.214344839564437 4.620459569265622 3.768883463530315 0 0 0
11 4 1 0.5897 2.8088471088613303 5.401884313260391 4.144644128695743 0 0 0
12 4 1 0.5897 2.8543901687631648 4.565410205080395 2.8836628951729883 0 0 0
13 5 2 -1.1794 1.3573430738621761 2.9857784030705816 5.050943344375869 0 0 0
14 5 1 0.5897 2.153533365292176 3.347439175966587 4.661617144952521 0 0 0
15 5 1 0.5897 1.5103584751853356 2.0412257391856437 5.076445097230081 0 0 0
22 8 2 -1.1794 1.7787057342466324 4.579277786771558 1.4802263396095439 0 0 0
24 8 1 0.5897 1.5274211471231516 5.2611246452964675 0.8571941457499891 0 0 0
23 8 1 0.5897 1.0630192476673175 4.559212748176636 2.115569229641081 0 0 0
20 7 1 0.5897 3.9088510485436605 2.8800433771856078 0.9778213921096034 0 0 0
9 3 1 0.5897 4.991333692632192 4.730292949670245 3.592917309676399 0 0 0
19 7 2 -1.1794 4.687189500913359 3.313910646298934 0.6281921755420273 0 0 0
21 7 1 0.5897 5.411172386205666 2.9622678548889296 1.1463353649004082 0 0 0
27 9 1 0.5897 4.699237593260305 5.190662391399488 0.775528084050453 0 0 0
7 3 2 -1.1794 5.94519196190449 4.732946501765152 3.5124474087924127 0 0 0
28 10 2 -1.1794 1.625482430095686 0.2483179853746419 5.0717243333494615 0 0 0
16 6 2 -1.1794 0.2260245846706287 1.4510595362770684 2.0762506750045473 0 0 0
98 33 1 0.5897 0.3306564575750292 5.454286558213247 3.793441491026483 1 0 0
25 9 2 -1.1794 4.628775969144238 6.1451977901630475 0.7637132891993689 0 0 0
387 129 1 0.5897 4.000357328020257 0.23189884753643641 1.2257680621130782 0 1 0
99 33 1 0.5897 0.14170157234968067 3.9627778172572445 3.9712554711554082 1 0 0
47 16 1 0.5897 6.004348154021475 0.8786096806652018 1.7640136581315504 0 0 0
867 289 1 0.5897 4.516100485633893 0.14995383847397328 5.613758303882774 0 1 0
1455 485 1 0.5897 1.6086919982370826 3.3083009421829956 0.24216307736734813 0 0 1
150 50 1 0.5897 1.5121430194836325 6.147313512970767 5.657577752724161 0 0 0
386 129 1 0.5897 4.980923219641044 0.34224256917061346 0.07761569442981653 0 1 0
26 9 1 0.5897 5.3359096648262305 6.445123518183361 1.3349215501322689 0 0 0
270 90 1 0.5897 0.8846579738385494 12.096492017515938 4.565243873200091 0 0 0
136 46 2 -1.1794 0.2494479666014217 7.962710089850782 2.109849967346583 0 0 0
218 73 1 0.5897 0.13638864423690245 10.92493869312353 2.6284928346128154 1 0 0
148 50 2 -1.1794 1.5252114559073462 6.492414468890956 4.764864947673889 0 0 0
121 41 2 -1.1794 4.544851835940718 7.777986763530223 4.342385711295317 0 0 0
122 41 1 0.5897 3.7937538314822357 7.745220058824916 3.7498848791186212 0 0 0
123 41 1 0.5897 5.300704521073521 7.89005890125248 3.765841659411014 0 0 0
124 42 2 -1.1794 2.9649500916237876 7.930226074496498 2.139487177265839 0 0 0
125 42 1 0.5897 3.3548190594828546 7.176937338013769 1.695861323233217 0 0 0
126 42 1 0.5897 3.45306199699928 8.683556027413806 1.807073480716122 0 0 0
129 43 1 0.5897 5.120921644647758 10.916561057368284 3.6257600788641704 0 0 0
130 44 2 -1.1794 3.2070852796370377 10.809436087244947 3.4753531943430827 0 0 0
132 44 1 0.5897 2.8115257171536925 10.118848103838827 4.007202443275146 0 0 0
133 45 2 -1.1794 1.589095886350044 9.194914626464614 4.917514354352336 0 0 0
135 45 1 0.5897 0.8757897791394668 9.610638729295873 4.433112058334948 0 0 0
137 46 1 0.5897 1.204785148406267 7.939573489664541 2.053971228266646 0 0 0
139 47 2 -1.1794 4.856771057635287 9.542474096540637 0.8489388350376856 0 0 0
142 48 2 -1.1794 1.4816747997311692 10.804431273695734 1.3087767719106755 0 0 0
143 48 1 0.5897 2.2115345123685852 10.818888899313118 1.9279423717928752 0 0 0
144 48 1 0.5897 1.631007450896981 11.562744140325483 0.7440738482924344 0 0 0
149 50 1 0.5897 1.4331734517628263 7.439123706899744 4.8721623633884175 0 0 0
131 44 1 0.5897 2.960297126793936 11.622655339751283 3.9158159205142824 0 0 0
140 47 1 0.5897 4.83921491827855 10.488395168855584 0.7034559066404632 0 0 0
127 43 2 -1.1794 6.072062999332512 10.809188239470522 3.6370174303347933 0 0 0
621 207 1 0.5897 4.526674043237857 8.953116036955883 5.730058101297299 0 0 0
145 49 2 -1.1794 4.657812836633352 12.290062044582807 0.6984978524677523 0 0 0
168 56 1 0.5897 5.983501522367091 8.389294678189748 1.7483379167696562 0 0 0
507 169 1 0.5897 4.610714643978191 6.56732757017638 5.690928148547879 0 0 0
134 45 1 0.5897 1.6677653743835237 9.71168110009915 5.719370101613 0 0 0
488 163 1 0.5897 6.193865671292769 4.112574894116221 9.900314261085196 0 0 0
579 193 1 0.5897 0.10871550939198574 5.437423842424884 9.562332829592897 1 0 0
508 170 2 -1.1794 1.5087330423590324 0.1548409470685148 10.667135178515885 0 0 0
578 193 1 0.5897 0.25627599843820653 3.9308342734644777 9.58073896948284 1 0 0
494 165 1 0.5897 1.5311864930525072 1.9789109369435343 10.630900748871374 0 0 0
504 168 1 0.5897 1.4869574690207183 4.180957659404195 6.398597281850805 0 0 0
501 167 1 0.5897 4.534352076011222 4.310406758518846 6.554858013224682 0 0 0
499 167 2 -1.1794 4.588376760927452 3.3693657604623444 6.388235303418822 0 0 0
483 161 1 0.5897 4.5723805997463085 2.161311561131585 10.698706912129738 0 0 0
492 164 1 0.5897 2.8198720947647544 4.087845470437174 9.63128419363353 0 0 0
493 165 2 -1.1794 1.6209447143543716 2.9240169666139924 10.508591844592505 0 0 0
491 164 1 0.5897 2.79498927805886 4.884320874564381 8.344100653990878 0 0 0
485 162 1 0.5897 3.3016767453958535 1.5527752665917576 8.663647758730713 0 0 0
481 161 2 -1.1794 4.511851895831258 1.4529099475351865 10.057829575735626 0 0 0
482 161 1 0.5897 5.315367145850837 1.5259933101530214 9.542746171497537 0 0 0
502 168 2 -1.1794 1.6015511600239767 4.880990270415562 7.041283444028668 0 0 0
500 167 1 0.5897 3.8516991479229508 2.9971240831554824 6.873025296466219 0 0 0
490 164 2 -1.1794 3.2098546683289126 4.851636609438453 9.206098122205498 0 0 0
503 168 1 0.5897 0.8929642034039957 4.747168931649363 7.67077812818295 0 0 0
498 166 1 0.5897 1.1381158204172999 1.6567116175391254 7.745536005082757 0 0 0
484 162 2 -1.1794 2.8566658522623087 1.5371532198624163 7.816332005220039 0 0 0
489 163 1 0.5897 5.016651884683095 4.924528947226025 9.403387089340294 0 0 0
486 162 1 0.5897 3.2857115460251665 0.8311042410688723 7.332946900391359 0 0 0
527 176 1 0.5897 5.824998921596536 0.7956841387044551 7.428144667788183 0 0 0
528 176 1 0.5897 5.838199667295578 2.3095289470763425 7.432429562053949 0 0 0
487 163 2 -1.1794 5.9653173251348255 4.833483435278343 9.313555754742257 0 0 0
505 169 2 -1.1794 4.6350570951558545 6.1450145791033925 6.549568249366783 0 0 0
629 210 1 0.5897 2.0426872106675216 5.982679577715152 10.050443153472981 0 0 0
496 166 2 -1.1794 0.18468167837688354 1.742055153877136 7.747997842924966 0 0 0
495 165 1 0.5897 1.5053588267743985 3.291458390940893 11.384850978994015 0 0 0
625 209 2 -1.1794 4.595627723871052 12.147724306871222 6.345660523050339 0 0 0
614 205 1 0.5897 2.469475952221296 9.513177077858426 10.20459918709303 0 0 0
1101 367 1 0.5897 4.758284925821499 8.907017445912343 11.350542409449483 0 0 0
611 204 1 0.5897 4.331520634506445 10.872586763595313 9.341614981400108 0 0 0
607 203 2 -1.1794 6.062536048588153 10.905534917053345 9.392270395461741 0 0 0
698 233 1 0.5897 0.41856799688716084 11.335364570985055 9.887881882776217 1 0 0
604 202 2 -1.1794 2.89930110763119 7.810378240218655 7.964528259669255 0 0 0
613 205 2 -1.1794 1.7454545594322177 9.059131450761678 10.635779614129738 0 0 0
699 233 1 0.5897 0.26470294296177777 10.646579809305809 8.548580009248797 1 0 0
603 201 1 0.5897 3.991460074196011 7.782189128924435 9.41431816863725 0 0 0
620 207 1 0.5897 5.331152561702429 9.074290382373261 7.006782192970035 0 0 0
619 207 2 -1.1794 4.576037218327457 9.444798126274542 6.549826231464569 0 0 0
602 201 1 0.5897 4.630960360288915 7.035663102237824 10.5656775501431 0 0 0
610 204 2 -1.1794 3.379734256279104 10.80682950185082 9.26346924281117 0 0 0
630 210 1 0.5897 1.595882159332037 7.285979747475999 10.677892651835005 0 0 0
624 208 1 0.5897 1.6898605977113013 11.471441520808293 6.540953243995342 0 0 0
616 206 2 -1.1794 0.1681665817779959 7.814074474276008 7.928266884129786 0 0 0
622 208 2 -1.1794 1.5448890760811367 10.745451677220647 7.147709598871836 0 0 0
506 169 1 0.5897 3.922751195398294 6.55603156730539 7.039426366733455 0 0 0
647 216 1 0.5897 5.923347238327152 7.848876455025278 8.669759281015468 0 0 0
628 210 2 -1.1794 1.4411040893943097 6.341696130884032 10.702715708120412 0 0 0
601 201 2 -1.1794 4.745112946722359 7.802382801691551 10.004129318130039 0 0 0
626 209 1 0.5897 4.718647231518966 11.204055172694867 6.448602984241782 0 0 0
615 205 1 0.5897 0.9584442068081863 9.42203921305409 10.229326031304403 0 0 0
606 202 1 0.5897 1.9502178862898882 7.934016443422713 7.981263129979991 0 0 0
612 204 1 0.5897 3.044308891208225 11.515733098611232 9.812277287321084 0 0 0
623 208 1 0.5897 2.267160528781257 10.807288512222184 7.772827362236601 0 0 0
648 216 1 0.5897 5.933845605390634 7.227077323906476 7.289514049046038 0 0 0
605 202 1 0.5897 3.2267158278238437 8.537208589520692 7.434665905127823 0 0 0
961 321 2 -1.1794 4.533256369746848 1.5498117933481883 15.749647621940214 0 0 0
962 321 1 0.5897 5.289068099149729 1.5369011159261412 15.162401565412976 0 0 0
963 321 1 0.5897 4.661531178923453 0.793759927118205 16.32249798789666 0 0 0
964 322 2 -1.1794 2.7476795452573453 1.72953031515669 13.610232945723581 0 0 0
965 322 1 0.5897 3.1209170973748526 1.666040634123567 14.489367506136432 0 0 0
966 322 1 0.5897 1.8008577726325412 1.7327523392729354 13.751095043111672 0 0 0
970 324 2 -1.1794 3.2699171454160565 4.733489778906432 14.852753668625596 0 0 0
971 324 1 0.5897 4.224719698369066 4.665214082713466 14.856861135949503 0 0 0
972 324 1 0.5897 2.969270319178337 3.9182038723420867 15.254203205304774 0 0 0
973 325 2 -1.1794 1.741143102133249 2.834632768481675 16.330473176433145 0 0 0
975 325 1 0.5897 1.0159282582454208 3.2647627122913927 15.877338186330734 0 0 0
982 328 2 -1.1794 1.4209721215522502 4.558679552881758 12.84473134942278 0 0 0
983 328 1 0.5897 1.4593527294403503 5.340998720676262 12.294520547436425 0 0 0
984 328 1 0.5897 2.1769246161885727 4.637251335049609 13.426660655599957 0 0 0
980 327 1 0.5897 3.739873949792858 3.0354533688082324 12.38486736456549 0 0 0
981 327 1 0.5897 5.244275493844234 2.8990369828061677 12.48633504020116 0 0 0
979 327 2 -1.1794 4.55649168538229 3.3532200870570743 11.999566349507692 0 0 0
990 330 1 0.5897 1.6246940052722023 0.9678643973082128 16.584048157413253 0 0 0
986 329 1 0.5897 4.653209877313449 5.086176313021326 12.104254462648488 0 0 0
1346 449 1 0.5897 3.830011020017783 0.4083277263169428 12.738464488743068 0 1 0
967 323 2 -1.1794 6.025747638188175 4.639654756188367 14.922170479035003 0 0 0
1109 370 1 0.5897 0.8626118632576973 5.813581075802208 15.894521085203328 0 0 0
1008 336 1 0.5897 5.8963719369890635 0.8793695621936358 13.106712315097633 0 0 0
1110 370 1 0.5897 2.360311126503333 5.973248736742368 16.04792558938167 0 0 0
988 330 2 -1.1794 1.4442168043988857 0.04284829556311415 16.41666830878019 0 0 0
985 329 2 -1.1794 4.7572343839230875 6.036281986675346 12.156417785477128 0 0 0
1058 353 1 0.5897 0.25856137690763054 4.415083385107795 14.231660395950437 1 0 0
1347 449 1 0.5897 4.584964389270629 0.21005948404500688 11.441305764108634 0 1 0
1108 370 2 -1.1794 1.5258905462766317 6.289015102545273 16.394816558785205 0 0 0
987 329 1 0.5897 4.000003809732425 6.333254990496323 12.661087627472309 0 0 0
1081 361 2 -1.1794 4.802072618465362 7.680526564612778 15.772159445720694 0 0 0
1082 361 1 0.5897 4.769479149087507 8.463925500482743 16.321203714538793 0 0 0
1083 361 1 0.5897 4.698191047823934 6.953065642397832 16.385537055624177 0 0 0
1084 362 2 -1.1794 3.02191742873713 7.6830934725761875 13.575195400227862 0 0 0
1085 362 1 0.5897 3.4510747593555533 7.662232767340774 14.430537741605194 0 0 0
1086 362 1 0.5897 3.5100336426665466 8.33926638367691 13.077771928826627 0 0 0
1089 363 1 0.5897 5.086584948312555 10.671819303288833 14.990748471346974 0 0 0
1090 364 2 -1.1794 3.296214309356151 10.653611106702243 14.90045887686046 0 0 0
1091 364 1 0.5897 2.995843448802567 11.438585535844307 15.35853350058507 0 0 0
1092 364 1 0.5897 2.925117688685676 9.92692403181273 15.400914305697329 0 0 0
1095 365 1 0.5897 0.8918999391878647 9.378761816710592 15.991879055110148 0 0 0
1097 366 1 0.5897 1.2068931342030813 7.492328501950827 13.633661295302492 0 0 0
1099 367 2 -1.1794 4.755078313705505 9.370900444712374 12.18780434768522 0 0 0
1102 368 2 -1.1794 1.5287084800639283 10.775886324250287 12.805186553388735 0 0 0
1104 368 1 0.5897 2.247056715462831 10.753432617488459 13.437437562097939 0 0 0
1093 365 2 -1.1794 1.6505714198561796 9.03893091129075 16.466447511458536 0 0 0
1103 368 1 0.5897 1.6958598408578853 10.032679132242368 12.225592028293484 0 0 0
1100 367 1 0.5897 5.393715903039459 8.90159396003832 12.72460849709779 0 0 0
1094 365 1 0.5897 1.5237493491318443 8.09019261515037 16.473852535142978 0 0 0
1107 369 1 0.5897 4.611478619730367 11.264338107066468 12.223206697479661 0 0 0
1179 393 1 0.5897 0.28020011917961807 10.610816088142611 14.14606380068063 1 0 0
1105 369 2 -1.1794 4.581645439173396 12.212536365844914 12.35076183538244 0 0 0
1178 393 1 0.5897 0.2982420677952569 11.406904911176278 15.433600834017433 1 0 0
1128 376 1 0.5897 6.075256871225236 6.946444338387606 13.10653653309303 0 0 0
1087 363 2 -1.1794 6.027159068534147 10.545685173664213 15.116183888468088 0 0 0
1096 366 2 -1.1794 0.27153989334737044 7.520118414180299 13.432009786992902 0 0 0
1127 376 1 0.5897 5.9446454037398295 7.672121536384293 14.42871941044874 0 0 0
750 250 1 0.5897 1.4454376041706356 12.08406332196882 11.481581786083174 0 0 0
1230 410 1 0.5897 1.5882836977483803 12.298296650433269 17.07039064470206 0 0 0
1468 490 2 -1.1794 1.3423764781125662 0.08099307160776448 21.948434253223564 0 0 0
1460 487 1 0.5897 4.507803424036125 2.7358201743532384 17.094154638958177 0 0 0
974 325 1 0.5897 1.7606920859496842 3.2445611235017817 17.195215580810903 0 0 0
1447 483 2 -1.1794 5.979576223885113 4.651524778826618 20.614053819975855 0 0 0
1539 513 1 0.5897 0.14038418754043533 5.300996522287093 21.014460917628455 1 0 0
1456 486 2 -1.1794 0.21000547543439244 1.4519094609110461 19.349648801173736 0 0 0
1538 513 1 0.5897 0.2209421393231569 3.7946317345183 21.142111556251155 1 0 0
1454 485 1 0.5897 2.2488751930255395 3.263259653244539 21.55159619682828 0 0 0
1464 488 1 0.5897 1.0382575038365707 4.50224680282872 19.191995047610845 0 0 0
1443 481 1 0.5897 4.8504958866377486 2.169845014187547 21.961292139903314 0 0 0
1450 484 2 -1.1794 3.3058708867575746 4.714272355295566 20.8138567886862 0 0 0
1469 490 1 0.5897 1.404202028765664 1.0242673772005018 22.0989398123298 0 0 0
1442 481 1 0.5897 4.176178918379602 1.4178055485766667 20.83362567038958 0 0 0
1453 485 2 -1.1794 1.5377036657228282 2.883726976820789 22.067798308343843 0 0 0
1444 482 2 -1.1794 3.0378660998784386 1.4737532518972387 19.48196612775382 0 0 0
1463 488 1 0.5897 1.6029037882992188 5.195489258718665 17.97032821307841 0 0 0
1452 484 1 0.5897 2.973917021378258 4.549580430527644 19.93130660835739 0 0 0
1441 481 2 -1.1794 4.972101748563368 1.4308117495854635 21.36524928441359 0 0 0
1451 484 1 0.5897 4.2464895777490765 4.547948683883846 20.751424796689157 0 0 0
1445 482 1 0.5897 2.0838863209009233 1.5407475732357567 19.440008937559202 0 0 0
1446 482 1 0.5897 3.3520686934733086 2.127141896729565 18.856993806701134 0 0 0
1461 487 1 0.5897 5.3595121453732615 2.8471607098071825 18.340791954042043 0 0 0
1459 487 2 -1.1794 4.600601823730301 3.2353925520486313 17.90534189378349 0 0 0
1462 488 2 -1.1794 1.7345465782873133 4.436452886682849 18.538448003136857 0 0 0
1466 489 1 0.5897 4.450336755909452 4.950142299118662 17.80553814116569 0 0 0
1487 496 1 0.5897 6.044744492521702 1.531231814177373 19.90435347496497 0 0 0
1488 496 1 0.5897 5.890543968744523 0.8343759977531097 18.569269932261598 0 0 0
1465 489 2 -1.1794 4.403937161213304 5.9045442236153525 17.748921299494725 0 0 0
1590 530 1 0.5897 2.087172070061556 5.865298176871808 21.61662073629254 0 0 0
1567 523 2 -1.1794 6.06511760191058 10.883373916806503 20.650743312067384 0 0 0
1573 525 2 -1.1794 1.585489338810504 9.044070677798826 21.876478051204373 0 0 0
1563 521 1 0.5897 3.945599138820791 7.827380318224624 20.709299895799116 0 0 0
1566 522 1 0.5897 3.197363063533971 6.913286844634188 18.7398151982986 0 0 0
1587 529 1 0.5897 4.6107924194464145 11.274530500084026 17.8448719015559 0 0 0
1564 522 2 -1.1794 2.904113947023901 7.667853779336396 19.250569529779625 0 0 0
1575 525 1 0.5897 2.2074580802681347 9.553024483196863 21.356489031640493 0 0 0
1584 528 1 0.5897 1.57879059134932 10.183724977745886 17.845450746598406 0 0 0
1588 530 2 -1.1794 1.336627190356437 6.298685506953573 22.02299787230655 0 0 0
1585 529 2 -1.1794 4.637859100754487 12.22946315378147 17.784759888981966 0 0 0
1571 524 1 0.5897 2.8829470287090357 10.8634121125877 19.733396229356988 0 0 0
1579 527 2 -1.1794 4.673320557623367 9.395600213504983 17.87998218329757 0 0 0
1562 521 1 0.5897 4.633260202553025 7.177035078252527 21.890852438134456 0 0 0
1583 528 1 0.5897 1.024725108979647 10.904580072329711 19.055929790812787 0 0 0
1561 521 2 -1.1794 4.691221139432126 7.928634131173529 21.300967045912582 0 0 0
1565 522 1 0.5897 1.9526092718179846 7.673322095679294 19.1460042578017 0 0 0
1709 570 1 0.5897 0.8407970988911815 12.078477771597614 21.46218520886022 0 0 0
141 47 1 0.5897 4.73886881493701 9.163466329574268 22.658493389347925 0 0 -1
1608 536 1 0.5897 5.846325608017897 7.689459642542888 19.976131156981772 0 0 0
1570 524 2 -1.1794 3.3095442059771596 10.84372286267558 20.59004525856216 0 0 0
1658 553 1 0.5897 0.2009973845653339 10.00270478461529 20.925169789427077 1 0 0
1710 570 1 0.5897 2.348904152702807 12.151009479278741 21.57391508762692 0 0 0
1589 530 1 0.5897 1.558767498020487 7.229600133746753 22.005729969298795 0 0 0
1580 527 1 0.5897 3.8737151659290916 9.010307676713916 18.238418249915277 0 0 0
1581 527 1 0.5897 5.383159097674394 8.913259382007714 18.303960074989554 0 0 0
1576 526 2 -1.1794 0.1496578986248162 7.554337940777623 19.036142977572197 0 0 0
1467 489 1 0.5897 5.124969922635415 6.212854009264931 18.29785861660345 0 0 0
1582 528 2 -1.1794 1.732761925402322 10.939209987268972 18.412692298327492 0 0 0
1572 524 1 0.5897 4.2459408834730565 10.864399555552414 20.392422495058796 0 0 0
1574 525 1 0.5897 1.5187326749006225 9.520046020603024 22.704244751969522 0 0 0
241 81 2 -1.1794 4.757131240401966 13.981074650887944 4.340044117225961 0 0 0
242 81 1 0.5897 4.690388365180824 13.317367297668998 5.0265258966116155 0 0 0
243 81 1 0.5897 3.9335372096282724 13.910679652847314 3.8573131934311493 0 0 0
244 82 2 -1.1794 2.7926669365777275 13.753010170464519 2.1801699583577645 0 0 0
245 82 1 0.5897 1.8413923733717104 13.844538615905158 2.1251692458511835 0 0 0
246 82 1 0.5897 3.134481417568266 14.502140707015549 1.6921057506279775 0 0 0
250 84 2 -1.1794 3.1574408745603484 16.856832729318047 3.6897014828538626 0 0 0
251 84 1 0.5897 2.7728915642630168 16.90822002425027 2.8146604037269265 0 0 0
252 84 1 0.5897 4.102219397793398 16.84340449821972 3.536285341399217 0 0 0
253 85 2 -1.1794 1.403979135886864 15.243748675525776 4.957728648379555 0 0 0
255 85 1 0.5897 2.1249233233213203 15.733222899966488 4.561576272356702 0 0 0
259 87 2 -1.1794 4.5375266984170946 15.692533854298253 0.8449563923159833 0 0 0
262 88 2 -1.1794 1.4061367448781181 16.975001786204928 1.4794003838554222 0 0 0
263 88 1 0.5897 1.6235686387024568 16.20117637960739 0.9596409140818309 0 0 0
264 88 1 0.5897 1.3553101153703047 17.686399707830457 0.8410037249546808 0 0 0
269 90 1 0.5897 1.4076401326227528 13.437030458577505 5.0357602927002505 0 0 0
254 85 1 0.5897 0.6228441102217673 15.554162977546648 4.499735451582901 0 0 0
260 87 1 0.5897 4.616444407551335 16.630704255570702 0.6721890723809165 0 0 0
288 96 1 0.5897 5.871704020235356 14.744907676595197 1.7246919012546895 0 0 0
147 49 1 0.5897 5.394546898187825 12.709001857836505 1.1434637613461973 0 0 0
338 113 1 0.5897 0.08300950206667607 16.927916270048073 2.7882829243257694 1 0 0
287 96 1 0.5897 5.985409294183865 13.956022865744496 3.0117692501747912 0 0 0
247 83 2 -1.1794 5.954399519799359 17.01701789712146 3.515712216384071 0 0 0
268 90 2 -1.1794 1.6218842857192937 12.504245728758963 5.019686069952306 0 0 0
146 49 1 0.5897 3.884768775802267 12.599612345262516 1.1705852792458666 0 0 0
265 89 2 -1.1794 4.73966723977498 18.471856742478536 0.7753332159835925 0 0 0
389 130 1 0.5897 2.1129680240942816 18.366529308822297 4.436080078653939 0 0 0
740 247 1 0.5897 4.660255251883709 15.207901697381086 5.650808392946157 0 0 0
339 113 1 0.5897 0.09078590083539226 17.599757006602996 4.144894158626995 1 0 0
256 86 2 -1.1794 0.04377740070815861 14.028829901088617 2.217808462451147 0 0 0
29 10 1 0.5897 2.3343859066934542 24.61081449388613 4.516886121356216 0 -1 0
267 89 1 0.5897 3.935506920728547 18.78663163671745 1.1882923499820046 0 0 0
361 121 2 -1.1794 4.684663116640677 20.061020815944104 4.316338033824373 0 0 0
362 121 1 0.5897 3.908481071221373 20.102755603537002 3.7576955088635566 0 0 0
364 122 2 -1.1794 2.916774527225941 19.999283154339093 2.2893419795914594 0 0 0
365 122 1 0.5897 3.237278689333003 20.658171890633827 1.673408280321314 0 0 0
370 124 2 -1.1794 3.300440242695804 23.168926199168553 3.56941882124462 0 0 0
371 124 1 0.5897 4.241051539702817 23.004492702713005 3.636781293174722 0 0 0
372 124 1 0.5897 2.8947085097634826 22.43304212716926 4.027787531566316 0 0 0
373 125 2 -1.1794 1.6115158052165912 21.421637939968686 4.9323883062763665 0 0 0
382 128 2 -1.1794 1.5711153190967277 23.169897653900716 1.469775715888425 0 0 0
383 128 1 0.5897 2.360303810158784 23.150290697152755 2.0111455826466504 0 0 0
375 125 1 0.5897 0.9534717103713727 21.851902657446804 4.386387543055649 0 0 0
366 122 1 0.5897 1.9632322772516178 20.0627144988792 2.2340256008342636 0 0 0
384 128 1 0.5897 1.696390664077601 22.462474534305045 0.8372560576446916 0 0 0
381 127 1 0.5897 5.286454590781953 21.37415524464313 1.2829826932322066 0 0 0
379 127 2 -1.1794 4.546914944135488 21.743844202889665 0.8006026113439969 0 0 0
390 130 1 0.5897 1.4992614449588058 19.654528403190515 4.942407254661141 0 0 0
363 121 1 0.5897 4.560105457227544 19.270506623358152 4.8415057633563165 0 0 0
380 127 1 0.5897 4.6611536754002865 22.69126454521636 0.8753459348221233 0 0 0
459 153 1 0.5897 0.34885470393057805 23.292269643386568 2.821263827668539 1 0 0
388 130 2 -1.1794 1.4040209892851452 18.702991387542095 4.984224076913652 0 0 0
408 136 1 0.5897 5.860997740488538 20.154294809769993 2.9883984938226424 0 0 0
458 153 1 0.5897 0.20844513066150197 23.957711385606775 4.173779472382548 1 0 0
376 126 2 -1.1794 0.09897496492034748 20.068775073504057 2.088688268873782 0 0 0
385 129 2 -1.1794 4.764697741434662 24.49231327178184 0.8393312416975428 0 0 0
367 123 2 -1.1794 5.989755662187788 23.10664681264713 3.7240497727708037 0 0 0
407 136 1 0.5897 6.047867076075411 19.445286254414828 1.6639291007530637 0 0 0
861 287 1 0.5897 4.7680689285313065 21.178641700020954 5.703820913558812 0 0 0
1470 490 1 0.5897 1.4712963588491679 24.3789438985367 0.1324694606304629 0 -1 1
736 246 2 -1.1794 0.24576363335509804 13.673533941857794 7.649501642283582 0 0 0
737 246 1 0.5897 1.1900235775717058 13.730503145369454 7.795964095397197 0 0 0
732 244 1 0.5897 2.917034837562192 16.262503732868282 9.762296501150345 0 0 0
725 242 1 0.5897 3.4039143873969264 14.656580021444704 7.54192879999627 0 0 0
726 242 1 0.5897 3.32476302540325 13.152781924873722 7.386221117512603 0 0 0
730 244 2 -1.1794 3.373435611840643 16.896836191117767 9.209516526745192 0 0 0
728 243 1 0.5897 5.121865096501236 16.891201888576003 9.220166379447392 0 0 0
733 245 2 -1.1794 1.6462097401180855 15.249397083325995 10.74354687060367 0 0 0
724 242 2 -1.1794 2.9541572233519218 13.883007071531908 7.8818661436383675 0 0 0
742 248 2 -1.1794 1.529752082919981 16.94901510165644 7.099340948019806 0 0 0
721 241 2 -1.1794 4.642924410706314 13.815791641499844 10.03010953142523 0 0 0
743 248 1 0.5897 1.528498897547778 17.707732934420697 6.515757198867446 0 0 0
722 241 1 0.5897 3.927646460579823 13.85310772345315 9.395085812353674 0 0 0
731 244 1 0.5897 2.874990242812226 16.90545631204523 8.392381163614282 0 0 0
735 245 1 0.5897 0.903924407562994 15.66333150072444 10.303145207279776 0 0 0
741 247 1 0.5897 4.559862550064093 16.499045451222397 6.434875939569063 0 0 0
744 248 1 0.5897 1.5445961000159532 16.19391664340517 6.511268372166149 0 0 0
739 247 2 -1.1794 4.621517178888974 15.55006984946543 6.5439048649128555 0 0 0
723 241 1 0.5897 5.433580566565512 13.734846288664183 9.496632752026354 0 0 0
749 250 1 0.5897 1.603523947680796 13.404461199200579 10.758081927200037 0 0 0
869 290 1 0.5897 0.849594105014142 18.179072388978597 10.23972674458844 0 0 0
818 273 1 0.5897 0.23229083354267865 16.929994364747763 8.461026432300585 1 0 0
727 243 2 -1.1794 6.07826258389012 16.857838532765236 9.24291449362575 0 0 0
870 290 1 0.5897 2.3370525639849418 18.30216983546152 9.985874192381875 0 0 0
745 249 2 -1.1794 4.502878309805174 18.372680628190558 6.452644979969128 0 0 0
748 250 2 -1.1794 1.61041888963873 12.457886478258068 10.615993781625841 0 0 0
1221 407 1 0.5897 4.643228419237527 15.102263177436349 11.371202331263952 0 0 0
768 256 1 0.5897 6.0910742410276555 14.54086039764127 7.447107656088213 0 0 0
627 209 1 0.5897 5.26645181191255 12.53960231842993 6.904857531064715 0 0 0
846 282 1 0.5897 1.8775339824053079 20.09081379507298 7.840101890832261 0 0 0
747 249 1 0.5897 3.815085849066463 18.9034303078431 6.854544523149228 0 0 0
30 10 1 0.5897 1.6257675202335862 24.35107739395709 5.829240366290987 0 -1 0
374 125 1 0.5897 1.5934828411042403 21.906933061011593 5.757234089207252 0 0 0
510 170 1 0.5897 2.1647269763050114 24.528484477403534 10.044895246941536 0 -1 0
859 287 2 -1.1794 4.6926024964561 21.724954500046216 6.4861618596323405 0 0 0
847 283 2 -1.1794 5.947079772999314 23.008214663660503 9.458534750165379 0 0 0
888 296 1 0.5897 5.800764328631254 20.044710028461346 8.652100477486426 0 0 0
865 289 2 -1.1794 4.502919954253803 24.45684646116888 6.491748435390399 0 0 0
841 281 2 -1.1794 4.573888322789294 20.154533267366745 10.031641854610024 0 0 0
939 313 1 0.5897 0.20003133350975583 23.83135297114367 9.7789743440426 1 0 0
887 296 1 0.5897 6.050095754404663 20.688127157936965 7.304628332228535 0 0 0
746 249 1 0.5897 5.308774208846016 18.658072579218764 6.883197322900299 0 0 0
851 284 1 0.5897 4.222378584719439 23.067879489688345 9.393012433381395 0 0 0
855 285 1 0.5897 0.8043614576127597 21.67832816103659 10.142927800173378 0 0 0
842 281 1 0.5897 4.660251775911729 20.9026208023829 10.62251483706465 0 0 0
863 288 1 0.5897 2.3057902681633133 23.079043933798268 7.757771964261233 0 0 0
845 282 1 0.5897 3.1321711436288084 20.10082617339742 8.687340477623106 0 0 0
850 284 2 -1.1794 3.273599885103885 23.14330590552062 9.290766008421679 0 0 0
864 288 1 0.5897 0.7980639273737566 23.20560630683585 7.704114990056017 0 0 0
868 290 2 -1.1794 1.6313150725829186 18.647464339626286 10.532667881105034 0 0 0
860 287 1 0.5897 3.9799893782896616 21.328792766276937 6.9876728257878185 0 0 0
856 286 2 -1.1794 0.19161903530149646 19.871937601238216 7.750918341582784 0 0 0
844 282 2 -1.1794 2.831822543652801 20.134886572248824 7.7791341157761265 0 0 0
853 285 2 -1.1794 1.536233701047176 21.412302315762606 10.699586248579818 0 0 0
843 281 1 0.5897 4.531140265258837 19.394266635118658 10.611634849972896 0 0 0
866 289 1 0.5897 4.576057856912934 23.513751671544078 6.345242459693182 0 0 0
854 285 1 0.5897 1.5545244189304728 20.457661970443876 10.63199574398328 0 0 0
862 288 2 -1.1794 1.5708493307228384 23.119652619796145 7.1458168048579775 0 0 0
852 284 1 0.5897 2.918143687322068 22.42200941675551 9.810017214001823 0 0 0
1201 401 2 -1.1794 4.651779187434123 14.070366631486245 15.634152002549847 0 0 0
1204 402 2 -1.1794 2.830328561949208 13.980791937406844 13.55492815307791 0 0 0
1205 402 1 0.5897 3.3044269198856777 14.129764902843348 14.373014727645002 0 0 0
1206 402 1 0.5897 3.3371462446957856 13.30589748219903 13.103365928657794 0 0 0
1210 404 2 -1.1794 3.3625030152909954 17.018941632314316 14.954838033854378 0 0 0
1211 404 1 0.5897 3.0566152794794674 17.74080814212312 15.50399724030248 0 0 0
1212 404 1 0.5897 4.317253185990999 17.06890125165349 15.0026117185966 0 0 0
1213 405 2 -1.1794 1.68957414116526 15.34580041548961 16.279550658071734 0 0 0
1214 405 1 0.5897 0.9026399188430165 15.789313672738235 15.962810958917812 0 0 0
1215 405 1 0.5897 2.410457339046547 15.783239181535295 15.826497766081227 0 0 0
1218 406 1 0.5897 1.0683942482175208 13.743696179351666 13.51989415440467 0 0 0
1222 408 2 -1.1794 1.53473819025048 16.96610071201364 12.899582631613942 0 0 0
1223 408 1 0.5897 1.7914390757549041 17.580867117706838 12.212276420588672 0 0 0
1224 408 1 0.5897 2.258857075218866 16.989550340361685 13.525180246376578 0 0 0
1229 410 1 0.5897 1.6001487517598134 13.51642490058669 16.171557247992872 0 0 0
1220 407 1 0.5897 3.8535844383603832 15.198163310774683 12.659284292962601 0 0 0
1202 401 1 0.5897 5.389242279198085 13.937471358564132 15.03853450691087 0 0 0