LAMMPS data file via write_data, version 30 Jul 2021, timestep = 5250000

972 atoms
2 atom types
648 bonds
1 bond types
324 angles
1 angle types

-0.01271381826070872 20.012714818259973 xlo xhi
0.004455260165913799 19.995545739829904 ylo yhi
-0.044818207034893476 20.74481620703939 zlo zhi

Masses

1 1.008
2 15.999

Pair Coeffs # lj/cut/tip4p/long/omp

1 0 0
2 0.21084 3.1668

Bond Coeffs # harmonic/omp

1 450 0.9572

Angle Coeffs # harmonic/omp

1 55 104.52

Atoms # full

4 2 2 -1.1794 4.121881511204387 1.3653825644026598 3.3374155100791647 0 0 0
5 2 1 0.5897 4.10946818353831 0.6547935056343954 2.6963330849443286 0 0 0
17 6 1 0.5897 4.012217321433518 4.634055954105186 2.769839832370371 0 0 0
10 4 2 -1.1794 1.0978195539948594 4.024642479896514 3.8050467212214634 0 0 0
11 4 1 0.5897 0.8750338757228121 3.21762561271981 3.341193781505019 0 0 0
12 4 1 0.5897 2.0546547666269346 4.032642894681039 3.8267088878656583 0 0 0
16 6 2 -1.1794 3.854917203749269 4.060665462256155 3.5198890808587158 0 0 0
18 6 1 0.5897 4.0084163088499105 3.1778926087876567 3.1834153885545016 0 0 0
23 8 1 0.5897 2.845423199666038 1.0258629109578352 4.5046797717065665 0 0 0
31 11 2 -1.1794 0.6451382396418293 1.9271260704174666 2.1523509806252967 0 0 0
33 11 1 0.5897 1.3534027034671263 2.059022485627995 1.5222337580709708 0 0 0
102 34 1 0.5897 0.2330628499637161 0.8918095595093286 4.9193812088211155 1 0 0
1 1 2 -1.1794 2.456210033621269 2.568715608729665 0.23630062198855772 0 0 0
236 79 1 0.5897 0.7033468014469176 0.11768279436934448 1.9851864426831085 0 1 0
3 1 1 0.5897 3.4077845985735826 2.473551578472241 0.27530963333505415 0 0 0
22 8 2 -1.1794 2.1480235937273013 0.8776398754898941 5.1432378349623615 0 0 0
2 1 1 0.5897 2.3159608832182834 3.489531764169948 0.016115361268055503 0 0 0
6 2 1 0.5897 4.824887425780492 1.1301470207109665 3.9428391200697046 0 0 0
9 3 1 0.5897 4.977711123241282 4.378547972197084 4.787989118407638 0 0 0
561 187 1 0.5897 0.7419566282471928 0.06736933635535679 8.905013105545 0 1 0
27 9 1 0.5897 2.6498129062891462 4.277455161822861 6.930693188185491 0 0 0
356 119 1 0.5897 1.5596542082372065 2.2121340996813363 8.573861396973227 0 0 0
325 109 2 -1.1794 2.6362403912409405 2.5961482044746105 7.21002354811483 0 0 0
326 109 1 0.5897 2.3983074110978473 2.0435872929878345 6.465607779139626 0 0 0
327 109 1 0.5897 3.570964722982844 2.435739529259864 7.338873200825187 0 0 0
330 110 1 0.5897 4.03817541177257 0.6830886492025627 9.344455920252479 0 0 0
355 119 2 -1.1794 0.8223861297451931 2.0412210863748896 9.159792103076619 0 0 0
328 110 2 -1.1794 4.029686126362665 1.4614533362302384 9.901371322106698 0 0 0
342 114 1 0.5897 4.308962499039514 4.6606720557709815 9.78829776083132 0 0 0
335 112 1 0.5897 1.1838320476640394 3.3950633472161384 10.211814108735894 0 0 0
341 114 1 0.5897 3.980610036645806 3.2493978235412424 10.226426877557573 0 0 0
357 119 1 0.5897 0.04724415939785491 2.2363069265513413 8.63330882082216 0 0 0
24 8 1 0.5897 2.3272587534793994 0.006321113381244736 5.49643005152367 0 0 0
651 217 1 0.5897 2.104841058719975 2.1428337099249597 14.66113059681061 0 0 0
683 228 1 0.5897 4.3351284099435645 2.704584678089314 14.318067148171556 0 0 0
346 116 2 -1.1794 2.0949327519741825 0.8383732015533785 11.836632512339277 0 0 0
347 116 1 0.5897 1.1997622232183225 1.0749670376229121 11.59420923604057 0 0 0
348 116 1 0.5897 2.621361820373134 1.0780620539411498 11.074057046515604 0 0 0
350 117 1 0.5897 2.559154641605904 4.409742510824956 13.59023823499193 0 0 0
649 217 2 -1.1794 2.581201189216895 2.559400931414363 13.943060113702547 0 0 0
650 217 1 0.5897 2.4737235734509286 1.9603865734421015 13.204338405537932 0 0 0
340 114 2 -1.1794 4.0674089274073575 4.143543374279044 10.556624360799038 0 0 0
329 110 1 0.5897 4.652595635545764 1.2631418501245433 10.600481024186577 0 0 0
336 112 1 0.5897 2.259901115201768 4.312932181096686 10.751343779813304 0 0 0
334 112 2 -1.1794 1.3100304260660183 4.203501215110682 10.708378515310622 0 0 0
680 227 1 0.5897 0.025899681449644163 2.0564079049913664 15.299831783064475 0 0 0
405 135 1 0.5897 0.13507359783802286 4.408050012199508 11.999580005962633 1 0 0
652 218 2 -1.1794 4.1104809773509645 1.2550481757133298 17.097681627771646 0 0 0
653 218 1 0.5897 3.2626274345503226 1.0876511303917742 17.50902550372815 0 0 0
654 218 1 0.5897 4.257252150315698 0.49631401767825534 16.533030513238533 0 0 0
658 220 2 -1.1794 1.2640378684352065 4.1380588524820245 17.555756719219087 0 0 0
659 220 1 0.5897 0.5861834134958437 4.151618056653712 18.231347790291935 0 0 0
664 222 2 -1.1794 4.059695028516943 3.922328881383294 17.422267920444252 0 0 0
665 222 1 0.5897 3.1103893640682982 4.033143078551623 17.371164545564476 0 0 0
666 222 1 0.5897 4.205464009485242 3.000521633110721 17.209952583050423 0 0 0
670 224 2 -1.1794 1.9830708302346787 1.0521603692396313 18.85656748095574 0 0 0
671 224 1 0.5897 2.116817663263693 1.638785579436786 19.600931897259045 0 0 0
672 224 1 0.5897 1.0321850993992858 0.9742332725996078 18.78027892233182 0 0 0
681 227 1 0.5897 0.7989423267688773 2.574836996756866 16.493649336946238 0 0 0
679 227 2 -1.1794 0.7547744245103875 1.8404917938715062 15.881389960739034 0 0 0
660 220 1 0.5897 1.0248138561916749 4.84916792060188 16.961470787142094 0 0 0
662 221 1 0.5897 4.6784219564205305 4.944579332777946 15.856751117312426 0 0 0
111 37 1 0.5897 3.510172134760238 9.313640911544393 0.3152673545028276 0 0 0
141 47 1 0.5897 0.7036805595174295 8.023588635439198 2.2106813145294155 0 0 0
139 47 2 -1.1794 0.8133392018597195 8.934299436290294 1.9375046262457718 0 0 0
13 5 2 -1.1794 4.5741357464483 5.809211756930304 1.5382507800137781 0 0 0
14 5 1 0.5897 3.9078952802150186 5.700784633730647 0.859679321885671 0 0 0
15 5 1 0.5897 4.321115251448765 6.610102119398108 1.997191200080187 0 0 0
19 7 2 -1.1794 0.7295965352483489 6.15339141581093 2.115203700836126 0 0 0
140 47 1 0.5897 1.0239924116516719 9.40327720076956 2.7448377715936534 0 0 0
126 42 1 0.5897 4.177497578565248 9.755301875410172 3.533269449720984 0 0 0
674 225 1 0.5897 1.7006663682684697 5.763967948509231 0.5463988795595422 0 0 1
110 37 1 0.5897 2.0369904453327323 9.271106355393748 0.6608370173207202 0 0 0
112 38 2 -1.1794 4.180247083347357 7.884852876645645 3.375865731252128 0 0 0
114 38 1 0.5897 3.4102301473538916 7.691219073642835 3.9103423150937626 0 0 0
20 7 1 0.5897 0.9417109623671989 5.420479835982299 2.693053938788985 0 0 0
113 38 1 0.5897 4.923600167642706 7.675395744841337 3.9412242943634332 0 0 0
132 44 1 0.5897 1.1952721662528427 7.393614064218336 5.109936656763723 0 0 0
464 155 1 0.5897 1.5451053072104919 8.669620537732001 8.48385197974286 0 0 0
437 146 1 0.5897 4.191088672548109 7.589951110817106 9.601066627513642 0 0 0
468 156 1 0.5897 4.700105444425196 9.027024392966704 7.216853956339965 0 0 0
26 9 1 0.5897 1.9046778435718001 5.477503438107509 7.474880666288844 0 0 0
463 155 2 -1.1794 0.8251810425703694 8.525035105938592 9.097761096715985 0 0 0
25 9 2 -1.1794 2.6384752349917653 5.234284932882519 6.910549128621969 0 0 0
337 113 2 -1.1794 4.645225274878592 5.974433394959982 8.592217633674432 0 0 0
339 113 1 0.5897 4.137611247423403 5.714526879225385 7.823531390487533 0 0 0
343 115 2 -1.1794 0.6035132482514994 5.888670141950708 8.700499873665741 0 0 0
344 115 1 0.5897 0.7772369430654508 5.381030804930606 9.493105153125027 0 0 0
345 115 1 0.5897 0.7494393393177062 6.797968885744992 8.961145344017654 0 0 0
433 145 2 -1.1794 2.8015402511657785 8.93110540825422 7.3027807596988525 0 0 0
435 145 1 0.5897 2.5182724668597367 8.432760935087085 6.536288198494396 0 0 0
131 44 1 0.5897 2.2822985120947568 6.547618035712862 5.737767258638174 0 0 0
438 146 1 0.5897 4.021631929769638 8.93671271497407 10.27114619479144 0 0 0
443 148 1 0.5897 0.9905347410299208 9.939097531125277 10.21789587941597 0 0 0
434 145 1 0.5897 2.582524778600113 9.838923283013512 7.093116630623642 0 0 0
465 155 1 0.5897 0.04385577841087951 8.806367955222846 8.621877272917612 0 0 0
130 44 2 -1.1794 2.1458260216617666 7.327852139095372 5.200478765793034 0 0 0
757 253 2 -1.1794 2.8054270782054647 9.382481973281195 14.066321711633943 0 0 0
792 264 1 0.5897 4.7484255931570125 9.326010982733346 14.349673604112034 0 0 0
789 263 1 0.5897 1.6086912254299117 8.97258236309007 15.462212197435393 0 0 0
351 117 1 0.5897 3.389455741101389 5.575110369243692 14.084201226064543 0 0 0
454 152 2 -1.1794 1.9759149048747722 7.614301685748912 12.159385504757712 0 0 0
455 152 1 0.5897 2.6565189108547034 7.7560410483455895 11.50153297554745 0 0 0
456 152 1 0.5897 2.25135744372544 6.8236614507566244 12.623163387843375 0 0 0
759 253 1 0.5897 2.616169195534412 8.775995585524157 13.350467821885413 0 0 0
668 223 1 0.5897 1.3602332643757986 5.844207354656997 14.897566941670805 0 0 0
349 117 2 -1.1794 2.567190173393137 5.3654405683774575 13.641479491660663 0 0 0
533 178 1 0.5897 0.21468107534803638 7.588469253532184 12.084063602770986 1 0 0
661 221 2 -1.1794 4.726765660443589 5.719896610240926 15.297622538658583 0 0 0
436 146 2 -1.1794 4.139948166124463 8.006200869588024 10.461431785720485 0 0 0
787 263 2 -1.1794 0.9394947118813216 8.764848075395832 16.11421276223615 0 0 0
788 263 1 0.5897 1.0450887213641862 9.435730726057415 16.78863801359459 0 0 0
669 223 1 0.5897 0.8469249594567122 6.923708321625216 15.826383456449525 0 0 0
780 260 1 0.5897 2.9402051438079586 7.588093346525067 18.14849550663167 0 0 0
858 286 1 0.5897 0.4873744315847903 7.353720178483059 18.679641931834016 1 0 0
675 225 1 0.5897 2.3558242218920675 6.0287133693741835 19.99728156404827 0 0 0
760 254 2 -1.1794 4.317511364907404 7.749475724299943 17.017303990563672 0 0 0
761 254 1 0.5897 4.135557102394055 8.689126494440618 17.014714257225304 0 0 0
779 260 1 0.5897 2.427700560022796 8.304631006547197 19.379530856583614 0 0 0
778 260 2 -1.1794 2.332819533455247 7.492540215797818 18.882008828317936 0 0 0
663 221 1 0.5897 4.45794865979568 6.442170584632668 15.865194726480784 0 0 0
673 225 2 -1.1794 2.317060201015061 5.388296658805485 20.70753180120983 0 0 0
762 254 1 0.5897 4.993384278451603 7.637769265405406 17.68574216346043 0 0 0
109 37 2 -1.1794 2.6397681604295036 9.429726145268125 20.724114507065288 0 0 -1
667 223 2 -1.1794 0.7110114101556066 6.008528232684379 15.581384354801852 0 0 0
783 261 1 0.5897 1.8613497092212725 12.311655657663026 0.6365640673626117 0 0 1
118 40 2 -1.1794 1.2603860123160244 10.803640030352511 3.906926152136265 0 0 0
119 40 1 0.5897 2.211207845168661 10.82798433943279 4.013791705671214 0 0 0
120 40 1 0.5897 1.0783822719725769 11.454100358380765 3.228805378947485 0 0 0
122 41 1 0.5897 4.461661592557225 11.754037941298652 2.2617153147211426 0 0 0
123 41 1 0.5897 3.9853560381784874 12.299061230934592 0.9321839411764165 0 0 0
124 42 2 -1.1794 4.1012148758646765 10.686554580201385 3.740655455574847 0 0 0
240 80 1 0.5897 2.464761644340834 13.802932464183574 4.572189660367157 0 0 0
127 43 2 -1.1794 0.6803858489241288 12.565174042961445 1.841519925819873 0 0 0
129 43 1 0.5897 0.7483154208892258 13.476220631637407 2.1268928820374167 0 0 0
220 74 2 -1.1794 3.921369758702237 14.35138494257035 3.472875062514896 0 0 0
222 74 1 0.5897 4.110830544710055 13.989257919341593 2.6073841291182545 0 0 0
125 42 1 0.5897 4.79559411810307 10.84783522015776 4.379339438990492 0 0 0
121 41 2 -1.1794 4.665564892816709 12.41097373843096 1.5961744065938657 0 0 0
317 106 1 0.5897 0.09232019261595237 13.80546113011192 5.144215312698049 1 0 0
133 45 2 -1.1794 2.3473374591999008 11.734426653459275 6.919910342832029 0 0 0
134 45 1 0.5897 1.7399752146538332 12.173999416665097 7.514867549198422 0 0 0
135 45 1 0.5897 3.2137691203641223 11.91790654079402 7.2828171403503426 0 0 0
239 80 1 0.5897 2.053913402546693 12.93758139273431 5.744330260016479 0 0 0
573 191 1 0.5897 0.7239988129709337 14.556388105115332 9.136971399640712 0 0 0
446 149 1 0.5897 4.385905725864516 13.282545922293126 8.801478532376619 0 0 0
450 150 1 0.5897 4.1865573896269925 11.291645572016092 9.571406002136364 0 0 0
451 151 2 -1.1794 0.5067213162501358 12.729722554109367 8.925839471054525 0 0 0
453 151 1 0.5897 0.7780101412905696 12.036088484965688 9.52696692518812 0 0 0
445 149 2 -1.1794 4.5757391400228835 12.451601249954846 8.366090028169788 0 0 0
448 150 2 -1.1794 3.9818532332111922 10.689059874248786 10.286293950108169 0 0 0
544 182 2 -1.1794 4.239912380969867 14.614776799444167 10.007855827442155 0 0 0
238 80 2 -1.1794 1.8380823309529348 13.754078934534899 5.2939797592032285 0 0 0
642 214 1 0.5897 0.37566151500902095 14.272968881792382 11.927932485108895 1 0 0
444 148 1 0.5897 2.1493509457550504 10.775152755018123 10.717553758336964 0 0 0
457 153 2 -1.1794 2.6660378678262053 12.052174409853405 13.396037062666224 0 0 0
458 153 1 0.5897 1.937409506784669 12.23458131452387 13.98926494242339 0 0 0
459 153 1 0.5897 3.449069507108814 12.179260408922245 13.931572384881838 0 0 0
545 182 1 0.5897 3.433941879037702 14.375051949328423 10.465051700853813 0 0 0
562 188 2 -1.1794 2.150257897246209 14.067667113908051 11.66092234646764 0 0 0
563 188 1 0.5897 2.2844141779665796 13.238456969118376 12.119703211956155 0 0 0
449 150 1 0.5897 4.576887605396138 10.942667486348752 10.991773297096657 0 0 0
769 257 2 -1.1794 4.641172211445208 12.518573619891544 15.436470431659883 0 0 0
442 148 2 -1.1794 1.19318634059573 10.732657235112834 10.713142096102821 0 0 0
546 182 1 0.5897 4.915846482838174 14.591924476368034 10.6851179048935 0 0 0
564 188 1 0.5897 2.3881143295552594 14.737644436432953 12.301720713283052 0 0 0
758 253 1 0.5897 2.6807791625433546 10.251094910924463 13.68417759549146 0 0 0
777 259 1 0.5897 0.8684090756067567 13.625064663999009 15.401777215919303 0 0 0
775 259 2 -1.1794 0.7563635230756192 12.68487326585919 15.26198425904585 0 0 0
766 256 2 -1.1794 1.4149075620937666 11.095186234903986 17.616510867095364 0 0 0
767 256 1 0.5897 0.6603560008059861 11.326659185013888 18.157951209107903 0 0 0
768 256 1 0.5897 1.308037380711811 11.616054664752653 16.82066218786743 0 0 0
772 258 2 -1.1794 4.085231628816186 10.618957284674238 17.44720630466322 0 0 0
773 258 1 0.5897 3.169299417097281 10.738914676256895 17.697719151008638 0 0 0
774 258 1 0.5897 4.196702885264537 11.171209418946747 16.67347210396452 0 0 0
965 322 1 0.5897 0.3584699927858902 14.175132054237668 19.108501475513943 1 0 0
771 257 1 0.5897 4.42423934142156 13.290861328285047 15.958570598968365 0 0 0
868 290 2 -1.1794 4.2488043676055005 14.547895254662373 17.270701644822672 0 0 0
869 290 1 0.5897 3.44734108277235 14.410822051081173 17.77563205784639 0 0 0
886 296 2 -1.1794 2.135334946757196 14.23638215941572 18.859858340343276 0 0 0
888 296 1 0.5897 2.3169364496083595 13.45198371796574 19.377363317548426 0 0 0
870 290 1 0.5897 4.9559948845015045 14.40625311784714 17.899917960748468 0 0 0
887 296 1 0.5897 2.2159138464273234 14.958687272532098 19.482634640579462 0 0 0
781 261 2 -1.1794 2.4688604274994406 12.15066426098285 20.704321914191265 0 0 0
782 261 1 0.5897 2.4391119777863417 11.20315336229425 20.572431518221933 0 0 0
249 83 1 0.5897 1.5040101564438169 15.607070914090867 1.513014168174586 0 0 0
248 83 1 0.5897 0.7690298845690939 16.037454804111142 2.7644703828324646 0 0 0
247 83 2 -1.1794 0.8934759634617487 15.290742606259437 2.1787995559671223 0 0 0
890 297 1 0.5897 1.8399466821691464 19.079318371197722 0.36687134411340194 0 0 1
226 76 2 -1.1794 1.1170722129742572 17.502028281030974 3.82465266447538 0 0 0
227 76 1 0.5897 0.9934066271635695 18.09594419295135 3.0843431704489626 0 0 0
228 76 1 0.5897 0.42904129592245943 17.744394000759392 4.444296159504433 0 0 0
229 77 2 -1.1794 4.302452344748109 19.116927329193835 1.790352755061239 0 0 0
230 77 1 0.5897 3.8566489690700942 19.095601941506096 0.9436448766877255 0 0 0
232 78 2 -1.1794 3.884788469798784 17.152346996194034 3.6321375856270977 0 0 0
233 78 1 0.5897 4.027348632342012 17.829884758728497 2.9713046093362405 0 0 0
234 78 1 0.5897 2.9562462297954704 17.224057323947314 3.852912061996257 0 0 0
235 79 2 -1.1794 0.7524738131234604 19.19856570987573 1.6933434572970765 0 0 0
221 74 1 0.5897 3.876610442435127 15.29711876903355 3.3327317057298775 0 0 0
224 75 1 0.5897 4.935545339362868 17.6818506981311 5.096783310859857 0 0 0
217 73 2 -1.1794 2.604641092562137 16.018297465215937 0.08051511217201934 0 0 0
219 73 1 0.5897 3.5400810601921564 15.926769614041993 0.26120930492631445 0 0 0
551 184 1 0.5897 1.0958777651743776 18.07130871176591 10.078680019821736 0 0 0
576 192 1 0.5897 4.335534522646158 15.62578101879582 7.327400840857548 0 0 0
572 191 1 0.5897 0.8573982341265189 15.885428737454152 9.849250939730425 0 0 0
241 81 2 -1.1794 2.416828414496349 18.590235221900244 6.608570581227852 0 0 0
242 81 1 0.5897 2.5004005031875516 17.63910836916574 6.675034163066096 0 0 0
243 81 1 0.5897 1.7564425647856539 18.8193638693483 7.262389432447429 0 0 0
541 181 2 -1.1794 2.586578273668074 15.827491244897034 7.027844595123796 0 0 0
542 181 1 0.5897 1.966222219781054 15.69151648818589 7.743922753583984 0 0 0
558 186 1 0.5897 4.157224399532661 17.77551137117625 9.896615816163452 0 0 0
553 185 2 -1.1794 4.243846205049241 19.075678274028697 8.618469224061721 0 0 0
555 185 1 0.5897 3.7813255611475673 18.837782290096577 7.814985787846871 0 0 0
559 187 2 -1.1794 0.6817033573910829 19.148824249562985 8.613472423922254 0 0 0
571 191 2 -1.1794 0.7070847012097419 15.501293173855258 8.98556748605724 0 0 0
543 181 1 0.5897 2.352885723557506 15.1641491170214 6.378653213391991 0 0 0
557 186 1 0.5897 4.189431419972581 16.315889572792017 10.296516353911363 0 0 0
867 289 1 0.5897 2.285084495436757 15.772975560892698 14.185717297605866 0 0 0
885 295 1 0.5897 1.3606313035887498 18.97791606054028 14.763165369900646 0 0 0
866 289 1 0.5897 3.6896009203042097 15.898569914994711 13.635199507494043 0 0 0
879 293 1 0.5897 4.132710213988885 18.95369156081957 14.839700043691826 0 0 0
550 184 2 -1.1794 1.2199191628970423 17.569672278813748 10.884329445920137 0 0 0
552 184 1 0.5897 2.168377210007028 17.464382634045975 10.957823146326406 0 0 0
565 189 2 -1.1794 2.821780565269827 18.88105869694128 13.665549499032279 0 0 0
566 189 1 0.5897 2.78260526955603 17.99992764947548 13.293898540404117 0 0 0
567 189 1 0.5897 2.6342301541114503 19.461216741409622 12.927766572888581 0 0 0
865 289 2 -1.1794 2.770016667649601 16.015556295801474 13.396984588732321 0 0 0
556 186 2 -1.1794 3.9532922189915 17.184636871435494 10.621439714987954 0 0 0
896 299 1 0.5897 0.1940918564400747 15.592519943520081 15.125719046274506 0 0 0
895 299 2 -1.1794 1.0736737007195707 15.41237650473302 15.457316537197315 0 0 0
883 295 2 -1.1794 0.7270134209701193 19.05086612179739 15.476815304000594 0 0 0
881 294 1 0.5897 2.829954859255693 17.32192022902612 17.50247007412594 0 0 0
897 299 1 0.5897 1.0945178381432858 15.826767984140561 16.319842496055283 0 0 0
891 297 1 0.5897 2.3690561426899794 19.483649716961878 19.79704322219316 0 0 0
882 294 1 0.5897 3.9608497766878688 16.331612380614963 17.324013158623885 0 0 0
874 292 2 -1.1794 1.122027283081734 17.213215208208673 17.540920870508753 0 0 0
875 292 1 0.5897 0.5410245437309914 17.40585605431179 18.276735795703868 0 0 0
876 292 1 0.5897 0.9428778557494498 17.906471077092093 16.90579443993159 0 0 0
878 293 1 0.5897 4.3837704939860185 18.394573712450025 16.22386557780088 0 0 0
880 294 2 -1.1794 3.783537070449581 17.26451351431455 17.44364334257246 0 0 0
889 297 2 -1.1794 2.519576077120793 18.86993271727782 20.515918470550904 0 0 0
884 295 1 0.5897 0.7411774071726128 19.977350821672218 15.71653960162393 0 0 0
218 73 1 0.5897 2.485468707857984 16.950349060352828 20.688119687606974 0 0 -1
873 291 1 0.5897 4.774900115259801 17.84438877698468 18.85566498616778 0 0 0
877 293 2 -1.1794 4.699258220182685 19.052777794773675 15.604739376615704 0 0 0
69 23 1 0.5897 6.615541611360497 2.139876750036694 1.581947177123084 0 0 0
34 12 2 -1.1794 5.16401633275991 2.6907610479516664 0.40399462384377055 0 0 0
68 23 1 0.5897 8.109564880440184 2.0571035450818287 1.35270875254464 0 0 0
67 23 2 -1.1794 7.428917229598801 1.8451109704738147 1.9913537222655222 0 0 0
46 16 2 -1.1794 7.977443480467651 4.062266784993622 3.507936048039083 0 0 0
47 16 1 0.5897 7.693990841898605 3.288193108139871 3.021589086510923 0 0 0
48 16 1 0.5897 7.294176662753182 4.196625255921327 4.1645826655165745 0 0 0
53 18 1 0.5897 9.790086816612332 4.15735269608521 3.4544249689072046 0 0 0
29 10 1 0.5897 7.001130634247485 0.6460275377704546 4.990646606756524 0 0 0
37 13 2 -1.1794 9.238468221111924 2.5749169132177694 0.02682154910992257 0 0 0
58 20 2 -1.1794 8.662473425726821 0.7339681145387179 5.0454061464697935 0 0 0
8 3 1 0.5897 5.660250265283932 3.8541501444008217 6.033266759424516 0 0 0
391 131 2 -1.1794 7.496598015573153 2.2768972480364904 8.776139946903506 0 0 0
393 131 1 0.5897 7.436125782920119 1.3281366168566522 8.886828944899925 0 0 0
360 120 1 0.5897 5.682547796952684 1.7405395851402445 6.470632046288033 0 0 0
361 121 2 -1.1794 9.363390358803516 2.6526935087714643 6.844063582917831 0 0 0
7 3 2 -1.1794 5.74306134799281 4.515350765886495 5.346213255631543 0 0 0
392 131 1 0.5897 8.176497859406403 2.3983333666588225 8.113506068667602 0 0 0
362 121 1 0.5897 9.323936822352485 3.5965400262882836 6.690262932934035 0 0 0
358 120 2 -1.1794 5.373633696868635 2.396476866515167 7.095451997105849 0 0 0
359 120 1 0.5897 6.03917829903972 2.404924875630601 7.7832560923691325 0 0 0
59 20 1 0.5897 8.860280675033229 1.4672860180799188 5.6278134776072415 0 0 0
371 124 1 0.5897 7.818495555126661 3.451818551488891 10.147355620060281 0 0 0
28 10 2 -1.1794 6.074097283885531 0.47739568212510936 5.158707145723853 0 0 0
377 126 1 0.5897 9.879662515324226 4.097829657031673 10.323669709388653 0 0 0
352 118 2 -1.1794 5.63139159319534 0.920371949287065 12.076777627438865 0 0 0
353 118 1 0.5897 6.582987106042352 0.9572150961192342 11.98095666376241 0 0 0
354 118 1 0.5897 5.453228839348071 1.396678483531958 12.887629551719998 0 0 0
684 228 1 0.5897 5.493952430865365 3.4454517450391435 13.685824228321666 0 0 0
372 124 1 0.5897 7.455021666375796 4.249704311567266 11.38138066908208 0 0 0
685 229 2 -1.1794 9.123309139149585 2.7246496729535643 13.885578705006727 0 0 0
382 128 2 -1.1794 8.3545664802983 0.963068544605909 11.988420965307457 0 0 0
383 128 1 0.5897 8.576850959632742 1.6614166691252286 12.60403518558177 0 0 0
384 128 1 0.5897 9.018747699470229 1.0275998164809632 11.302275422991066 0 0 0
682 228 2 -1.1794 5.29007871724161 2.702585360126185 14.253860483158762 0 0 0
686 229 1 0.5897 8.64734854016741 2.526833797501186 14.69207051866056 0 0 0
331 111 2 -1.1794 6.060234089575788 4.596600110957941 12.466017927853171 0 0 0
386 129 1 0.5897 9.00509076835956 4.637769618016927 13.6838483888902 0 0 0
332 111 1 0.5897 5.364285692657121 4.521108387358509 11.813290800966493 0 0 0
370 124 2 -1.1794 8.067078106845582 4.230181803521757 10.64578567191132 0 0 0
717 239 1 0.5897 6.569327859682565 2.441986476395674 15.51604545908193 0 0 0
716 239 1 0.5897 7.355919522423827 1.3058168484862311 16.133980801136943 0 0 0
38 13 1 0.5897 9.017948987333973 2.097349365542133 20.016832277823443 0 0 -1
655 219 2 -1.1794 5.7212826351815975 4.73838925532474 19.411962034082656 0 0 0
657 219 1 0.5897 6.5361804969224835 4.477129482835221 18.983293651665804 0 0 0
676 226 2 -1.1794 5.692215697040504 0.7642550131621283 19.393059939505832 0 0 0
715 239 2 -1.1794 7.347459856569135 2.258470103426694 16.042263001505034 0 0 0
694 232 2 -1.1794 7.92605806276506 4.250050925691939 17.865307496756476 0 0 0
695 232 1 0.5897 7.694957416399095 3.4512020714969025 17.391487854590814 0 0 0
707 236 1 0.5897 8.634787609817344 0.05884394681977099 19.22368646388981 0 0 0
706 236 2 -1.1794 8.44659286583295 0.8824126199463955 18.773810662021774 0 0 0
708 236 1 0.5897 7.500676774669142 0.9955490355055973 18.866100462267514 0 0 0
702 234 1 0.5897 9.672369244384955 4.011949809471575 17.71394384515435 0 0 0
677 226 1 0.5897 5.2412937319550394 0.9653365897283163 18.573105406185768 0 0 0
35 12 1 0.5897 5.3894360875846985 1.9670986567594235 20.609180954889275 0 0 -1
36 12 1 0.5897 5.280617737973986 3.4761099272485216 20.659116153014555 0 0 -1
656 219 1 0.5897 5.038332369363302 4.5364974795211515 18.772503575756012 0 0 0
696 232 1 0.5897 7.725124508553998 4.958377444977309 17.253768416869708 0 0 0
689 230 1 0.5897 9.95316384754179 0.8923407073598668 17.51746440346324 0 0 0
710 237 1 0.5897 9.311440797472006 4.27378795033402 20.713241595305487 0 0 0
143 48 1 0.5897 5.976597317344227 8.93638808297623 1.1008085457120271 0 0 0
176 59 1 0.5897 7.569399892802658 7.734710305904295 1.8486912435594154 0 0 0
177 59 1 0.5897 8.34132414413689 8.924119024700444 1.3186663318359904 0 0 0
711 237 1 0.5897 8.665419909883461 5.5157162605549575 0.49955306379208453 0 0 1
175 59 2 -1.1794 7.635686436173671 8.686836613112416 1.9202175326177697 0 0 0
55 19 2 -1.1794 7.323466981364879 6.0125269257383325 1.7223796688259063 0 0 0
56 19 1 0.5897 6.39687684054774 5.8968337237879265 1.51233677752552 0 0 0
57 19 1 0.5897 7.495381657907172 5.370519779352124 2.411084151752554 0 0 0
142 48 2 -1.1794 5.295826087447818 9.139752872994851 0.4594911028409855 0 0 0
145 49 2 -1.1794 9.618007942216053 9.375887584579033 0.11566236420888865 0 0 0
166 56 2 -1.1794 8.92415993471644 7.43391153429979 4.989819998054562 0 0 0
138 46 1 0.5897 7.15834035312182 7.307773747023551 4.9028064097884 0 0 0
155 52 1 0.5897 7.973245521697291 9.960036216470403 3.241643245799309 0 0 0
137 46 1 0.5897 6.0510591355458745 6.305946614662801 5.151315925231244 0 0 0
136 46 2 -1.1794 6.2100507281003 7.23957438130252 5.01309287337621 0 0 0
168 56 1 0.5897 9.170402810548403 8.143183445520362 5.583435458819031 0 0 0
61 21 2 -1.1794 9.310532619883165 5.331092569466314 6.727133154580787 0 0 0
467 156 1 0.5897 5.841121995250941 8.415724124231398 6.432053139106021 0 0 0
499 167 2 -1.1794 7.760494551555779 8.621075848416165 8.791352822190447 0 0 0
62 21 1 0.5897 8.538490291368921 5.539425308906471 7.253079192645084 0 0 0
338 113 1 0.5897 5.557117770413631 5.840859278146357 8.33397852909949 0 0 0
469 157 2 -1.1794 9.45681903479379 9.458838489692138 6.779524915003278 0 0 0
500 167 1 0.5897 7.852881865658048 9.278811674154955 9.480509740596395 0 0 0
470 157 1 0.5897 8.907094092277994 9.116963720758157 7.484515566133277 0 0 0
501 167 1 0.5897 6.967362014822185 8.876625152411274 8.32048373646356 0 0 0
381 127 1 0.5897 7.405256260028578 5.402729736336429 9.265943456155865 0 0 0
379 127 2 -1.1794 7.321441614401429 5.840065115054681 8.418703525388649 0 0 0
380 127 1 0.5897 7.440342917834452 6.769154627136338 8.615458551008446 0 0 0
466 156 2 -1.1794 5.642482209697505 9.103073882630067 7.067796102368422 0 0 0
167 56 1 0.5897 9.135602289063923 6.634010464509253 5.470989926055477 0 0 0
791 264 1 0.5897 6.157437010965006 9.251201552942742 14.897921006621978 0 0 0
794 265 1 0.5897 9.345536298007167 8.760669368212918 13.387701891922319 0 0 0
790 264 2 -1.1794 5.66556688948066 9.293205414424472 14.0779261617115 0 0 0
333 111 1 0.5897 6.173059190378529 5.539092440881358 12.588594647972569 0 0 0
793 265 2 -1.1794 9.42415231999552 9.314911241772434 14.16405447182644 0 0 0
385 129 2 -1.1794 9.04920839945251 5.553270563016711 13.959477564110806 0 0 0
387 129 1 0.5897 9.069579231076995 6.049479367154906 13.141270124605382 0 0 0
460 154 2 -1.1794 6.156807677061254 7.313636488510294 12.183216851212354 0 0 0
461 154 1 0.5897 6.087016354077493 7.947504069890405 12.896958620143455 0 0 0
462 154 1 0.5897 5.477745294799795 7.576124014347577 11.561875074753702 0 0 0
490 164 2 -1.1794 8.965672081703868 7.502850270861967 11.963123187310336 0 0 0
491 164 1 0.5897 9.455498704452243 7.781304905674747 11.189408048180608 0 0 0
492 164 1 0.5897 8.052897926464642 7.485112137230096 11.675710573181414 0 0 0
705 235 1 0.5897 7.870489407757998 5.9330468846921125 15.274661582579066 0 0 0
824 275 1 0.5897 8.22692654906832 8.836009115276175 15.520420258124863 0 0 0
814 272 2 -1.1794 9.047634731544516 7.416277039603334 19.077218314908308 0 0 0
786 262 1 0.5897 7.165729984525127 7.566211304193024 18.970251098366376 0 0 0
815 272 1 0.5897 9.248828961965598 6.607950044354388 19.548598804541744 0 0 0
816 272 1 0.5897 9.286921575675313 8.114974467328357 19.68601834501183 0 0 0
823 275 2 -1.1794 7.523686352141048 8.836032010079585 16.169680461668094 0 0 0
703 235 2 -1.1794 7.2704789935768135 6.0590097575544535 16.009655710655903 0 0 0
825 275 1 0.5897 7.353196680057493 7.909539423301514 16.338800442164427 0 0 0
784 262 2 -1.1794 6.218056579912837 7.464993711746756 19.05823932917957 0 0 0
785 262 1 0.5897 6.099835303616122 6.564022039736495 19.358796410885475 0 0 0
144 48 1 0.5897 5.465631740518584 8.541996051639224 20.521151119152627 0 0 -1
704 235 1 0.5897 6.398174606368897 5.996145355594984 15.620794974717453 0 0 0
709 237 2 -1.1794 9.355243096692048 5.229621337429396 20.69055068589531 0 0 0
154 52 2 -1.1794 8.08537344417289 10.740923624527225 3.7836024010531797 0 0 0
819 273 1 0.5897 8.273521907687527 12.380731170486696 0.3598676225011474 0 0 1
156 52 1 0.5897 9.03364820599486 10.848489704770287 3.85621321247289 0 0 0
163 55 2 -1.1794 7.373785108238872 12.804792760206649 1.988038270610566 0 0 0
164 55 1 0.5897 6.47587092136557 12.640307927669301 1.700335259183588 0 0 0
165 55 1 0.5897 7.5318703205621516 12.149588054754844 2.6676000860534392 0 0 0
285 95 1 0.5897 7.691141374925773 14.59471794814194 1.9820368828613106 0 0 0
276 92 1 0.5897 9.381249799337724 14.209852734120558 4.280998340059051 0 0 0
246 82 1 0.5897 5.277641078206076 14.215671230307551 4.575274492421005 0 0 0
275 92 1 0.5897 7.949653438592421 14.187094180300258 4.772440507967585 0 0 0
274 92 2 -1.1794 8.855700768714128 14.150199739098888 5.078696780954688 0 0 0
116 39 1 0.5897 6.889215276164327 11.072243969727753 5.013272682402259 0 0 0
244 82 2 -1.1794 6.0414704866440045 14.102621320628225 5.140832199445153 0 0 0
115 39 2 -1.1794 6.110119481322388 11.365870812002765 5.4853662619923105 0 0 0
169 57 2 -1.1794 9.49047408248395 12.214247927947135 6.9613529149064 0 0 0
170 57 1 0.5897 9.245643389798667 12.784619361918232 6.232772619387724 0 0 0