LAMMPS data file via write_data, version 30 Jul 2021, timestep = 9000000

1296 atoms
2 atom types
864 bonds
1 bond types
432 angles
1 angle types

-10.46906638464519 12.44906638464519 xlo xhi
-9.10670701080299 12.09670501080299 ylo yhi
0.279163311510775 21.580835688493508 zlo zhi
-9.04190361011326 1.7479777596724568 2.7228130689790895 xy xz yz

Masses

1 1.008
2 15.999

Pair Coeffs # lj/cut/tip4p/long/omp

1 0 0
2 0.21084 3.1668

Bond Coeffs # harmonic/omp

1 450 0.9572

Angle Coeffs # harmonic/omp

1 55 104.52

Atoms # full

282 94 1 0.5897 -10.299970494494524 -4.083543298875919 1.666421495064824 1 1 0
280 94 2 -1.1794 -9.417817393245763 -4.444444408164174 1.5781540563017535 1 1 0
299 100 1 0.5897 -6.489527237812718 -7.887278905140715 4.170756456343943 1 1 0
163 55 2 -1.1794 -7.1740909510229205 -7.779893214090796 1.0468113623556259 1 1 0
164 55 1 0.5897 -6.381458312774637 -8.165280942492744 1.4202658511973556 1 1 0
270 90 1 0.5897 -8.476070565347879 -7.28281215069144 2.201969520734095 1 1 0
269 90 1 0.5897 -9.208981304587693 -5.985623956403444 2.4703294685821615 1 1 0
268 90 2 -1.1794 -9.073762394968629 -6.865402179445027 2.82229035970821 1 1 0
324 108 1 0.5897 -6.905292141416596 -4.325158035444694 3.684666729082737 1 1 0
73 25 2 -1.1794 -8.255075647831866 -3.659465811993517 4.810192161077955 1 0 0
298 100 2 -1.1794 -5.8788906341247475 -7.152689180130201 4.231455905364502 1 1 0
314 105 1 0.5897 -8.640681431927097 -6.604734072714622 4.556608233720114 1 1 0
323 108 1 0.5897 -6.026500675277366 -5.539314011320037 3.471528514820025 1 1 0
260 87 1 0.5897 -6.732319079064047 -6.116455433885292 0.4104440175655663 1 1 0
261 87 1 0.5897 -6.426197760993548 -4.969549926455993 1.3500863570962585 1 1 0
315 105 1 0.5897 -8.538124186056692 -5.326294701301138 5.361006571078769 1 1 0
74 25 1 0.5897 -8.044208562114976 -3.0727054565573892 5.536528613255758 1 0 0
300 100 1 0.5897 -5.013007209609928 -7.553391598894777 4.154521998834564 1 1 0
275 92 1 0.5897 -10.463814049176023 -7.8477305306202565 3.5960933843348952 1 1 0
68 23 1 0.5897 -11.141946452119077 -2.481185078114997 4.7412452438469295 1 0 0
259 87 2 -1.1794 -6.497855506948357 -5.188508321383517 0.42097035008186834 1 1 0
75 25 1 0.5897 -9.069191633310737 -3.309931563278843 4.4478382828296725 1 0 0
281 94 1 0.5897 -8.840090519792899 -3.6837185864086583 1.6391072469467076 1 1 0
313 105 2 -1.1794 -8.638628975792997 -6.273541744944854 5.454739676672828 1 1 0
84 28 1 0.5897 -8.06340767078972 -0.4323862728528951 4.253100692323377 1 0 0
271 91 2 -1.1794 -10.164485913664475 -0.8687701645892023 0.9518251047509769 1 1 0
272 91 1 0.5897 -9.370938489896433 -1.2729606797383264 1.3027778011284978 1 1 0
69 23 1 0.5897 -11.00690421495915 -2.5671270303592024 3.235764954463866 1 0 0
44 15 1 0.5897 -9.83816930617516 0.8446930463400637 0.44742441846140035 1 0 0
258 86 1 0.5897 -12.296502948032803 -2.8565188036148 1.2023284623331871 1 1 0
53 18 1 0.5897 -12.19622057088873 0.9944223321819763 2.2933299469704065 1 0 0
59 20 1 0.5897 -13.356079713836612 -0.9318821075082848 3.3854440009593025 1 0 0
54 18 1 0.5897 -11.396453703052238 -0.27582561076999035 2.0965916199836307 1 0 0
52 18 2 -1.1794 -12.07295082731542 0.11472025670260955 2.6498354856376336 1 0 0
256 86 2 -1.1794 -11.858879181007604 -3.3862425582877576 1.868756434540284 1 1 0
82 28 2 -1.1794 -8.953309194532988 -0.08317729542950936 4.301726185155402 1 0 0
107 36 1 0.5897 -9.207391066062685 1.438034756573213 3.509044543174816 1 0 0
301 101 2 -1.1794 -7.805207035589556 -2.1593866565858093 1.7220753421725483 1 1 0
98 33 1 0.5897 -11.859517473018943 0.3785297334890334 4.435280715017352 1 0 0
83 28 1 0.5897 -9.517538554045274 -0.8526620762480732 4.226038001034085 1 0 0
67 23 2 -1.1794 -10.5281669980579 -2.3156510393243277 4.02564268673233 1 0 0
99 33 1 0.5897 -11.600536611437313 1.5657236862518698 5.338343299465761 1 0 0
97 33 2 -1.1794 -11.74894511685156 0.6202763705706964 5.354884371978464 1 0 0
165 55 1 0.5897 -7.419045980734008 -8.37454786404928 0.33779778140203526 1 1 0
420 140 1 0.5897 -9.039504299983463 -6.47516954428749 9.8961456180192 1 0 0
414 138 1 0.5897 -6.772879515550093 -4.904663204191453 7.550739617635785 1 0 0
413 138 1 0.5897 -7.529328993936842 -3.608692012324192 7.751011003743011 1 0 0
412 138 2 -1.1794 -7.446179811960073 -4.497657904271016 8.09596110611087 1 0 0
350 117 1 0.5897 -7.088738766208115 -4.162716820083478 9.839456538068589 0 0 0
429 143 1 0.5897 -6.299689206042934 -7.1968468040892795 8.635397752908569 1 0 0
428 143 1 0.5897 -6.5836400834855375 -7.097820153222005 10.119188889398021 1 0 0
427 143 2 -1.1794 -5.884973607513897 -6.992100630770395 9.473508904284758 1 0 0
627 209 1 0.5897 -10.167010477155214 -6.708329133108807 6.343346934899908 1 1 0
618 206 1 0.5897 -7.6863714944953765 -7.260794402661933 6.6395608055575766 1 1 0
419 140 1 0.5897 -8.827393298893023 -5.387810856097005 8.864442000000341 1 0 0
418 140 2 -1.1794 -9.508403502567788 -5.926063371773218 9.26776570686648 1 0 0
616 206 2 -1.1794 -7.28191403120452 -7.901372070751271 7.224624629397914 1 1 0
522 174 1 0.5897 -9.787546856364365 2.2742852193342706 7.4580990923649155 1 0 0
349 117 2 -1.1794 -7.120975794462634 -3.868430672800498 10.749775610331843 0 0 0
351 117 1 0.5897 -6.948663908661612 -2.928003974352257 10.704248205742806 0 0 0
426 142 1 0.5897 -8.727624276887777 -1.6481837838898903 6.973942507201401 1 0 0
526 176 2 -1.1794 -12.528049497798493 1.2278323928370902 9.143543831099466 1 0 0
425 142 1 0.5897 -7.262275039761015 -1.2680248647085115 6.983757176383063 1 0 0
537 179 1 0.5897 -9.40240614786917 -0.10360318416867109 8.539680788078822 1 0 0
536 179 1 0.5897 -9.62955989466292 -0.11136308984160159 10.036477976051831 1 0 0
535 179 2 -1.1794 -8.96814860811704 0.08238615780789971 9.372247105210617 1 0 0
528 176 1 0.5897 -12.108863806108102 0.685728823361492 9.811861659198737 1 0 0
424 142 2 -1.1794 -7.847907671143988 -2.0251063508109706 6.990268873216996 1 0 0
435 145 1 0.5897 -7.476782294425883 -0.9345707471806772 9.789253403242952 0 0 0
400 134 2 -1.1794 -10.312505195275282 -0.8350712126019069 7.120816213864213 1 0 0
411 137 1 0.5897 -13.256340655825731 0.34522135988330405 6.359355175702294 1 0 0
402 134 1 0.5897 -10.748958530106501 -0.3060330766891344 6.453077126576193 1 0 0
401 134 1 0.5897 -11.027319572777229 -1.253967892578494 7.600122933386096 1 0 0
527 176 1 0.5897 -11.807510228652042 1.712843747625696 8.741358271094098 1 0 0
410 137 1 0.5897 -13.422610418632756 0.4428306921458631 7.860993522491357 1 0 0
626 209 1 0.5897 -10.341761052476963 -6.5849337773448635 7.842122607044029 1 1 0
633 211 1 0.5897 -5.794904257093963 -6.092092856955789 5.71143947575952 1 1 0
430 144 2 -1.1794 -12.297226788568123 -2.119151946799181 8.429594558307926 1 0 0
631 211 2 -1.1794 -5.515991147776114 -5.483207083235379 6.395382381570579 1 1 0
417 139 1 0.5897 -8.762152386769982 1.1109331545574825 5.677521574648173 1 0 0
652 218 2 -1.1794 -5.654690767186032 -5.4814151633812305 12.540727301692458 0 0 0
788 263 1 0.5897 -4.962127109110058 -4.616550291240989 15.504626557408608 0 0 0
780 260 1 0.5897 -7.444649515970651 -3.9044513007946406 15.301335363193802 0 0 0
779 260 1 0.5897 -7.17613883614307 -2.9111473549899527 14.190919995272086 0 0 0
778 260 2 -1.1794 -7.884877410910292 -3.3760837682022746 14.63554555096267 0 0 0
768 256 1 0.5897 -9.455306248473551 -2.650000257272998 14.72225695529789 0 0 0
654 218 1 0.5897 -6.0926482009306495 -4.939360084310984 11.884514152445089 0 0 0
653 218 1 0.5897 -6.368227001200575 -5.914488980535707 13.009217573641111 0 0 0
766 256 2 -1.1794 -10.326052388314324 -2.254905862356619 14.766273756721725 0 0 0
740 247 1 0.5897 -10.75475101451614 -3.357626882748642 12.05159128265532 1 0 0
729 243 1 0.5897 -8.098002018834823 -7.098867096468591 11.971923459298015 1 0 0
684 228 1 0.5897 -8.38788773208368 -6.518087526369795 14.401621143006894 0 0 0
682 228 2 -1.1794 -7.696180688550614 -6.828931590291498 13.817525573826114 0 0 0
663 221 1 0.5897 -8.57754057980957 -4.225160366921873 11.705350857818512 0 0 0
662 221 1 0.5897 -8.816686020830069 -4.209455658230042 13.200217601991913 0 0 0
661 221 2 -1.1794 -9.251377006453263 -4.38610231097891 12.36584478688319 0 0 0
866 289 1 0.5897 -12.476031850419973 1.6638941007046046 16.160703834890437 0 0 0
770 257 1 0.5897 -11.81024808402376 2.970203293611741 13.057457254559965 0 0 0
767 256 1 0.5897 -10.92728266294498 -2.999622777863644 14.776114517312866 0 0 0
836 279 1 0.5897 -11.223530915858005 -1.2966352441773212 11.114939171982618 1 0 0
790 264 2 -1.1794 -10.777885440719542 0.22649118856275763 13.717546037737836 0 0 0
835 279 2 -1.1794 -11.099915925166501 -0.3557354053667048 10.990084143855414 1 0 0
771 257 1 0.5897 -11.57541357010174 2.753533620717759 11.577591263541338 0 0 0
758 253 1 0.5897 -9.545867486862905 -5.2439013565341925 16.162692540483658 0 0 0
769 257 2 -1.1794 -12.249236465660589 2.6895699844004035 12.25441782758155 0 0 0
761 254 1 0.5897 -9.339814995971137 1.0404959512303513 13.0114546881196 0 0 0
888 296 1 0.5897 -10.471816760192114 2.947397332413212 15.184442689420626 0 0 0
762 254 1 0.5897 -9.080781822418762 2.0380785917961433 11.902625645820866 0 0 0
760 254 2 -1.1794 -8.635617227596821 1.5135021423997639 12.568130663992212 0 0 0
792 264 1 0.5897 -11.510930763120244 0.5759114123150493 14.224294761606455 0 0 0
837 279 1 0.5897 -11.083302015026995 0.003948059657634673 11.877037747239378 1 0 0
896 299 1 0.5897 -7.956464302207121 2.3894497221045956 15.392742376712206 0 0 0
791 264 1 0.5897 -10.665797699129115 -0.666873443281073 14.0423560887295 0 0 0
757 253 2 -1.1794 -9.740414447704014 -5.854478604424065 15.45159716055844 0 0 0
727 243 2 -1.1794 -8.109456224708804 -7.441923772479651 11.078326510485843 1 0 0
1101 367 1 0.5897 -10.252468428602118 -1.2944526187854697 16.248396757020735 0 0 0
789 263 1 0.5897 -4.750814503060232 -4.763539583942675 14.012704396137202 0 0 0
1089 363 1 0.5897 -6.29807467383667 -4.6082359834629365 17.3674220351275 0 0 0
1152 384 1 0.5897 -6.77346081330951 -3.9363974710223353 19.67217628613747 0 0 0
1225 409 2 -1.1794 -8.174512341054369 -3.4479635265433544 20.827413424773653 0 0 0
1227 409 1 0.5897 -8.993814794887653 -3.0744818411420214 20.502590580025803 0 0 0
1109 370 1 0.5897 -8.754842326577629 -3.5116987571496967 17.736473207389636 0 0 0
1219 407 2 -1.1794 -10.398822990271421 -2.0419340421824117 20.10515604923731 0 0 0
1108 370 2 -1.1794 -9.347895720185052 -4.254152314811375 17.62136997435117 0 0 0
1129 377 2 -1.1794 -7.649408351932599 -2.03658913836615 17.752356387913316 0 0 0
1151 384 1 0.5897 -5.918945305904131 -5.173093886608978 19.49258105824233 0 0 0
1150 384 2 -1.1794 -6.02003744593458 -4.271894300771914 19.186338402577043 0 0 0
1248 416 1 0.5897 -5.792251845480441 -1.606959749643 20.56592189147277 0 0 0
1097 366 1 0.5897 -9.040998846946644 -5.818196703699861 18.435499650000796 0 0 0
1130 377 1 0.5897 -7.242947622900532 -1.6718762963502538 18.53855559624194 0 0 0
1204 402 2 -1.1794 -11.898856289800637 0.29577986066857953 18.738187811788297 0 0 0
1143 381 1 0.5897 -8.385455666093517 -5.173022364722583 21.321894343785186 0 0 0
1218 406 1 0.5897 -13.144317620460079 3.2353532344088958 17.64916775667401 0 0 0
1121 374 1 0.5897 -4.7416045692365145 -3.3668143760476408 18.36706998804876 0 0 0
1087 363 2 -1.1794 -6.412681971060731 -4.904772952475302 16.46449885916253 0 0 0
1217 406 1 0.5897 -11.668160816778723 3.5330897583161303 17.493763931353204 0 0 0
1110 370 1 0.5897 -10.222361570091508 -3.8648644404349515 17.620094806756466 0 0 0
1088 363 1 0.5897 -6.63298864107099 -5.8329367699332915 16.54283946001623 0 0 0
1131 377 1 0.5897 -6.981703184588591 -1.9453976749539557 17.072596887799417 0 0 0
1141 381 2 -1.1794 -8.573459920796207 -6.105987445852239 21.423836113133373 0 0 0
1249 417 2 -1.1794 -11.483667404638542 0.8886281247062886 21.414661122991852 0 0 0
1196 399 1 0.5897 -9.64548296459409 1.0854230244348653 16.40306634526318 0 0 0
1246 416 2 -1.1794 -6.260279940009534 -1.0750640149185973 19.922272053155048 0 0 0
1250 417 1 0.5897 -11.48515715279487 0.6574892706304833 20.48573456621193 0 0 0
1009 337 2 -1.1794 -11.118593502311564 3.532484175286559 20.795765352260762 0 -1 0
1260 420 1 0.5897 -9.838674378750085 2.9185583975009077 19.63366921183488 0 0 0
1259 420 1 0.5897 -8.92907757189804 1.7396465554966394 19.360380289251076 0 0 0
1258 420 2 -1.1794 -9.17518397864021 2.6003245081761914 19.02149066757178 0 0 0
1100 367 1 0.5897 -9.238011478471709 -1.0927893944094382 17.35398663853035 0 0 0
1236 412 1 0.5897 -7.814612490311131 -0.2832350350890991 20.140013967125338 0 0 0
1235 412 1 0.5897 -9.29491534804198 -0.5962508604673165 20.089066867991775 0 0 0
1234 412 2 -1.1794 -8.673648147765732 0.13130795588065602 20.05970431250957 0 0 0
1205 402 1 0.5897 -11.967236766128805 1.1883438740207612 18.399339457700865 0 0 0
1197 399 1 0.5897 -9.398709843553505 2.284165017816182 17.294210449542085 0 0 0
1216 406 2 -1.1794 -12.290728401666362 2.8098628070518235 17.568063288899946 0 0 0
1206 402 1 0.5897 -11.26489688471099 -0.13165394052765755 18.162292592538243 0 0 0
1099 367 2 -1.1794 -9.995346408475209 -0.681591633001025 16.93731129008827 0 0 0
1251 417 1 0.5897 -11.40314109701942 1.8423550493615952 21.424562983840616 0 0 0
1011 337 1 0.5897 -11.934927155701445 3.9067858407178075 20.464474739046118 0 -1 0
1226 409 1 0.5897 -7.877851545165947 -2.8307119015611235 21.496221113647437 0 0 0
1195 399 2 -1.1794 -9.39971414355937 2.0101323229678716 16.377024242004588 0 0 0
1229 410 1 0.5897 -7.7852879146453295 3.644674915739783 18.3600755281951 0 0 0
1096 366 2 -1.1794 -8.879432749591905 -6.700546133887768 18.76945796141185 0 0 0
1142 381 1 0.5897 -8.585991987060545 -6.44742005832515 20.52963204501141 0 0 0
273 91 1 0.5897 -8.651369025937464 1.309167522818628 21.502314706352852 1 1 -1
1010 337 1 0.5897 -10.853891532578785 4.121416167266293 21.502453642784474 0 -1 0
40 14 2 -1.1794 -14.89254910496826 3.8169640800658975 1.8582304783931536 1 0 0
177 59 1 0.5897 -14.02312770131294 4.376305750392399 3.3345230933243863 1 0 0
42 14 1 0.5897 -15.344504440408231 4.384599119440034 1.233916652838337 1 0 0
85 29 2 -1.1794 -10.885318018574367 4.850739726322786 1.7651509646718202 1 0 0
55 19 2 -1.1794 -13.118439269723638 6.255205038304535 1.104315398584001 1 0 0
56 19 1 0.5897 -12.301335201455519 5.840130776858128 1.3805448446967252 1 0 0
66 22 1 0.5897 -13.326052904446854 2.967775277848297 1.5886112833142023 1 0 0
65 22 1 0.5897 -11.875057112886296 3.395475526977682 1.6481693216353546 1 0 0
64 22 2 -1.1794 -12.434381006493176 2.6200128535826046 1.6034768592998898 1 0 0
191 64 1 0.5897 -12.51932974794648 6.177923481365868 4.246056647155879 1 0 0
190 64 2 -1.1794 -11.945533433562513 6.944015830350748 4.252409490780108 1 0 0
183 61 1 0.5897 -12.164159252901174 3.671772371010558 4.52606810482238 1 0 0
181 61 2 -1.1794 -11.35766588372612 3.2591554547300046 4.83520612082068 1 0 0
176 59 1 0.5897 -14.270523833179041 4.570441418909692 4.815467288666436 1 0 0
175 59 2 -1.1794 -13.597988322259763 4.667378264052756 4.141287652443651 1 0 0
108 36 1 0.5897 -10.021079742400685 2.7062135313606355 3.655655485045947 1 0 0
162 54 1 0.5897 -14.370858066320654 6.811966554111217 2.310795350286479 1 0 0
45 15 1 0.5897 -9.523528237696992 2.0033030804106087 1.369732657380176 1 0 0
167 56 1 0.5897 -16.375394573188785 6.285484417915319 3.589680309052066 1 0 0
206 69 1 0.5897 -14.790422042186059 7.492029460589356 4.666465478687361 1 0 0
57 19 1 0.5897 -13.439204858747019 5.7028244082741 0.391364677756607 1 0 0
106 36 2 -1.1794 -9.320541618642164 2.3121523933580974 3.1358364910165024 1 0 0
43 15 2 -1.1794 -9.583678927024996 1.7674027185673253 0.443953299898406 1 0 0
284 95 1 0.5897 -17.157572492117694 11.696425133135113 4.734306144204048 1 0 0
151 51 2 -1.1794 -12.623381793281013 8.84146840641621 0.41553034359997865 1 0 0
153 51 1 0.5897 -12.576928621235062 9.169746912111114 1.313534599576241 1 0 0
205 69 2 -1.1794 -14.793929834643542 7.812491695457213 5.568477339866014 1 0 0
216 72 1 0.5897 -13.020369484213173 9.81080912585717 3.6845734126047684 1 0 0
215 72 1 0.5897 -12.329366657192313 8.48967945139684 3.421901256645313 1 0 0
174 58 1 0.5897 -16.417348249691905 10.053334402223046 1.6528891708963394 1 0 0
173 58 1 0.5897 -14.938905847730613 10.37822072552572 1.6757663205036641 1 0 0
172 58 2 -1.1794 -15.55292266597244 9.64413696778251 1.6924290816159842 1 0 0
161 54 1 0.5897 -15.182946762998778 8.07301530220561 2.516064413232544 1 0 0
193 65 2 -1.1794 -13.94904352638043 11.902014486853242 1.7317695663373398 1 0 0
283 95 2 -1.1794 -16.52677374059894 11.83456857109343 4.0277458212621156 1 0 0
285 95 1 0.5897 -17.01114646794492 11.62495027254092 3.2291350488841246 1 0 0
148 50 2 -1.1794 -18.005303741605054 10.861914635949022 1.9353927818148613 1 0 0
150 50 1 0.5897 -18.418990688830007 11.4587882375027 1.3118228196351631 1 0 0
289 97 2 -1.1794 -14.290568390197333 10.420267564669237 4.802570222895338 1 0 0
291 97 1 0.5897 -15.043982083377177 10.819286652559027 4.367357834111615 1 0 0
207 69 1 0.5897 -14.642864741665228 8.754327111256215 5.48916106967471 1 0 0
160 54 2 -1.1794 -15.046043228097378 7.1947137513607995 2.871048002397605 1 0 0
152 51 1 0.5897 -12.786631009149106 7.903187281008636 0.5111387159979 1 0 0
192 64 1 0.5897 -11.059996023390276 6.580615048250397 4.252502826497698 1 0 0
290 97 1 0.5897 -14.107125165396889 10.998466805737712 5.543077273276794 1 0 0
214 72 2 -1.1794 -12.362691873721634 9.398778530260154 3.1242634689347644 1 0 0
182 61 1 0.5897 -11.05166516290725 3.82906724935048 5.540813794462758 1 0 0
194 65 1 0.5897 -13.537378757932128 12.195723414488763 2.544547312711594 1 0 0
86 29 1 0.5897 -10.508466732624798 5.010358204707888 2.6305096132847785 1 0 0
532 178 2 -1.1794 -10.89108342187261 5.024472112852624 6.937839634239448 1 0 0
521 174 1 0.5897 -10.641653123964595 3.4973285883726994 7.716061878589399 1 0 0
534 178 1 0.5897 -11.7522702946315 5.4383064589463395 6.995563979765348 1 0 0
645 215 1 0.5897 -12.433943955116678 6.976692556502053 8.658357786742288 1 0 0
644 215 1 0.5897 -12.743102444894749 7.014866457368788 10.139917141520076 1 0 0
643 215 2 -1.1794 -12.053117081871289 7.208621026441731 9.505423462211366 1 0 0
510 170 1 0.5897 -13.776561303005916 6.8406207280359155 6.714509453813773 1 0 0
508 170 2 -1.1794 -13.360949525368671 6.221793842359737 7.314967659423927 1 0 0
543 181 1 0.5897 -10.589856799630132 6.184121314912039 9.910587226908007 0 0 0
509 170 1 0.5897 -14.090977689705962 5.800240919244361 7.768312382022701 1 0 0
636 212 1 0.5897 -15.07246579358818 7.744384450509534 9.832418891065995 1 0 0
459 153 1 0.5897 -9.928211741907562 4.0105603704196575 10.664168202221726 0 0 0
519 173 1 0.5897 -16.291974034272354 7.410768216474301 6.405202621141326 1 0 0
458 153 1 0.5897 -10.069866145757628 2.7806537412478693 9.79280282545193 0 0 0
525 175 1 0.5897 -11.82961058374122 8.026964082657111 5.703558891933771 1 0 0
565 189 2 -1.1794 -13.121140901923837 10.080489099061419 10.766891425246902 0 0 0
617 206 1 0.5897 -17.060367027938923 12.894863432808217 7.680556231348329 1 0 0
641 214 1 0.5897 -13.220508461751095 12.740057503871528 6.911759585533804 1 0 0
567 189 1 0.5897 -13.033873163698868 11.031615276956233 10.704355512266947 0 0 0
630 210 1 0.5897 -12.803819793631453 9.208376381542953 7.509195303809581 1 0 0
628 210 2 -1.1794 -13.472855409628213 9.608191877183105 8.06488557816575 1 0 0
629 210 1 0.5897 -13.572397443371944 10.495502968132753 7.720020295535352 1 0 0
634 212 2 -1.1794 -15.570464198031372 8.320426557119239 9.252407474289894 1 0 0
635 212 1 0.5897 -14.904005398328682 8.799160780470716 8.759647717632907 1 0 0
566 189 1 0.5897 -13.068252426987364 9.774545341211072 9.86139206796714 0 0 0
642 214 1 0.5897 -14.710884403593333 12.501673797300983 7.029275981279829 1 0 0
640 214 2 -1.1794 -13.874017264629884 12.042321529698926 6.959392837820908 1 0 0
457 153 2 -1.1794 -10.005736855919075 3.0574937352716294 10.706905514792018 0 0 0
327 109 1 0.5897 -13.48483311082512 13.167538663294062 9.91486457173164 0 -1 0
533 178 1 0.5897 -10.271480021776311 5.752787962907279 6.980671202119479 1 0 0
523 175 2 -1.1794 -11.481267585252496 8.63378025026491 6.356813421259832 1 0 0
520 174 2 -1.1794 -10.498482763802414 2.5981316707431787 8.011218410008365 1 0 0
541 181 2 -1.1794 -9.772475556146636 5.775972566303276 10.196162749357015 0 0 0
325 109 2 -1.1794 -12.706890345510907 12.722058655850978 10.250423363697575 0 -1 0
874 292 2 -1.1794 -13.356040350213028 4.726795484218885 14.91114668387622 0 0 0
887 296 1 0.5897 -10.171152090061685 3.9933552602617244 14.132148663176636 0 0 0
876 292 1 0.5897 -12.488875859633755 4.322120788862078 14.933558288741303 0 0 0
945 315 1 0.5897 -14.068216006480867 7.0279491087366655 11.952816915141359 1 0 0
848 283 1 0.5897 -13.670517584757624 3.6546783529601203 11.998322835790615 1 0 0
900 300 1 0.5897 -14.466811059614427 7.6225380191890775 14.401768256929312 0 0 0
899 300 1 0.5897 -13.699389482185959 6.344302397554664 14.13899041714149 0 0 0
898 300 2 -1.1794 -13.797887112059776 7.245039816319084 13.83054939599445 0 0 0
886 296 2 -1.1794 -10.895642347670357 3.558076777898245 14.581388790269363 0 0 0
944 315 1 0.5897 -14.21154901224234 5.788607271370957 11.09520830253468 1 0 0
956 319 1 0.5897 -16.61682650309792 10.714345767236187 12.044781934662337 1 0 0
869 290 1 0.5897 -12.414359673441314 8.19630156207865 13.104305317101423 0 0 0
943 315 2 -1.1794 -14.129719336112634 6.740769237913922 11.041728403964985 1 0 0
877 293 2 -1.1794 -15.322335992290592 9.59103067145488 12.47650496243701 0 0 0
878 293 1 0.5897 -14.960027666036236 9.760153820861595 13.346258635656742 0 0 0
879 293 1 0.5897 -14.587548314142989 9.730513130992568 11.879145184893954 0 0 0
659 220 1 0.5897 -16.824146031882368 11.212810302156287 14.77910510809806 0 -1 0
728 243 1 0.5897 -17.273872918426584 12.818201297346265 11.184930392393476 1 -1 0
680 227 1 0.5897 -10.983703852017289 9.483690200676127 15.492862597977684 0 -1 0
683 228 1 0.5897 -16.504648758699293 13.511637171805381 14.159854092503835 0 -1 0
658 220 2 -1.1794 -16.15254977444535 11.879564669126678 14.922655830907505 0 -1 0
672 224 1 0.5897 -13.344474583549633 10.165367629661171 15.404308285987312 0 -1 0
870 290 1 0.5897 -12.154878465732034 9.168552522610648 11.97329832449497 0 0 0
671 224 1 0.5897 -13.209698025771296 10.993301776148177 14.14406829869151 0 -1 0
868 290 2 -1.1794 -11.709389012166547 8.65396275118359 12.646342269545787 0 0 0
670 224 2 -1.1794 -13.846315335457593 10.499457867075856 14.660787821408857 0 -1 0
660 220 1 0.5897 -15.330924825433724 11.389547898047153 14.955062093156561 0 -1 0
875 292 1 0.5897 -13.965789132574034 3.9903953179470264 14.956869509108015 0 0 0
847 283 2 -1.1794 -14.483830290660315 4.054009660488321 11.689601961429286 1 0 0
955 319 2 -1.1794 -17.43297257214263 11.130230416991546 11.766943928325249 1 0 0
649 217 2 -1.1794 -15.73494868929954 8.315218127720632 15.544091325552946 0 -1 0
681 227 1 0.5897 -10.766755872751395 9.360260856286862 13.99961644335705 0 -1 0
1209 403 1 0.5897 -13.124958665240332 5.911747624585985 16.2494144061132 0 0 0
1018 340 2 -1.1794 -11.622838443366971 7.158716974636002 20.257360913621653 0 -1 0
1019 340 1 0.5897 -12.291079439584411 6.473432211076181 20.262222715434696 0 -1 0
1020 340 1 0.5897 -10.792007305714895 6.683659911356935 20.240757255625567 0 -1 0
1030 344 2 -1.1794 -9.20028722157234 5.853687657031729 19.817745468648898 0 -1 0
1043 348 1 0.5897 -11.887848873084225 8.834789793227882 19.60124525859861 0 -1 0
1032 344 1 0.5897 -8.771429262465123 5.382970429287875 20.532424631018593 0 -1 0
1239 413 1 0.5897 -10.016934007191905 5.148575109487664 16.9576717173727 0 0 0
1237 413 2 -1.1794 -10.661798844791843 5.085222899813894 17.662201059788753 0 0 0
1003 335 2 -1.1794 -13.396294880549101 5.0191179099747085 20.274262846266335 0 -1 0
1208 403 1 0.5897 -12.046843231225152 6.189248240553608 17.275455527204368 0 0 0
1207 403 2 -1.1794 -12.874667443012786 6.52971902997456 16.936271573032258 0 0 0
1238 413 1 0.5897 -10.168642983641544 5.285787259971775 18.457756460936547 0 0 0
990 330 1 0.5897 -14.061041595156883 7.006665597825739 18.172047160286034 0 -1 0
989 330 1 0.5897 -14.887582280238828 8.248186978369981 18.431534089208082 0 -1 0
1034 345 1 0.5897 -14.598205137924188 7.728719704310519 20.494150425476704 0 -1 0
980 327 1 0.5897 -12.51347756981064 8.203362402877593 16.58480061069448 0 -1 0
1035 345 1 0.5897 -14.42358900932306 9.05758414896083 21.198129321494445 0 -1 0
1013 338 1 0.5897 -10.699887000877219 10.627940687819025 18.41207789244376 0 -1 0
1118 373 1 0.5897 -13.834252545979968 11.31535553681841 21.53721116173855 0 -1 0
1002 334 1 0.5897 -16.155301710301753 10.32291786457513 17.7936987522491 0 -1 0
1042 348 2 -1.1794 -11.975111169650974 9.723981052960186 19.2578937096021 0 -1 0
1033 345 2 -1.1794 -14.573189461579673 8.126904004069425 21.3642986072186 0 -1 0
979 327 2 -1.1794 -12.370565103980553 9.14977226170659 16.59247801632714 0 -1 0
1021 341 2 -1.1794 -13.547460516396747 12.186870110183142 17.73569205457617 0 -1 0
1098 366 1 0.5897 -17.188475398148093 14.178580520388765 18.246008297574814 0 -1 0
992 331 1 0.5897 -15.031722637348615 13.298189382918052 17.484728104833867 0 -1 0
1001 334 1 0.5897 -14.678132820842652 10.650110359419505 17.74105449814443 0 -1 0
1000 334 2 -1.1794 -15.290891785727336 9.914789339479222 17.74408039722459 0 -1 0
991 331 2 -1.1794 -15.836518562688982 13.632136923663053 17.08843705673841 0 -1 0
1111 371 2 -1.1794 -16.368949717852104 12.18193615437618 20.071257472444206 0 -1 0
1023 341 1 0.5897 -12.896464359784982 12.384746830585906 17.062449090602605 0 -1 0
981 327 1 0.5897 -12.303034745672964 9.374819747253719 17.520446800579165 0 -1 0
1140 380 1 0.5897 -11.758278092449267 12.539432314940901 20.515285567175404 0 -1 0
1138 380 2 -1.1794 -12.2257393161895 13.145491904407022 19.940476699766 0 -1 0
1128 376 1 0.5897 -13.875934566113258 14.001391309206104 20.227136445586172 0 -1 0
1022 341 1 0.5897 -13.117818576164707 12.41616935648945 18.559807585068977 0 -1 0
1127 376 1 0.5897 -15.357331713815686 13.690077029341962 20.206652377455356 0 -1 0
1126 376 2 -1.1794 -14.73738209708684 14.418079836049023 20.249820006233843 0 -1 0
1119 373 1 0.5897 -14.896438767908652 11.192559692748612 20.465396104716078 0 -1 0
1117 373 2 -1.1794 -14.099319751802312 10.77555811445963 20.79243928557917 0 -1 0
1044 348 1 0.5897 -12.718393600554549 10.093469442390093 19.73460536904535 0 -1 0
993 331 1 0.5897 -16.031060644113108 13.014629568244894 16.383345352520436 0 -1 0
988 330 2 -1.1794 -14.730326822540725 7.361882799002229 18.75696849177466 0 -1 0
650 217 1 0.5897 -15.46952403559418 8.888759537125067 16.263064327170703 0 -1 0
311 104 1 0.5897 -2.7336401261002967 -7.895811447662996 3.478444258367847 1 1 0
316 106 2 -1.1794 -1.7904692457539824 -4.516882066559903 1.674338522133267 1 1 0
3 1 1 0.5897 -1.31727498738152 -3.418990696535885 4.576418547707085 0 0 0
243 81 1 0.5897 -0.7676378609023651 -5.461620288865119 5.484954110116089 0 1 0
96 32 1 0.5897 -5.959067786648162 -1.823878753575337 4.5668714839128555 1 0 0
317 106 1 0.5897 -1.1984708249303928 -3.764816686210536 1.685013517588328 1 1 0
306 102 1 0.5897 -0.6933762677832007 -7.285439398963443 2.310483057375951 1 1 0
305 102 1 0.5897 -1.4983383383448672 -6.031282762577818 2.5769476992146854 1 1 0
293 98 1 0.5897 -4.9248197360563575 -3.715916419203725 2.3730597089124066 1 1 0
304 102 2 -1.1794 -1.320990233580467 -6.905092191012104 2.925053896262383 1 1 0
318 106 1 0.5897 -2.6659513687217276 -4.133977983548738 1.7304522154366415 1 1 0
310 104 2 -1.1794 -3.4602843150008473 -8.376540870539774 3.8747423138384627 1 1 0
242 81 1 0.5897 -1.0633702404884726 -6.683751880330284 4.641784907740552 0 1 0
241 81 2 -1.1794 -0.9853746207128751 -6.391419405777837 5.549967238279957 0 1 0
88 30 2 -1.1794 -4.292652555559021 0.13697127395295006 2.82010676540379 1 0 0
104 35 1 0.5897 -3.428192679550916 -2.6065631797078197 4.845430397086832 1 0 0
90 30 1 0.5897 -3.6357194316001165 -0.2822493315021237 2.2642751772009726 1 0 0
94 32 2 -1.1794 -6.40780568674292 -1.2282460079050574 3.9667965900646305 1 0 0
27 9 1 0.5897 -3.883276254933704 1.6290660195230977 5.457966228684847 0 0 0
25 9 2 -1.1794 -3.9902332628422315 0.6781448296044168 5.47984358508079 0 0 0
303 101 1 0.5897 -7.129735986920512 -2.04612760995552 1.0533994627493353 1 1 0
292 98 2 -1.1794 -4.244744794189653 -3.230007454601349 1.9066306805020452 1 1 0
294 98 1 0.5897 -4.721844552905142 -2.7115220098669486 1.2587106657171234 1 1 0
103 35 2 -1.1794 -2.7675880880675727 -2.4220843844467934 4.177765277103322 1 0 0
105 35 1 0.5897 -3.226661503273327 -2.541813809804415 3.3463500571023186 1 0 0
89 30 1 0.5897 -4.419614035782929 1.0021325429741719 2.4308156196824804 1 0 0
95 32 1 0.5897 -5.701850880533712 -0.767447180186192 3.51352199840856 1 0 0
26 9 1 0.5897 -3.970782436744008 0.4131862908285804 4.5601978333649775 0 0 0
309 103 1 0.5897 -2.645165514575339 -1.36237073225855 0.3721881949630498 1 1 0
302 101 1 0.5897 -7.3809430955777815 -1.8962396874084995 2.5388329635468234 1 1 0
199 67 2 -1.1794 0.49804773654318524 -7.964486551924335 1.1294453573755565 1 1 0
322 108 2 -1.1794 -6.226127630231096 -4.676336599182479 3.108767192054979 1 1 0
201 67 1 0.5897 0.26175374063791423 -8.515138966142157 0.3829403237656219 1 1 0
1262 421 1 0.5897 -1.9947598524979462 -5.661702241688479 0.2904557527446806 0 0 1
403 135 2 -1.1794 -5.0008488140526275 -2.8737891555906527 5.694698202023127 1 0 0
336 112 1 0.5897 -3.4534039815196067 -5.084072070270398 9.505373830268766 0 0 0
334 112 2 -1.1794 -4.335584802209105 -4.712648611527615 9.51163800045729 0 0 0
346 116 2 -1.1794 -1.8613313541274934 -5.849171785983314 9.266930111500589 0 0 0
632 211 1 0.5897 -4.708048014092608 -5.863369099112866 6.740290647019679 1 1 0
356 119 1 0.5897 0.9959649920070586 -7.198565139157191 10.098871815833832 0 0 0
359 120 1 0.5897 -4.658383509967559 -3.136784952943878 8.69487042192977 0 0 0
555 185 1 0.5897 -2.5060208169023017 -6.742545481330247 6.400577316735989 0 1 0