LAMMPS (30 Jul 2021)
Processor partition = 1
  using 4 OpenMP thread(s) per MPI task
using multi-threaded neighbor list subroutines
variable        pid world 0 1
variable        phase world IceVI IceV

shell cd ${phase}
shell cd IceV
include Restart.lmp
echo both
log log.lammps
#include		in.partitions
include		in.temp
variable        temperature equal 120.77
variable	tempDamp equal 100.0
include		in.pressure
variable        pressure equal 8268.1
variable        pressureDamp equal 1000.0 # This is 1 ps
include		in.seed
variable        seed equal 745823

units		real
atom_style	full
read_restart    restart.lmp.${pid}
read_restart    restart.lmp.1
Reading restart file ...
  restart file = 30 Jul 2021, LAMMPS = 30 Jul 2021
  restoring atom style full from restart
  triclinic box = (-3.0936205 -0.044432131 -0.025112345) to (14.703620 22.624431 19.255110) with tilt (-0.25846390 -6.4087206 -0.0026142407)
  2 by 4 by 2 MPI processor grid
  restoring pair style lj/cut/tip4p/long/omp from restart
  restoring bond style harmonic/omp from restart
  restoring angle style harmonic/omp from restart
  1008 atoms
  672 bonds
  336 angles
Finding 1-2 1-3 1-4 neighbors ...
  special bond factors lj:    0        0        0       
  special bond factors coul:  0        0        0       
     2 = max # of 1-2 neighbors
     1 = max # of 1-3 neighbors
     1 = max # of 1-4 neighbors
     2 = max # of special neighbors
  special bonds CPU = 0.003 seconds
  read_restart CPU = 0.009 seconds

include 	in.setup
variable	out_freq equal 1000
variable	out_freq2 equal 10000
variable	out_freq3 equal 1000

timestep	2.0

neigh_modify    delay 7 every 1

include		in.tip4p
# This is TIP4P/Ice

# create groups ###
group ox type 2
336 atoms in group ox
group hy type 1
672 atoms in group hy

# set charges - beside manually ###
set group ox charge -1.1794
Setting atom values ...
  336 settings made for charge
set group hy charge 0.5897
Setting atom values ...
  672 settings made for charge

# ### TIP3P Potential Parameters ###
pair_style lj/cut/tip4p/long/omp 2 1 1 1 0.1577 8.5
pair_coeff 1 1*2 0.000 0.000
pair_coeff 2 2 0.21084 3.1668
bond_style  harmonic
bond_coeff  1 450 0.9572
angle_style harmonic
angle_coeff 1 55 104.52
kspace_style pppm/tip4p/omp 1.0e-5
pair_modify tail yes

thermo          ${out_freq}
thermo          1000
thermo_style    custom step temp pe etotal epair emol press lx ly lz vol pxx pyy pzz pxy pxz pyz enthalpy

restart 	${out_freq3} restart.lmp.${pid} restart2.lmp.${pid}
restart 	1000 restart.lmp.${pid} restart2.lmp.${pid}
restart 	1000 restart.lmp.1 restart2.lmp.${pid}
restart 	1000 restart.lmp.1 restart2.lmp.1


include         in.dump
dump            myDump all atom ${out_freq2} dump.water.${pid}
dump            myDump all atom 10000 dump.water.${pid}
dump            myDump all atom 10000 dump.water.1
dump            myDump2 all dcd ${out_freq2} dump.dcd
dump            myDump2 all dcd 10000 dump.dcd
dump_modify     myDump append yes
dump_modify     myDump2 append yes


variable natoms 	equal  "count(all)"                        # NUMBER ATOMS
variable H      	equal  "enthalpy/v_natoms"                 # ENTHALPY-per-atom
variable Vol      	equal  "vol/v_natoms"                 # volume-per-atom
fix AVG all 		ave/time ${out_freq} 1 ${out_freq} v_Vol v_H file vol_enthalpy.dat
fix AVG all 		ave/time 1000 1 ${out_freq} v_Vol v_H file vol_enthalpy.dat
fix AVG all 		ave/time 1000 1 1000 v_Vol v_H file vol_enthalpy.dat



fix 		1 all shake 1e-6 200 0 b 1 a 1
Finding SHAKE clusters ...
       0 = # of size 2 clusters
       0 = # of size 3 clusters
       0 = # of size 4 clusters
     336 = # of frozen angles
  find clusters CPU = 0.000 seconds
fix             2 all nph tri ${pressure} ${pressure} ${pressureDamp}
fix             2 all nph tri 8268.1 ${pressure} ${pressureDamp}
fix             2 all nph tri 8268.1 8268.1 ${pressureDamp}
fix             2 all nph tri 8268.1 8268.1 1000
fix             3 all temp/csvr ${temperature} ${temperature} ${tempDamp} ${seed}
fix             3 all temp/csvr 120.77 ${temperature} ${tempDamp} ${seed}
fix             3 all temp/csvr 120.77 120.77 ${tempDamp} ${seed}
fix             3 all temp/csvr 120.77 120.77 100 ${seed}
fix             3 all temp/csvr 120.77 120.77 100 745823


run             250000
PPPM initialization ...
  extracting TIP4P info from pair style
  using 12-bit tables for long-range coulomb (../kspace.cpp:340)
  G vector (1/distance) = 0.38019335
  grid = 24 27 32
  stencil order = 5
  estimated absolute RMS force accuracy = 0.0023505094
  estimated relative force accuracy = 7.0784893e-06
  using double precision FFTW3
  3d grid and FFT values/proc = 7875 1344
Last active /omp style is kspace_style pppm/tip4p/omp
Neighbor list info ...
  update every 1 steps, delay 7 steps, check yes
  max neighbors/atom: 2000, page size: 100000
  master list distance cutoff = 10.8154
  ghost atom cutoff = 10.8154
  binsize = 5.4077, bins = 5 5 4
  1 neighbor lists, perpetual/occasional/extra = 1 0 0
  (1) pair lj/cut/tip4p/long/omp, perpetual
      attributes: half, newton on, omp
      pair build: half/bin/newton/tri/omp
      stencil: half/bin/3d/tri
      bin: standard
Setting up Verlet run ...
  Unit style    : real
  Current step  : 28750000
  Time step     : 2
Per MPI rank memory allocation (min/avg/max) = 12.46 | 12.47 | 12.48 Mbytes
Step Temp PotEng TotEng E_pair E_mol Press Lx Ly Lz Volume Pxx Pyy Pzz Pxy Pxz Pyz Enthalpy 
28750000    122.31407   -5128.6618   -4884.0185   -5128.6618            0    7683.2974     17.79724    22.668863    19.280223    7778.4748    7265.1865    8030.1426    7754.5632    1138.9352   -312.56745    712.32283    -4012.417 
28751000    124.31719   -5147.2397   -4898.5899   -5147.2397            0    7940.2408    17.823855    22.788796    19.080189    7750.0712    6655.5996    8529.5857    8635.5372     150.2923    540.57453   -589.07016   -4001.1296 
28752000     119.1117   -5139.5505   -4901.3124   -5139.5505            0    7652.5027     17.96785    22.575123     19.15336    7769.1088    7196.7244    7777.5657    7983.2181   -348.57554    -541.7648   -456.69771   -4034.2495 
28753000    122.38319   -5142.8468   -4898.0653   -5142.8468            0    8835.7382    17.759278    22.754956    19.122083    7727.4555    8333.5002    9346.7826    8826.9317    1047.7077   -252.52815    277.08016    -3902.304 
28754000    116.56436   -5145.2353   -4912.0922   -5145.2353            0    9015.3881    17.863691    22.592691    19.164284    7734.4913    9420.0701    8675.9091    8950.1851   -898.66645    273.19068   -969.00718   -3895.1598 
28755000    124.00845   -5138.7678   -4890.7356   -5138.7678            0     8716.018    17.749639    22.624682    19.226142    7720.8328    8354.6805    8969.8938    8823.4796   -1016.9305    262.65151   -563.42924   -3909.3082 
28756000     120.0687   -5127.9233    -4887.771   -5127.9233            0    8398.4485    17.834507    22.620866    19.226025    7756.3935    9238.8015    8380.2992    7576.2447    349.23855   -423.47401    290.17277   -3937.7466 
28757000    114.90249   -5128.5206   -4898.7014   -5128.5206            0    8681.0357    17.739326    22.721396    19.214777    7744.7512    10997.408    8089.5311    6956.1684    113.11664   -118.86241    105.02259   -3918.1849 
28758000    122.96463   -5146.7383   -4900.7939   -5146.7383            0    7352.1275    17.832624    22.786858    19.172632    7790.7888     8715.223     6013.949    7327.2104    93.481697    163.69088    90.379014   -4065.4403 
28759000    127.09393   -5138.4785   -4884.2749   -5138.4785            0    7317.9768    17.908606    22.588165     19.22806    7778.1837    6061.4926     7825.097    8067.3408    93.737702   -675.26413    1125.6067   -4054.1468 
28760000    121.45579   -5130.0867   -4887.1601   -5130.0867            0    8520.9781    17.752407    22.823715    19.117167    7745.8145    8041.1134    8481.3501    9040.4708     187.4902    476.42621   -765.25731   -3924.5898 
28761000    118.42821   -5132.5688   -4895.6977   -5132.5688            0    9080.3874    17.806241    22.668944    19.135226     7723.909    8876.7151    9475.5851     8888.862   -286.07561   -597.20149    426.19592   -3872.8348 
28762000    129.03289   -5133.2298    -4875.148   -5133.2298            0    7784.8986    17.755029    22.749797    19.188475    7750.6724    8341.7935    7955.5212    7057.3812   -502.75805    -68.35059    1147.1656   -3995.1773 
28763000    126.59394   -5133.7903   -4880.5868   -5133.7903            0    7895.4171    17.924837     22.65196    19.151983    7776.3312     8420.157    7244.4138    8021.6807   -203.19174    185.94762     -451.933    -3985.169 
28764000    121.34349   -5139.8966   -4897.1947   -5139.8966            0    8523.3405    17.777712    22.722949    19.163656    7741.3892     7540.763    8676.6714     9352.587    636.65976     228.1914    1539.2968   -3934.9076 
28765000    121.55899   -5142.9768   -4899.8438   -5142.9768            0    8408.0873    17.789268    22.670031    19.202425    7744.0162    8333.9508    9095.8554    7794.4557   -14.263519    328.28959    1368.4426   -3950.2467 
28766000    120.50169   -5129.3307   -4888.3124   -5129.3307            0    9211.4417    17.776446    22.724932    19.124865    7725.8438    8544.9993    9694.3455    9394.9802   -621.58383     453.6758    787.59038    -3850.427 
28767000    125.64528   -5146.4449   -4895.1388   -5146.4449            0    8313.7701    17.850732    22.598905    19.204769    7747.3383    7454.9038    8744.9031    8741.5035    253.44817   -89.847147    750.43906    -3955.791 
28768000    122.19959   -5148.8963   -4904.4821   -5148.8963            0    7946.0112    17.808737    22.757637    19.109288    7744.7033    7567.6447    8578.4845    7691.9043    651.87256    293.01632    382.30539   -4006.9916 
28769000    121.33758   -5134.9401     -4892.25   -5134.9401            0    8703.1058    17.828346    22.575241    19.165376    7713.6656    8952.0985    9276.2426    7880.9762   -830.12057   -452.02638   -120.17234   -3913.1862 
28770000    122.72886   -5144.7675   -4899.2947   -5144.7675            0    8101.8899    17.841859    22.797609    19.092642    7765.9651    7737.7543     8035.045    8532.8704    1060.9682   -553.19539    737.25335   -3981.6857 
28771000    118.79123   -5147.6651   -4910.0679   -5147.6651            0    7687.4767    17.797618    22.666731    19.265712    7772.0545    7219.5556     7722.935    8119.9395   -393.41214    17.396842    33.550657   -4038.7121 
28772000    124.91083    -5144.043   -4894.2059    -5144.043            0     8375.284    17.862623    22.760907    19.027002    7735.7984    7899.8324    8270.8572    8955.1626    407.49676   -376.14148    312.01288   -3949.3174 
28773000     123.3169   -5157.4749   -4910.8259   -5157.4749            0    7926.5521    17.857909    22.679538    19.136501    7750.4573    7918.6057    7833.5029    8027.5476    258.44116    249.99999    1337.9023   -4014.8681 
28774000    127.85731   -5129.8943   -4874.1639   -5129.8943            0    8018.1649    17.830978    22.731465    19.148348    7761.2897    7383.9273    8786.6022    7883.9652   -639.87443    568.71333   -1307.9478   -3966.5842 
28775000    124.16591   -5126.3296   -4877.9825   -5126.3296            0    8732.9034    17.798725    22.745078    19.096255    7730.8018    9883.6142    8231.7069    8083.3891   -984.76485   -623.67691   -172.33396   -3893.3842 
28776000    126.28405   -5134.7975   -4882.2138   -5134.7975            0     8774.441      17.8273    22.626984    19.147504    7723.6823    8221.1482    9464.1036    8638.0711   -1005.8123   -536.03272   -1362.6494   -3893.8433 
28777000    132.48852    -5136.798   -4871.8046    -5136.798            0    10765.991    17.736246     22.59613    19.153105    7675.9998    11350.301    11041.764    9905.9077    953.16982    1072.4987    463.10021   -3666.5887 
28778000    118.41293   -5143.5546   -4906.7141   -5143.5546            0    7803.1856    17.849186    22.841226    19.061561     7771.347    8797.2203    7286.9931    7325.3433   -552.65079    900.11269   -333.61835   -4022.3235 
28779000    119.81345   -5132.4076   -4892.7659   -5132.4076            0    8161.8611    17.962825    22.638522    19.068781    7754.3543    6851.3448    8775.2407    8858.9977   -934.31991    627.07408   -380.23309   -3969.7467 
28780000    120.91865   -5127.0089   -4885.1566   -5127.0089            0    8282.8688    17.715478    22.788888    19.203972    7752.9518    8545.4736     9145.698    7157.4348   -968.80396   -137.74888    495.29855   -3948.6222 
28781000    126.02928   -5133.5901    -4881.516   -5133.5901            0    8384.2032    17.833281    22.629045    19.233747    7761.7808    10514.671    7497.3667    7140.5724    314.45091   -1043.2913   -544.60436   -3932.4442 
28782000    122.97791   -5136.4805   -4890.5095   -5136.4805            0    6694.9699    17.913725    22.814614    19.081845    7798.6495    6638.2447    6677.6821    6768.9828    -247.1375   -232.80414   -724.90978    -4129.055 
28783000    116.57202   -5132.7866   -4899.6282   -5132.7866            0    7239.6745    17.898871    22.686156    19.142438    7772.9131    7213.2128    7326.8212    7178.9894   -683.82161    126.66017   -799.14615   -4078.9389 
28784000    112.38496   -5137.1767   -4912.3929   -5137.1767            0    7384.8476    17.784384    22.749865    19.185367    7762.2522    6801.0997    7806.6052     7546.838    165.57563    147.19123   -684.72784    -4076.395 
28785000    113.39933   -5135.6234   -4908.8107   -5135.6234            0    8913.1841    17.805521    22.613963    19.204539    7732.7726     9993.944    8330.8521    8414.7563   -370.97104   -303.26336    585.37319   -3903.6303 
28786000    119.04583   -5143.0488   -4904.9424   -5143.0488            0    8645.8998    17.780955    22.770948    19.078341    7724.6144    9466.0685    8169.0932    8302.5377   -27.521749   -692.35978     1297.881   -3930.9336 
28787000    124.60549    -5145.184   -4895.9577    -5145.184            0    7154.2994    17.952313      22.6502    19.121716    7775.3383    8233.9904    6448.1075    6780.8004   -160.88156   -1182.0321   -1339.3927   -4084.6935 
28788000    116.05925    -5128.648   -4896.5152    -5128.648            0    8583.5835    17.779926    22.883278    19.033219    7743.9125    8986.7673    8902.2085    7861.7747   -164.22995    484.27768      1320.49   -3927.1108 
28789000    119.83542   -5139.5138   -4899.8282   -5139.5138            0    7781.3126    17.904431    22.503256    19.237888    7751.0992    7800.1326    8320.8061     7222.999    1058.9319   -275.65805    248.19946   -4020.2143 
28790000    119.35688   -5128.6727   -4889.9442   -5128.6727            0    8718.4109    17.733245    22.868812    19.037743    7720.5331    7912.1551    8975.3257    9267.7519     7.991359    899.13096   -392.73005   -3908.2855 
28791000    118.93099   -5135.6803   -4897.8036   -5135.6803            0    6905.5279    18.011261    22.429244     19.29339    7794.1241     6180.942    7965.1722    6570.4694    218.51588   -667.63262   -92.418623   -4112.8571 
28792000    121.04037   -5133.1963   -4891.1006   -5133.1963            0    9384.5172    17.697532    22.857421     19.06737    7713.1311    7976.1937    9881.4462    10295.912    729.49471    847.10716    1312.7363    -3835.454 
28793000    124.73175   -5137.1889     -4887.71   -5137.1889            0    7261.7171    17.861441    22.555379    19.310595    7779.6899    6359.0449    7850.5023    7575.6041    -868.6539    354.08387   -565.17234   -4063.8044 
28794000    115.69682   -5143.3914   -4911.9835   -5143.3914            0    5975.0295    17.704427    23.111175    19.047087    7793.4985    6713.7768    5166.5173    6044.7944    1048.2551    -179.4058    1626.1804   -4232.8605 
28795000    116.78285   -5142.8719   -4909.2918   -5142.8719            0    8095.4447     17.86839    22.654732    19.132707    7744.9881    8016.4777     8710.229    7559.6274    401.54564    8.7487906   -247.02214   -3994.8894 
28796000    118.92204   -5141.7888     -4903.93   -5141.7888            0      8205.45     17.75302    22.778341    19.151329    7744.4973    8431.3419    7689.5597    8495.4485   -439.97423    870.72508    -1605.248    -3977.161 
28797000    121.30084    -5133.373   -4890.7564    -5133.373            0    9549.7174    17.843479     22.65222    19.063179    7705.2305    8097.0667    10406.804    10145.281    540.48787   -81.997193    792.76269   -3817.6271 
28798000    119.01251    -5140.113   -4902.0733    -5140.113            0    9186.0362    17.886436    22.630454    19.066406     7717.665    8047.6233    9430.9439    10079.541    1667.5972   -101.59639    -487.3171   -3868.1461 
28799000    125.36313   -5143.6606   -4892.9188   -5143.6606            0    7241.4378    17.843578    22.650179    19.241015     7776.453    6113.5026    8294.4885    7316.3223   -1219.5543    124.59395   -652.74866   -4071.6559 
28800000    120.38515   -5148.6398   -4907.8547   -5148.6398            0    8014.0112    17.700703    22.769876    19.230512    7750.7196    9148.8166     8077.287      6815.93   -322.19063   -454.01493    -708.8639   -4001.9805 
28801000    127.17258    -5116.197   -4861.8361    -5116.197            0    8933.7802    17.797363    22.687912    19.154486    7734.2939    8885.2977    9467.3608    8448.6821   -66.659715   -779.69088    1095.6764   -3854.1348 
28802000    120.98402   -5151.8175   -4909.8346   -5151.8175            0    7013.8576    17.854003    22.722134    19.142757    7765.8539    7083.9302    7418.3741    6539.2684   -319.31512    437.21555   -1846.0512    -4115.466 
28803000     118.2138   -5149.0444   -4912.6021   -5149.0444            0    8240.2242    17.800421    22.703582    19.138605     7734.548    7520.9888    8393.5932    8806.0905    792.12958    323.70643   -74.257791   -3983.1012 
28804000    121.90727   -5124.5222   -4880.6926   -5124.5222            0    8573.4693     17.85591    22.710735    19.118996    7753.1513    7973.0765    8140.9407    9606.3907   -152.52168    194.26404    1688.6445   -3911.2753 
28805000    120.12494   -5127.7316   -4887.4669   -5127.7316            0    8469.2506    17.865752    22.584862     19.17522     7737.116    8884.5092    8748.2582    7774.9843   -898.02669   -256.35355    216.54575   -3931.8145 
28806000    126.60931   -5128.2235   -4874.9893   -5128.2235            0    8066.1762    17.718925    22.895557    19.116859    7755.4164    8215.5742    7854.1177    8128.8366   -274.81361   -737.25407    512.92606   -3962.6661 
28807000     117.3481   -5152.3532   -4917.6425   -5152.3532            0     7762.595    17.893526    22.514197    19.277505    7766.1041    7470.5326    8436.1343     7381.118   -983.56316    87.486479    645.62266   -4038.4459 
28808000     119.3585   -5137.5238    -4898.792   -5137.5238            0    8165.2626    17.812218    22.929362    19.003693    7761.5416    8318.9251    7223.3676    8953.4951     303.3722     455.1822   -1408.2872   -3974.5323 
28809000    116.60621   -5129.9708   -4896.7439   -5129.9708            0    9167.6501     17.86251    22.589221    19.156832    7729.7855    9410.8758    9269.6902    8822.3843    57.277978   -117.50566    67.818784   -3863.2656 
28810000    121.70366   -5131.6546   -4888.2322   -5131.6546            0    9673.7909     17.75005    22.727152    19.089765    7700.9654    11315.819    9137.0386    8568.5153    212.42112   -866.74282    152.14862   -3801.7622 
28811000    122.95747   -5132.2691    -4886.339   -5132.2691            0     8519.322    17.810797    22.814797    19.058749    7744.5177    8766.9755    8352.8644     8438.126   -447.93065    162.34555    467.25123    -3924.117 
28812000     126.7671   -5127.6395   -4874.0896   -5127.6395            0    8023.2203    17.914165    22.562734     19.23389    7774.1946    7955.6009    8547.1474    7566.9125    394.91283    676.17475    503.37666   -3964.4277 
28813000    124.54622   -5132.9078      -4883.8   -5132.9078            0    7799.0869    17.808086    22.784525    19.135436    7764.1802    8221.9593     7399.093    7776.2085    36.971944    520.60288    1273.7003    -4000.689 
28814000    116.68224    -5134.162   -4900.7831    -5134.162            0     8890.994    17.796786    22.505296    19.373844    7759.6497    9113.5125    9444.5902    8114.8795     82.75141    475.04356   -457.37649   -3894.6202 
28815000    124.33239   -5155.1097   -4906.4295   -5155.1097            0     7604.536     17.72033     22.79287    19.171775    7743.4259    9170.5269    7218.9419     6424.139   -823.04394   -787.48924    269.28633   -4047.6499 
28816000    130.00933    -5140.142   -4880.1072    -5140.142            0    8255.5411    17.880016    22.717174    19.082324     7750.924    8447.4609     7961.986    8357.1763    56.590266   -221.99953   -660.52794   -3946.9069 
28817000    119.06795    -5140.597   -4902.4464    -5140.597            0    7976.7296      17.7995    22.747061    19.137864    7748.6593    8322.2694    7604.7595    8003.1599    478.62763    606.78445   -148.55549   -4001.0261 
28818000    122.91292   -5146.2146   -4900.3735   -5146.2146            0    8469.7398    17.887221     22.61178    19.177124    7756.4159    7559.4573    8800.7631     9048.999    627.61926    512.35171   -406.63325   -3942.2819 
28819000    118.09818   -5141.4922   -4905.2812   -5141.4922            0     10208.97    17.736265    22.771251    19.022202     7682.629    9786.6899    10130.326    10709.895   -1364.1494   -509.40013   -837.88363   -3761.4349 
28820000    121.25983   -5135.6687    -4893.134   -5135.6687            0    7997.9617    17.878082    22.661061    19.134612    7752.1256     8609.667    7756.5301    7627.6881    869.38284   -245.35678    -302.8711   -3988.9101 
28821000    118.91364    -5129.659    -4891.817    -5129.659            0    8235.8932    17.744209    22.822332    19.101206    7735.3051    8096.1289    8644.1649    7967.3858    261.01985    668.51154     973.0457   -3962.7136 
28822000    130.47329   -5137.3723   -4876.4096   -5137.3723            0    7764.2776    17.933166    22.580738    19.185272    7768.9631    8198.9132    7594.7778    7499.1417   -853.32112    -1.853114   -398.38338   -3996.6986 
28823000    116.04167   -5147.7156    -4915.618   -5147.7156            0    7985.4516    17.812716    22.795565     19.07497    7745.4089    6828.4203    8178.7371    8949.1975    315.88937    108.68379    683.47181   -4013.5906 
28824000    112.27974   -5134.5358   -4909.9624   -5134.5358            0    8651.3726    17.823083    22.604569    19.205224    7737.4607    9740.9999    7968.6208     8244.497   -633.75544   -1643.9186    150.76759   -3933.7162 
28825000    114.26054   -5133.1423   -4904.6071   -5133.1423            0    8167.0327    17.883676    22.666247    19.151883    7763.3273    8248.2979    8169.2602    8083.5399     945.5127   -550.89087    200.14627   -3979.9343 
28826000    121.71987   -5134.1406   -4890.6858   -5134.1406            0    9367.6588    17.815233    22.650402     19.17053    7735.7337    9134.4443    9489.4392     9479.093   -22.099636    815.90395    285.40693   -3833.8477 
28827000    115.99545   -5151.5024   -4919.4972   -5151.5024            0    7292.9926    17.860804    22.612307    19.194321     7752.087    7495.1008     7755.481    6628.3961      865.947   -359.54176    716.91043   -4094.9789 
28828000    127.04923   -5124.9751    -4870.861   -5124.9751            0    9040.3711    17.737859    22.798952    19.078778    7715.5456    10339.468    8146.5699    8635.0753    762.57956   -1487.8885    742.46839   -3853.6084 
28829000    121.48206   -5146.0785   -4903.0993   -5146.0785            0    8765.2161     17.87253    22.713113    19.079719    7745.2362    6467.5216    9349.9277    10478.199    -69.88925    466.96323   -439.33974   -3913.0127 
28830000    129.06269   -5136.1756   -4878.0343   -5136.1756            0    9241.2671    17.745382    22.717554    19.163356    7725.3554    10967.927    8981.9812    7773.8932    50.201181    31.381871    100.21519   -3836.8541 
28831000    123.83796   -5143.2391   -4895.5479   -5143.2391            0    6495.0495    17.822837    22.744372    19.219621    7791.0428    7671.1976    6093.2123    5720.7386    980.31566    203.38357   -85.300142    -4157.552 
28832000    116.21657    -5140.641   -4908.1935    -5140.641            0    7868.1053    17.838022    22.692466    19.144434    7749.4505    8144.6385    8015.9345    7443.7429   -295.99763   -19.103593    680.53323   -4018.9576 
28833000    124.50604   -5138.0892   -4889.0617   -5138.0892            0    8039.2382    17.813984    22.682926    19.176733    7748.8059    7611.8915    7836.7356    8669.0875    646.97102   -35.801329    938.02866   -3980.5604 
28834000    124.03165    -5125.695   -4877.6164    -5125.695            0    8926.5938    17.882244    22.681544    19.078984    7738.3772    9257.2261     7764.123    9758.4323    -622.0198   -110.10273    342.11864   -3870.1941 
28835000    119.67975   -5144.9104   -4905.5361   -5144.9104            0     8481.336    17.741792    22.768817    19.157445    7738.8343    8720.3216    8346.4428    8377.2437    376.34126   -683.44548    -539.0552   -3948.3074 
28836000    118.67814   -5138.6201   -4901.2492   -5138.6201            0    8553.1976    17.895246    22.716227    19.026804    7734.6329    9026.2673    8114.9162    8518.4093   -605.28221   -104.16665   -197.77589    -3936.434 
28837000    115.95941   -5137.9823   -4906.0492   -5137.9823            0    7780.1077     17.83661    22.782505    19.084264    7755.1321    8184.2367    7325.4066    7830.6798   -199.89854   -63.071713   -862.25287    -4026.114 
28838000    124.61521   -5142.3838    -4893.138   -5142.3838            0    8453.3551    18.016661    22.448569    19.107755    7728.0982    8294.1894    9050.4676    8015.4082   -1159.0799    211.41177   -826.90244   -3940.3909 
28839000    115.26623    -5155.135   -4924.5883    -5155.135            0    7322.9048    17.712197    22.869899    19.142838     7754.307     8108.584    6530.4916    7329.6388    507.64951   -42.187435    1016.9515   -4096.4512 
28840000    119.74508   -5138.3346   -4898.8296   -5138.3346            0    8756.5909    17.757952     22.67571    19.218071    7738.6206    9801.8588    8984.4933    7483.4208   -951.01866   -86.866288     2379.085   -3910.5621 
28841000    117.60088   -5136.4232   -4901.2069   -5136.4232            0    8820.3142    17.848613      22.7079    19.074802    7731.1036    9814.4693    8336.1194    8310.3538    187.76969    388.64346    712.92831   -3906.7146 
28842000    117.44389   -5139.4802   -4904.5779   -5139.4802            0    7278.6923    17.875904    22.671594    19.237424    7796.4517    7921.2226    6830.7729    7084.0813    264.70536    887.70623     623.5884    -4076.967 
28843000    124.31061   -5136.8731   -4888.2365   -5136.8731            0    8356.4221    17.891861    22.660512    19.131406    7756.6126    8461.5542    8243.4222    8364.2898    988.47781     823.0106    729.12266   -3942.9394 
28844000    123.66732   -5136.1679    -4888.818   -5136.1679            0    10628.478    17.771458    22.675328    19.072189    7685.5896    10080.992    10892.874    10911.569    -1238.057   -161.50977    546.84336   -3697.5097 
28845000    112.18074   -5137.3995   -4913.0242   -5137.3995            0    8211.5689    17.843837      22.6514    19.151839    7740.9417    8139.0998    8421.2365    8074.3702   -106.69465    -235.2793    38.494572   -3985.9898 
28846000    123.85723   -5140.5796   -4892.8499   -5140.5796            0    7545.0181    17.863988    22.680318    19.188752    7774.5323    8101.4273    6321.1861     8212.441     241.2245   -691.29019    440.13785   -4037.3687 
28847000    117.09178   -5136.9495   -4902.7515   -5136.9495            0    8222.2926    17.882936    22.816044    19.050609    7772.9887    8323.0214    7787.9258    8555.9307    -259.7615    974.28317    -1541.082   -3970.6636 
28848000      121.926   -5147.1245   -4903.2574   -5147.1245            0    6428.8207    17.909171    22.707323    19.190986    7804.3857    6306.0544    6180.4842    6799.9237   -342.19739   -285.16767     5.170526   -4171.5357 
28849000    123.68599   -5147.7929   -4900.4057   -5147.7929            0    8125.6961    17.856299    22.627192     19.20954    7761.3821    8531.6326    8596.4724    7248.9834    436.45657    157.38023    452.43244   -3980.6435 
28850000    119.83878   -5139.3621   -4899.6697   -5139.3621            0    8222.2348    17.729024    22.862142     19.12616    7752.2812    8305.8981    7254.9279    9105.8784   -1060.6482    588.21929   -494.59493   -3970.0715 
28851000    114.92771   -5148.5197   -4918.6501   -5148.5197            0    7975.3163    17.866534    22.624092    19.169213    7748.4663    7649.8366    7996.4816    8279.6307   -424.45262    74.313446    24.854096   -4017.4119 
28852000     117.6542   -5133.3689   -4898.0459   -5133.3689            0    7282.1291    17.809991    22.783556    19.146938    7769.3475     6877.738    7733.1073    7235.5419   -630.94837    866.01969   -741.27363   -4072.9227 
28853000    119.29658   -5124.9479     -4886.34   -5124.9479            0    8525.8219    17.732335    22.702214    19.243092    7746.5616    9422.5283    8355.1382    7799.7991   -95.250047   -726.89576    124.85423   -3923.1297 
28854000    121.88954   -5136.6628   -4892.8687   -5136.6628            0    7793.8773    17.890187    22.734671    19.104911    7770.4931    6857.7682    8052.2637       8471.6    479.92227    340.90187   -935.56066   -4009.6301 
28855000    123.25247   -5125.4423   -4878.9221   -5125.4423            0    7680.4694     17.73824    22.817278    19.202483     7771.981    9234.5339    6454.2219    7352.6524   -358.19737   -876.75495   -620.79894   -4008.3688 
28856000    114.60451   -5138.9022    -4909.679   -5138.9022            0    9078.5186    17.895771    22.623504    19.097311    7731.8336    9546.3851     8869.075    8820.0958    532.90894    503.22029   -612.03692   -3885.9775 
28857000    124.63583   -5143.4507   -4894.1637   -5143.4507            0    7544.7942    17.688824    22.797043    19.220524    7750.7318    8552.9904    6819.5145    7261.8777   -308.30097    596.23285    784.59916   -4041.3268 
28858000    124.92042   -5137.3959   -4887.5396   -5137.3959            0    7535.7938    17.888981    22.637285    19.126803    7745.5513    5804.5477    8282.5518     8520.282    496.32968   -110.26616   -253.80678   -4036.2894 
28859000    116.46589   -5135.3303   -4902.3841   -5135.3303            0      8332.14    17.781354     22.77247     19.13337    7747.5866    7737.9395    7849.9525     9408.528   -484.84674   -318.95276    560.84933   -3960.9306 
28860000    128.48292   -5140.1039   -4883.1222   -5140.1039            0    7918.4482    17.854764    22.670158    19.148129     7750.594    6065.0495    8799.8386    8890.4565   -359.10436    879.66701   -226.00018   -3988.0646 
28861000    131.46894   -5142.2274   -4879.2733   -5142.2274            0    8357.1699    17.892215    22.683627    19.096607    7750.5554    7677.2691    9177.2442    8216.9966   -262.11017    1107.1205   -560.77578   -3934.6298 
28862000     115.7822   -5125.2812   -4893.7025   -5125.2812            0    7375.8175    17.743953    22.726661    19.253723    7764.2721    8536.2461    7041.4915    6549.7149    804.33523   -266.83063   -171.36658   -4058.5096 
28863000     119.0251   -5147.0189    -4908.954   -5147.0189            0    6722.0811    17.835752    22.799181    19.158984    7790.8197    5989.0368    6413.0498    7764.1566   -1206.4149   -971.03192    35.101856   -4145.1837 
28864000    120.12881   -5130.9951   -4890.7227   -5130.9951            0    7392.0872    17.801663    22.572736    19.374319    7785.2262    8495.1152    8262.0516    5419.0949    565.78067    449.88776   -50.903033   -4051.4285 
28865000    118.83052   -5138.3565   -4900.6808   -5138.3565            0    6905.1712    17.750578    22.892454    19.149278    7781.3912    6813.7452    6643.5724     7258.196    -922.8096    480.63304     339.5263    -4117.057 
28866000    118.02645   -5149.1366   -4913.0691   -5149.1366            0    7089.6122    17.882685    22.623265    19.207037    7770.4896    7072.3797    7371.2263    6825.2305   -325.98499    -894.9325   -1452.7541   -4109.6415 
28867000    115.84827   -5138.6012   -4906.8903   -5138.6012            0    9774.8701    17.711743    22.866176    18.987363     7689.879     9407.231    9512.1798      10405.2    606.25656   -558.77214    1693.2973   -3810.6484 
28868000    115.36193   -5135.1229   -4904.3848   -5135.1229            0      9732.87    17.870714    22.595589    19.123255    7721.9568    10302.058    9416.2595    9480.2921   -110.51546    -206.6357    455.59496      -3808.3 
28869000    119.29433    -5144.511   -4905.9076    -5144.511            0    8531.6081    17.811736     22.87737    18.959385     7725.678    9479.0023    6977.2286    9138.5934   -671.16777    853.45695    156.78315    -3944.642 
28870000    121.91864   -5141.8754    -4898.023   -5141.8754            0    9203.7449    17.891641    22.530962     19.14765    7718.7218    8512.8929    9682.0912    9416.2508    1350.2817    907.11914    1448.8555   -3861.9608 
28871000    121.39466   -5144.2787   -4901.4744   -5144.2787            0    10171.127    17.724788    22.861656    18.985556    7693.2892    9292.3115    10149.534    11071.537    18.859185    888.07219   -528.38031   -3760.2868 
28872000    123.95958   -5125.3773   -4877.4429   -5125.3773            0    9700.7205    17.741649    22.702871    19.117644    7700.3264    9025.3544    9862.1028    10214.704   -31.488766   -216.25555   -258.58192   -3788.0387 
28873000    123.85436   -5142.1444   -4894.4204   -5142.1444            0    8420.6926    17.788881    22.782706    19.093184    7738.0636    8145.9458    9226.5533    7889.5786    973.99582    636.31136   -83.280223   -3944.1308 
28874000     119.6338   -5123.4058   -4884.1234   -5123.4058            0    9983.4252     17.71897    22.581069    19.242991    7699.3762     10099.84    9870.2088    9980.2267   -808.13473     300.5185    314.91072   -3763.1095 
28875000    121.89648   -5127.4351    -4883.627   -5127.4351            0    8309.6198    17.733296    22.816888    19.154843    7750.4062    8380.8931    8550.3829    7997.5833   -474.67939    248.68655   -1489.5462   -3944.3764 
28876000    122.58885   -5147.8934   -4902.7006   -5147.8934            0    9232.9183    17.829709    22.580132    19.194839    7727.7882     9482.232    9401.5042    8815.0188   -434.63796   -86.582101    500.27414   -3862.1335 
28877000    121.48091     -5154.27   -4911.2932     -5154.27            0    7031.3758    17.831386    22.693867    19.217464    7776.5988    6621.9363    7473.1308    6999.0605    567.50024    95.679473    491.41449   -4113.8387 
28878000    124.60305   -5153.3224   -4904.1009   -5153.3224            0    9232.4807    17.855459    22.763964    18.970736    7710.8649    9494.6443    8158.4024    10044.396    177.65394   -307.88677    281.38446   -3865.8618 
28879000    121.12199    -5115.594   -4873.3351    -5115.594            0    8101.4249    17.790822    22.647338    19.210954    7740.3767    9071.9649    7430.5087    7801.8011    997.32337   -1189.5257   -980.45547   -3958.8021 
28880000     115.6842   -5138.1026   -4906.7199   -5138.1026            0    9767.4067    17.741689    22.803785    19.038792    7702.6701    9941.7285    9716.7542    9643.7374   -664.38877    142.46017    3.5828306   -3809.4929 
28881000    115.82338   -5148.4702   -4916.8092   -5148.4702            0    7722.9979    17.850204    22.587105    19.263135    7766.5961    8126.2164    8126.0344    6916.7428    708.83501   -983.15081   -181.61851   -4042.0419 
28882000    125.88887   -5135.5754   -4883.7821   -5135.5754            0    7326.6565     17.87863    22.800522    19.057341    7768.5745    7600.6513     6730.662    7648.6563   -175.77656   -1398.1669   -77.483301   -4053.6962 
28883000    130.25559   -5149.5664   -4889.0392   -5149.5664            0     8119.994    17.822635    22.686007    19.157337    7745.7791    7805.8594    8476.8055    8077.3172    225.95462    526.30451    -900.4224   -3971.7702 
28884000    118.23331   -5143.9262    -4907.445   -5143.9262            0    7697.2409    17.726337    22.579085    19.347931    7743.9021    10060.952    6789.3798    6241.3906   -657.90931    -16.36829   -1182.0214   -4038.1427 
28885000    115.58575   -5134.5612   -4903.3754   -5134.5612            0    8794.1792    17.771632    22.764123    19.100087    7727.0477    7563.2371    9318.1711    9501.1294    589.78044    40.229894    47.634873     -3912.35 
28886000    122.29693   -5132.0557   -4887.4467   -5132.0557            0    8325.4322    17.888084    22.591883    19.158217    7742.3243    7193.1329    8923.1754    8859.9884   -63.317009    952.31513    459.87454   -3947.3901 
28887000    115.13248    -5129.975   -4899.6958    -5129.975            0     9537.459    17.759792    22.760525    19.118834    7728.2567    9874.9385    9539.5958    9197.8428   -403.62318    -636.0756    284.38731   -3824.7412 
28888000    119.39392   -5142.9321   -4904.1295   -5142.9321            0    7504.6513    17.948499    22.637463     19.13645    7775.3017    6992.9887    8024.2186    7496.7465    -231.1297    103.40274   -314.70782    -4053.141 
28889000    118.04239   -5149.2638   -4913.1644   -5149.2638            0    8398.6069    17.777183     22.79193    19.092856    7735.9725    8503.5562    8073.6852    8618.5792   -537.81676   -698.32668    529.34029   -3965.6233 
28890000    132.04083   -5157.7173   -4893.6193   -5157.7173            0    6233.5509    17.917231    22.681069    19.159174    7785.9427     6353.656    6241.6613    6105.3355   -865.24496   -264.34503   -1517.5305   -4185.7997 
28891000    118.67399   -5139.9114   -4902.5487   -5139.9114            0    7876.7061    17.856743    22.855933     19.01391    7760.1952    7445.0973    7884.6864    8300.3347   -267.76801    475.30326    -1438.446   -4011.1065 
28892000    123.06809   -5142.0783    -4895.927   -5142.0783            0    8229.1685    17.976907     22.49226    19.182015      7756.08    6705.7739     8430.921    9550.8106   -363.27957    936.63878   -1305.7761   -3965.0889 
28893000    118.34092   -5134.5726   -4897.8762   -5134.5726            0    9841.8899    17.754038    22.763896    19.059786    7703.0331    9567.0698    9985.0438    9973.5561    489.59104   -207.39853   -369.72982     -3792.23 
28894000    120.91276   -5134.4505     -4892.61   -5134.4505            0     8093.321    17.794328    22.555562    19.281185    7738.7171    8182.9427     8586.226    7510.7942    1079.7821   -8.9718057    559.83633   -3979.1877 
28895000    122.34039   -5141.2557   -4896.5598   -5141.2557            0     9084.024    17.814802    22.620161    19.113863    7702.3839    9698.1127    9139.5058    8414.4534   -207.09095   -501.24033     1820.739   -3876.1389 
28896000    120.76002   -5139.4748   -4897.9398   -5139.4748            0    9750.2617    17.746293    22.735674    19.115859    7712.7504    9802.4778    9865.1483    9583.1591   -1344.8603    613.81038   -1040.9788   -3801.2055 
28897000    114.24423   -5139.7589   -4911.2563   -5139.7589            0    8230.1387    17.850172     22.70149    19.095057    7737.8041    6985.6438    8854.3302    8850.4421    807.19646   -385.52159    278.26666   -3982.5022 
28898000    117.54606   -5138.9585   -4903.8519   -5138.9585            0    7668.7043    17.832492    22.713861     19.14898    7756.1938     7202.182    7541.4642    8262.4669   -1107.6442   -481.55666   -152.57567   -4036.3977 
28899000     125.3717   -5137.2964   -4886.5375   -5137.2964            0    7803.6728    17.979701    22.678908    19.040518    7763.9614    8096.8779    7328.2468    7985.8936    635.19035    435.30493   -1009.8278   -4002.9322 
28900000    117.20945    -5139.873   -4905.4396    -5139.873            0    7902.1667    17.839971    22.747576    19.066219    7737.3784    6455.0016    8803.3387    8448.1598     876.5353    325.93401    1128.6057   -4013.7455 
28901000    124.20538   -5122.6802   -4874.2541   -5122.6802            0    8206.4488    17.782593    22.693024    19.206422    7750.5752     8561.455    7641.4752    8416.4161   -1293.5075   -735.28356   -1083.4305   -3946.6448 
28902000    124.32359    -5139.934   -4891.2715    -5139.934            0    8609.3564    17.666998    22.947529     19.06791    7730.3967    9617.3314    7931.1024    8279.6354    180.47905   -597.30868    -229.7323   -3920.6534 
28903000    125.48346   -5144.2345   -4893.2521   -5144.2345            0    7606.7983     17.85507     22.67211    19.176439     7762.855    6651.1601     8242.679    7926.5558    1238.5684    227.09835    328.95741   -4032.0615 
28904000    122.17329   -5144.4529   -4900.0912   -5144.4529            0     8569.697    17.834029    22.828091    19.011929    7740.0761    7340.4589    9287.8665    9080.7655    1342.4798    1113.9011    825.18934   -3932.7347 
28905000    120.02711   -5149.6705   -4909.6014   -5149.6705            0    5458.1656    17.964896    22.728549    19.140035    7815.1829    4398.2057    5345.8858    6630.4054   -597.40794   -433.13068   -29.004416   -4287.4992 
28906000    118.55253   -5150.2865   -4913.1668   -5150.2865            0    8812.4591    17.782513    22.853106    19.036359    7736.1034    9964.9863    8157.5704    8314.8205    357.18873   -67.800324    11.537911   -3918.9176 
28907000    120.55474   -5141.7042   -4900.5798   -5141.7042            0    8983.1344    17.856136    22.619675    19.147594    7733.7132    8149.3603    8706.9157    10093.127   -1142.9349   -364.16917    516.07049   -3887.3876 
28908000    116.82964   -5140.9721   -4907.2984   -5140.9721            0    9169.5653    17.758999    22.691147    19.108635    7700.2458     8264.732    9884.0476    9359.9164      845.501   -380.15755   -348.10383   -3877.5545 
28909000    121.92864   -5149.7403   -4905.8679   -5149.7403            0    8191.1528    17.788105    22.681241    19.166016    7732.6497    8443.2493    8125.0726    8005.1364    264.22943     348.5237     1430.175    -3982.129 
28910000     123.9233   -5135.5693   -4887.7074   -5135.5693            0    9956.4713    17.911461    22.543905    19.077033    7703.1965    10137.814    10205.771    9525.8296   -358.56202   -223.59166   -500.05246   -3769.1654 
28911000    113.97081   -5140.2287    -4912.273   -5140.2287            0    7403.3561    17.798308    22.852847    19.106369    7771.3631    7787.7052    6439.6522    7982.7108    -1458.633   -451.03407   -908.03631   -4073.1961 
28912000    116.76568   -5132.1122   -4898.5665   -5132.1122            0    8077.3999    17.905937    22.721335    19.090706    7766.9924    8059.8718    8115.3739    8056.9541    242.41324    72.669762   -249.68207   -3983.6102 
28913000    118.29134   -5139.9446   -4903.3473   -5139.9446            0     8055.457    17.841946    22.690016    19.160934    7756.9988    8178.7722    8240.4919     7747.107   -1405.9015     -498.516    301.42078   -3992.0506 
28914000     120.9877   -5148.2203   -4906.2299   -5148.2203            0    7994.3567    17.847516    22.685206    19.159924    7757.3662      8217.93    7363.1797    8401.9604   -20.332569   -453.77814    76.688244   -4001.8025 
28915000    118.45139   -5143.6735   -4906.7561   -5143.6735            0    7738.2037    17.807902    22.746414    19.147842    7756.1382    7340.4081    7330.8913    8543.3117    765.33124   -846.10714    939.68248   -4031.4467 
28916000    128.83746   -5137.4832   -4879.7923   -5137.4832            0     8734.249    17.832909    22.744351    19.060782    7731.0142    8461.1896    8887.6695     8853.888     117.1309    912.29694     62.62164   -3895.0153 
28917000    117.90057   -5137.7708   -4901.9551   -5137.7708            0    8299.3293    17.858857    22.722404    19.116699    7757.4833    8722.3258    7477.8021    8697.8601   -447.31905    318.56419    24.172458    -3963.011 
28918000    119.88039   -5126.4044   -4886.6288   -5126.4044            0    7909.0059    17.834996    22.668771    19.186995    7757.2533    7315.9423    8040.7478    8370.3276    1013.4656    147.78972    1304.3579   -3991.8704 
28919000    128.20393    -5132.064   -4875.6403    -5132.064            0     9385.059    17.872001    22.515545    19.231897    7738.8735    8676.5318    10225.404    9253.2413    649.16656   -445.80014   -152.69347   -3816.4094 
28920000    115.41293    -5130.529   -4899.6889    -5130.529            0    7603.1359    17.828544    22.878155    19.075381    7780.5467     7061.144    7622.3373    8125.9263   -76.330521    536.11323    629.10239   -4036.9513 
28921000    125.32207   -5140.5571   -4889.8975   -5140.5571            0    9004.8898    17.923456    22.433151    19.260628    7744.3051    9882.0618     9194.979    7937.6285    385.14814    396.75581   -605.48932   -3872.8605 
28922000    121.24197   -5151.4189     -4908.92   -5151.4189            0     6807.821    17.742453    23.074132    19.016843     7785.338     7352.568    5963.9156    7106.9795    381.57362    625.57967    245.97083    -4135.952 
28923000    115.68556    -5143.442   -4912.0566    -5143.442            0    7144.5155    17.831471    22.670606    19.233698    7775.2271    7091.7498    7796.2977     6545.499   -630.85124    654.32818   -63.115715   -4101.9134 
28924000    119.30746   -5142.2263   -4903.5966   -5142.2263            0    8000.4382    17.764689    22.760478    19.151157    7743.4413    7447.6006    7935.5603    8618.1539   -26.715632   -365.72467   -179.26499    -4000.106 
28925000    116.44514   -5128.4656   -4895.5609   -5128.4656            0     9580.922    17.792837    22.701191    19.085829    7709.1211    10361.379    8973.8938    9407.4936    18.922381    154.19628    1626.2232   -3818.3815 
28926000    120.92424   -5143.1569   -4901.2935   -5143.1569            0     8945.291    17.873396    22.830304    18.962478    7737.7349    8801.5612     8737.595    9296.7169   -203.93415    558.72121   -342.13363   -3891.8449 
28927000    120.93112   -5124.6632    -4882.786   -5124.6632            0    9424.1411    17.773473     22.65287    19.190204    7726.3632    10179.106    8929.9591    9163.3584   -515.55381   -174.29639    9.4801298   -3820.8636 
28928000    127.65529   -5146.8024   -4891.4761   -5146.8024            0    8296.5618    17.810415    22.816125    19.072738    7750.4866     8454.444    7288.7885    9146.4527   -1164.7938    73.978264   -122.05586   -3953.6917 
28929000    120.10234   -5133.1336   -4892.9141   -5133.1336            0    7143.7807    17.895866    22.667788    19.195777    7786.9527     7258.946    7016.2281    7156.1682   -162.46603   -679.64864    832.95438   -4081.6326 
28930000    121.90678   -5138.6029   -4894.7742   -5138.6029            0    8231.7572    17.794516    22.829816    19.038011    7734.1066    7859.9951    8003.1454    8832.1309    1323.6353    220.30181   -1098.1517   -3966.2813 
28931000    123.88822    -5154.152   -4906.3602    -5154.152            0    7692.9594    17.876891    22.660902    19.146719    7756.4601    7393.3645    8150.5129    7535.0008    540.47105   -310.29815   -235.28689   -4036.1325 
28932000    123.68553   -5140.1331   -4892.7468   -5140.1331            0    8470.0385    17.764545    22.765772    19.143611    7742.1279      7561.68    9006.5096     8841.926    530.36482    530.79765   -882.11011   -3936.3863 
28933000    117.26361   -5143.9285   -4909.3868   -5143.9285            0    8181.3125    17.856085    22.747823    19.104394    7759.9578    7933.5643    7245.6351    9364.7382   -279.50896   -1576.7199    373.80829   -3983.4993 
28934000    117.43353   -5150.0603   -4915.1788   -5150.0603            0    6961.3134    17.831206    22.714402    19.206833    7779.2509    6992.9551     7745.283    6145.7022    779.49557    754.60057    477.60686   -4125.4011 
28935000    123.91516   -5134.4368   -4886.5912   -5134.4368            0    7700.1452     17.95027    22.671997    19.087453    7767.9916    6131.2435    8102.2364    8866.9557    1057.9945    213.51786   -424.45015   -4014.2557 
28936000    126.71912   -5149.5106   -4896.0567   -5149.5106            0    7786.3408    17.819402    22.790135    19.153192    7778.2374    7749.4644    7661.8123    7947.7457   -480.85861    770.89769    418.28161   -4012.7928 
28937000    116.39102   -5138.8833   -4906.0869   -5138.8833            0    7645.7937    18.050093    22.637909    19.030586     7776.209    7354.5355    7324.6908    8258.1549    986.76342   -1134.3182   -32.185352   -4038.9925 
28938000    123.26202   -5133.6703    -4887.131   -5133.6703            0    7864.8132    17.774848    22.856171    19.109664    7763.5868    9069.5039    6593.3258    7931.6097    659.87829   -847.23022   -771.15987   -3996.6458 
28939000    113.79117    -5140.748   -4913.1516    -5140.748            0    8041.3805     17.95895    22.597979    19.114986     7757.549    7281.3504    8224.0733    8618.7177    420.11731    279.54308    109.66755   -4003.3828 
28940000    122.25537   -5123.1134   -4878.5876   -5123.1134            0    7956.1656    17.917677    22.647955    19.149056    7770.6629    7663.0269     8436.549    7768.9208    407.71969     606.4734   -1598.5614    -3976.938 
28941000    121.99227   -5135.9602   -4891.9606   -5135.9602            0     8667.692    17.850381    22.644642    19.114018     7726.182    8808.4847     8908.824    8285.7673   -1129.8979   -533.54456   -1093.4278   -3915.2986 
28942000    123.06472    -5136.602   -4890.4574    -5136.602            0    8428.5486    17.810907    22.732045    19.070885    7721.3882    7476.2289    9057.5101    8751.9069    779.88352    218.77861    47.988899   -3941.3309 
28943000    121.42807   -5145.7553   -4902.8842   -5145.7553            0    8092.6155     17.93619    22.598088    19.136787    7756.5914     6795.484    8746.4255    8735.9369    389.42753    441.13837    119.39523   -3987.4319 
28944000    124.94223   -5147.5363   -4897.6364   -5147.5363            0    7722.7375    17.849544    22.695592    19.164748    7763.7539     6930.062    7544.3781    8693.7725    223.37332    778.55795    -465.8881   -4023.2187 
28945000    119.28595   -5136.9273   -4898.3407   -5136.9273            0    7102.8148    17.927155    22.714529        19.08    7769.5072    6996.5708    7539.1256    6772.7479   -298.35921    661.80039   -981.36076   -4093.5187 
28946000    116.78589   -5134.1246   -4900.5384   -5134.1246            0     8841.698    17.869648    22.650686     19.08321    7724.1159    7756.6082    8975.1026    9793.3832   -530.75997   -154.76315   -1242.9479   -3904.5361 
28947000     124.3945   -5142.8944     -4894.09   -5142.8944            0    7954.2749    17.808679    22.821311    19.045248    7740.3202    8293.3521    6603.4368    8966.0358    1169.9033   -340.33017     1371.953   -3996.1747 
28948000    116.42484   -5129.7862   -4896.9221   -5129.7862            0    8349.7087    17.962132    22.550716    19.133488    7750.1904    8639.5897    8633.0947    7776.4416   -516.04698    353.52147    -397.4255   -3953.1665 
28949000    122.75062     -5134.19   -4888.6736     -5134.19            0    7490.2733    17.893366    22.795338    19.041348    7766.6866    6494.1372    7537.8785    8438.8043    713.76115   -45.480901    1496.6356   -4040.2567 
28950000    117.74344   -5135.6165   -4900.1151   -5135.6165            0    8467.1334    17.763567    22.638034    19.264231    7746.7686    8442.9096    8764.2389    8194.2519    116.12089   -377.75438   -806.27695   -3943.5096 
28951000    118.25959   -5132.3939   -4895.8601   -5132.3939            0     7987.024    17.789898    22.678711    19.231832    7759.1201    8345.4317    8174.4179    7441.2224   -473.58417   -499.90432    1175.0148    -3992.058 
28952000    117.70733   -5132.0567   -4896.6275   -5132.0567            0    8788.6759    17.767253    22.776631     19.10021    7729.4379    9495.9628    8549.9617    8320.1033   -1079.2226    328.89327   -500.61117   -3905.9159 
28953000     115.3533   -5141.1286   -4910.4077   -5141.1286            0    8255.3127    17.829542    22.613214     19.20284    7742.2637    8445.5055    8198.8108    8121.6217    799.88827    546.10599    1122.1267   -3978.2758 
28954000    114.63367    -5144.932   -4915.6505    -5144.932            0    7074.0938    17.799185    22.914283    19.037421    7764.5179    6257.7614    7399.7477    7564.7723   -960.40206    222.92778    925.12797   -4114.5976 
28955000    120.91599   -5158.6077   -4916.7607   -5158.6077            0    7841.3055    17.976614    22.584043    19.140596    7770.7875     8441.643    7534.0525    7548.2209   -121.78414   -975.49111   -1205.5789   -4028.1137 
28956000    117.07605   -5142.3547   -4908.1881   -5142.3547            0    7439.9332    17.666657    22.892946    19.179061    7756.8142    7859.0574    7738.6924    6722.0496   -1098.3407     1088.425    36.697057   -4066.5444 
28957000    123.92996    -5148.746   -4900.8708    -5148.746            0    7475.6802    17.884912     22.56144    19.246992    7766.3418    8743.7038    7522.6116    6160.7252    1019.7984   -164.67992    421.40268   -4054.1444 
28958000    121.85259   -5131.0206   -4887.3003   -5131.0206            0    7870.6227    17.836949    22.816813    19.051887    7753.7814    7539.9548    7539.3312    8532.5822   -1021.5867    452.54249   -811.10475   -3997.2828 
28959000    126.16455   -5145.5622   -4893.2175   -5145.5622            0    8419.8123     17.87067    22.684199    19.083777    7736.2166    7758.5445     8725.131    8775.7615    1108.6721    -629.8778   -531.68149    -3943.254 
28960000    125.90788   -5139.3625   -4887.5312   -5139.3625            0    9049.8521    17.735058    22.772968    19.159156    7737.9983    10590.708    8025.6064    8533.2419    880.94149   -588.42182    2025.8485   -3866.2484 
28961000    122.37466   -5131.0953   -4886.3309   -5131.0953            0    10172.514    17.767296    22.618659    19.142725    7692.9328     11173.68    10112.329    9231.5313    839.37526   -316.20818   -265.58992   -3745.0406 
28962000    117.86917   -5135.6285   -4899.8756   -5135.6285            0    6835.8014     17.92545    22.817183    19.012887    7776.4284    6755.7776    6373.3989    7378.2277   -452.31449    299.48193   -907.64131   -4124.6189 
28963000    117.02827   -5132.8047   -4898.7337   -5132.8047            0    7841.2614    17.856335    22.530726    19.248722    7744.0724    8039.5334    8025.5063    7458.7445   -192.93251   -339.25567   -1530.5833   -4013.1467 
28964000    121.28762   -5138.6686   -4896.0784   -5138.6686            0    8951.0254    17.784346    22.897592    18.956594    7719.4793    7754.1616    9907.2559    9191.6587   -460.56808    822.56864    15.115489   -3888.3658 
28965000     116.1732   -5149.4043   -4917.0435   -5149.4043            0    9584.6428    17.831905    22.604505    19.145797    7717.3145    10560.217      9147.84    9045.8719    943.46372   -940.06457    1376.1302   -3838.3004 
28966000    119.61888   -5139.8253   -4900.5728   -5139.8253            0    9389.9269    17.779985    22.781718    19.105131    7738.6977    9106.0223    8806.9047    10256.854    30.249787    204.39786    -513.8026   -3840.8165 
28967000    115.53564   -5149.9524   -4918.8669   -5149.9524            0      7398.95    17.853767    22.635215     19.20637    7761.7522    7126.8822    7558.9875    7510.9804   -105.71214    506.62484   -1275.0782   -4081.3265 
28968000    119.99368   -5135.2979   -4895.2957   -5135.2979            0      7397.27    17.948084    22.791658    19.046354    7791.2268    5702.7433     7402.585    9086.4816   -342.02751   -311.14725    469.23058   -4054.7657 
28969000    119.30228   -5144.8421   -4906.2228   -5144.8421            0    7150.7793    17.871627     22.67826    19.202033    7782.5338    7497.8564    7076.6154    6877.8662   -150.09228   -166.68336    63.360401   -4094.6073 
28970000    118.72942   -5149.4478   -4911.9743   -5149.4478            0    8359.4562    17.811636    22.777228    19.053409    7729.9622    9012.0592    7773.5712    8292.7382   -469.95545   -437.36178   -151.02074    -3969.583 
28971000    119.10817   -5136.4729   -4898.2418   -5136.4729            0    9463.6032    17.808987    22.637872    19.116719    7707.0496    9150.8051    9832.4468    9407.5578   -498.29117    647.39107    407.28822   -3834.5384 
28972000    117.30973   -5149.3608   -4914.7269   -5149.3608            0    8657.6668    17.845797    22.763825    19.027209    7729.5868    8207.1411    8352.0164    9413.8429    950.23897    157.76222   -238.30437   -3938.7646 
28973000    112.47702   -5138.3803   -4913.4124   -5138.3803            0    8109.0815    17.831414     22.55468    19.231479    7734.5517    7600.0118     8829.396    7897.8366    285.19099    359.56554   -37.598076   -3998.7039 
28974000    124.08265   -5143.8668   -4895.6862   -5143.8668            0    7998.7247    17.752436    22.913419    19.036531    7743.4707    8468.9592    7509.4767    8017.7383   -65.578328    244.32914    499.65697   -3992.3856 
28975000    122.33478   -5150.7477   -4906.0631   -5150.7477            0    9027.3036    17.850355    22.547721    19.157242    7710.4992    7838.0218    9208.2586     10035.63   -103.32034   -245.17005    292.87528   -3890.9453 
28976000    119.29683   -5140.9228   -4902.3144   -5140.9228            0    8416.4547    17.758926    22.874424    19.063914    7744.2425    8127.3267    8089.4365     9032.601     422.4758    297.68704   -1313.6452   -3951.7446 
28977000    126.64227   -5128.5462    -4875.246   -5128.5462            0    6638.5133    17.921317    22.620281     19.23452    7797.3905    6225.9604     7435.137    6254.4424   -855.04043   -229.10171    293.46406   -4120.3346 
28978000    127.72121    -5136.253   -4880.7948    -5136.253            0    8147.0485     17.78253    22.941236    18.961936    7735.5831    7615.3704    8086.4004    8739.3748    134.72898   -310.17974   -1334.1409   -3961.6811 
28979000    121.95352   -5135.2924   -4891.3703   -5135.2924            0     7822.461    18.048318    22.438599    19.186745    7770.2284    6102.1522     9107.497    8257.7337   -872.91755   -82.199219   -530.25313   -4004.9226 
28980000    126.77137   -5130.4481   -4876.8896   -5130.4481            0    8365.0877    17.731695    22.737705    19.237404    7756.0994    9656.5148    8670.1649    6768.5833    285.81353   -455.51258   -493.41528   -3930.6748 
28981000     124.3865   -5133.5172   -4884.7288   -5133.5172            0    8967.3502    17.890165    22.810522    18.958014    7736.4623    8121.3034    9165.5351    9615.2122    59.406459    892.63263    1064.8402   -3872.9573 
28982000    123.56654   -5139.9564    -4892.808   -5139.9564            0    8009.5033    17.954862    22.650473    19.022095    7736.0218    6108.2319    8845.5041    9074.7737    17.296878   -435.49812   -819.50286   -3989.1603 
28983000    118.06387   -5142.7886   -4906.6463   -5142.7886            0    7837.2532    17.693792    22.826964    19.197554    7753.8067    8231.4537    7549.5874    7730.7184   -425.88232    205.90589    258.13419   -4020.3993 
28984000    126.88541   -5138.8257   -4885.0392   -5138.8257            0    8826.7046    17.822955    22.607945    19.177671    7727.4581    9259.6553    9347.3464    7873.1121    553.12931    -421.5276   -238.07438   -3890.2956 
28985000    119.92163   -5151.7501   -4911.8921   -5151.7501            0    7639.7746    17.822528    22.723316    19.130936    7747.7793    8911.2983    6766.0026    7242.0227    585.98948   -496.61332    793.43423   -4048.6479 
28986000    118.96893   -5141.2251   -4903.2725   -5141.2251            0    8293.0365    17.919518    22.653564    19.066389    7739.8279    7318.8565    8295.4365    9264.8165    260.02463    696.67327    -281.9118   -3967.1757 
28987000     117.6191    -5135.765   -4900.5122    -5135.765            0    9247.7681    17.808485    22.639457    19.126485    7711.3098    9806.9904    9975.7347    7960.5791   -356.46394   -7.7738859    463.95428    -3860.494 
28988000    120.14591   -5136.6112   -4896.3045   -5136.6112            0    6891.4037    17.863424    22.806991    19.131215    7794.2666    6589.3761    7064.4739    7020.3611   -411.36621     117.5733   -933.67017   -4112.9491 
28989000    122.46849   -5140.6148   -4895.6627   -5140.6148            0    8034.2785    17.845513     22.67673     19.16286    7754.7854    7403.8778    8261.9033    8437.0543    237.23331    508.89912     1072.079   -3987.0212 
28990000    122.66001   -5137.7428   -4892.4076   -5137.7428            0    7479.8393    17.899187       22.616    19.159362    7755.8632    7447.4598    7799.8175    7192.2407     361.6912   -80.891872    953.10546   -4046.3532 
28991000    119.86684   -5145.9689   -4906.2204   -5145.9689            0    8567.4504    17.774091    22.847306     19.03199    7728.7027     9386.441    7250.0487    9065.8617    326.00627    -1119.164    437.59873   -3940.5385 
28992000    120.25426   -5145.3855   -4904.8621   -5145.3855            0    7664.6214    17.772747    22.682181    19.262259    7765.0917    9213.0426    7157.1516      6623.67   -1141.0452   -1291.9236   -328.58721   -4036.8752 
28993000    123.75005   -5133.2639   -4885.7485   -5133.2639            0    8330.0908    17.784706    22.743569    19.160252     7750.086    8618.5389    7606.8072    8764.9264   -576.83489    -610.8766   -516.62182   -3944.2229 
28994000    124.39998    -5136.984   -4888.1687    -5136.984            0    9159.0681    17.870048    22.731268    19.047485     7737.257    7884.8083    9158.8243    10433.572   -2081.7238    270.59141   -261.60893   -3854.6598 
28995000    121.02626   -5133.6077   -4891.5402   -5133.6077            0    6766.8913    17.900078    22.652431    19.276237    7816.1342    6248.3911    7239.9223    6812.3605   -297.54602    471.43986     921.7389   -4120.1802 
28996000    120.81075   -5147.3967   -4905.7603   -5147.3967            0    6854.8976    17.902156    22.776645    19.108683    7791.5857    7100.4782    6702.8088    6761.4059    99.653218   -729.71091    876.38491   -4126.8226 
28997000    123.42775   -5143.4963   -4896.6255   -5143.4963            0    8197.6336    17.842619    22.503626    19.315807    7755.7528    8529.4345    8983.5394    7079.9269    1007.0535    598.36184   -168.32364   -3969.3937 
28998000    119.15359   -5127.4772   -4889.1553   -5127.4772            0    8528.1908    17.834315    22.792454    19.052236    7744.5013    8098.6152    8441.3552     9044.602    170.29657    836.66503   -990.70193   -3925.9336 
28999000    120.22034   -5151.3673   -4910.9118   -5151.3673            0    7076.2757    18.020722    22.557028    19.131567    7776.8657    6299.6946    7415.1325    7513.9999    236.19238    -906.6208    624.81754   -4108.3375 
29000000    125.01506   -5132.7119   -4882.6663   -5132.7119            0     8269.968    17.823689    22.729718    19.167156    7765.1408     7753.116    8492.1976    8564.5904    1050.8856    699.16332    2257.7336   -3946.1204 
Loop time of 448.342 on 64 procs for 250000 steps with 1008 atoms

Performance: 96.355 ns/day, 0.249 hours/ns, 557.610 timesteps/s
378.6% CPU use with 16 MPI tasks x 4 OpenMP threads

MPI task timing breakdown:
Section |  min time  |  avg time  |  max time  |%varavg| %total
---------------------------------------------------------------
Pair    | 41.713     | 44.025     | 47.931     |  23.8 |  9.82
Bond    | 1.5228     | 1.7558     | 2.2691     |  14.7 |  0.39
Kspace  | 211.43     | 218.88     | 224.53     |  24.3 | 48.82
Neigh   | 1.3358     | 1.4561     | 1.5701     |   5.2 |  0.32
Comm    | 57.656     | 60.993     | 66.502     |  36.0 | 13.60
Output  | 0.51655    | 0.51693    | 0.51835    |   0.1 |  0.12
Modify  | 97.661     | 101.13     | 103.93     |  24.0 | 22.56
Other   |            | 19.59      |            |       |  4.37

Nlocal:        63.0000 ave          66 max          59 min
Histogram: 1 0 4 0 1 1 0 6 2 1
Nghost:        3451.69 ave        3472 max        3438 min
Histogram: 2 2 3 3 1 0 2 2 0 1
Neighs:        21502.7 ave       22576 max       20146 min
Histogram: 1 1 2 1 1 1 3 3 2 1

Total # of neighbors = 344043
Ave neighs/atom = 341.31250
Ave special neighs/atom = 2.0000000
Neighbor list builds = 3262
Dangerous builds = 0

unfix		3
unfix		2
unfix		1

write_data	data.final.${pid}
write_data	data.final.1
System init for write_data ...
PPPM initialization ...
  extracting TIP4P info from pair style
  using 12-bit tables for long-range coulomb (../kspace.cpp:340)
  G vector (1/distance) = 0.379677
  grid = 24 27 32
  stencil order = 5
  estimated absolute RMS force accuracy = 0.0024201499
  estimated relative force accuracy = 7.2882094e-06
  using double precision FFTW3
  3d grid and FFT values/proc = 7875 1344
Last active /omp style is kspace_style pppm/tip4p/omp
WARNING: Not all mixed pair coeffs generated from mixing. Use write_data with 'pair ij' option to store all pair coeffs. (../write_data.cpp:312)

write_restart   restart.lmp.${pid}
write_restart   restart.lmp.1
System init for write_restart ...
PPPM initialization ...
  extracting TIP4P info from pair style
  using 12-bit tables for long-range coulomb (../kspace.cpp:340)
  G vector (1/distance) = 0.379677
  grid = 24 27 32
  stencil order = 5
  estimated absolute RMS force accuracy = 0.0024201499
  estimated relative force accuracy = 7.2882094e-06
  using double precision FFTW3
  3d grid and FFT values/proc = 7875 1344
Last active /omp style is kspace_style pppm/tip4p/omp
Total wall time: 0:07:28
