LAMMPS (30 Jul 2021)
Processor partition = 0
  using 4 OpenMP thread(s) per MPI task
using multi-threaded neighbor list subroutines
variable        pid world 0 1
variable        phase world IceVI IceV

shell cd ${phase}
shell cd IceVI
include Restart.lmp
echo both
log log.lammps
#include		in.partitions
include		in.temp
variable        temperature equal 120.77
variable	tempDamp equal 100.0
include		in.pressure
variable        pressure equal 8268.1
variable        pressureDamp equal 1000.0 # This is 1 ps
include		in.seed
variable        seed equal 745823

units		real
atom_style	full
read_restart	restart.lmp.${pid}
read_restart	restart.lmp.0
Reading restart file ...
  restart file = 30 Jul 2021, LAMMPS = 30 Jul 2021
  restoring atom style full from restart
  orthogonal box = (0.0039430558 -0.047603354 0.045981154) to (24.726058 24.777604 22.764019)
  2 by 4 by 2 MPI processor grid
  restoring pair style lj/cut/tip4p/long/omp from restart
  restoring bond style harmonic/omp from restart
  restoring angle style harmonic/omp from restart
  1920 atoms
  1280 bonds
  640 angles
Finding 1-2 1-3 1-4 neighbors ...
  special bond factors lj:    0        0        0       
  special bond factors coul:  0        0        0       
     2 = max # of 1-2 neighbors
     1 = max # of 1-3 neighbors
     1 = max # of 1-4 neighbors
     2 = max # of special neighbors
  special bonds CPU = 0.001 seconds
  read_restart CPU = 0.006 seconds
include 	in.setup
variable	out_freq equal 1000
variable	out_freq2 equal 10000
variable	out_freq3 equal 1000

timestep	2.0

neigh_modify    delay 7 every 1

include		in.tip4p
# This is TIP4P/Ice

# create groups ###
group ox type 2
640 atoms in group ox
group hy type 1
1280 atoms in group hy

# set charges - beside manually ###
set group ox charge -1.1794
Setting atom values ...
  640 settings made for charge
set group hy charge 0.5897
Setting atom values ...
  1280 settings made for charge

# ### TIP3P Potential Parameters ###
pair_style lj/cut/tip4p/long/omp 2 1 1 1 0.1577 8.5
pair_coeff 1 1*2 0.000 0.000
pair_coeff 2 2 0.21084 3.1668
bond_style  harmonic
bond_coeff  1 450 0.9572
angle_style harmonic
angle_coeff 1 55 104.52
kspace_style pppm/tip4p/omp 1.0e-5
pair_modify tail yes

thermo          ${out_freq}
thermo          1000
thermo_style    custom step temp pe etotal epair emol press lx ly lz vol pxx pyy pzz pxy pxz pyz enthalpy

restart 	${out_freq3} restart.lmp.${pid} restart2.lmp.${pid}
restart 	1000 restart.lmp.${pid} restart2.lmp.${pid}
restart 	1000 restart.lmp.0 restart2.lmp.${pid}
restart 	1000 restart.lmp.0 restart2.lmp.0


include         in.dump
dump            myDump all atom ${out_freq2} dump.water.${pid}
dump            myDump all atom 10000 dump.water.${pid}
dump            myDump all atom 10000 dump.water.0
dump            myDump2 all dcd ${out_freq2} dump.dcd
dump            myDump2 all dcd 10000 dump.dcd
dump_modify     myDump append yes
dump_modify     myDump2 append yes


variable natoms 	equal  "count(all)"                        # NUMBER ATOMS
variable H      	equal  "enthalpy/v_natoms"                 # ENTHALPY-per-atom
variable Vol      	equal  "vol/v_natoms"                 # volume-per-atom
fix AVG all 		ave/time ${out_freq} 1 ${out_freq} v_Vol v_H file vol_enthalpy.dat
fix AVG all 		ave/time 1000 1 ${out_freq} v_Vol v_H file vol_enthalpy.dat
fix AVG all 		ave/time 1000 1 1000 v_Vol v_H file vol_enthalpy.dat




fix 		1 all shake 1e-6 200 0 b 1 a 1
Finding SHAKE clusters ...
       0 = # of size 2 clusters
       0 = # of size 3 clusters
       0 = # of size 4 clusters
     640 = # of frozen angles
  find clusters CPU = 0.000 seconds
fix             2 all nph aniso ${pressure} ${pressure} ${pressureDamp}
fix             2 all nph aniso 8268.1 ${pressure} ${pressureDamp}
fix             2 all nph aniso 8268.1 8268.1 ${pressureDamp}
fix             2 all nph aniso 8268.1 8268.1 1000
fix             3 all temp/csvr ${temperature} ${temperature} ${tempDamp} ${seed}
fix             3 all temp/csvr 120.77 ${temperature} ${tempDamp} ${seed}
fix             3 all temp/csvr 120.77 120.77 ${tempDamp} ${seed}
fix             3 all temp/csvr 120.77 120.77 100 ${seed}
fix             3 all temp/csvr 120.77 120.77 100 745823


run             250000
PPPM initialization ...
  extracting TIP4P info from pair style
  using 12-bit tables for long-range coulomb (../kspace.cpp:340)
  G vector (1/distance) = 0.37507904
  grid = 30 30 30
  stencil order = 5
  estimated absolute RMS force accuracy = 0.003201097
  estimated relative force accuracy = 9.6400086e-06
  using double precision FFTW3
  3d grid and FFT values/proc = 7920 1800
Last active /omp style is kspace_style pppm/tip4p/omp
Neighbor list info ...
  update every 1 steps, delay 7 steps, check yes
  max neighbors/atom: 2000, page size: 100000
  master list distance cutoff = 10.8154
  ghost atom cutoff = 10.8154
  binsize = 5.4077, bins = 5 5 5
  1 neighbor lists, perpetual/occasional/extra = 1 0 0
  (1) pair lj/cut/tip4p/long/omp, perpetual
      attributes: half, newton on, omp
      pair build: half/bin/newton/omp
      stencil: half/bin/3d
      bin: standard
Setting up Verlet run ...
  Unit style    : real
  Current step  : 28750000
  Time step     : 2
Per MPI rank memory allocation (min/avg/max) = 12.56 | 12.56 | 12.56 Mbytes
Step Temp PotEng TotEng E_pair E_mol Press Lx Ly Lz Volume Pxx Pyy Pzz Pxy Pxz Pyz Enthalpy 
28750000    122.11346   -9692.1839   -9226.6316   -9692.1839            0    8574.8081    24.722115    24.825208    22.718038    13942.778    8019.3512    8525.8698    9179.2034    761.08433    1379.0035   -689.76593   -7483.0205 
28751000    120.55622   -9700.1688   -9240.5535   -9700.1688            0    7795.8888    24.670238    24.714648    22.925676    13978.157    7921.7638    8863.1601    6602.7423   -384.71501   -967.91513   -90.317617   -7651.3063 
28752000     122.6705   -9707.0379    -9239.362   -9707.0379            0    8275.0412    24.796199    24.748221    22.739122    13954.131    7673.1159    8257.9235    8894.0843   -206.06804    735.71794    77.750332   -7555.3358 
28753000    122.48553   -9705.0403   -9238.0696   -9705.0403            0    7850.0059    24.757951    24.765461    22.764715    13958.004    8035.6015    7936.3954    7578.0208   -83.786314    119.52537    394.67753   -7640.0975 
28754000    119.27889   -9705.9422   -9251.1967   -9705.9422            0    8657.2566    24.649054    24.753569    22.837565    13934.387     9322.734    8996.4734    7652.5624   -119.88489    118.26311   -475.42526   -7491.8799 
28755000    118.78353   -9683.0724   -9230.2154   -9683.0724            0    8304.0644    24.651207    24.823407    22.815957    13961.699    8875.5903    7478.7994    8557.8035    654.30114   -559.05553    125.98916   -7539.3663 
28756000    124.17241   -9689.4551   -9216.0532   -9689.4551            0    8418.8206     24.74668    24.799826    22.730364    13949.928    8525.3845    8296.7782     8434.299    545.71505   -249.14907    655.27171    -7503.283 
28757000    118.08015   -9696.2138   -9246.0384   -9696.2138            0    8437.6847    24.731611    24.748046    22.814335     13963.72    8747.2462    7239.8275    9325.9804   -607.81099   -777.55709   -138.96931   -7527.7332 
28758000    119.61925   -9704.7425   -9248.6994   -9704.7425            0    7906.4747    24.707112    24.715652    22.886321    13975.586    7927.7196    8186.4081    7605.2963    208.03191    18.655977    2.1836536    -7637.205 
28759000     122.8998   -9683.3237   -9214.7736   -9683.3237            0    8069.2256    24.776134    24.821753    22.691563    13955.018    8042.9945    7445.9025    8718.7799    282.22157   -623.69812   -69.520281   -7572.5279 
28760000    119.92705   -9683.9557   -9226.7391   -9683.9557            0    8485.3324    24.699172    24.754074    22.833232    13960.355    9144.5329    7519.0449    8792.4194    50.896384     -635.294    336.66791    -7499.147 
28761000    118.94955   -9696.0156   -9242.5257   -9696.0156            0    7993.5249     24.70176    24.766309      22.8447    13975.734    7539.0386    8904.1096    7537.4266   -244.86341   -9.8176212    288.46502   -7613.2715 
28762000    121.58754   -9679.3695   -9215.8223   -9679.3695            0    8463.2556    24.792663     24.78704    22.715603    13959.572    8045.4468     8179.822     9164.498    113.82507   -49.996497    14.857156   -7492.8216 
28763000    121.49076   -9690.9837   -9227.8056   -9690.9837            0    7481.6987    24.711125    24.723313    22.911051    13997.298     7800.435     7631.543    7013.1182   -347.98316    -1152.538    272.25724   -7700.5198 
28764000     116.8289   -9702.7642   -9257.3591   -9702.7642            0    8402.1907    24.728146    24.718193    22.825693    13951.865    7860.4465    9379.3932    7966.7324    55.144629   -494.81116     91.04631   -7547.7348 
28765000     118.7932   -9687.7587   -9234.8648   -9687.7587            0    8581.4882    24.838529    24.779354    22.658333    13945.812    7444.1695    8733.0895    9567.2057   -18.070484    191.94866   -263.93215   -7489.5157 
28766000    124.11148   -9705.3517   -9232.1821   -9705.3517            0    8009.7548    24.735605    24.735697    22.830473     13968.88    7687.6729    8009.2939    8332.2974      117.036   -121.24719    579.55456   -7600.4206 
28767000    120.50644   -9685.8672   -9226.4417   -9685.8672            0    9245.5844    24.772184     24.66366    22.767732    13910.463    8274.4817    9749.4548    9712.8167    32.119278   -1025.4639    63.635375   -7350.7915 
28768000    121.34197   -9715.7672   -9253.1563   -9715.7672            0    7970.9869    24.798841    24.743055    22.735964    13950.767    7670.9693    8003.6536    8238.3378    266.87772   -1049.6484    101.83468   -7631.3983 
28769000    118.06642   -9692.6136   -9242.4906   -9692.6136            0    8593.7435    24.708576    24.641177    22.920053    13954.837    8823.8701     8943.152    8014.2083     266.8777   -606.49569    813.37108   -7493.5178 
28770000    119.70405   -9699.1645    -9242.798   -9699.1645            0    8647.7046    24.749943    24.725527    22.744596    13918.678    8519.5695    8789.3967    8634.1475   -572.70562   -1196.4513    298.53631   -7487.4036 
28771000    117.29123   -9687.6377     -9240.47   -9687.6377            0    9011.4206    24.745246    24.710213    22.752143    13912.032    8784.0592    10109.744    8140.4589    321.73609   -327.77843    156.52252   -7412.1184 
28772000     122.1055   -9691.1406   -9225.6188   -9691.1406            0    7553.9969    24.734117     24.78102    22.836521    13997.341     6648.219    8790.8897     7222.882   -93.174959   -835.46317   -27.775164   -7683.5696 
28773000    118.01532    -9707.443   -9257.5147    -9707.443            0    8445.0902    24.719144    24.813095    22.724506    13938.268    7600.1568    9124.0816    8611.0324   -363.01749   -503.84576    670.57419   -7540.8361 
28774000    125.89665   -9686.7324    -9206.757   -9686.7324            0    8186.4017    24.707791    24.729982    22.844516     13958.53    8088.1818    8669.0122    7802.0112    199.88665    81.166074   -891.07137   -7540.2443 
28775000    117.95711   -9680.5424   -9230.8361   -9680.5424            0    8130.2342    24.714805    24.818638    22.769544     13966.56     8167.189    7625.9393    8597.5741    270.97723   -412.12506   -219.82601   -7574.8053 
28776000    125.08555   -9700.6975   -9223.8143   -9700.6975            0    7799.9028    24.695674    24.875057     22.75585    13979.062    8470.0343     7322.629     7607.045   -1700.7585    277.68444   -130.13651    -7633.646 
28777000    118.62346   -9684.0688    -9231.822   -9684.0688            0    8784.7302     24.64761    24.776152    22.834125    13944.182    9514.8588    8644.1868     8195.145    242.83865    39.775363   -187.67274   -7445.3454 
28778000    120.03573   -9701.5692   -9243.9382   -9701.5692            0    8372.5261    24.636436    24.821746     22.80505    13945.729    7921.8706    8283.8387    8911.8689    -235.5494   -86.155821    1416.4276   -7541.0991 
28779000    117.68428   -9697.0424   -9248.3762   -9697.0424            0    8180.6641    24.675614    24.879694    22.739645    13960.362    9440.8677    6601.6683    8499.4565   -264.90785   -181.79554    305.58359   -7582.8129 
28780000    121.54581   -9684.4194   -9221.0314   -9684.4194            0    8740.0858    24.575305    24.830048    22.838445    13936.156    9557.8855    8149.5963    8512.7758   -29.905176    356.09394   -753.69233   -7444.6566 
28781000    124.94525   -9691.5489   -9215.2007   -9691.5489            0    7948.7841    24.690199    24.777439    22.821368    13961.198    7808.3263    8870.7852    7167.2407    68.773111    688.38024   -187.96794   -7596.7507 
28782000    124.36985   -9692.2567   -9218.1021   -9692.2567            0    8244.7429    24.740825    24.811743    22.711682    13941.861    7778.2193    8424.9887    8531.0207    979.47447    892.71739   -737.90556   -7541.7172 
28783000    122.16403    -9692.599    -9226.854    -9692.599            0    8134.1613    24.673236    24.749804     22.86357    13961.817    8080.4812    9329.4376    6992.5651    586.26697   -146.54407   -202.73913    -7570.586 
28784000    116.61955   -9699.7797   -9255.1728   -9699.7797            0    7796.0738    24.716945    24.757658    22.829844    13970.351    7921.9395    8490.6732    6975.6088    61.849477    518.42405     480.2016   -7666.7756 
28785000    119.52119   -9717.4771   -9261.8078   -9717.4771            0    8303.9376    24.685215    24.829787    22.731091    13932.536     9124.812    7837.7465    7949.2543    258.72025    523.13232    345.12806   -7574.5162 
28786000    121.41142   -9702.4082   -9239.5325   -9702.4082            0    8396.0897    24.661984    24.782172    22.823553    13949.243    9949.0883    7155.6625    8083.5183    3.8984463    1269.9173   -401.14412   -7531.4707 
28787000    125.87077   -9718.7014   -9238.8246   -9718.7014            0    7749.7804    24.716837    24.795804     22.81857    13984.905    7477.4669    7709.1486    8062.7256   -793.49186    1118.7444   -219.20538   -7658.2143 
28788000    120.43613   -9686.4831   -9227.3257   -9686.4831            0    7991.4413    24.790106     24.77108    22.731402    13958.847    7403.3992     8027.779    8543.1457    190.83118    83.546607    256.45433   -7600.4643 
28789000    120.49837   -9709.3915   -9249.9968   -9709.3915            0    7705.2033     24.78204    24.702872    22.826995    13974.402    7113.8981    8441.6294    7560.0825   -455.13177    79.169907    466.73225   -7679.6584 
28790000    121.78824   -9707.1652   -9242.8529   -9707.1652            0    8302.6613    24.809759    24.690041    22.778493    13953.056    8027.9491     8529.224    8350.8107   -165.46768   -201.23937    374.76479    -7553.336 
28791000    117.32644   -9704.1124   -9256.8105   -9704.1124            0     8522.053    24.750683    24.719619    22.775985    13934.973    8004.9951     8587.867     8973.297   -95.855635    -459.0775   -584.26907   -7524.8968 
28792000    120.49886   -9698.4938   -9239.0972   -9698.4938            0    8671.6144    24.728931    24.704761    22.810104    13935.202    8506.5949     8878.527    8629.7213    396.02858   -594.66122   -140.11427   -7476.7596 
28793000    119.49413   -9686.9934   -9231.4272   -9686.9934            0    6974.0632    24.824791    24.795313     22.78082    14022.471    5812.4077    7578.8238     7530.958   -699.62054   -906.82038   -382.85953   -7805.2079 
28794000    118.66127   -9691.5962   -9239.2053   -9691.5962            0    8361.6572    24.783963    24.722109    22.790049    13963.733    7173.0577    8811.2175    9100.6966   -487.68027    184.29298    197.10007   -7536.3812 
28795000    119.68562   -9724.4023   -9268.1061   -9724.4023            0    7781.3294     24.79213    24.632324    22.861214    13961.064    7416.1619    8342.1795    7585.6468   -289.35243    416.81469    169.45269   -7683.7668 
28796000    127.42269   -9697.0076   -9211.2142   -9697.0076            0    8644.2351     24.78583    24.689321    22.769288    13933.559      8122.22    9473.3128    8337.1726   -636.17081   -148.39913    209.05789   -7454.6481 
28797000    120.00661   -9704.4871   -9246.9672   -9704.4871            0    7698.3007    24.849343    24.734554    22.724764     13967.49    7009.1068    7825.6793    8260.1162   -880.11411   -424.10935    178.32952   -7678.8117 
28798000    121.28851   -9705.6918   -9243.2847   -9705.6918            0    7895.2124    24.768778    24.685278    22.851373    13971.882    7581.6089    8683.4285    7420.5997   -148.29263    198.10215    564.26697   -7634.5123 
28799000    123.74748   -9695.4319     -9223.65   -9695.4319            0    8411.4067    24.784362    24.718625    22.749452    13937.119    8374.0989    8548.5448    8311.5765   -556.30088    46.344348   -31.042012   -7513.9595 
28800000    125.29245   -9696.9327   -9219.2607   -9696.9327            0    9035.5315    24.759865    24.718468    22.759701    13929.527    8926.6748    8985.1085    9194.8114    220.96371     445.0646    215.16142   -7383.7118 
28801000    119.43694   -9690.7325   -9235.3844   -9690.7325            0    8010.4497    24.753851    24.757437    22.799207    13972.309    8795.2348    6737.8459    8498.2685   -317.52492   -192.32378    439.78811   -7603.0807 
28802000    119.17582   -9687.2281   -9232.8755   -9687.2281            0    9393.4542    24.631991    24.731991    22.824582    13904.694    10507.036    9241.6678    8431.6588   -53.687429   -112.60377   -232.12659   -7328.0174 
28803000    119.28094   -9695.9905   -9241.2371   -9695.9905            0    8069.4251    24.769606     24.78882    22.740858    13963.098    7632.7218    8370.2104    8205.3433   -1119.8487    295.56608    293.74851   -7597.9998 
28804000    120.99143   -9694.6834   -9233.4089   -9694.6834            0    7270.3947    24.715396    24.827111    22.814066    13998.982    7379.6973    7161.7917    7269.6951   -675.30731    -669.1674    22.133004   -7749.0794 
28805000     124.3816   -9692.4099   -9218.2105   -9692.4099            0     9150.417    24.640923      24.7587    22.793069    13905.532     8910.795    8834.3215    9706.1345    177.07422    501.58253    364.51174    -7362.525 
28806000    120.74533   -9684.5024   -9224.1662   -9684.5024            0    8007.5292    24.745457    24.814044    22.742574    13964.733    8836.3739      7379.05    7807.1638    133.48483    395.34405    -255.9402   -7593.3423 
28807000     119.4007   -9695.5885   -9240.3785   -9695.5885            0    7546.9256    24.754736    24.744598    22.838954     13989.91    6608.6894    8424.6186    7607.4688   -291.12726   -34.580734    22.417659   -7700.5907 
28808000    118.56697   -9692.0485   -9240.0171   -9692.0485            0    9024.3915    24.676059    24.671911    22.874838    13926.328    9053.3629    9325.8991    8693.9125    337.45379   -105.41403    459.47209   -7407.1523 
28809000     117.6043   -9690.0628   -9241.7016   -9690.0628            0    7762.8611    24.795876    24.819186    22.732107    13989.645    7182.3806    7518.2312    8587.9715   -378.55456    638.23248   -930.22268   -7657.8868 
28810000    114.45548   -9697.1484    -9260.792   -9697.1484            0    8258.4839    24.706788    24.812419    22.767508    13957.283    8857.1632    7828.5544    8089.7342    259.96142    -97.76916    935.39278   -7579.7556 
28811000    119.69724   -9701.3992   -9245.0587   -9701.3992            0    7912.2683    24.660737    24.781683    22.860584    13970.893    8676.5382    8069.2482    6991.0184    162.26384   -439.79122   -156.37334    -7632.925 
28812000    119.87969   -9687.5425   -9230.5065   -9687.5425            0    9329.8274    24.743341    24.828578     22.62632    13900.298    8451.4527    9190.9703    10347.059    89.780761   -1262.9636   -89.125761    -7339.149 
28813000     122.2797   -9683.0104   -9216.8244   -9683.0104            0    8662.9651    24.683351    24.769356    22.834144    13960.583    9264.9892    9009.9247    7713.9813    171.86022   -454.47736   -119.99782    -7453.038 
28814000    121.73077   -9699.6556   -9235.5624   -9699.6556            0    8293.7932    24.662396    24.786327     22.84264    13963.482     9197.116    7443.6263    8240.6372   -588.15507   -572.94341   -181.50684   -7546.5889 
28815000    119.98106   -9717.9513   -9260.5288   -9717.9513            0    7987.9113    24.672686    24.840293    22.767708    13953.799    7705.3093    8617.5684    7640.8563   -47.853607    472.08078   -525.27163   -7634.9741 
28816000    125.49551    -9682.505   -9204.0588    -9682.505            0    8511.2972    24.650846    24.829475    22.785924    13946.525    9389.9548     7366.238    8777.6987    719.82812   -545.52359   -990.28555   -7472.8971 
28817000    117.82907   -9696.6149   -9247.3968   -9696.6149            0    9660.8163    24.579955    24.828949    22.781383    13903.352    12044.707    7780.3281    9157.4136    166.07754   -267.41903    309.52295   -7288.5105 
28818000      116.817   -9700.6741   -9255.3144   -9700.6741            0    8090.3692    24.728651    24.799447    22.756663     13955.68    7130.0174    8409.2244    8731.8658    51.526096   -283.92607    145.78907   -7608.6874 
28819000    121.02499   -9721.0839   -9259.6815   -9721.0839            0    6929.8851    24.689968    24.799509    22.874999    14006.341    6555.6159    7493.7537    6740.2858   -119.83519    494.76521   -762.76563   -7844.1268 
28820000    118.14107    -9699.107   -9248.6994    -9699.107            0     8668.352    24.673951    24.757143    22.819591    13939.496    8886.3975    7979.0626    9139.5958   -356.82492    300.27032    388.35929   -7486.4819 
28821000    119.76346   -9688.2385   -9231.6456   -9688.2385            0    9360.4437    24.703914    24.791568    22.702501    13904.119     9675.567     9521.843    8883.9211   -847.28723   -154.50783    318.09921   -7333.5599 
28822000    122.00459   -9691.1554   -9226.0183   -9691.1554            0    7510.4837    24.738289    24.733035     22.85604    13984.536    7865.1193    7185.2526    7481.0793   -816.59673    158.63339    66.966278   -7694.2542 
28823000    116.29524   -9713.2524   -9269.8819   -9713.2524            0    8504.2642    24.737348    24.809544    22.712991    13939.469    7986.7782    8257.3856    9268.6288    252.18403   -279.49009   -3.4444408   -7541.0256 
28824000    121.31209   -9692.4093   -9229.9123   -9692.4093            0    7873.4481    24.715151    24.830071    22.795328    13989.013     9273.478    6297.4315    8049.4348    429.87685    43.039498    325.14302   -7623.6076 
28825000    124.17107   -9686.4535   -9213.0567   -9686.4535            0    9020.0178     24.71947    24.712798    22.787782    13920.766    8364.5471    9617.0038    9078.5023    315.11559   -448.55031   -300.68282   -7381.8119 
28826000    119.20623   -9694.1283   -9239.6598   -9694.1283            0     8098.193    24.716255    24.737683    22.819786    13952.539    8505.4916    8343.7869    7445.3004    348.73487   -858.63416    712.54733   -7591.8114 
28827000    115.31314   -9697.6741   -9258.0478   -9697.6741            0    7725.6795     24.77288      24.7303    22.804181    13970.771    7082.1136    8573.7554    7521.1695   -615.75283   -82.315402   -293.41846   -7683.9456 
28828000    122.65443   -9679.3508   -9211.7362   -9679.3508            0    9532.5076    24.771039     24.65147    22.786092    13914.156    8696.4874    10567.486    9333.5491   -370.03047    92.406974     824.6866   -7277.3645 
28829000    119.69192   -9701.7725   -9245.4523   -9701.7725            0    7815.4696     24.70547    24.755803    22.820381    13957.031    7580.8886    8599.7317    7265.7884   -96.099354    621.35042    316.46796   -7654.6214 
28830000    119.81694    -9689.887   -9233.0902    -9689.887            0    9389.0442    24.667912    24.824782    22.690461    13895.083    9726.5675     8162.449    10278.116   -198.13605   -1087.5559    209.32725   -7330.4423 
28831000    119.20802   -9674.2994    -9219.824   -9674.2994            0    8536.6842    24.707754    24.787458     22.74494    13929.966    8531.2807    8653.8845    8424.8873   -211.57234    144.77657    116.07404   -7485.5602 
28832000    117.26959   -9691.4519   -9244.3668   -9691.4519            0     7613.669    24.698829    24.737442    22.906001    13995.242    7714.7764    7818.7008      7307.53    61.106073   -527.67315    322.76832   -7690.3693 
28833000    121.08558   -9719.6792   -9258.0458   -9719.6792            0    8910.4259    24.772072    24.677545    22.764943    13916.527    8444.8246    9326.5497    8959.9034    10.279816   -704.51461   -567.37253   -7449.6012 
28834000    121.41354   -9683.9966   -9221.1128   -9683.9966            0    7895.5131    24.830964    24.753241    22.753355    13985.278    6731.1118    8556.6031    8398.8243    410.64352    315.05829    200.19058   -7610.7366 
28835000    117.52883   -9691.1776   -9243.1041   -9691.1776            0    8190.5201    24.730098    24.664635    22.905033    13971.127    8323.7024    8203.2077    8044.6502    174.88758    445.38706   -801.57561   -7574.2483 
28836000    123.27152   -9699.0963    -9229.129   -9699.0963            0    8808.4407    24.764305    24.715507    22.743725    13920.578    8778.5797    8983.3324    8663.4099   -190.18116    396.54377    37.809134   -7440.8627 
28837000    122.54025     -9701.75   -9234.5707     -9701.75            0    8592.8886    24.797193    24.620405     22.82171     13933.04    8364.9188    9417.6689    7996.0782   -876.98515    602.88994   -149.29259   -7488.5035 
28838000    121.62829   -9683.7722   -9220.0697   -9683.7722            0    8477.6263    24.779695    24.708814    22.793302    13955.811    7850.7774    8386.3341    9195.7674   -322.77098   -853.95496     129.2715   -7494.6083 
28839000    117.09787   -9711.6062   -9265.1757   -9711.6062            0    7753.3185    24.768672     24.71842    22.825246    13974.584    7021.3058    9190.0199    7048.6297   -356.38903   -143.51636    646.55594   -7685.0108 
28840000    123.96053   -9698.1824   -9225.5883   -9698.1824            0    8481.5207    24.770144    24.732209    22.735507    13928.235    8002.7899    9046.5561    8395.2162   -123.50325   -751.43827    304.56949   -7502.7454 
28841000    115.83658   -9697.6518   -9256.0299   -9697.6518            0    8697.3658    24.725407    24.722012    22.798135    13935.629    8646.3674     8746.434    8699.2959   -183.22481   -238.03574    362.54852   -7488.4046 
28842000    118.68507   -9688.9295   -9236.4479   -9688.9295            0    7874.7466    24.755212    24.726917    22.822692    13970.228    7595.8854    8601.5322    7426.8223    445.17212   -213.23798    277.92189   -7632.0356 
28843000    121.94828   -9702.2421   -9237.3196   -9702.2421            0    7401.4165    24.730531    24.803833     22.81901    13997.454    7771.3137    6773.6453    7659.2905   -243.14836   -59.101619   -83.703932   -7726.4055 
28844000    118.04831   -9685.5315   -9235.4775   -9685.5315            0    9080.7132    24.726633    24.740638    22.770912    13930.166    10080.803    7914.3345    9247.0018    -266.4826   -71.398288    587.74305   -7390.6654 
28845000    118.96884   -9717.6116   -9264.0481   -9717.6116            0    7998.5239    24.709964    24.789233    22.783675    13955.936    7819.4381     7638.034    8538.0995     -45.2083   -116.96599    246.82203   -7636.0845 
28846000    117.66526   -9679.4627   -9230.8691   -9679.4627            0    8704.1227      24.6695    24.804572     22.79411    13948.089    9035.4908    8428.0806    8648.7969    110.23676    79.499395   -362.38039   -7460.2889 
28847000    119.64629   -9679.8782    -9223.732   -9679.8782            0    9366.2858     24.66312    24.776408     22.81549    13941.713    9424.8586    8798.5091    9875.4898    274.04558    367.02437    -183.8571   -7319.3264 
28848000    116.64522   -9715.2569   -9270.5521   -9715.2569            0    7729.8847    24.782194    24.777121    22.755768    13972.756    7582.0461     7575.658    8031.9498   -210.76771   -326.46186     302.9428   -7695.3692 
28849000    122.29721   -9694.1404   -9227.8877   -9694.1404            0    8362.6041    24.676025    24.750314    22.851344    13956.215    8835.8258     8547.727    7704.2594   -751.16624   -774.73945    136.37579   -7525.7876 
28850000    121.50162   -9711.5524   -9248.3328   -9711.5524            0    9132.5718    24.711028    24.744058    22.729671    13898.082    8824.8101    8837.0408    9735.8646    16.740216    442.33518   -289.45375   -7397.2585 
28851000    122.13209   -9713.6492    -9248.026   -9713.6492            0    8030.3844    24.719672    24.816814    22.751854    13957.432    8493.5592    8159.4018    7438.1922    681.21881   -313.41606    252.93543   -7613.4025 
28852000    123.60126   -9696.2837   -9225.0593   -9696.2837            0     7689.126    24.659107    24.791249    22.889102    13992.796    8381.1578     7575.853    7110.3674   -274.23396   -226.30062    573.45831   -7655.9349 
28853000    121.53929   -9697.4648   -9234.1015   -9697.4648            0    7561.3919    24.732816    24.807544    22.776442    13974.723    7710.1354    7422.9049    7551.1353   -223.64082   -657.97881    1117.4892   -7693.0369 
28854000    122.37752   -9700.8746   -9234.3157   -9700.8746            0    8802.6573    24.672564     24.81946    22.761416    13938.174    8809.0715    8618.1448    8980.7557   -84.816604    276.05974    185.03758   -7444.9646 
28855000    123.88187   -9697.1074   -9224.8133   -9697.1074            0    8801.6862    24.669545    24.767413    22.781306    13919.396    9320.2888    8402.6821    8682.0876   -672.94604    270.62507    485.81833     -7438.07 
28856000     121.1374   -9712.7492   -9250.9181   -9712.7492            0    9012.6453    24.616235    24.808385    22.803193     13925.66    10352.215    7973.5691    8712.1523   -79.104596   -24.214602   -24.117411   -7420.5267 
28857000    125.22414   -9717.3497   -9239.9382   -9717.3497            0     8031.467    24.689442    24.848755    22.742732     13952.71    8994.2264    6537.9379    8562.2365    52.682449    650.70285    1004.9743   -7605.6474 
28858000    122.87807   -9703.8705   -9235.4033   -9703.8705            0    8934.2161    24.610449    24.765576     22.83108     13915.36    8796.0531    9318.6454    8687.9498   -628.53816   -857.34782   -524.13955   -7422.2823 
28859000    117.47359   -9695.3408   -9247.4779   -9695.3408            0    7710.4175    24.754514    24.738196    22.841284    13987.592    7890.7006    7754.7349     7485.817    -504.1777    -567.5493   -237.07129   -7674.5937 
28860000    117.54198   -9687.1671   -9239.0435   -9687.1671            0    9810.2961    24.736496     24.72761    22.711581    13892.094    9469.8409     10029.75    9931.2969   -102.30551   -623.62989    1161.9601   -7251.4585 
28861000     120.6023   -9697.5245   -9237.7335   -9697.5245            0    8488.9773    24.729659    24.709786    22.809031    13937.791    8790.9317    8815.2609    7860.7394    -393.8233    652.14122   -1000.3472   -7512.1928 
28862000    120.96315   -9693.7044   -9232.5377   -9693.7044            0    8225.6934    24.762058    24.733599    22.789074    13957.279    8577.1276     8344.687    7755.2658   -459.13614    508.76472    636.42552   -7558.1765 
28863000    125.19575   -9715.1417   -9237.8384   -9715.1417            0    8357.2006    24.690134    24.689049     22.88227    13948.481    9163.6028    7852.4168    8055.5821    404.64645   -3.0835844    -6.605494   -7537.7808 
28864000    128.32263    -9696.652   -9207.4276    -9696.652            0    8229.6682    24.793354    24.776099    22.717414    13954.912    7355.6569    8827.9435    8505.4041   -1360.8268    402.23552    287.24288   -7532.5414 
28865000    123.81915   -9687.6963   -9215.6413   -9687.6963            0    8440.7759    24.745138    24.705712    22.844477    13965.886    8501.7155    9090.4158    7730.1965    406.32396   -84.357316   -643.69182   -7496.4399 
28866000    119.18667   -9704.4912   -9250.0972   -9704.4912            0    8098.8173    24.813071    24.643872    22.818022    13952.996    7366.9789    8849.2197    8080.2534   -46.291595    224.84091   -130.08593   -7602.0678 
28867000    116.01962   -9705.9331   -9263.6134   -9705.9331            0    8327.2003    24.767141    24.731238    22.758194    13939.895    7543.2523    8750.4079    8687.9406   -719.81497    200.79109   -522.34405   -7570.7013 
28868000    117.89685    -9717.401   -9267.9245    -9717.401            0    7145.1712    24.771431     24.80118    22.766697    13986.964    7186.3738    7060.6376    7188.5021   -1552.3818   -914.71153    999.26299    -7810.413 
28869000     122.2748   -9706.2002   -9240.0329   -9706.2002            0     7879.644    24.705178    24.746524    22.850931    13970.311    7741.2265    7920.6631    7977.0424   -425.84314    1160.0712    202.77682   -7634.6133 
28870000    118.99369   -9697.4606   -9243.8024   -9697.4606            0    8469.2242    24.775896    24.785499    22.700869    13940.216    7862.7715    9077.7211    8467.1802    30.031086    469.73508     199.3024   -7521.9773 
28871000    119.06153   -9705.3189    -9251.402   -9705.3189            0    7664.3522    24.732057    24.777473    22.803292    13973.809    7970.9473    7097.2052    7924.9041    90.586219    380.61724   -868.12996   -7689.4556 
28872000    121.36975   -9688.3403   -9225.6235   -9688.3403            0    8362.8656    24.709993    24.704362    22.876148    13964.621    8402.4538    9344.7161    7341.4269    412.88027   -520.12825    958.17638    -7522.445 
28873000    121.34303   -9720.0797   -9257.4647   -9720.0797            0    7530.2795    24.784288     24.81478    22.721046    13973.822    6994.8842    7411.3522    8184.6021   -19.790823   -398.47137    483.60072     -7722.84 
28874000     123.1323    -9692.161   -9222.7245    -9692.161            0     7710.369    24.785532    24.816196    22.737485    13985.432    7521.8385    7010.4399    8598.8284    295.48579     -403.255   -512.28948   -7650.0931 
28875000    121.33255   -9676.4259   -9213.8509   -9676.4259            0    8485.7845    24.645636    24.757692     22.85817    13947.348    9582.9827    8232.8349     7641.536   -446.44845   -491.54482    -78.88862   -7487.7764 
28876000    123.33757   -9707.9166   -9237.6975   -9707.9166            0    8617.4862    24.760653    24.723436    22.766657    13937.028     8249.768    9503.4606    8099.2299    742.06451    1417.4061    531.12126   -7486.1309 
28877000    122.17656   -9700.2398    -9234.447   -9700.2398            0    7709.5548    24.803885    24.746945    22.790471    13989.256    6738.0101    8578.7457    7811.9085    -315.6221   -316.23022    108.45741   -7661.5518 
28878000    121.50516   -9705.5083   -9242.2752   -9705.5083            0    8388.1287    24.688424    24.655914    22.912344    13947.102    8133.8278    8706.9869    8323.5715   -555.70564    -1079.012   -443.92783   -7536.0948 
28879000    118.72203   -9685.8941   -9233.2716   -9685.8941            0    8342.2585    24.757171     24.75345    22.774102    13956.548    7960.7001    8126.4674    8939.6082    -142.0334   -392.56456   -384.41159   -7535.2721 
28880000    118.39671   -9704.0408   -9252.6585   -9704.0408            0    8660.6793    24.798651    24.725042    22.723729    13933.002    8221.4081    8978.5841    8782.0457   -33.870995   -249.31685   -305.58163   -7492.8211 
28881000     120.4023   -9714.3559   -9255.3274   -9714.3559            0    8139.8485    24.718355    24.696287    22.839708    13942.536    8064.3433    8702.9499    7652.2522   -199.93422    520.22388   -328.14583   -7600.1903 
28882000    121.15404   -9710.5389   -9248.6445   -9710.5389            0    7722.6364    24.712398    24.734309    22.866912    13977.265    7443.7658    8280.4409    7443.7024    -859.2209   -846.06789    418.19391   -7674.4308 
28883000     121.5901   -9706.5498   -9242.9928   -9706.5498            0    8134.5655    24.719922    24.830164    22.735916    13955.299    7590.3317    7783.0219     9030.343   -533.58116     66.20532    710.39906   -7587.4158 
28884000    118.36787   -9707.9977   -9256.7254   -9707.9977            0    8300.8261    24.652764     24.74409    22.857978      13943.6    8891.4074    7886.9319    8124.1392    -424.9942   -580.52597    459.96745   -7568.7266 
28885000    117.64615   -9713.5279   -9265.0071   -9713.5279            0    8096.3816     24.66045    24.797746    22.823718    13957.242    8832.2071    7402.5505    8054.3872   -124.05381   -844.45309    667.66968    -7616.972 
28886000    121.32422   -9697.2267   -9234.6834   -9697.2267            0    8037.2233    24.710821    24.773727    22.790788    13952.045    8975.6147    7091.8321    8044.2232    454.68832    82.882796    -1080.429   -7599.2993 
28887000    117.69278   -9698.7133   -9250.0148   -9698.7133            0    8253.1262     24.73364    24.750211    22.797746    13955.932    8337.4065    7855.5366    8566.4356    165.50074     244.7943    337.51414   -7570.2316 
28888000    121.11042    -9697.916   -9236.1879    -9697.916            0    8333.3264    24.729952    24.739397    22.812923     13957.04    7971.1216    8548.3939    8480.4635   -392.47232    365.85355   -715.26984   -7539.9468 
28889000    117.27033   -9702.1396   -9255.0516   -9702.1396            0     8483.198    24.795968    24.727368    22.736343    13940.539    7402.9612    9137.6623    8908.9705    -75.11954    733.30957    875.43879   -7530.3457 
28890000    120.20683    -9696.385   -9238.1017    -9696.385            0    8465.8566    24.755631    24.714427    22.815714    13959.139    8391.9734    8410.8059    8594.7906   -780.43498   -1228.9387   -359.83965    -7514.625 
28891000    119.95717   -9709.7955   -9252.4641   -9709.7955            0    8645.6048    24.789221    24.629954     22.80061     13921.08    8366.1812    9171.8986    8398.7348    339.29238    340.26565    697.57827   -7497.1929 
28892000    118.92129   -9709.1465   -9255.7644   -9709.1465            0    8591.0819    24.743477    24.747321    22.777823    13947.653    8529.1104    8827.0746    8417.0608    637.41637   -683.58617    332.93727   -7508.2334 
28893000    122.83506   -9713.0629   -9244.7596   -9713.0629            0    7027.9339    24.763969    24.696145    22.888436    13997.986    5566.8454    8441.4568    7075.4994   -144.88338    377.88953    -335.6023   -7810.0332 
28894000    123.05555   -9712.1116   -9242.9678   -9712.1116            0    7970.8545    24.763476    24.717497      22.8086    13960.942    8208.0698    7845.8253    7858.6683   -415.60253   -986.63662    314.80055   -7620.0538 
28895000    122.27125   -9675.2633   -9209.1095   -9675.2633            0    8539.4261    24.733375    24.812886    22.767346    13972.466    9166.8957    7689.2419    8762.1406    167.20305   -181.72015    110.45016   -7468.9958 
28896000    123.96459   -9715.1306    -9242.521   -9715.1306            0    8801.8237    24.663117    24.753161     22.81406    13927.758    9381.6957     8076.684    8947.0914    197.93608   -213.44069    255.31421   -7454.6764 
28897000     119.0289   -9704.9176   -9251.1251   -9704.9176            0    6983.3699    24.732681    24.853486    22.794063    14011.358    7669.8781    6381.9225    6898.3092   -142.11191    466.24181    269.09212   -7824.1343 
28898000    117.71991   -9711.7606   -9262.9586   -9711.7606            0    7904.2871    24.771984    24.845928    22.706509    13975.469     7196.905    7370.2966    9145.6598   -403.56233    279.42926   -268.48347   -7651.9236 
28899000    123.08777    -9704.166   -9234.8993    -9704.166            0    8855.4761    24.681501    24.714708    22.845812    13935.856    9248.0091    8975.0051    8343.4141   -442.99598   -773.21885    507.64554   -7435.1109 
28900000    120.82383   -9703.5182   -9242.8827   -9703.5182            0    8720.5627    24.777766    24.728989    22.703933    13911.361    8232.7964    8667.6851    9261.2066    187.38734   -274.22387   -407.52557   -7473.6294 
28901000    123.02385   -9705.5369   -9236.5138   -9705.5369            0    7933.3483    24.768756    24.768856    22.768828    13968.533     7959.418    7720.6179    8120.0089   -127.46501    298.43036    418.76816   -7620.3581 
28902000    119.61272    -9706.957   -9250.9387    -9706.957            0    8763.7089    24.712438    24.724178    22.809511     13936.49    8539.2278    9044.2367    8707.6622    448.81929   -116.68329   -469.52376     -7469.72 
28903000    123.41488   -9701.0123   -9230.4985   -9701.0123            0    8365.5935    24.729636    24.745081    22.791522    13946.972    8301.6501    8376.8954    8418.2349   -156.24684    17.761089   -201.50155   -7528.9176 
28904000    118.60851   -9708.0541   -9255.8644   -9708.0541            0      8359.46    24.754172    24.811655    22.712899    13950.081    8284.7114    7598.7517    9194.9169   -344.74572   -80.543218   -166.75151   -7555.1522 
28905000    120.77354   -9703.9144   -9243.4706   -9703.9144            0    7833.0717    24.722947    24.696725    22.884879    13972.953    8487.0623    8505.7961    6506.3569   -42.729344    183.86969    793.46293   -7647.2379 
28906000     112.5581   -9707.7403   -9278.6175   -9707.7403            0    9259.2428     24.68369    24.706532    22.808054    13909.455    9215.3522    9052.1887    9510.1874   -361.11839   -472.44604    17.901613   -7400.3326 
28907000    120.79858   -9704.0535   -9243.5143   -9704.0535            0      8219.93    24.795213    24.757107    22.702394     13936.04    7381.4601    8582.5706    8695.7593    218.26615    84.133012   -542.62597   -7572.8722 
28908000    123.83241   -9702.9458   -9230.8402   -9702.9458            0    9582.1908    24.774895    24.669755    22.741865    13899.614     8457.016    10012.906     10276.65   -25.473242   -1002.2103   -176.83624   -7288.4188 
28909000    122.84581   -9693.7255   -9225.3813   -9693.7255            0    8260.9206    24.756389    24.718154    22.806286    13955.901    8961.0033    8511.4806     7310.278   -200.33649    293.01531   -468.29642   -7544.0154 
28910000    119.69891   -9697.4454   -9241.0985   -9697.4454            0    8459.6342    24.706454    24.810155    22.751555    13946.042    8413.2977    8214.2725    8751.3322     351.5235    1028.4614   -135.95556   -7520.5043 
28911000    119.46627   -9719.3692   -9263.9093   -9719.3692            0    8373.6498    24.671007     24.79425    22.774957    13931.421    8927.3879    7995.9749    8197.5867   -540.64931    336.67369    847.94506   -7562.5889 
28912000    121.00285    -9715.912   -9254.5939    -9715.912            0    6640.8488    24.704366    24.803282    22.889836    14025.733    7152.7159    6204.8921    6564.9382   -120.91051    855.66206    611.07817   -7896.2022 
28913000    117.52292   -9681.0877   -9233.0367   -9681.0877            0    8840.2859    24.689914    24.799203    22.768195    13940.742    9390.2351    8614.8316     8515.791   -328.08823   -158.67022    81.985406   -7435.7056 
28914000    117.88529   -9700.4845    -9251.052   -9700.4845            0    8325.2498    24.660277    24.832829     22.75744    13936.302    9025.9372    7297.9959    8651.8163   -490.03617     438.1371   -57.783615   -7558.9727 
28915000    121.38103      -9704.2   -9241.4401      -9704.2            0    7731.6762    24.684978    24.787851    22.843002    13977.348    7714.6315    7908.9618    7571.4354    171.17889   -342.43527    314.09419   -7665.3744 
28916000    121.77891   -9694.8277    -9230.551   -9694.8277            0    7191.2868    24.708416     24.83533    22.830472    14009.729    8060.5471    6784.1505     6729.163   -355.28932   -471.62923    266.77376   -7761.2451 
28917000    113.06767   -9697.7417   -9266.6762   -9697.7417            0    8487.0676    24.702384    24.792324    22.771105    13945.696    8670.8957    8134.8689    8655.4381    383.29491    285.58963    405.20768   -7540.5452 
28918000    126.26165   -9697.2793   -9215.9123   -9697.2793            0     7652.718    24.730589    24.796225    22.778699    13968.473    8052.9516    7088.7992    7816.4032   -178.24927   -1017.7205    428.35095   -7656.9323 
28919000    120.20844   -9695.2526   -9236.9632   -9695.2526            0    8370.8981    24.693299    24.714297    22.848387    13943.857    9215.3212    8356.8633    7540.5097    285.00861    1.2823619   -244.60903   -7534.6836 
28920000    121.04899   -9706.9523   -9245.4584   -9706.9523            0    8806.1388    24.802438    24.752817    22.689516    13929.779    8023.6672     9048.384    9346.3652   -769.68317   -111.65045   -318.23979   -7456.4777 
28921000    120.45587   -9704.9268   -9245.6941   -9704.9268            0    7774.0209    24.728687    24.716493    22.853346    13968.111    7635.8721    8626.5262    7059.6644   -131.81032   -380.30421    120.45433   -7662.0438 
28922000    121.19516   -9699.4577   -9237.4065   -9699.4577            0    9456.9922    24.705755    24.688757    22.781048      13895.4    8633.5041    10431.193    9306.2797    83.578222    313.92326    196.40366   -7320.9456 
28923000    120.09247   -9702.4702    -9244.623   -9702.4702            0    7625.8641    24.786688    24.779954    22.771983    13986.848     6867.604    7698.7133    8311.2749    125.28192    474.26469      431.906     -7689.07 
28924000    118.73684   -9698.9083   -9246.2293   -9698.9083            0    8544.6566    24.669575    24.745427    22.814681    13927.431    9122.6613     8554.825    7956.4835   -521.29094    57.526085    181.56057   -7510.6618 
28925000    122.48492   -9707.3941   -9240.4257   -9707.3941            0     8222.127    24.717934     24.78211    22.761055     13942.57    8084.7476    8341.0342    8240.5993   -163.56977   -71.162641   -470.34703   -7568.5542 
28926000    119.80549   -9703.8178   -9247.0647   -9703.8178            0    8449.6045    24.765643     24.76655    22.725487    13938.894    7794.7134    8571.8511    8982.2489   -940.26624   -1432.4207    434.16063   -7529.3913 
28927000    120.63894    -9694.325   -9234.3943    -9694.325            0    8252.2815    24.694514    24.676399     22.90563    13958.043    8241.2433    8898.0996    7617.5016   -540.64606    273.97105   -32.993356   -7554.5291 
28928000    118.97783   -9697.6879   -9244.0901   -9697.6879            0    8318.1185     24.71014    24.777537    22.786749    13951.333    8959.3576    7622.9547    8372.0432    766.14368    157.58074   -137.39171   -7551.6368 
28929000    119.62695   -9701.0704    -9244.998   -9701.0704            0     9175.488    24.805208    24.709625    22.694662     13910.18    7737.8342    9612.9552    10175.675   -582.37885   -563.41807    1195.4684   -7383.6061 
28930000     120.3844   -9710.1778   -9251.2175   -9710.1778            0      8781.48    24.683999    24.709861    22.833419    13926.974    9877.2791    8251.6783    8215.4825   -456.99514    423.80664    25.600081   -7467.6056 
28931000    121.66887   -9718.0516   -9254.1944   -9718.0516            0    7095.7473    24.765172     24.78698    22.818596    14007.283    7067.6323    6995.0652    7224.5443   -214.56699   -359.06946    875.90184    -7804.662 
28932000    118.25503   -9676.1134   -9225.2713   -9676.1134            0     7747.083    24.753638    24.790879    22.785846    13982.864    8073.8056     6973.777    8193.6663   -35.163804   -404.14344    59.693049   -7645.4418 
28933000    117.62122   -9687.9311   -9239.5054   -9687.9311            0    9262.1948    24.720055    24.675451    22.816383    13917.503    9387.7741    10041.824    8356.9864   -567.83298   -226.84988   -13.353934   -7359.5345 
28934000    121.45669    -9699.969   -9236.9207    -9699.969            0    8015.0524    24.736361    24.729823    22.824218    13962.164     8263.061    8265.3084    7516.7877    76.541785   -16.892054    506.65338   -7604.8651 
28935000    125.65709   -9697.8573   -9218.7951   -9697.8573            0    7807.3527    24.856289    24.810865    22.655046    13971.503     6166.867     8237.077    9018.1141    384.12294    258.57398    462.28257   -7627.9686 
28936000    125.07573   -9705.7833   -9228.9376   -9705.7833            0    7176.3311    24.776744     24.74915    22.840135    14005.647    6549.3235    8008.7157    6970.9543   -429.80632   -109.04834    504.31748   -7763.1145 
28937000    118.47105   -9710.6662   -9259.0005   -9710.6662            0    9068.6507    24.755646    24.686168    22.739443    13896.575    8341.9477    9624.9271    9239.0773    198.30925   -561.64807    71.628688   -7421.0816 
28938000    123.21523   -9695.1951   -9225.4425   -9695.1951            0    7731.4024    24.790126    24.754299    22.773753    13975.391    7456.6122    8155.4166    7582.1783    203.91882    6.0932054   -155.47041   -7649.6533 
28939000    117.92658   -9712.8655   -9263.2756   -9712.8655            0    8475.6616    24.726521    24.664404    22.854496    13938.155    8493.4959     8958.128     7975.361   -255.35907   -501.88387    531.82084   -7540.3966 
28940000    121.35573   -9681.2771   -9218.6137   -9681.2771            0    8766.0223    24.731419    24.766815    22.764024    13943.386    7869.3491    9376.8989    9051.8191   -602.12225   -5.4524317    111.17667   -7436.0433 
28941000    122.16071   -9700.5543   -9234.8219   -9700.5543            0    8185.5744    24.784366    24.735423    22.753149    13948.858    7250.6439    8862.3227    8443.7566   -503.29077   -678.30842    41.780565   -7569.6322 
28942000    121.89954   -9699.6608   -9234.9242   -9699.6608            0    7560.4729    24.770838    24.731879    22.836526    13990.326    7029.2883    8044.8719    7607.2584   -61.963367    -252.9271   -261.91327   -7692.3265 
28943000    119.97039   -9702.4035   -9245.0216   -9702.4035            0    8019.9497    24.780425    24.792004    22.748514    13975.695    7969.8686    7724.6809    8365.2996    61.630176   -36.995841   -231.76123    -7610.386 
28944000    119.81231   -9697.9923   -9241.2131   -9697.9923            0    8229.1766    24.720013    24.797545    22.757975    13950.539    8695.4032    7494.5519    8497.5747    172.97345   -276.65125    230.94195   -7566.9517 
28945000    121.61623   -9703.3809   -9239.7243   -9703.3809            0    7884.6763    24.598083    24.755681    22.931044    13963.683    9911.6978    7261.7549    6480.5762   -185.09971   -689.99113     250.6613   -7634.0416 
28946000    122.90788     -9700.68   -9232.0991     -9700.68            0    8122.5913    24.766925    24.789278    22.735742    13958.704    7854.3163    8296.1029    8217.3549   -141.31091   -1264.6205   -207.11896   -7578.5557 
28947000    120.99588   -9707.2468   -9245.9553   -9707.2468            0    7493.6977    24.735735     24.78799    22.818392    13991.078    7074.1543     7685.436    7721.5029   -388.52775   -45.870389    571.14226   -7716.8999 
28948000     123.1072   -9700.6336   -9231.2928   -9700.6336            0    8408.9542     24.66263    24.749568    22.853584    13949.586    8599.5307    8306.9975    8320.3345    32.829456   -426.64838   -132.81796   -7520.5717 
28949000    125.32815   -9702.2859   -9224.4779   -9702.2859            0    8241.9309    24.749749     24.78599    22.733709    13945.926    7533.2975     8562.496    8629.9991   -210.92211     256.3077   -449.49634    -7548.176 
28950000    118.06284   -9689.8136   -9239.7042   -9689.8136            0     8941.432    24.730007    24.747385    22.777579    13939.947    8189.7941    9526.3567    9108.1452    693.41959     510.1092    722.80743   -7421.9126 
28951000    123.26162    -9692.451   -9222.5215    -9692.451            0    7866.8236    24.772815    24.741495    22.812204    13981.976      8196.03    7564.9795    7839.4615    47.945524   -145.44787    379.58015   -7618.3757 
28952000    122.39665   -9707.3009   -9240.6691   -9707.3009            0    8750.5626    24.707046    24.824835    22.700703    13923.439    8828.8296    7930.8232     9492.035     148.0309    -721.6066    420.09051   -7463.7879 
28953000      118.489   -9710.5624   -9258.8283   -9710.5624            0    8929.8221    24.637838    24.712814    22.883616    13933.155     9381.531    8569.7866    8838.1487   -119.25387    53.273345   -383.67424   -7444.2816 
28954000    119.74175   -9689.1344   -9232.6242   -9689.1344            0     7603.128    24.791511    24.833641     22.69631    13973.289    6563.1204     8080.426    8165.8376    -538.9082   -116.68728   -99.378346   -7683.2125 
28955000    118.35027   -9701.7607   -9250.5555   -9701.7607            0    8534.2563    24.724859    24.766745    22.750773    13931.533    8671.4183    8418.6169    8512.7336   -118.20973   -396.22296   -209.69214   -7516.5899 
28956000    111.86168   -9702.2424   -9275.7746   -9702.2424            0     8531.801    24.678944    24.707747    22.868921    13944.579    8837.4028    8526.2637    8231.7366   -30.596305    234.99513   -387.80403   -7540.6847 
28957000    120.19238   -9696.9597   -9238.7316   -9696.9597            0    8528.4759    24.726667     24.78118    22.765175    13949.497    8637.1021     8942.592    8005.7337    205.52274   -579.94825    233.40901   -7503.7061 
28958000    119.82455   -9696.0463   -9239.2204   -9696.0463            0    8662.1779    24.717221    24.750085     22.77283    13931.354    9091.6974    8296.8805     8597.956   -209.38481    200.91817     313.9217   -7479.2867 
28959000    121.47961   -9684.6637   -9221.5281   -9684.6637            0    8679.3544    24.771002    24.681644    22.785791    13930.984    7785.1286    9557.9006     8695.034   -382.06445    2.9300604    -135.2748   -7458.1514 
28960000    116.79858   -9680.5822   -9235.2927   -9680.5822            0    8462.1893    24.758977    24.698955    22.833821    13963.358    8399.1553    8967.2053    8020.2074    125.35344   -1130.9976   -243.64369   -7512.0419 
28961000    125.02479   -9707.0621   -9230.4106   -9707.0621            0    7790.5508    24.830973    24.646722    22.819085    13965.327    6990.9034    8312.9425    8067.8064    647.04984   -588.21476    471.85656   -7643.7093 
28962000    119.31187    -9696.288   -9241.4167    -9696.288            0    8939.8394    24.792242    24.704963    22.724484    13918.552    8128.3429    9268.4585    9422.7169   -311.05783   -107.27568   -83.224401   -7426.7384 
28963000    119.31238   -9704.0013    -9249.128   -9704.0013            0    8359.9506    24.713395    24.671999     22.88259    13952.176    8239.8667    8813.5898    8026.3952    313.32332   -439.64196   -911.13175   -7548.0606 
28964000    123.52221   -9705.2892   -9234.3663   -9705.2892            0    7515.6817    24.804284    24.722734    22.809599    13987.524    7252.0009    7876.3959    7418.6483    180.92076   -179.91792   -49.673911   -7701.2147 
28965000    115.16351    -9677.132   -9238.0761    -9677.132            0    9270.6876    24.791945    24.664974    22.750571    13911.808    8588.9903    9790.1851    9432.8876    -275.7211    877.34839    415.48953   -7357.1514 
28966000    118.46104   -9710.7796   -9259.1521   -9710.7796            0    8065.5621    24.756931     24.71867    22.803659    13954.891    7408.1356    8434.0267    8354.5239   -803.02767   -326.20827    780.74234   -7617.6669 
28967000    122.40504   -9693.4335   -9226.7697   -9693.4335            0    8525.1097    24.685086     24.83332    22.749264    13945.586    8276.3878    8332.8503    8966.0908    57.836368   -406.75928    1038.4809   -7492.9153 
28968000    122.54519   -9708.6657   -9241.4676   -9708.6657            0    7396.8383    24.727889    24.806568    22.788107    13978.545    7351.6149    7578.3296    7260.5705    247.21057    40.030825    369.04935   -7733.5278 
28969000    121.51987   -9711.0811    -9247.792   -9711.0811            0    9761.7414    24.622183    24.691632    22.831885    13880.916    9663.9322    10711.141     8910.151   -478.87315   -774.71395   -168.94185   -7271.6356 
28970000    118.22682   -9693.4387   -9242.7041   -9693.4387            0    8581.7583    24.719204    24.742772    22.794128    13941.382    8591.2788    8962.2286    8191.7675   -101.00511   -609.91623    147.94191   -7497.8546 
28971000     118.3286   -9699.6824   -9248.5598   -9699.6824            0    6930.5129    24.749866    24.843624    22.797886    14017.881    6563.7438    7257.7988    6969.9961   -369.20183   -402.72806     237.7167   -7831.7105 
28972000    120.44855   -9709.1568    -9249.952   -9709.1568            0    8731.2945    24.670058     24.74088     22.82508    13931.492    8775.1854    8686.2851    8732.4131   -5.8406154    120.36917    646.35911    -7475.958 
28973000    120.59587   -9704.6101   -9244.8436   -9704.6101            0    8172.9656    24.696441    24.777012    22.801319    13952.219    8321.1834    8131.6941    8066.0193   -376.22961   -121.20133    174.24481   -7581.8184 
28974000    124.65479   -9689.8554   -9214.6145   -9689.8554            0     7206.046    24.721416    24.895518    22.759067    14007.124    8250.2186    6087.2016    7280.7176    476.42782     521.7257    709.50949   -7742.5668 
28975000    119.51402    -9703.042   -9247.4001    -9703.042            0    8148.3995    24.647226    24.801871    22.822585    13951.385    9097.0325    8167.7994    7180.3666   -606.92695   -277.37334    785.36206   -7589.4726 
28976000    122.90157   -9705.2039   -9236.6471   -9705.2039            0    8818.5886    24.638667    24.846692    22.752606    13928.904    9247.4091    8529.5468    8678.8099   -27.834855   -441.46572   -279.56107   -7445.2498 
28977000    120.35325   -9687.5639   -9228.7224   -9687.5639            0     8185.419    24.710168     24.86394    22.712908    13954.632    8456.1849    7030.9879    9069.0842    -132.5382    -243.9272     865.1791   -7562.8751 
28978000    121.74484    -9696.044   -9231.8971    -9696.044            0    7846.1946    24.672542     24.78981    22.855604    13979.119    8431.7427    7982.8318    7124.0093    -381.8416    217.52769   -241.44491   -7632.2848 
28979000     121.4911    -9716.215   -9253.0355    -9716.215            0     7835.303     24.67468    24.796867    22.834342    13971.301    7813.5485    7826.9926    7865.3678    47.524543    168.90525   -95.037024    -7656.537 
28980000    120.37575   -9695.9451   -9237.0178   -9695.9451            0    8190.4754    24.672282    24.802796    22.798982    13951.645     9392.975     7650.105    7528.3461   -561.52743   -616.44677     781.1272   -7570.4983 
28981000    125.84444   -9699.6993   -9219.9229   -9699.6993            0    8186.5401    24.645947      24.8733    22.758819    13951.748    9387.5883    6965.6279    8206.4042   -215.60479   -277.42178   -397.50997   -7554.1918 
28982000    121.87225   -9695.8748   -9231.2421   -9695.8748            0    7904.5194    24.723712    24.789659    22.799677    13973.749    8030.7427    7850.5027    7832.3127   -458.87129    93.031417    514.98941   -7620.3581 
28983000    122.71248   -9686.3498   -9218.5139   -9686.3498            0    9127.4138    24.676041    24.739839    22.784625    13909.587    9531.8485    9069.0919    8781.3011    328.94572   -162.79181     317.3751   -7366.9535 
28984000    126.66013   -9716.9507   -9234.0645   -9716.9507            0    7792.1109    24.742884     24.77671    22.782329    13966.644    8289.6703     7340.731    7745.9313       373.79    454.09354   -36.884135   -7646.8958 
28985000    120.14012   -9712.8289   -9254.7999   -9712.8289            0    7814.7076    24.761094    24.733134    22.800022    13963.177    7558.0391     8304.037    7582.0466   -886.08241   -129.99362   -366.80813   -7663.4237 
28986000    120.84778   -9688.2281   -9227.5012   -9688.2281            0    8851.8167    24.691561    24.762352    22.781668    13929.193    9801.9527    8565.7849    8187.7125   -397.29925   -436.42231    115.58891   -7429.3167 
28987000    121.05837   -9707.7166   -9246.1869   -9707.7166            0    9025.6819    24.722913    24.730875     22.76217    13917.229    8860.1082     8929.299    9287.6384   -325.10315   -473.24741   -470.31011   -7414.2577 
28988000     125.6158   -9693.1577    -9214.253   -9693.1577            0      7780.61     24.78565    24.740278    22.796656    13978.998    7559.8841    8075.3984    7706.5475   -33.818941   -446.04273    694.07353   -7628.0251 
28989000    118.77741   -9688.7894   -9235.9557   -9688.7894            0    7985.2168    24.789945    24.724723    22.795176    13971.723     7469.189    8347.8036    8138.6579   -600.93619   -198.55535    613.17777    -7608.862 
28990000    119.74443   -9675.0256   -9218.5052   -9675.0256            0    8566.7879    24.772545    24.674669    22.827201    13953.226     7692.119    9230.2311    8778.0136    496.26734    1380.2016    391.14658   -7475.2196 
28991000    118.85018   -9678.0597   -9224.9486   -9678.0597            0    9092.4512    24.838461    24.686053    22.711979    13926.158    7838.0107    10164.994    9274.3486    222.66349    288.00701    389.16142   -7378.2833 
28992000    121.60057   -9688.6155   -9225.0187   -9688.6155            0    8756.2676    24.712915    24.765428    22.788253    13947.001    8519.8132    8629.5531    9119.4364   -604.63548   -553.92082    291.87434   -7443.9701 
28993000    118.11922     -9696.49   -9246.1657     -9696.49            0    7232.6135    24.692281    24.839817    22.806075    13988.146    8161.6179    6656.4017    6879.8211    141.13373    684.04928    446.68652   -7770.6925 
28994000    121.60125   -9710.4516   -9246.8521   -9710.4516            0    8701.0978    24.669845    24.778579    22.770878    13919.467    9516.9334    8388.2959    8198.0641    228.09886   -360.92834      17.6378   -7480.5193 
28995000    121.07893   -9694.8647   -9233.2566   -9694.8647            0    9060.5818    24.597724    24.727906    22.875887    13914.263    9713.1529    8964.2632    8504.3295   -328.17696   -554.77414   -51.935923   -7394.6358 
28996000    119.73723   -9703.5089    -9247.016   -9703.5089            0    8532.3534    24.726331     24.75402    22.752905    13926.509    8185.8093    8808.3133    8602.9376   -14.862061    366.15044    414.09919   -7514.0621 
28997000    123.15125   -9681.2172   -9211.7084   -9681.2172            0    8686.9998     24.71234    24.763373    22.775033    13937.429    8683.8628    8743.4541    8633.6826   -981.72052   -843.98475    604.17621   -7445.9618 
28998000    119.44585   -9712.8158   -9257.4337   -9712.8158            0    8631.2512    24.747813    24.722988    22.772416    13933.072    8262.0674    8842.1447    8789.5415    168.12455   -185.57665    813.79354   -7503.5672 
28999000    113.43026   -9698.6949   -9266.2471   -9698.6949            0    8867.8143    24.774655    24.632323    22.833398    13934.248    7599.1266    10618.002     8386.314     233.0548   -83.863059    14.981799    -7464.159 
29000000    122.90492   -9697.3414   -9228.7718   -9697.3414            0    7954.1428     24.84509    24.678932    22.790761    13974.162    7618.0329    7793.8352    8450.5604   -318.19483    23.427081   -705.33221   -7607.7269 
Loop time of 631.521 on 64 procs for 250000 steps with 1920 atoms

Performance: 68.406 ns/day, 0.351 hours/ns, 395.869 timesteps/s
369.0% CPU use with 16 MPI tasks x 4 OpenMP threads

MPI task timing breakdown:
Section |  min time  |  avg time  |  max time  |%varavg| %total
---------------------------------------------------------------
Pair    | 73.36      | 76.017     | 81.528     |  23.8 | 12.04
Bond    | 1.5993     | 1.8249     | 2.7001     |  19.6 |  0.29
Kspace  | 291.94     | 307.48     | 322.21     |  39.4 | 48.69
Neigh   | 0.39627    | 0.41732    | 0.43572    |   2.2 |  0.07
Comm    | 72.835     | 90.639     | 99.329     |  69.7 | 14.35
Output  | 0.57637    | 0.57675    | 0.57823    |   0.1 |  0.09
Modify  | 106.83     | 112.75     | 124.73     |  50.9 | 17.85
Other   |            | 41.82      |            |       |  6.62

Nlocal:        120.000 ave         126 max         117 min
Histogram: 2 1 4 5 1 1 1 0 0 1
Nghost:        4224.38 ave        4257 max        4186 min
Histogram: 2 0 0 3 2 3 1 1 2 2
Neighs:        43513.7 ave       45000 max       42402 min
Histogram: 2 2 2 1 3 2 1 1 1 1

Total # of neighbors = 696219
Ave neighs/atom = 362.61406
Ave special neighs/atom = 2.0000000
Neighbor list builds = 635
Dangerous builds = 0

unfix		3
unfix		2
unfix		1

write_data	data.final.${pid}
write_data	data.final.0
System init for write_data ...
PPPM initialization ...
  extracting TIP4P info from pair style
  using 12-bit tables for long-range coulomb (../kspace.cpp:340)
  G vector (1/distance) = 0.37504819
  grid = 30 30 30
  stencil order = 5
  estimated absolute RMS force accuracy = 0.0032028589
  estimated relative force accuracy = 9.6453143e-06
  using double precision FFTW3
  3d grid and FFT values/proc = 7920 1800
Last active /omp style is kspace_style pppm/tip4p/omp
WARNING: Not all mixed pair coeffs generated from mixing. Use write_data with 'pair ij' option to store all pair coeffs. (../write_data.cpp:312)

write_restart   restart.lmp.${pid}
write_restart   restart.lmp.0
System init for write_restart ...
PPPM initialization ...
  extracting TIP4P info from pair style
  using 12-bit tables for long-range coulomb (../kspace.cpp:340)
  G vector (1/distance) = 0.37504819
  grid = 30 30 30
  stencil order = 5
  estimated absolute RMS force accuracy = 0.0032028589
  estimated relative force accuracy = 9.6453143e-06
  using double precision FFTW3
  3d grid and FFT values/proc = 7920 1800
Last active /omp style is kspace_style pppm/tip4p/omp
Total wall time: 0:10:31
