LAMMPS data file via write_data, version 30 Jul 2021, timestep = 13250000

972 atoms
2 atom types
648 bonds
1 bond types
324 angles
1 angle types

-0.017287972873328172 20.017288972861977 xlo xhi
-0.042365912519976234 20.042366912519967 ylo yhi
-0.16472176321731524 20.864719763216403 zlo zhi

Masses

1 1.008
2 15.999

Pair Coeffs # lj/cut/tip4p/long/omp

1 0 0
2 0.21084 3.1668

Bond Coeffs # harmonic/omp

1 450 0.9572

Angle Coeffs # harmonic/omp

1 55 104.52

Atoms # full

10 4 2 -1.1794 1.198410705732891 3.857039796560837 3.7047577925901045 0 0 0
11 4 1 0.5897 0.9919363229741969 3.0939181732102963 3.1650367787888443 0 0 0
12 4 1 0.5897 2.1379047300918006 3.9913677883685024 3.5809819768339604 0 0 0
33 11 1 0.5897 1.4156830347150609 2.459768872528025 1.1502308912622243 0 0 0
31 11 2 -1.1794 0.7931057367692887 1.9878940410355619 1.7033050236731364 0 0 0
18 6 1 0.5897 3.8319505202176107 2.7735833261420058 2.9272566173906527 0 0 0
4 2 2 -1.1794 3.9338827526843674 0.9530841990755191 3.122587361183402 0 0 0
16 6 2 -1.1794 3.8956041772564975 3.6830920694962535 3.219036848972122 0 0 0
1 1 2 -1.1794 2.595579435265639 2.8174379712959583 -0.09334034817802604 0 0 0
23 8 1 0.5897 2.3699498151031366 0.8090698145742882 3.973513833151994 0 0 0
140 47 1 0.5897 1.3934029319852896 8.839797084754146 2.6649284678611243 0 0 0
20 7 1 0.5897 1.0339560735618627 5.30695755315865 2.551109477516045 0 0 0
110 37 1 0.5897 1.8595065835941342 9.380627642659169 0.5185838317929791 0 0 0
17 6 1 0.5897 4.434667885465531 4.111406197492677 2.554157364895178 0 0 0
6 2 1 0.5897 4.481834770096119 0.7710788066106388 3.8859470341401874 0 0 0
15 5 1 0.5897 4.599713613292213 6.330930084391104 1.9896076202048882 0 0 0
112 38 2 -1.1794 4.477843810104867 7.921206615157103 3.091434576859261 0 0 0
14 5 1 0.5897 4.6421784029709645 5.695603186112434 0.616189476169413 0 0 0
19 7 2 -1.1794 0.9322727652231422 5.759159481718888 1.7136371953615284 0 0 0
114 38 1 0.5897 3.7463025522848445 7.838795031608279 3.703091208345832 0 0 0
674 225 1 0.5897 2.3043112139018342 5.760644704787872 0.3783508465774027 0 0 1
141 47 1 0.5897 0.9510556159680434 7.621458177704323 1.8825789711400156 0 0 0
236 79 1 0.5897 0.6757575484020197 0.20405539598698427 1.5712085800678586 0 1 0
13 5 2 -1.1794 4.9465142715958095 5.575050692695646 1.5155974793107354 0 0 0
139 47 2 -1.1794 0.9689361084169164 8.577976327083068 1.8479877236836235 0 0 0
130 44 2 -1.1794 2.3606460490414625 7.354481487351651 4.811000598393599 0 0 0
5 2 1 0.5897 4.216814957859434 0.31588394513454443 2.4667362203235585 0 0 0
22 8 2 -1.1794 1.8595090495808022 0.8224949378724965 4.78305967310601 0 0 0
3 1 1 0.5897 3.408122301958638 2.347430642308739 0.09373030337955873 0 0 0
102 34 1 0.5897 0.09395004310540396 0.8257054803683843 4.767869176714486 1 0 0
21 7 1 0.5897 -0.014277454659985341 5.8085628974721475 1.5809824845467746 0 0 0
111 37 1 0.5897 3.251926700271788 9.343686334680571 -0.07407619241095853 0 0 0
126 42 1 0.5897 4.452377604097955 9.745266910017907 3.103239408152686 0 0 0
132 44 1 0.5897 1.4114113274885005 7.472616064336483 4.843315147426631 0 0 0
325 109 2 -1.1794 2.647842443570957 2.664408612424503 6.7998399926334825 0 0 0
326 109 1 0.5897 2.4646392862195055 2.0483684244019105 6.090484622575875 0 0 0
327 109 1 0.5897 3.5134732673728406 2.4109828988084137 7.1200604668095115 0 0 0
355 119 2 -1.1794 0.7310922340702972 2.1351600378292646 8.819412411362041 0 0 0
356 119 1 0.5897 1.40091889398993 2.2323519455781167 8.142698929442666 0 0 0
438 146 1 0.5897 3.88161708417744 8.673136375041627 10.222629647154712 0 0 0
443 148 1 0.5897 1.2088997679027558 9.790342509641107 10.023631237687493 0 0 0
465 155 1 0.5897 0.15004175563923638 8.721211886321454 8.287037050051504 0 0 0
339 113 1 0.5897 3.954811669192518 5.729644909549762 7.602538422064969 0 0 0
344 115 1 0.5897 0.9092097318988611 5.513586543437397 8.984012547624678 0 0 0
468 156 1 0.5897 4.7203166925786 9.207004039353613 7.0890027229111965 0 0 0
337 113 2 -1.1794 4.454286407761569 5.954084865212491 8.387557481976613 0 0 0
27 9 1 0.5897 2.718206643007129 4.3296570753525065 6.393228451737865 0 0 0
464 155 1 0.5897 1.6075342185988795 8.988590758203726 7.977801756001465 0 0 0
25 9 2 -1.1794 2.736810514534271 5.286457890680367 6.418292486742163 0 0 0
435 145 1 0.5897 2.6667367722679067 8.59662342482732 6.149928826343391 0 0 0
345 115 1 0.5897 1.2114732760760396 6.883392651371495 8.414313474299608 0 0 0
328 110 2 -1.1794 3.8384092495835502 1.1411808658591698 10.258476116461898 0 0 0
26 9 1 0.5897 1.9947164696792172 5.526508239147211 6.973053906508713 0 0 0
463 155 2 -1.1794 1.0243556357892223 8.689029468985366 8.675102828944082 0 0 0
343 115 2 -1.1794 0.8811765548401652 6.018400520162175 8.171251984662247 0 0 0
433 145 2 -1.1794 3.0274644327273235 9.147593776482479 6.844557985449289 0 0 0
437 146 1 0.5897 4.0847135427055905 7.28705629306842 9.64835664363465 0 0 0
329 110 1 0.5897 4.19724769534427 0.6200207919409856 9.540261994452937 0 0 0
342 114 1 0.5897 4.1040576667516895 4.664722198122311 9.88206347598295 0 0 0
561 187 1 0.5897 0.8256991810977089 0.3029009249400211 8.662142496785181 0 1 0
341 114 1 0.5897 3.790689138836762 3.1993443298567446 10.098499122893307 0 0 0
131 44 1 0.5897 2.5185039258575426 6.545331865808843 5.2975343809191715 0 0 0
335 112 1 0.5897 0.5891931849800528 3.6183029256785484 9.8685100418039 0 0 0
336 112 1 0.5897 1.867219278093519 4.274220598354586 10.34606603960731 0 0 0
334 112 2 -1.1794 0.9284256854083681 4.430563080892045 10.24466540457441 0 0 0
81 27 1 0.5897 0.14236297755428215 4.237594194675029 5.165044580625817 1 0 0
24 8 1 0.5897 2.0123335638540585 -0.036307121120415786 5.1773841974875925 0 0 0
649 217 2 -1.1794 2.538097435538315 2.568183978292845 14.286645006086182 0 0 0
650 217 1 0.5897 2.2428810755332953 2.131660906955559 13.487624080645718 0 0 0
651 217 1 0.5897 1.9430079676738308 2.252282520239894 14.966492128945236 0 0 0
347 116 1 0.5897 0.9749887290961387 1.0094612699333463 11.91448741751176 0 0 0
348 116 1 0.5897 2.393501795637608 0.8871920511675536 11.400442063987583 0 0 0
346 116 2 -1.1794 1.8638825530678864 0.7876331992089851 12.191429818826657 0 0 0
350 117 1 0.5897 2.7550139778790146 4.323432314463056 13.899157980883253 0 0 0
330 110 1 0.5897 4.45348400626535 1.0108629120843888 10.980130601163786 0 0 0
683 228 1 0.5897 4.261680265606836 2.45315769170685 13.909481446024492 0 0 0
349 117 2 -1.1794 2.68625276182367 5.269534360259303 13.770275459331204 0 0 0
332 111 1 0.5897 4.8666203350314 4.577569310885788 11.8937191099404 0 0 0
792 264 1 0.5897 4.557218163978351 9.48053718225062 14.456942760662418 0 0 0
759 253 1 0.5897 2.341298796765165 8.75177685938221 13.671318668298488 0 0 0
454 152 2 -1.1794 1.9717464587584217 7.452645002148301 12.334993784845146 0 0 0
668 223 1 0.5897 1.3464669692060112 5.706908442229661 15.163656839960542 0 0 0
351 117 1 0.5897 3.3261896816264263 5.641615845104363 14.377045230679187 0 0 0
456 152 1 0.5897 2.3154197924529814 6.641013396629187 12.708479821547996 0 0 0
455 152 1 0.5897 2.5779846806646423 7.66608401899231 11.625763298381724 0 0 0
757 253 2 -1.1794 2.4918137445235304 9.297279883873188 14.443324445008939 0 0 0
533 178 1 0.5897 0.17895672336417234 7.486363913965563 12.31049150626306 1 0 0
405 135 1 0.5897 0.15945464612080304 4.620707057361089 11.884701183818075 1 0 0
340 114 2 -1.1794 3.6772178877865427 4.064121049913933 10.493055518818405 0 0 0
436 146 2 -1.1794 3.8535029335595175 7.745241732385251 10.45631339125883 0 0 0
653 218 1 0.5897 3.433366812717213 1.3507195295831653 17.745610261509025 0 0 0
652 218 2 -1.1794 4.289521945283384 1.3303650083750354 17.318240900340868 0 0 0
664 222 2 -1.1794 3.90614705108109 3.995602612350842 17.538111657383013 0 0 0
671 224 1 0.5897 2.052368980500526 1.764639753300515 19.672709613635256 0 0 0
666 222 1 0.5897 4.059248021474855 3.0611546080607117 17.39756359049836 0 0 0
670 224 2 -1.1794 1.894536100211383 1.198335642792443 18.917325515145762 0 0 0
665 222 1 0.5897 2.9611610713054883 4.0663622420298 17.672332638631183 0 0 0
681 227 1 0.5897 0.7941490881441043 2.6819872633830486 16.87354247801326 0 0 0
672 224 1 0.5897 0.9414341194476966 1.1287857070774872 18.86451667180244 0 0 0
658 220 2 -1.1794 1.219963282232755 4.196539156001751 17.748467224884955 0 0 0
659 220 1 0.5897 0.54054569885163 4.190089367363663 18.422564977272 0 0 0
787 263 2 -1.1794 0.6601546405968473 8.765944882151107 16.301768593370095 0 0 0
660 220 1 0.5897 0.8904197762926342 4.798679950461962 17.081332416840294 0 0 0
884 295 1 0.5897 0.4896332429235849 0.15709432710267976 15.728557849247855 0 1 0
663 221 1 0.5897 4.421535001959113 6.857847888814504 16.168769523208464 0 0 0
858 286 1 0.5897 0.3636603366664192 7.227884736606031 19.338928308778254 1 0 0
780 260 1 0.5897 2.518521501926708 7.710469986960221 17.98376772202374 0 0 0
760 254 2 -1.1794 4.313234337499478 8.306825639877365 17.264492389150018 0 0 0
761 254 1 0.5897 4.332493528341423 9.258534712186067 17.366055934453097 0 0 0
675 225 1 0.5897 2.6549976509591535 6.429229877626738 20.095638717809386 0 0 0
779 260 1 0.5897 2.242680158424661 8.423228970281237 19.290518361540425 0 0 0
778 260 2 -1.1794 2.078643082913577 7.60197822650972 18.826877383243723 0 0 0
788 263 1 0.5897 0.7943906061280364 9.436374950820133 16.97166633710629 0 0 0
654 218 1 0.5897 4.19738984496983 0.6741562577511084 16.627461909900937 0 0 0
662 221 1 0.5897 4.381417934918847 5.357905587942487 16.371060814790997 0 0 0
679 227 2 -1.1794 0.5293661704851291 2.0021266109235185 16.25393713899246 0 0 0
661 221 2 -1.1794 4.430834611809055 6.028861258862949 15.690175470595953 0 0 0
669 223 1 0.5897 0.9846587573429468 6.8159505960018425 16.12861228280606 0 0 0
667 223 2 -1.1794 0.6660951216623895 5.984571585731862 15.776923267827774 0 0 0
762 254 1 0.5897 4.797994270416924 7.97490193669084 18.02011589418188 0 0 0
673 225 2 -1.1794 2.9080523291470626 5.70430384547863 20.66724564149501 0 0 0
109 37 2 -1.1794 2.3556196262105815 9.620523636522561 20.765443991086272 0 0 -1
2 1 1 0.5897 2.86168636532361 3.73316253722709 20.852215453217376 0 0 -1
789 263 1 0.5897 1.3588861835356054 8.91895530889792 15.66580861138872 0 0 0
120 40 1 0.5897 1.4177795915185303 11.632833767604588 2.887949935420715 0 0 0
127 43 2 -1.1794 0.9042717498757351 12.92826295615976 1.689642498082591 0 0 0
129 43 1 0.5897 0.9980948188983787 13.844702647293982 1.9499457382482808 0 0 0
221 74 1 0.5897 3.760262523436447 15.24772946930005 3.020685206495208 0 0 0
118 40 2 -1.1794 1.6818890770844515 10.942242046108067 3.4959052647988482 0 0 0
220 74 2 -1.1794 3.586835938218808 14.33167245833367 3.237911062468334 0 0 0
119 40 1 0.5897 2.6362568482878577 10.915538750783911 3.428754528122873 0 0 0
123 41 1 0.5897 4.046006011245868 12.324170513643445 0.48245601864620313 0 0 0
783 261 1 0.5897 2.018304042072744 12.626564510646954 0.2295566571120642 0 0 1
124 42 2 -1.1794 4.342843542356049 10.679354350675474 3.2818949698325284 0 0 0
222 74 1 0.5897 3.881199527030001 13.842793949355892 2.4694476437138424 0 0 0
240 80 1 0.5897 2.0500131629038725 14.248363903156529 4.44713964372881 0 0 0
122 41 1 0.5897 4.406654222454518 11.829090026211391 1.866836262285399 0 0 0
121 41 2 -1.1794 4.640432592038462 12.489200517784282 1.2142466281310909 0 0 0
229 77 2 -1.1794 4.6439937917195815 19.256516705021408 1.267022961551464 0 0 0
249 83 1 0.5897 1.5112933350669706 15.916612262015196 1.568271831768944 0 0 0
230 77 1 0.5897 4.099525287277105 19.13057762850562 0.4899837593727445 0 0 0
228 76 1 0.5897 0.6365398257364531 18.047852547055538 4.361929936577494 0 0 0
235 79 2 -1.1794 0.5302047173844459 19.3664352129623 1.3602489507702298 0 0 0
248 83 1 0.5897 0.7757749796810662 16.608816605240147 2.695923894965153 0 0 0
232 78 2 -1.1794 3.9669432320027704 17.253422089372226 3.168764180572761 0 0 0
234 78 1 0.5897 3.1266734085592547 17.442572502512387 3.586152327477401 0 0 0
227 76 1 0.5897 1.0735907149932171 18.551596949941466 3.002926105167327 0 0 0
226 76 2 -1.1794 1.3462327238717764 17.982958291163808 3.72302307853868 0 0 0
233 78 1 0.5897 4.08715585157164 17.963910559955703 2.5386528303731026 0 0 0
247 83 2 -1.1794 0.7952085740378381 15.795375015242918 2.191645007025393 0 0 0
890 297 1 0.5897 1.9485818804244834 19.102293601673434 -0.0665994735511236 0 0 1
188 63 1 0.5897 0.2229118182257201 10.963031921985118 4.959322187203844 1 0 0
125 42 1 0.5897 4.806946320909335 10.821969180838673 4.10674115288839 0 0 0
128 43 1 0.5897 0.020300000163152816 12.871076072106915 1.3271777417105335 0 0 0
219 73 1 0.5897 3.455018589826304 16.1913198415353 0.38676090153440823 0 0 0
217 73 2 -1.1794 2.5523565157872445 16.396439947781644 0.14345327648632838 0 0 0
224 75 1 0.5897 4.951240157292758 17.51343647106821 4.62220599763858 0 0 0
133 45 2 -1.1794 2.1201994426440627 11.767328008443195 6.711536929440984 0 0 0
134 45 1 0.5897 1.4721518257305868 11.83688004812483 7.412449423154835 0 0 0
135 45 1 0.5897 2.9326462674880314 12.087568321752407 7.103293844542319 0 0 0
453 151 1 0.5897 1.047923821127331 12.130345201184674 9.696572646790932 0 0 0
446 149 1 0.5897 4.179253656148714 13.236064115824847 8.955115740329276 0 0 0
573 191 1 0.5897 0.48839429541405865 14.441311272824287 9.007772330642716 0 0 0
576 192 1 0.5897 4.408940493280066 15.424295616581773 7.475068623706523 0 0 0
571 191 2 -1.1794 0.40103097640274865 15.39446259887044 9.025233067352687 0 0 0
239 80 1 0.5897 1.95129714366659 13.263050129015312 5.592284492262723 0 0 0
553 185 2 -1.1794 4.62697866746714 19.10349010648417 8.32438156378801 0 0 0
450 150 1 0.5897 4.138199253640558 11.20246944838321 9.603921304985262 0 0 0
555 185 1 0.5897 4.0379938854582 18.9333689405355 7.589427611927342 0 0 0
543 181 1 0.5897 2.199638651537066 15.469776569262933 6.468625147246448 0 0 0
451 151 2 -1.1794 0.8316877500811741 12.751778211335091 9.001386010845536 0 0 0
542 181 1 0.5897 1.7075333556451582 15.840835949820931 7.851287322264557 0 0 0
572 191 1 0.5897 0.7117059947296224 15.648100211195528 9.894298589966558 0 0 0
559 187 2 -1.1794 0.7000084816337143 19.453756919997154 8.493279920478889 0 0 0
241 81 2 -1.1794 2.5512054467277303 18.696382216078476 6.587503333994557 0 0 0
242 81 1 0.5897 2.534624993096905 17.739515468573078 6.611570799514682 0 0 0
243 81 1 0.5897 1.892216001471638 18.964044106730736 7.227964821991242 0 0 0
541 181 2 -1.1794 2.4472364178540578 15.956140109874235 7.254956316311003 0 0 0
445 149 2 -1.1794 4.276796913661405 12.499067907458365 8.35210787170599 0 0 0
238 80 2 -1.1794 1.6753589021456887 14.138650203195642 5.321039636187413 0 0 0
551 184 1 0.5897 1.225318780274613 18.710804957095743 10.014981781692226 0 0 0
558 186 1 0.5897 4.331268007590253 17.862849852228596 9.602596947760684 0 0 0
557 186 1 0.5897 4.392109115214973 16.3751872385708 9.877502232182605 0 0 0
552 184 1 0.5897 2.281618089779347 17.657517173346843 10.273301039893223 0 0 0
544 182 2 -1.1794 4.152199414055581 14.533243753660402 10.07230839534374 0 0 0
434 145 1 0.5897 2.6960967840834136 10.024766554025254 6.6518195136647496 0 0 0
556 186 2 -1.1794 4.23782281738679 17.218203125501432 10.303995767438543 0 0 0
448 150 2 -1.1794 4.015951663069601 10.559173975346418 10.302126883299119 0 0 0
457 153 2 -1.1794 2.692139493442834 12.073751390965663 13.719583223337201 0 0 0
458 153 1 0.5897 1.8872433053551763 12.206894961082487 14.220068280521183 0 0 0
459 153 1 0.5897 3.379813770889786 12.455035932310356 14.265289947425241 0 0 0
562 188 2 -1.1794 2.2087983847219115 14.331571957364812 12.22207386495548 0 0 0
563 188 1 0.5897 2.402380234902963 13.436393843293367 12.500612387184837 0 0 0
642 214 1 0.5897 0.48263977466147817 14.276639461271138 11.919018490134274 1 0 0
550 184 2 -1.1794 1.472389165731285 18.02180853567203 10.631842875426923 0 0 0
879 293 1 0.5897 3.970182871219092 19.196831654006434 14.926272104603177 0 0 0
896 299 1 0.5897 0.13894469486843158 15.764183029596989 15.112453417511254 0 0 0
621 207 1 0.5897 0.05725330859937648 18.25564752885628 11.763005023200307 1 0 0
444 148 1 0.5897 2.194950644007121 10.727475548764152 10.687953546117308 0 0 0
545 182 1 0.5897 3.463743389035026 14.491277219942926 10.735888305850063 0 0 0
769 257 2 -1.1794 4.642187569384795 12.670570617667588 15.48258967016214 0 0 0
564 188 1 0.5897 2.6167891061329875 14.884053636392252 12.888792333004632 0 0 0
567 189 1 0.5897 2.187900782907966 19.422616246194682 13.145561535007568 0 0 0
566 189 1 0.5897 2.634377580858117 18.021030583018824 13.504083498614166 0 0 0
449 150 1 0.5897 4.660069304101192 10.801704382490515 10.967254386178311 0 0 0
867 289 1 0.5897 2.354875034564917 15.923212222212129 14.821565959412458 0 0 0
865 289 2 -1.1794 2.9736963006712385 16.070459517996134 14.106402669098731 0 0 0
565 189 2 -1.1794 2.503240406447597 18.89262820638833 13.877603301366 0 0 0
866 289 1 0.5897 3.835557459243335 16.00201092477061 14.516963917915163 0 0 0
885 295 1 0.5897 1.2754242501966921 19.13179351828706 15.063450222292156 0 0 0
442 148 2 -1.1794 1.2578561097774714 10.584647218190694 10.555631791224856 0 0 0
546 182 1 0.5897 4.968197334665067 14.528130291015803 10.572491792603952 0 0 0
883 295 2 -1.1794 0.4595679930551972 19.305208850314735 15.532899026782088 0 0 0
758 253 1 0.5897 2.4373411713101922 10.195561410897826 14.116984152792392 0 0 0
877 293 2 -1.1794 4.636973547695452 19.02931693982209 15.592168919871874 0 0 0
775 259 2 -1.1794 0.6854253359882213 12.72484887460286 15.462436570212644 0 0 0
895 299 2 -1.1794 0.9130572459628639 15.487435703295388 15.60261107401024 0 0 0
777 259 1 0.5897 0.84064638284044 13.66944259419358 15.45281941231299 0 0 0
768 256 1 0.5897 1.2806658352092657 11.695206055893333 16.861346616542164 0 0 0
888 296 1 0.5897 2.346827705300704 13.846047243677864 19.473109488245306 0 0 0
766 256 2 -1.1794 1.421831815855598 11.142152043696647 17.629723694636287 0 0 0
773 258 1 0.5897 3.1588684055389677 11.106704285929615 17.77577575068118 0 0 0
886 296 2 -1.1794 2.1712080843546047 14.700367715880011 19.078547769695554 0 0 0
772 258 2 -1.1794 4.079311637964682 10.868684983991225 17.665545113850026 0 0 0
774 258 1 0.5897 4.340341037983243 11.29212410635703 16.847783799632335 0 0 0
869 290 1 0.5897 3.4116247164898463 14.54696273897049 17.92622786808313 0 0 0
891 297 1 0.5897 2.464459865041408 19.509209004175073 19.599049874439483 0 0 0
878 293 1 0.5897 4.204612736592259 18.45723696673146 16.22621085368448 0 0 0
875 292 1 0.5897 0.4162229123093782 17.61378442945498 18.2277028344319 0 0 0
868 290 2 -1.1794 4.16916692175836 14.5908394360864 17.34289642290614 0 0 0
887 296 1 0.5897 2.371444366431027 15.330354993130243 19.770848218210787 0 0 0
897 299 1 0.5897 0.8497800103361378 15.955341031531875 16.435228912175862 0 0 0
771 257 1 0.5897 4.596046718813178 13.525321363801355 15.911142867413968 0 0 0
781 261 2 -1.1794 2.495150029906534 12.321169153167272 20.487326451681707 0 0 0
965 322 1 0.5897 0.4028446626523774 14.491562236849358 19.060280322255107 1 0 0
876 292 1 0.5897 0.8317660657761451 18.14177522881445 16.871166862772487 0 0 0
880 294 2 -1.1794 3.827182334105395 17.37712617223568 17.86235109161264 0 0 0
882 294 1 0.5897 4.1217567610813095 16.505667133293137 17.59748813629935 0 0 0
881 294 1 0.5897 2.8755334896513562 17.348774138697316 17.764346628213833 0 0 0
874 292 2 -1.1794 1.0680607207258466 17.495828582368166 17.536886315451458 0 0 0
870 290 1 0.5897 4.913736653394902 14.36160682224969 17.898914964795484 0 0 0
782 261 1 0.5897 2.2513991862068186 11.39920203227895 20.40378933303799 0 0 0
767 256 1 0.5897 0.861607844835028 11.52325813825741 18.305780275384993 0 0 0
218 73 1 0.5897 2.5967433008713865 17.281012315089672 20.809645125122866 0 0 -1
889 297 2 -1.1794 2.6513026934209902 18.928509627533728 20.336689520765916 0 0 0
9 3 1 0.5897 5.043377999367386 3.9239660796544795 4.680638753390088 0 0 0
142 48 2 -1.1794 4.99424403543843 8.955005694346815 0.22825816932861065 0 0 0
34 12 2 -1.1794 5.363925985181675 2.1678880885241285 0.6214938429537656 0 0 0
68 23 1 0.5897 8.15907038511281 1.6728380047601936 1.4116041454993977 0 0 0
37 13 2 -1.1794 9.217954387182845 2.6151821767774632 0.010730521565909201 0 0 0
47 16 1 0.5897 7.7546758471616855 2.7993316487740927 3.3691610708845623 0 0 0
46 16 2 -1.1794 8.001129125886028 3.577239698645059 3.8696159988442673 0 0 0
48 16 1 0.5897 7.2737770030551925 3.7123170936765297 4.4768990731071465 0 0 0
69 23 1 0.5897 6.699958426719214 1.7025239595716049 1.813544806812313 0 0 0
67 23 2 -1.1794 7.565778560294773 1.4397032202798734 2.125577966507276 0 0 0
177 59 1 0.5897 8.245887416191335 8.964832584438849 0.9953128190157847 0 0 0
143 48 1 0.5897 5.659104963852659 9.035150770964583 0.9120810178952916 0 0 0
175 59 2 -1.1794 7.632242408427697 8.803293862224375 1.7118276169141133 0 0 0
55 19 2 -1.1794 7.712022047235535 5.719582517992679 2.013199041514426 0 0 0
29 10 1 0.5897 6.771963148592838 0.36516596138255425 4.760486733858447 0 0 0
57 19 1 0.5897 7.794545741282514 4.947683174413422 2.5732777450420277 0 0 0
56 19 1 0.5897 6.786388232991188 5.742334978611844 1.770847194032696 0 0 0
176 59 1 0.5897 7.988616865860511 8.039417173194053 2.1654845634103497 0 0 0
41 14 1 0.5897 9.73466344600655 0.7948756959160406 3.5938141531876253 0 0 0
711 237 1 0.5897 8.832418795246282 5.538482690829367 0.5882573215096629 0 0 1
166 56 2 -1.1794 9.011098137942666 7.265026957856906 4.79411422675581 0 0 0
138 46 1 0.5897 7.266185694096105 7.155346968997046 4.814057768438534 0 0 0
36 12 1 0.5897 5.663715942674037 3.008281262750943 0.27474624608554793 0 0 0
53 18 1 0.5897 9.977668493611798 3.7047116591757265 4.144597040544579 0 0 0
113 38 1 0.5897 5.256554928408797 7.769719650682001 3.6269131547458917 0 0 0
35 12 1 0.5897 5.40603960125247 1.571050718629588 -0.12566886581582618 0 0 0
155 52 1 0.5897 7.9910191958009005 9.82551205075366 3.0955005707954126 0 0 0
28 10 2 -1.1794 5.874390223386087 0.40008516382796017 5.090841518956922 0 0 0
58 20 2 -1.1794 8.620751111092485 0.5516809570955367 5.045879103307932 0 0 0
709 237 2 -1.1794 9.433539648537508 5.372053328578045 -0.13772274806782647 0 0 1
358 120 2 -1.1794 5.342587381983296 2.1214096890702407 7.411211360652972 0 0 0
467 156 1 0.5897 5.699187371065804 8.269290140796501 6.414970663765632 0 0 0
8 3 1 0.5897 5.701151337390127 3.5364660390662666 5.987821441036472 0 0 0
392 131 1 0.5897 8.257828243932682 2.348654273472334 8.359824843667175 0 0 0
361 121 2 -1.1794 9.304020903523817 2.5819611807703344 6.839917571218938 0 0 0
393 131 1 0.5897 7.756288364595565 1.1832008939658636 9.185803231385492 0 0 0
391 131 2 -1.1794 7.70293601963849 2.1360123069042825 9.110148159626045 0 0 0
362 121 1 0.5897 9.154002228943265 3.527329939998567 6.85469228596934 0 0 0
359 120 1 0.5897 6.119840887579996 2.1368717448004935 7.969500543381264 0 0 0
360 120 1 0.5897 5.547981500529427 1.4793644524125988 6.731619266498868 0 0 0
381 127 1 0.5897 7.6722597804690915 5.385215502027373 9.423237279455194 0 0 0
59 20 1 0.5897 8.96377456153416 1.280191598955187 5.563480703963019 0 0 0
62 21 1 0.5897 8.42810243138948 5.575936540906464 7.35630489329427 0 0 0
379 127 2 -1.1794 7.495630672493578 5.9573976550264325 8.676497220605604 0 0 0
466 156 2 -1.1794 5.652195767463986 8.994845137451382 7.037593791223596 0 0 0
61 21 2 -1.1794 9.04482789810447 5.33359339963348 6.66563542435692 0 0 0
469 157 2 -1.1794 9.10219893712321 9.426696759656565 6.694974702400012 0 0 0
470 157 1 0.5897 8.66247301989114 8.955852910094192 7.402880704843524 0 0 0
499 167 2 -1.1794 7.468113201420485 8.712638080980796 9.033057979885303 0 0 0
500 167 1 0.5897 7.608357969936122 9.479209556725502 9.588957362344047 0 0 0
380 127 1 0.5897 7.388109585145543 6.827515555628255 9.06083460875259 0 0 0
63 21 1 0.5897 9.90611616780377 5.406687553883765 7.076583472163003 0 0 0
168 56 1 0.5897 8.963569645156708 8.063982006203643 5.319202624158607 0 0 0
501 167 1 0.5897 6.706865622789292 8.939578148727724 8.499117878574562 0 0 0
7 3 2 -1.1794 5.784674178916666 4.137180962411587 5.247288979255958 0 0 0
167 56 1 0.5897 9.023581003741437 6.555683550175826 5.436743719614584 0 0 0
338 113 1 0.5897 5.369865500179119 5.874398799262284 8.120326693022543 0 0 0
137 46 1 0.5897 6.1600506685862495 6.173229336364587 5.136210079926106 0 0 0
136 46 2 -1.1794 6.35480550264472 7.1099225343230605 5.102810434380944 0 0 0
331 111 2 -1.1794 5.642139253917734 4.770727896272537 12.42035234796596 0 0 0
387 129 1 0.5897 8.769279654019698 6.145028291542488 13.28331605337105 0 0 0
684 228 1 0.5897 5.409646058065999 3.3359398506912505 13.468279377532433 0 0 0
491 164 1 0.5897 9.0663314319064 7.649776137042981 11.353807029065397 0 0 0
383 128 1 0.5897 8.779682500340913 1.5151136399596676 12.81390894057324 0 0 0
382 128 2 -1.1794 8.738510770067549 0.8421680982173624 12.13445709599017 0 0 0
372 124 1 0.5897 7.254139409631345 4.242162515771904 11.355659464400166 0 0 0
353 118 1 0.5897 6.856724289265643 0.6054596994987235 11.986325071815395 0 0 0
686 229 1 0.5897 8.353453620047082 2.5157527595113214 14.841979359920439 0 0 0
384 128 1 0.5897 9.513230730623182 0.9985177100688829 11.594617062970912 0 0 0
371 124 1 0.5897 7.875962944063885 3.2755432921004437 10.3703202602051 0 0 0
352 118 2 -1.1794 5.9037583699299345 0.6337398915682952 12.07052339704192 0 0 0
685 229 2 -1.1794 8.992484102475828 2.7124512063827573 14.157114828408604 0 0 0
492 164 1 0.5897 7.6959764190542215 7.558925230439275 11.99045021050547 0 0 0
460 154 2 -1.1794 5.816090724460049 7.493787202902536 12.33604144096334 0 0 0
386 129 1 0.5897 8.842939962969794 4.731208498315226 13.82000065342216 0 0 0
370 124 2 -1.1794 8.024291726457687 4.117318204736965 10.801279489554226 0 0 0
333 111 1 0.5897 5.666382545705638 5.726415311930567 12.470384165252495 0 0 0
793 265 2 -1.1794 8.971178067237346 9.267957377858547 14.264779515086339 0 0 0
385 129 2 -1.1794 8.945133519919862 5.646469992299441 14.081258781269673 0 0 0
462 154 1 0.5897 5.133981274444269 7.603842429424221 11.67369977971308 0 0 0
791 264 1 0.5897 6.008630853398716 9.370756259866706 14.872605824912 0 0 0
682 228 2 -1.1794 5.217513626084876 2.4966659494309393 13.886701612252159 0 0 0
354 118 1 0.5897 5.739296057324253 1.3347131419250309 12.70127563200208 0 0 0
490 164 2 -1.1794 8.623190865980012 7.396508054863749 12.163495795030418 0 0 0
794 265 1 0.5897 8.725178547799983 8.712661769194087 13.52495442654517 0 0 0
461 154 1 0.5897 5.691270213469976 8.230935234123384 12.933821217493959 0 0 0
705 235 1 0.5897 7.606852055135852 5.993998694608115 15.456544449132043 0 0 0
790 264 2 -1.1794 5.44888221664197 9.608668228946444 14.133566307422614 0 0 0
717 239 1 0.5897 6.224198658696805 2.127243201827389 15.367430284477349 0 0 0
824 275 1 0.5897 7.883996567221823 8.915542776899073 15.584917723210157 0 0 0
377 126 1 0.5897 9.802628745275914 4.084212601070689 10.447612305579318 0 0 0
687 229 1 0.5897 9.842411990226735 2.60169130423347 14.583038530760891 0 0 0
655 219 2 -1.1794 5.729471349550409 4.338304338678712 19.832250982598424 0 0 0
814 272 2 -1.1794 8.681279253070898 7.290182219271598 19.15922106559353 0 0 0
823 275 2 -1.1794 7.124067866202527 8.752347805223902 16.14339805966316 0 0 0
716 239 1 0.5897 7.20934468744059 1.1013806379804876 15.886101143283106 0 0 0
677 226 1 0.5897 5.231785651969269 0.8335597890422326 18.700552831942588 0 0 0
708 236 1 0.5897 7.584062659472731 0.6565466317348563 18.913103238895633 0 0 0
696 232 1 0.5897 7.531744660562553 4.707533991768097 17.33090684637346 0 0 0
657 219 1 0.5897 6.551763383212698 4.154270529246892 19.378332551529866 0 0 0
825 275 1 0.5897 7.1582762505127535 7.813443218320281 16.327012183682033 0 0 0
694 232 2 -1.1794 7.848441273033066 3.9153146816690043 17.764980147737553 0 0 0
706 236 2 -1.1794 8.533119389408588 0.7662120584055637 18.85563910210595 0 0 0
695 232 1 0.5897 7.451305501713202 3.1967071151058066 17.27286108257259 0 0 0
38 13 1 0.5897 9.03633018082466 2.096249225659455 20.256669291258284 0 0 -1
786 262 1 0.5897 6.865927826269274 7.126635321988401 19.243844047726103 0 0 0
676 226 2 -1.1794 5.729566182950997 0.6251461532911108 19.491050442179862 0 0 0
785 262 1 0.5897 5.768126075563016 6.130351078335916 19.550655930764716 0 0 0
784 262 2 -1.1794 5.921653134244159 7.0607095484361935 19.385441255907477 0 0 0
144 48 1 0.5897 5.296300436781047 8.227945917299223 20.71328188626422 0 0 -1
703 235 2 -1.1794 7.074539853529587 6.074977341506192 16.247857900121435 0 0 0
715 239 2 -1.1794 7.048063984466986 2.0442143833516835 15.847446306856206 0 0 0
816 272 1 0.5897 9.006316211002318 8.05610646707709 19.632515262237842 0 0 0
702 234 1 0.5897 9.827296063564955 4.337960402942758 17.837221454741563 0 0 0
815 272 1 0.5897 8.889762994695198 6.549609510048068 19.728768332279028 0 0 0
689 230 1 0.5897 9.818038436255272 1.190482426980767 17.635410492351358 0 0 0
656 219 1 0.5897 5.0536098919879775 4.205314604345548 19.167737884910956 0 0 0
707 236 1 0.5897 8.890901177707006 -0.02136545634198228 19.26557547285261 0 0 0
797 266 1 0.5897 9.850485940821141 7.608491161269505 17.851710196166334 0 0 0
710 237 1 0.5897 9.349982830980649 4.433772482162983 20.72117264609253 0 0 0
704 235 1 0.5897 6.171774596628595 6.003403481667168 15.938110360790926 0 0 0
145 49 2 -1.1794 9.621447315353615 9.366004786995509 20.820521857759974 0 0 -1
276 92 1 0.5897 9.030475550935499 13.92864513453279 4.048771058201442 0 0 0
254 85 1 0.5897 9.043379346311236 15.883943100173687 0.47813844422382523 0 0 0
927 309 1 0.5897 8.488540345819056 18.6805500082825 0.16252714443694732 0 0 1
164 55 1 0.5897 6.468615659287219 12.637734104228194 1.7913243556735468 0 0 0
156 52 1 0.5897 9.058784238663701 10.610438190579696 3.8272863909601837 0 0 0
285 95 1 0.5897 7.560352723866266 14.52339223452787 1.9425377038031817 0 0 0
163 55 2 -1.1794 7.397027999519393 12.735151871262742 2.002534252112365 0 0 0
154 52 2 -1.1794 8.116035543893704 10.44582055920173 3.8137218717897245 0 0 0
165 55 1 0.5897 7.554144557800689 12.093477155930263 2.6952186734232955 0 0 0
819 273 1 0.5897 8.442961457629933 12.37048401242883 0.27152815189333374 0 0 1
283 95 2 -1.1794 7.506159580739295 15.447637391307946 1.6991036208836074 0 0 0