LAMMPS data file via write_data, version 30 Jul 2021, timestep = 22250000

972 atoms
2 atom types
648 bonds
1 bond types
324 angles
1 angle types

-0.040827919943021485 20.04082891991952 xlo xhi
0.042422846874758946 19.957578153125855 ylo yhi
-0.09039936922418335 20.790397369219065 zlo zhi

Masses

1 1.008
2 15.999

Pair Coeffs # lj/cut/tip4p/long/omp

1 0 0
2 0.21084 3.1668

Bond Coeffs # harmonic/omp

1 450 0.9572

Angle Coeffs # harmonic/omp

1 55 104.52

Atoms # full

10 4 2 -1.1794 1.0992220663699923 4.025859912614674 4.071458131277182 0 0 0
11 4 1 0.5897 1.0238164038273694 3.282732250382433 3.472775314907818 0 0 0
12 4 1 0.5897 2.041176541059572 4.177334291064262 4.148546198107513 0 0 0
33 11 1 0.5897 1.5263753154355582 2.5784319461229845 1.446061412493551 0 0 0
31 11 2 -1.1794 0.8530269786077047 2.230318516443442 2.030566693757433 0 0 0
18 6 1 0.5897 3.9303818496684007 3.2286335131426367 3.324157563463714 0 0 0
4 2 2 -1.1794 4.1297606572226115 1.3959220901106215 3.3394617174829175 0 0 0
16 6 2 -1.1794 3.840940032972425 4.157797740495283 3.536352914182036 0 0 0
23 8 1 0.5897 2.9029295806653796 1.129985045951104 4.5896685867787275 0 0 0
5 2 1 0.5897 3.999348095444308 0.6865018755087163 2.71011183155717 0 0 0
41 14 1 0.5897 9.859721928895329 0.8863671019078498 3.9204600400058824 0 0 0
68 23 1 0.5897 8.212894012909086 2.079379280800836 1.713883568014859 0 0 0
69 23 1 0.5897 6.701555854473092 2.160442103969563 1.7455568492342566 0 0 0
3 1 1 0.5897 3.6576157145901638 2.662188352960381 0.46295522024111824 0 0 0
273 91 1 0.5897 7.245587206117898 0.07101489523365034 1.662732228628119 0 1 0
47 16 1 0.5897 7.6894312593292335 3.094581736170111 3.5065102530968018 0 0 0
6 2 1 0.5897 4.801755399792438 1.0667087592152638 3.936388710636198 0 0 0
17 6 1 0.5897 4.252255113615393 4.612537518268877 2.80123979467235 0 0 0
34 12 2 -1.1794 5.414780797515083 2.5974188874427315 0.5773481696014863 0 0 0
236 79 1 0.5897 0.9511925587662025 0.5734499428497253 1.9897544929945568 0 1 0
67 23 2 -1.1794 7.452685200499505 1.8351834778646834 2.241807566463329 0 0 0
46 16 2 -1.1794 7.897033944383961 3.9293904921618332 3.926468232599748 0 0 0
48 16 1 0.5897 7.153291006998497 4.098694766232131 4.5047792916032545 0 0 0
9 3 1 0.5897 5.076266083008975 4.662190311302122 4.841143031587795 0 0 0
32 11 1 0.5897 0.040948707597481815 2.2983552520869788 1.5284540006902219 0 0 0
53 18 1 0.5897 9.82968617365792 3.9279632006861256 3.8496170334784394 0 0 0
37 13 2 -1.1794 9.33533380950713 2.575358193403775 0.05874837268777655 0 0 0
2 1 1 0.5897 2.713019257407889 3.761956301971638 0.026739728270797514 0 0 0
1 1 2 -1.1794 2.7437257767749093 2.8272721090380513 0.2311594022256216 0 0 0
36 12 1 0.5897 5.441232202449298 3.390217689125218 0.04148614315287702 0 0 0
35 12 1 0.5897 5.53974684454665 1.8819639241325605 -0.046266880553545775 0 0 0
710 237 1 0.5897 9.348513374962556 4.385649313762226 0.03979313129280371 0 0 1
325 109 2 -1.1794 2.465668079501619 2.827520318716422 7.309719311236165 0 0 0
326 109 1 0.5897 2.1831456788682084 2.372914608856854 6.516058365162798 0 0 0
327 109 1 0.5897 3.4032064588854265 2.6444261309979384 7.37026406513261 0 0 0
355 119 2 -1.1794 0.52603446401477 2.0689591543267887 8.992294094379085 0 0 0
356 119 1 0.5897 1.2922643088667927 2.353331387907711 8.494059341234312 0 0 0
328 110 2 -1.1794 4.021668952345951 1.64586124924583 9.82663519408519 0 0 0
27 9 1 0.5897 2.3331118945938343 4.680157318648495 6.970543956200771 0 0 0
329 110 1 0.5897 4.046688902505642 0.9207051739664728 9.20221108956238 0 0 0
342 114 1 0.5897 3.904493278191839 4.890286662022976 9.483541871041677 0 0 0
561 187 1 0.5897 0.6559379218868759 0.10473005506304345 8.643705101952696 0 1 0
358 120 2 -1.1794 5.268902619378361 2.725533198213871 7.135681250656062 0 0 0
360 120 1 0.5897 5.435867631089616 2.101431134080539 6.429294284998754 0 0 0
8 3 1 0.5897 5.561819796925139 4.0652459909410315 6.145049276757941 0 0 0
335 112 1 0.5897 0.9989604128263971 3.5813911702813157 10.107344363395212 0 0 0
359 120 1 0.5897 5.894021175697201 2.486416252363452 7.820035119495843 0 0 0
361 121 2 -1.1794 9.259782174602892 2.871657403354942 7.125862180797254 0 0 0
392 131 1 0.5897 8.02041009858385 2.2862829446727635 8.348041662814854 0 0 0
391 131 2 -1.1794 7.320924096646527 2.0550482432171244 8.959211415250783 0 0 0
362 121 1 0.5897 9.230812554666707 3.7489784266403228 6.743991782173189 0 0 0
393 131 1 0.5897 7.409328690343832 1.109377194699346 9.07854910079521 0 0 0
59 20 1 0.5897 8.916828659721874 1.5065057617213078 5.837868155416369 0 0 0
58 20 2 -1.1794 8.586326235836292 0.8670799184827916 5.206793924879004 0 0 0
7 3 2 -1.1794 5.77734060419218 4.728696340894128 5.489485016283571 0 0 0
371 124 1 0.5897 7.755036976058601 3.6240039470821603 10.068956744773368 0 0 0
341 114 1 0.5897 3.956296103886734 3.4763264659325417 10.022326883869614 0 0 0
29 10 1 0.5897 6.834994971814587 0.9840691052474358 5.139075683771108 0 0 0
28 10 2 -1.1794 5.899327740182565 0.8414971969226375 5.281775237224168 0 0 0
24 8 1 0.5897 2.484545979420424 0.1386822407640338 5.654814456775112 0 0 0
340 114 2 -1.1794 3.722672639749696 4.3717145900724965 10.267391278482968 0 0 0
102 34 1 0.5897 0.34752843050395765 0.867701698880972 5.148186815196473 1 0 0
22 8 2 -1.1794 2.243100209025566 0.9797693256983807 5.266687840800059 0 0 0
649 217 2 -1.1794 2.3518104434322127 2.5485181032002973 13.890427483804855 0 0 0
650 217 1 0.5897 1.958428240221047 1.962342834246519 13.243900367329832 0 0 0
651 217 1 0.5897 1.8040108323205168 2.4493213409875714 14.669145105465745 0 0 0
348 116 1 0.5897 2.364985844794616 1.243429386007146 10.955127344779976 0 0 0
346 116 2 -1.1794 1.896857647978138 0.9099969279491056 11.720645044635756 0 0 0
350 117 1 0.5897 2.319570568886036 4.340188878196792 13.572513809169862 0 0 0
347 116 1 0.5897 0.9737892190581114 0.9399701163134387 11.469205531575268 0 0 0
683 228 1 0.5897 4.247400713455758 2.5695373051310093 14.146777603319748 0 0 0
354 118 1 0.5897 5.622465058246839 1.235345615439419 12.918850763245237 0 0 0
386 129 1 0.5897 9.167877078326686 4.5405543367373795 13.623625550525638 0 0 0
330 110 1 0.5897 4.66573089245089 1.409978925326123 10.494343621410282 0 0 0
370 124 2 -1.1794 7.886473308656929 4.479292195836072 10.478317685827822 0 0 0
686 229 1 0.5897 8.935199310762405 2.24781380261998 14.370821648590775 0 0 0
332 111 1 0.5897 5.03707327132853 4.411640069996884 11.519872170869188 0 0 0
682 228 2 -1.1794 5.201048138318314 2.580771985064635 14.227917231668215 0 0 0
384 128 1 0.5897 9.069867586964707 1.0136995308267132 10.89949478573554 0 0 0
353 118 1 0.5897 6.55817555327481 1.0491837670999202 11.743311705717097 0 0 0
685 229 2 -1.1794 9.365316272839472 2.599932500405767 13.591486996761736 0 0 0
336 112 1 0.5897 1.980031231320698 4.440511236464949 10.876407952978209 0 0 0
684 228 1 0.5897 5.4968748216049015 3.1341691047765976 13.505000909756427 0 0 0
383 128 1 0.5897 8.698959601214806 1.4391779024952736 12.304380917848595 0 0 0
382 128 2 -1.1794 8.380778344822339 0.9302481377980236 11.55864095866964 0 0 0
372 124 1 0.5897 7.178796451497031 4.550084524949762 11.118977960829874 0 0 0
352 118 2 -1.1794 5.653109478550319 0.906623278203659 12.020291064884276 0 0 0
334 112 2 -1.1794 1.0447356942926411 4.261833992714948 10.779130319727871 0 0 0
331 111 2 -1.1794 5.698051245183951 4.434382208383918 12.211860382670869 0 0 0
377 126 1 0.5897 9.70203023699139 4.42496980356783 10.634316421216493 0 0 0
717 239 1 0.5897 6.814946540209628 2.302001410048875 15.30169147216752 0 0 0
653 218 1 0.5897 3.4565075606713287 1.0906449146804853 17.756325967162176 0 0 0
652 218 2 -1.1794 4.254705170352404 1.2784090067695535 17.26251614605237 0 0 0
664 222 2 -1.1794 3.968576819637546 4.0598925956649925 17.107125425084593 0 0 0
671 224 1 0.5897 2.1575802794971937 1.7836351821085736 19.55960193349242 0 0 0
666 222 1 0.5897 4.068386123317863 3.125149819036174 16.926394854646787 0 0 0
670 224 2 -1.1794 2.0010825755183603 1.021252280475072 19.00223655488704 0 0 0
665 222 1 0.5897 3.022609591191207 4.193146092972078 17.16665063151435 0 0 0
681 227 1 0.5897 0.8205712473768546 2.695931447789066 16.562373010536103 0 0 0
672 224 1 0.5897 1.0477309455877881 0.953138833499697 18.950951899450008 0 0 0
658 220 2 -1.1794 1.307147944308884 4.338966020950713 17.208547287791156 0 0 0
696 232 1 0.5897 7.539081552072548 4.953509419678859 17.129001341493524 0 0 0
654 218 1 0.5897 4.331527882848356 0.551083333570232 16.644877973770193 0 0 0
715 239 2 -1.1794 7.636712638712982 2.0426199158730967 15.71839662225055 0 0 0
716 239 1 0.5897 7.559644404335954 1.0952574780139253 15.8320838685796 0 0 0
677 226 1 0.5897 5.343658622177855 0.8958964937620175 18.668264719626357 0 0 0
655 219 2 -1.1794 5.628130154526272 4.504943900195483 19.358235978097202 0 0 0
659 220 1 0.5897 0.7680805569261869 4.49082018741837 17.984872169019468 0 0 0
38 13 1 0.5897 8.974077597063415 2.0197632413799274 20.248769282501176 0 0 -1
656 219 1 0.5897 4.95711486368557 4.29127057798392 18.709883166305453 0 0 0
884 295 1 0.5897 0.9214080080931802 0.20528213714418087 15.88554142053683 0 1 0
695 232 1 0.5897 7.512591962682368 3.4473601014404562 17.280704486408286 0 0 0
708 236 1 0.5897 7.51290901866071 0.7253402487851524 18.90584270766351 0 0 0
657 219 1 0.5897 6.456992805916278 4.337456991043327 18.909755931487194 0 0 0
676 226 2 -1.1794 5.760184397130813 0.6532291285793856 19.49529212472503 0 0 0
706 236 2 -1.1794 8.46982262448425 0.7110257816471951 18.88965257407631 0 0 0
694 232 2 -1.1794 7.776313436986108 4.249158040676352 17.73228510940332 0 0 0
660 220 1 0.5897 0.9418074787235557 4.923659211592597 16.544456127508067 0 0 0
689 230 1 0.5897 9.985603428814137 0.971466795012032 17.454886669851973 0 0 0
679 227 2 -1.1794 0.6126771201505081 2.0195317715901298 15.91768988862739 0 0 0
702 234 1 0.5897 9.57758318047768 4.333555122076645 17.75732384949025 0 0 0
113 38 1 0.5897 4.855147041907437 8.04903485386641 3.979908092623318 0 0 0
176 59 1 0.5897 7.719320764447106 7.84469418272181 2.1523353782950556 0 0 0
140 47 1 0.5897 1.130593540033403 9.111029718442346 2.749254117154567 0 0 0
139 47 2 -1.1794 1.0508467662720642 8.63499881627805 1.9225539899652944 0 0 0
15 5 1 0.5897 4.610321702026667 6.788830245384005 2.226818795462194 0 0 0
110 37 1 0.5897 2.1007897405175493 8.909603001607238 0.6304925612876716 0 0 0
674 225 1 0.5897 2.07564072309807 5.643922862767529 0.5439521017173867 0 0 1
57 19 1 0.5897 7.8273061169545075 5.2057475656904675 2.583800041279482 0 0 0
14 5 1 0.5897 4.137061027010256 6.006429431989205 1.020116888049826 0 0 0
112 38 2 -1.1794 4.169051119612163 8.12196333722534 3.3164251307392676 0 0 0
114 38 1 0.5897 3.357725809492763 7.935426249309406 3.788849226115488 0 0 0
141 47 1 0.5897 1.0351399329678905 7.7124217254997625 2.17742270688175 0 0 0
19 7 2 -1.1794 0.7468431439169142 5.760468605515892 1.7547819767088293 0 0 0
13 5 2 -1.1794 4.789221436646121 5.996228783241431 1.720732638953532 0 0 0
20 7 1 0.5897 0.8322861637758153 5.24711796600194 2.558255736701891 0 0 0
55 19 2 -1.1794 7.690805694066992 5.933562723414968 1.97714031689768 0 0 0
143 48 1 0.5897 6.1598699936067325 9.067778054113976 0.9736647885162399 0 0 0
177 59 1 0.5897 8.36332034995926 8.90052265661041 1.279021507948492 0 0 0
155 52 1 0.5897 8.048213441374207 9.891039084708689 3.3480645805505413 0 0 0
56 19 1 0.5897 6.802375522282431 5.805537515949806 1.6447504586542787 0 0 0
111 37 1 0.5897 3.4966515511012815 9.257152987812763 0.15871230767114786 0 0 0
175 59 2 -1.1794 7.736889564940745 8.788639312770917 1.9941260102044631 0 0 0
711 237 1 0.5897 8.779659438146075 5.629478111512486 0.6889756906742796 0 0 1
149 50 1 0.5897 9.995219483839561 8.000416106011773 3.45397045031064 0 0 0
142 48 2 -1.1794 5.480351467886238 9.092666765983349 0.2999319034309941 0 0 0
673 225 2 -1.1794 2.8240235928897657 5.5943645291190185 -0.05079630101426141 0 0 1
130 44 2 -1.1794 1.9247930106365465 7.58341086748531 4.91846298767987 0 0 0
132 44 1 0.5897 0.9723411471133678 7.664818329159967 4.967024281016371 0 0 0
166 56 2 -1.1794 8.736593807754993 7.613732092446313 4.766319871570899 0 0 0
138 46 1 0.5897 6.952302759484608 7.658548763049483 5.005573874438574 0 0 0
709 237 2 -1.1794 9.388853495217678 5.341565669868824 0.009078194450601984 0 0 1
131 44 1 0.5897 2.126641391282962 6.809488004551173 5.444460138249796 0 0 0
167 56 1 0.5897 8.850615710667983 6.752495615704803 5.168373770941343 0 0 0
26 9 1 0.5897 1.7603531353476924 6.024443759952837 7.366781755852486 0 0 0
468 156 1 0.5897 4.45814353628951 9.236369855474344 7.481491628530875 0 0 0
345 115 1 0.5897 0.38346231488552573 6.966139028140912 9.04464120499007 0 0 0
437 146 1 0.5897 4.300501488083222 7.574190118549649 9.495995329978848 0 0 0
463 155 2 -1.1794 0.8659210732380008 8.732311412022566 9.105196285103707 0 0 0
433 145 2 -1.1794 2.619031302318744 9.198562243996403 6.9807826479238315 0 0 0
464 155 1 0.5897 1.578759500118156 8.596311387564402 8.48098987659996 0 0 0
339 113 1 0.5897 4.198928944820225 6.180056863258521 7.539179194303469 0 0 0
435 145 1 0.5897 2.3082110495432273 8.830906872318588 6.153382681368202 0 0 0
343 115 2 -1.1794 0.35128181248822976 6.0643965676285205 8.724954347569804 0 0 0
61 21 2 -1.1794 9.3866564638375 5.392886462008206 6.239947636695307 0 0 0
337 113 2 -1.1794 4.672369350520025 6.328387671640524 8.35784080914587 0 0 0
380 127 1 0.5897 7.504385085934865 6.866419481985701 8.462668391239442 0 0 0
467 156 1 0.5897 5.604332912427943 8.53661316920237 6.782525456814616 0 0 0
25 9 2 -1.1794 2.4104766265030904 5.6177928273374445 6.793841089997183 0 0 0
338 113 1 0.5897 5.5692101170894714 6.051791505818176 8.1698173642365 0 0 0
466 156 2 -1.1794 5.412690053974302 9.165756565368808 7.478103487690012 0 0 0
344 115 1 0.5897 0.6303161381814808 5.534822729452243 9.471988893230499 0 0 0
62 21 1 0.5897 8.611687999577363 5.586444821400901 6.767396655619447 0 0 0
137 46 1 0.5897 5.903624766431463 6.666340950993027 5.461360974773041 0 0 0
136 46 2 -1.1794 6.060541215529661 7.603940361146722 5.349009586135434 0 0 0
470 157 1 0.5897 8.941575624490055 9.096049487390635 7.6348417235550405 0 0 0
469 157 2 -1.1794 9.43722240176879 9.359498313735147 6.859427947229609 0 0 0
500 167 1 0.5897 7.703197136358626 9.29228218456618 9.621616715359783 0 0 0
501 167 1 0.5897 6.8554821215972925 8.906537283533673 8.42799603146035 0 0 0
379 127 2 -1.1794 7.342783321783822 5.967444206450011 8.176148790437317 0 0 0
499 167 2 -1.1794 7.634664598091303 8.645722231247614 8.91900883292965 0 0 0
168 56 1 0.5897 8.974592388693303 8.23381982929071 5.4556880027671335 0 0 0
381 127 1 0.5897 7.412487000992809 5.444719681999911 8.975085728894825 0 0 0
438 146 1 0.5897 4.082218348148631 8.916078879921782 10.162276189032001 0 0 0
465 155 1 0.5897 0.11049863678992722 8.956094842951256 8.561591132485773 0 0 0
436 146 2 -1.1794 4.138361768251319 7.978737598120544 10.348310389719337 0 0 0
792 264 1 0.5897 4.715603612734387 9.194958566762116 14.109825298587802 0 0 0
461 154 1 0.5897 5.789085531255107 7.9176322681359395 12.713799240056794 0 0 0
351 117 1 0.5897 3.1752145330557773 5.427731272213671 14.186660387741593 0 0 0
456 152 1 0.5897 2.476791852941405 6.733407324845285 12.508535239003422 0 0 0
454 152 2 -1.1794 2.2019185791831846 7.542603466108678 12.07725581460031 0 0 0
757 253 2 -1.1794 2.806524053700197 9.263886191514446 14.222153871078518 0 0 0
759 253 1 0.5897 2.433945458455053 8.759372089176662 13.498955210911138 0 0 0
455 152 1 0.5897 2.8722929173214435 7.699918123352462 11.412340319695812 0 0 0
668 223 1 0.5897 1.0079752748125446 5.791471119009946 14.73266728945634 0 0 0
385 129 2 -1.1794 9.122477753039808 5.466620291035683 13.861773540325709 0 0 0
491 164 1 0.5897 9.148547499873517 7.795261997288087 11.109744692568334 0 0 0
793 265 2 -1.1794 9.21184445947051 9.237676510428845 14.037354535930833 0 0 0
794 265 1 0.5897 8.94594190953493 8.816787260614495 13.219716956731434 0 0 0
387 129 1 0.5897 8.935853320238515 5.917362473211504 13.038123291717184 0 0 0
492 164 1 0.5897 7.788346199327745 7.481095115120142 11.695392662569041 0 0 0
462 154 1 0.5897 5.404242202802401 7.369059837837302 11.356135712117752 0 0 0
333 111 1 0.5897 5.777212675518113 5.361232854788117 12.437792604343125 0 0 0
790 264 2 -1.1794 5.644716787644317 9.249923148457052 13.886479868621544 0 0 0
791 264 1 0.5897 6.098036873778057 9.178724884066641 14.726581889852865 0 0 0
661 221 2 -1.1794 4.596374053020773 5.886631651629063 15.245426804435677 0 0 0
460 154 2 -1.1794 6.043983403374377 7.265858385851415 12.06065907160209 0 0 0
490 164 2 -1.1794 8.717977758567896 7.5215279110418205 11.919708813197063 0 0 0
705 235 1 0.5897 7.8695991257016145 5.785924656139947 15.061624888866659 0 0 0
349 117 2 -1.1794 2.406377187531558 5.291597366892359 13.632959078989554 0 0 0
533 178 1 0.5897 0.2829512983830469 7.568625322098777 11.816936941352651 1 0 0
824 275 1 0.5897 8.059675019143372 8.893753103721453 15.35780661017677 0 0 0
704 235 1 0.5897 6.413530082442713 6.001287029546876 15.415514368227674 0 0 0
667 223 2 -1.1794 0.34875985171894386 6.021421633145555 15.387524312880029 0 0 0
804 268 1 0.5897 7.786868255384002 9.96803709848724 17.164039135626712 0 0 0
761 254 1 0.5897 4.00872093211354 8.810357222269532 17.295176885011756 0 0 0
662 221 1 0.5897 4.360826613038199 5.121368201053486 15.770075849419323 0 0 0
788 263 1 0.5897 1.0298946166404503 9.335459876267679 16.818889210856618 0 0 0
675 225 1 0.5897 2.5707045797205605 6.132591395370678 20.07998800491371 0 0 0
779 260 1 0.5897 2.364223777798704 8.08997054047397 19.344701614874488 0 0 0
760 254 2 -1.1794 4.247449086381368 7.884782972507508 17.243406926178782 0 0 0
780 260 1 0.5897 2.8622839067318235 7.345567671496739 18.12405722720202 0 0 0
778 260 2 -1.1794 2.1839493581520295 7.32436960131067 18.799085975538148 0 0 0
762 254 1 0.5897 4.876800562869485 7.759198908973432 17.95364738671278 0 0 0
784 262 2 -1.1794 6.123205428699379 7.277309126754238 19.14083437553022 0 0 0
787 263 2 -1.1794 0.9525442329405872 8.629811988391848 16.176665867160484 0 0 0
858 286 1 0.5897 0.3246088112216046 7.310018790177376 18.856175811536172 1 0 0
823 275 2 -1.1794 7.412908360409686 8.678274652517848 16.029773055275257 0 0 0
814 272 2 -1.1794 8.878554878837644 7.111891778674442 18.78853117733805 0 0 0
825 275 1 0.5897 7.452130049443535 7.724666357355883 16.103631512497063 0 0 0
815 272 1 0.5897 8.995181960069536 6.3899612078139585 19.4062643919387 0 0 0
703 235 2 -1.1794 7.293853531549239 6.015720451653024 15.791031113645051 0 0 0
785 262 1 0.5897 5.874047400141341 6.365286144769706 19.290784883721567 0 0 0
786 262 1 0.5897 7.0790403520209155 7.260236619598426 19.093418470889148 0 0 0
816 272 1 0.5897 8.952592211519034 7.901195714939289 19.32508892634727 0 0 0
663 221 1 0.5897 4.399028973862507 6.634364842846863 15.809598471913738 0 0 0
669 223 1 0.5897 0.5270562228967242 6.938572363199026 15.59581760909821 0 0 0
144 48 1 0.5897 5.778824572743433 8.472211923104375 20.515667275260782 0 0 -1
145 49 2 -1.1794 9.253775854664951 9.0800049041404 20.667499016101626 0 0 -1
109 37 2 -1.1794 2.591101005074622 9.187190695473753 20.737411347966482 0 0 -1
789 263 1 0.5897 1.698344885916521 8.75625824317941 15.590114205388625 0 0 0
120 40 1 0.5897 1.0526384694938011 11.227199154465612 3.3082579998933928 0 0 0
129 43 1 0.5897 0.8070565722318034 13.360587548998348 1.9251572495482163 0 0 0
118 40 2 -1.1794 1.321037152225793 10.625478109339108 4.002707909926703 0 0 0
119 40 1 0.5897 2.2554138684792875 10.796455076409133 4.120482158495487 0 0 0
240 80 1 0.5897 2.6082993027237364 14.024844238672058 4.519911499801469 0 0 0
127 43 2 -1.1794 0.7542196033186118 12.415922487965167 1.7796361037408102 0 0 0
285 95 1 0.5897 7.581795302752327 14.549725961301139 2.1378838019065523 0 0 0
124 42 2 -1.1794 4.11576279142592 10.882678775352439 3.8885761213830374 0 0 0
123 41 1 0.5897 4.092910818701636 12.272070922084243 1.1191796949039134 0 0 0
121 41 2 -1.1794 4.753493134110598 12.388493847014116 1.8020897237597073 0 0 0
222 74 1 0.5897 4.378453217240013 13.806487578038155 2.8646260032949162 0 0 0
246 82 1 0.5897 5.566402499856226 14.064635815264639 4.774470162120471 0 0 0
122 41 1 0.5897 4.48791450830162 11.78723000702851 2.4980226276434503 0 0 0
783 261 1 0.5897 1.9592875408393695 12.27211648353555 0.5273197593061093 0 0 1
125 42 1 0.5897 4.838603064258449 10.862044462377204 4.515731107055854 0 0 0
164 55 1 0.5897 6.560318398236078 12.444325636885965 2.0589983884268377 0 0 0
819 273 1 0.5897 8.286145566695435 12.064681347197428 0.5288149673678136 0 0 1
220 74 2 -1.1794 4.161217122444436 14.371147933914884 3.6064675181132206 0 0 0
156 52 1 0.5897 9.134987727150438 10.79986404306813 3.881836947210968 0 0 0
276 92 1 0.5897 9.390971469814914 14.037314606548403 4.318461009904289 0 0 0
163 55 2 -1.1794 7.462370924554056 12.695085468660386 2.258003389190625 0 0 0
154 52 2 -1.1794 8.187103920972685 10.667235393317483 3.8908353762796417 0 0 0
165 55 1 0.5897 7.764649446356332 12.031523779611822 2.8782004632001907 0 0 0
317 106 1 0.5897 0.12435028657188693 14.073196222396712 4.972045230698907 1 0 0
126 42 1 0.5897 4.113145021649819 10.009376094606875 3.4965115343187363 0 0 0
275 92 1 0.5897 7.99995403153374 14.054232392523971 4.915612126277463 0 0 0
817 273 2 -1.1794 9.002475625614062 11.80449741232362 -0.0503608197145601 0 0 1
781 261 2 -1.1794 2.689142930341079 12.200389721228877 -0.08781711272066463 0 0 1
133 45 2 -1.1794 2.421079517053467 11.981578547895296 7.029311956838555 0 0 0
134 45 1 0.5897 1.7465297729306 12.27308689258878 7.6427181164352405 0 0 0
135 45 1 0.5897 3.244549755620569 12.267802487365685 7.424527342836037 0 0 0
453 151 1 0.5897 0.8164822029600907 12.285376509974947 9.651355428838787 0 0 0
451 151 2 -1.1794 0.6290240314855553 12.867767586935955 8.915107549344105 0 0 0
450 150 1 0.5897 4.318989774063588 11.265803949955172 9.73695791349072 0 0 0
446 149 1 0.5897 4.424124504032179 13.15399293787616 8.91243684774414 0 0 0
573 191 1 0.5897 0.5762756866323416 14.554998192609327 9.024935752862335 0 0 0
489 163 1 0.5897 7.443426226102207 13.337784902211732 9.0279197923347 0 0 0
445 149 2 -1.1794 4.6896559527809805 12.442493869690189 8.329657612355433 0 0 0
117 39 1 0.5897 5.928677956193989 10.519815628374607 6.500346360016376 0 0 0
245 82 1 0.5897 6.1036032991024864 12.935909911708372 5.628634086174892 0 0 0
170 57 1 0.5897 9.235668869795624 12.528611750929322 6.053423769482406 0 0 0
447 149 1 0.5897 5.640165105679058 12.531201256731347 8.260304953847617 0 0 0
169 57 2 -1.1794 9.312611907247256 12.101490617143059 6.906679583805603 0 0 0
480 160 1 0.5897 7.691020143986868 11.19259716650366 10.056772347967211 0 0 0
488 163 1 0.5897 7.923603405393023 12.34686866423877 7.988808957310473 0 0 0
171 57 1 0.5897 9.302653379185433 11.165106289103523 6.708091862940732 0 0 0
115 39 2 -1.1794 6.130982028148386 11.126012886939149 5.787617673331604 0 0 0
487 163 2 -1.1794 7.37898892242715 12.417368839650646 8.772871592732299 0 0 0
239 80 1 0.5897 2.1757796044709985 13.11224425469309 5.647893611977714 0 0 0
434 145 1 0.5897 2.3894152074135135 10.126609967357899 6.932372514329302 0 0 0
575 192 1 0.5897 5.635745247058711 14.850213141742485 6.84794382765227 0 0 0
443 148 1 0.5897 1.0420227416761922 10.205265554453026 10.056426697421228 0 0 0
244 82 2 -1.1794 6.255188259511382 13.854265560221263 5.405026805186808 0 0 0
544 182 2 -1.1794 4.335689231547494 14.413308317595336 10.270758736801199 0 0 0
238 80 2 -1.1794 1.9212198830347684 13.904986157939742 5.175530946885323 0 0 0
188 63 1 0.5897 0.18397973105723348 11.163046731831928 5.199857280637573 1 0 0
116 39 1 0.5897 6.918133214611455 10.763935211083421 5.380767236270538 0 0 0
274 92 2 -1.1794 8.925737683027272 14.009711679635027 5.15460715968918 0 0 0
457 153 2 -1.1794 2.757193265183827 11.9456850807074 13.538145080842463 0 0 0
458 153 1 0.5897 2.0736977838701782 12.128558270640976 14.182873940224914 0 0 0
459 153 1 0.5897 3.577155517954004 12.093389247882607 14.009389470771215 0 0 0
562 188 2 -1.1794 2.0159979258752116 14.158129474327106 11.81132985891337 0 0 0
563 188 1 0.5897 2.1318593715410805 13.344852818960046 12.302793304041748 0 0 0
494 165 1 0.5897 8.597891012557794 12.22901616350789 14.132840533008126 0 0 0
642 214 1 0.5897 0.24937813270210873 14.152498446320951 12.057056615065713 1 0 0
444 148 1 0.5897 2.2288362035110643 10.873445318985222 10.717441472370291 0 0 0
770 257 1 0.5897 5.645397234090669 12.19681340466271 15.51983648791125 0 0 0
478 160 2 -1.1794 7.919478102039239 10.656743160474301 10.816414283550117 0 0 0
449 150 1 0.5897 4.5666853134828855 11.175152312400398 11.227852784639031 0 0 0
758 253 1 0.5897 2.8645528975542613 10.158304422621853 13.88596305139386 0 0 0
545 182 1 0.5897 3.5102172991470426 14.304414719919768 10.742929917902847 0 0 0
775 259 2 -1.1794 0.9167137328555999 12.432803081800445 15.55336548970912 0 0 0
570 190 1 0.5897 7.054012744328358 14.501696728986133 12.35431285636869 0 0 0
795 265 1 0.5897 9.260588516401322 10.169338942340795 13.82288864748147 0 0 0
546 182 1 0.5897 5.005621495704845 14.408082249627002 10.954434196480113 0 0 0
441 147 1 0.5897 5.8422209266314065 10.938894795070455 13.082497996574254 0 0 0
493 165 2 -1.1794 9.288461780285992 12.105971598076454 13.481494229747334 0 0 0
439 147 2 -1.1794 5.962201991129219 11.58455555903086 12.386004671837556 0 0 0
440 147 1 0.5897 6.7249619441069415 11.273070527542748 11.898762520528773 0 0 0
598 200 2 -1.1794 8.884512779100296 14.419291422270915 12.02701133454099 0 0 0
599 200 1 0.5897 8.972294155302466 13.592706995080693 12.501784194379907 0 0 0
569 190 1 0.5897 6.067557893246964 13.374602743035526 12.574674119217566 0 0 0
568 190 2 -1.1794 6.1377188936613605 14.329288942493934 12.570720910189333 0 0 0
479 160 1 0.5897 8.863239977355711 10.777812050985853 10.920369951842144 0 0 0
442 148 2 -1.1794 1.2721610049076892 10.885427402860694 10.689506989687544 0 0 0
512 171 1 0.5897 -0.023073715773527122 11.086396374049174 11.985752173156774 1 0 0
564 188 1 0.5897 2.311655697809515 14.844345528016373 12.409712364015062 0 0 0
776 259 1 0.5897 -0.01739238647538599 12.319842150749558 15.377745976996648 0 0 0
448 150 2 -1.1794 4.0020507224156345 10.837769751499717 10.532387727586709 0 0 0
768 256 1 0.5897 0.9993879352416837 11.368814497835196 17.02627657446379 0 0 0
888 296 1 0.5897 2.3481761803445584 13.392566498745037 19.532696551431656 0 0 0
766 256 2 -1.1794 1.173946999710835 10.822556501830938 17.79274912903323 0 0 0
773 258 1 0.5897 3.024768076134614 10.745973650642888 17.802221713591823 0 0 0
886 296 2 -1.1794 2.180779050301158 14.145813043340747 18.96614840310899 0 0 0
774 258 1 0.5897 4.064235089992492 11.038225099091353 16.741018850368018 0 0 0
772 258 2 -1.1794 3.886301561877501 10.469334841198718 17.490081948281407 0 0 0
812 271 1 0.5897 7.428771818696145 13.287098280334385 15.849309356507835 0 0 0
869 290 1 0.5897 3.435218990244543 14.342272638477208 17.557785467378807 0 0 0
868 290 2 -1.1794 4.260319723684318 14.487058582369642 17.094678090838432 0 0 0
782 261 1 0.5897 2.73566555849349 11.267497677769269 20.583488215332988 0 0 0
767 256 1 0.5897 0.5209666727777501 11.09676411803896 18.43672862480836 0 0 0
923 308 1 0.5897 8.932402798068173 14.586456819559277 19.391484102513783 0 0 0
763 255 2 -1.1794 5.734653980583783 11.195633718103132 19.33919730505554 0 0 0
764 255 1 0.5897 5.113046170172291 10.910903245414758 18.66925357938887 0 0 0
965 322 1 0.5897 0.3146706571111118 14.11095028103574 18.864775468920246 1 0 0
870 290 1 0.5897 4.936302765892582 14.243097225960836 17.726979585188257 0 0 0
892 298 2 -1.1794 6.02606537506723 13.957775856623114 19.024940611220536 0 0 0
813 271 1 0.5897 7.602028709622002 11.880696140745686 16.38245566570795 0 0 0
818 273 1 0.5897 8.92456313972972 12.387710898938185 20.07533292161124 0 0 0
924 308 1 0.5897 9.501261210770465 13.964067182237507 18.133994387996754 0 0 0
765 255 1 0.5897 5.586564646313902 10.59912699206683 20.073116263003744 0 0 0
803 268 1 0.5897 7.408477105941086 10.868999794747792 18.320459499364347 0 0 0
922 308 2 -1.1794 8.84519845523003 13.825591151799754 18.81714642571368 0 0 0
893 298 1 0.5897 6.97118290265365 13.957370303078287 18.87355527040626 0 0 0
894 298 1 0.5897 5.804969882785246 13.036897488543186 19.164437861735518 0 0 0
802 268 2 -1.1794 8.067905641600907 10.751648898546529 17.63659788948181 0 0 0
811 271 2 -1.1794 7.360404843893133 12.367014845330706 15.594102998762468 0 0 0
887 296 1 0.5897 2.169942282470473 14.895785078232887 19.56096964425876 0 0 0
777 259 1 0.5897 0.9896871375919816 13.321425199824903 15.901788315566872 0 0 0
810 270 1 0.5897 9.889125960266513 10.746982856686804 17.48983727808816 0 0 0
771 257 1 0.5897 4.524054668045078 13.077270471538103 16.029049000835993 0 0 0
146 49 1 0.5897 9.034744607772575 10.004965002635663 20.554219337027508 0 0 -1
769 257 2 -1.1794 4.693111240817871 12.233966431148447 15.608783035664697 0 0 0
249 83 1 0.5897 1.4689442020083605 15.495485440115296 1.426636779909932 0 0 0
229 77 2 -1.1794 4.386511120310695 19.056935009710074 1.699446720256737 0 0 0
248 83 1 0.5897 0.9141264246757287 15.773839958995497 2.8075606163984452 0 0 0
233 78 1 0.5897 4.0907669892165135 17.728058618773275 2.952978846059994 0 0 0
890 297 1 0.5897 1.9932783896045563 18.90860416578522 0.5169884428629802 0 0 1
232 78 2 -1.1794 3.8906752306722345 17.172355513398543 3.70633277605675 0 0 0
283 95 2 -1.1794 7.518663405446666 15.434609523953771 1.7782185745684642 0 0 0
226 76 2 -1.1794 1.2107959935777852 17.580473627095117 3.844865027594682 0 0 0
235 79 2 -1.1794 0.8701117762225915 19.534863138672073 1.976934936942948 0 0 0
230 77 1 0.5897 3.937475088735686 18.998226376796026 0.8560815714131895 0 0 0
227 76 1 0.5897 1.0269620503001915 18.354193830581828 3.3120039352619832 0 0 0
228 76 1 0.5897 0.5843852552126724 17.631874899710247 4.566859354590309 0 0 0
234 78 1 0.5897 2.9410609265096626 17.237506933191113 3.8070910584752564 0 0 0
927 309 1 0.5897 8.392067128946515 18.741073633047122 0.18309845314871687 0 0 1