LAMMPS data file via write_data, version 30 Jul 2021, timestep = 4500000

972 atoms
2 atom types
648 bonds
1 bond types
324 angles
1 angle types

0.0027186781793364645 19.997282321820286 xlo xhi
0.051443148612092315 19.948557851385253 ylo yhi
-0.08751157880789684 20.787509578809782 zlo zhi

Masses

1 1.008
2 15.999

Pair Coeffs # lj/cut/tip4p/long/omp

1 0 0
2 0.21084 3.1668

Bond Coeffs # harmonic/omp

1 450 0.9572

Angle Coeffs # harmonic/omp

1 55 104.52

Atoms # full

4 2 2 -1.1794 4.299127562573914 1.3357579262688737 3.28949693996416 0 0 0
5 2 1 0.5897 4.312074040219294 0.6921280498376196 2.5811502110767783 0 0 0
17 6 1 0.5897 4.467906140193061 4.4575439869479325 2.7284129338095413 0 0 0
10 4 2 -1.1794 1.3908304407945078 4.276432008301211 3.7639073412768864 0 0 0
11 4 1 0.5897 1.316038558723252 3.4885637174246824 3.2255523190026527 0 0 0
12 4 1 0.5897 2.323373805540889 4.338346248518109 3.9704156931727983 0 0 0
16 6 2 -1.1794 4.218906061423214 4.06198289590014 3.563711575717148 0 0 0
18 6 1 0.5897 4.245831633198054 3.1192845357424743 3.400270370166029 0 0 0
23 8 1 0.5897 2.860608830667337 0.8658719853746771 4.340245080943887 0 0 0
31 11 2 -1.1794 0.9547237509974904 2.1613000765414645 1.9951494056841077 0 0 0
33 11 1 0.5897 1.5912427264977484 2.278003900829314 1.2898778541490412 0 0 0
236 79 1 0.5897 0.9127585359277248 0.3626444706630561 1.9262674925583543 0 1 0
3 1 1 0.5897 3.513067770527385 2.5854051596816996 0.19341095776119904 0 0 0
32 11 1 0.5897 0.10384859354757253 2.2738226623380355 1.5714712195798028 0 0 0
22 8 2 -1.1794 2.2280545425778158 0.8939170615222356 5.058037524306731 0 0 0
6 2 1 0.5897 4.954372488625115 1.0207286142784269 3.912058039840865 0 0 0
102 34 1 0.5897 0.4406203240379909 1.1061781254669263 5.011901651703101 1 0 0
357 119 1 0.5897 0.09971673262425416 2.269673527517626 8.77759265840711 0 0 0
27 9 1 0.5897 2.8584355457797033 4.167573450758647 6.7562527728533235 0 0 0
356 119 1 0.5897 1.6007986134913235 2.1915416463512547 8.59795083055935 0 0 0
325 109 2 -1.1794 2.776577606762489 2.4543155890513755 7.330731398535396 0 0 0
326 109 1 0.5897 2.558712796072944 2.065986373678077 6.4834154668558 0 0 0
327 109 1 0.5897 3.7228858028383587 2.336281694505314 7.412599333463699 0 0 0
330 110 1 0.5897 4.363999570247258 0.8044173753219122 9.711710460254418 0 0 0
355 119 2 -1.1794 0.9007797671739046 1.984503201695451 9.217043784305782 0 0 0
342 114 1 0.5897 4.154961496875897 4.719166531385817 9.993480494101256 0 0 0
561 187 1 0.5897 0.8431691182175818 0.24268510635049823 8.961057592362272 0 1 0
328 110 2 -1.1794 4.331596445446186 1.5172198948181301 10.349697420700132 0 0 0
24 8 1 0.5897 2.391215462414764 0.09122488221294134 5.553228754388097 0 0 0
335 112 1 0.5897 0.961831182483251 3.5209997950931937 10.196213124201925 0 0 0
651 217 1 0.5897 1.9502723549700345 2.4900405040211218 14.518115695270684 0 0 0
683 228 1 0.5897 4.293493558283996 2.675780379806778 14.400344561264822 0 0 0
346 116 2 -1.1794 2.19403377439105 0.7987951837829875 11.824997864906555 0 0 0
347 116 1 0.5897 1.3658530637617647 1.0679238261922572 11.427718419802522 0 0 0
348 116 1 0.5897 2.8549993017366897 1.0027882696513541 11.163415082044272 0 0 0
350 117 1 0.5897 2.6242668007234475 4.5585269015496905 13.671602260861633 0 0 0
649 217 2 -1.1794 2.5473209087776394 2.7731235250288115 13.825599014918534 0 0 0
650 217 1 0.5897 2.3789356196447664 2.169635230705718 13.101975393030491 0 0 0
334 112 2 -1.1794 1.0689182288254613 4.361777947780064 10.640902834642938 0 0 0
336 112 1 0.5897 1.9939208281687715 4.3877907766340165 10.885491338074383 0 0 0
329 110 1 0.5897 4.891822385435765 1.2224217795689805 11.06763070724233 0 0 0
340 114 2 -1.1794 3.8429308917289915 4.207451946448038 10.739788174020296 0 0 0
680 227 1 0.5897 0.04090838786794915 2.2102563251176486 15.387029511393159 0 0 0
341 114 1 0.5897 4.109040775913324 3.3093538054760225 10.542993727582173 0 0 0
652 218 2 -1.1794 4.250354926400786 1.4100462580435846 17.21102794573506 0 0 0
653 218 1 0.5897 3.388764833739172 1.2452557382035903 17.593980636226355 0 0 0
654 218 1 0.5897 4.322943476836544 0.7729933588285741 16.500342968942064 0 0 0
658 220 2 -1.1794 1.4298472183725122 4.185989578789995 17.50201716439988 0 0 0
659 220 1 0.5897 0.7354180918323479 4.180981465695558 18.160746236940867 0 0 0
664 222 2 -1.1794 4.100351895551175 4.080601106676053 17.334701131223127 0 0 0
665 222 1 0.5897 3.163383124344918 4.220438158024371 17.47133687481739 0 0 0
666 222 1 0.5897 4.195349194737458 3.1298680385937336 17.278112334728654 0 0 0
670 224 2 -1.1794 1.9741666539488751 1.0275658934279082 18.739750083438267 0 0 0
671 224 1 0.5897 2.1273362363153976 1.707490879507461 19.395807347688105 0 0 0
672 224 1 0.5897 1.0211651818012224 0.9579933583268379 18.684237941544204 0 0 0
681 227 1 0.5897 0.8937621165933295 2.6878075605655507 16.54304379479357 0 0 0
660 220 1 0.5897 1.1481788591061446 4.838905569914689 16.861290382153683 0 0 0
2 1 1 0.5897 2.5287449141139433 3.667597968625718 20.679103636896983 0 0 -1
679 227 2 -1.1794 0.8459872262065616 2.013167263951634 15.865731377755493 0 0 0
884 295 1 0.5897 0.6370444928896161 0.22201003068203834 15.70098806061144 0 1 0
1 1 2 -1.1794 2.6239862288785223 2.7171263322120747 20.73929943592617 0 0 -1
20 7 1 0.5897 1.1249975878140412 5.521867813469286 2.6264208945104475 0 0 0
141 47 1 0.5897 0.8465270112920017 7.888559628845924 2.2002604654318407 0 0 0
139 47 2 -1.1794 0.8645805477046244 8.797707311864505 1.9015203861392127 0 0 0
13 5 2 -1.1794 4.708527761538427 5.721333746919449 1.4515291714605922 0 0 0
14 5 1 0.5897 4.110795225972554 5.673916711550717 0.7054322729421506 0 0 0
15 5 1 0.5897 4.419235908313778 6.490477378467553 1.9423230874235804 0 0 0
19 7 2 -1.1794 0.9235123069408292 6.100612195616908 1.8911350515354841 0 0 0
140 47 1 0.5897 1.1236866724076875 9.299183821284268 2.674553980735618 0 0 0
126 42 1 0.5897 4.368561961260509 9.663286315035228 3.4606438035232077 0 0 0
674 225 1 0.5897 1.9156070464481407 5.722334216730342 0.3304347744634997 0 0 1
110 37 1 0.5897 2.0138399474051476 9.115971500973515 0.6153855876462933 0 0 0
112 38 2 -1.1794 4.420451631387086 7.832140716117356 3.2626533753171736 0 0 0
114 38 1 0.5897 3.619596561341522 7.607398292974856 3.736226821819565 0 0 0
130 44 2 -1.1794 2.141367419069434 7.3869441230291395 4.893657913831931 0 0 0
111 37 1 0.5897 3.4334682657484565 9.134630854092688 0.09004526969282572 0 0 0
132 44 1 0.5897 1.1853673437665857 7.42710309371928 4.8696597724665445 0 0 0
464 155 1 0.5897 1.5228187084352351 8.978032536099459 8.24321493210487 0 0 0
437 146 1 0.5897 4.285144979566994 7.374425021209707 9.552585671088487 0 0 0
468 156 1 0.5897 4.596221701034442 9.14745505605367 7.3922719017838645 0 0 0
26 9 1 0.5897 2.1075336043195185 5.401865456823161 7.2082585653715805 0 0 0
463 155 2 -1.1794 0.849369669213315 8.674053529511307 8.851674701613648 0 0 0
25 9 2 -1.1794 2.7813504705165886 5.107930475706332 6.5952903688738465 0 0 0
337 113 2 -1.1794 4.645042901882177 5.843861754780991 8.554428275170364 0 0 0
339 113 1 0.5897 4.199592530644551 5.681028303807494 7.723004072655376 0 0 0
343 115 2 -1.1794 0.8045559101927783 5.95295019121282 8.386148634365815 0 0 0
344 115 1 0.5897 1.100750187176067 5.595732454497857 9.223329500407297 0 0 0
345 115 1 0.5897 0.7663280325296363 6.8986236459736485 8.528844706488947 0 0 0
433 145 2 -1.1794 2.7641219436250637 9.316272193908366 6.99143617910034 0 0 0
435 145 1 0.5897 2.466014543875615 8.839286861402384 6.216965838455583 0 0 0
438 146 1 0.5897 4.166957122638804 8.769721890591873 10.127766129519255 0 0 0
131 44 1 0.5897 2.3358544640006356 6.554290225225643 5.323775951482578 0 0 0
465 155 1 0.5897 0.022881552542820316 8.848629015498146 8.401569222559656 0 0 0
443 148 1 0.5897 0.868234870906836 9.8896734541607 10.164355928261442 0 0 0
757 253 2 -1.1794 2.5382541397145313 9.439954578889168 14.233410463514154 0 0 0
349 117 2 -1.1794 2.643045554876918 5.513762987877557 13.728940443882838 0 0 0
792 264 1 0.5897 4.466639572521651 9.173626188963011 14.475507324744935 0 0 0
351 117 1 0.5897 3.469183241058575 5.711501392343264 14.170008841677399 0 0 0
454 152 2 -1.1794 2.061763120628797 7.719560433987223 12.141357008600277 0 0 0
455 152 1 0.5897 2.683538627950851 7.775256747665177 11.415772323912808 0 0 0
456 152 1 0.5897 2.276985718518582 6.896087416428737 12.579191843438222 0 0 0
759 253 1 0.5897 2.496877962925322 8.882170064018439 13.456656901772009 0 0 0
668 223 1 0.5897 1.1800196128868328 5.716283252629673 14.898291297631406 0 0 0
789 263 1 0.5897 1.3068667937613652 8.848907334345316 15.388457280106161 0 0 0
533 178 1 0.5897 0.28300852690077144 7.631756110119142 12.113599424916487 1 0 0
661 221 2 -1.1794 4.709675835326937 5.953297247019908 15.507096987716155 0 0 0
436 146 2 -1.1794 4.119597626347835 7.844843947246115 10.369594846491838 0 0 0
787 263 2 -1.1794 0.5857780564584141 8.662394383781658 15.989636194318416 0 0 0
788 263 1 0.5897 0.7378673934021112 9.243828636011811 16.734606539416383 0 0 0
663 221 1 0.5897 4.454916765559465 6.805449295186317 15.860748647336782 0 0 0
780 260 1 0.5897 2.8178702915782883 7.737740883485426 18.19624703131843 0 0 0
858 286 1 0.5897 0.2778071650927648 7.429051035130738 18.880836625919066 1 0 0
675 225 1 0.5897 2.4227913488759034 6.083273689275634 19.825484868583615 0 0 0
760 254 2 -1.1794 4.2542632509766865 8.167053173701875 17.21329961041483 0 0 0
761 254 1 0.5897 4.191817079172351 9.122076256747363 17.20101205435624 0 0 0
779 260 1 0.5897 2.049698279493778 8.137591561781363 19.43794623111365 0 0 0
778 260 2 -1.1794 2.069185319080777 7.48616581744598 18.73692796706481 0 0 0
669 223 1 0.5897 0.559811226486232 6.754524154589224 15.808852447989171 0 0 0
762 254 1 0.5897 4.949706613047821 7.980131515127827 17.843843065686364 0 0 0
662 221 1 0.5897 4.382245168036624 5.320605162000487 16.146361099907892 0 0 0
667 223 2 -1.1794 0.5145341967015232 5.826911438368232 15.577316137379437 0 0 0
109 37 2 -1.1794 2.52740041411187 9.298202613542891 20.7034842926124 0 0 -1
673 225 2 -1.1794 2.5715977500662626 5.478634066793087 20.552425892567364 0 0 0
783 261 1 0.5897 1.9522174198686892 12.337499346360012 0.6706899861761675 0 0 1
118 40 2 -1.1794 1.4726949585925628 10.688311910898022 3.807443519755424 0 0 0
119 40 1 0.5897 2.419882936064481 10.659118441407541 3.9419870366583263 0 0 0
120 40 1 0.5897 1.33374467957534 11.449126241241597 3.2435164350635306 0 0 0
122 41 1 0.5897 4.517229347150038 11.736554909359134 2.155979384916881 0 0 0
123 41 1 0.5897 4.154933666687439 12.412004542341416 0.8504788650196788 0 0 0
124 42 2 -1.1794 4.210143253981422 10.59840114137384 3.58941429870523 0 0 0
240 80 1 0.5897 2.669102555006615 14.011427701837434 4.282697318940663 0 0 0
127 43 2 -1.1794 0.93598415004775 12.710792218420805 2.0395235095434523 0 0 0
129 43 1 0.5897 0.9794515791645777 13.645560203522441 2.2406212895655377 0 0 0
220 74 2 -1.1794 4.157512426049503 14.29345402851126 3.369071708519539 0 0 0
222 74 1 0.5897 4.511162638361792 13.777702315414455 2.644420625606934 0 0 0
125 42 1 0.5897 4.760634458219939 10.83449207179985 4.336011969268825 0 0 0
238 80 2 -1.1794 1.9497762361279916 13.982432535962445 4.913493329938034 0 0 0
121 41 2 -1.1794 4.8185743172422 12.404495161875197 1.540182814836826 0 0 0
317 106 1 0.5897 0.1614998427703999 13.926659483333014 4.872663575144033 1 0 0
188 63 1 0.5897 0.08409727390979758 10.965330662404135 4.871168672991608 1 0 0
128 43 1 0.5897 0.050893186816935554 12.579321631898619 1.6997176246370624 0 0 0
133 45 2 -1.1794 2.6739692220750935 11.99479668056291 6.721825379358303 0 0 0
134 45 1 0.5897 1.9443957121480369 12.138409812416118 7.324538358604364 0 0 0
135 45 1 0.5897 3.4529096168898223 12.222031439316536 7.229536963552457 0 0 0
239 80 1 0.5897 2.1558196626200767 13.237749727513235 5.478415722966772 0 0 0
573 191 1 0.5897 0.9635341603373156 14.546436600581979 8.994124330041677 0 0 0
446 149 1 0.5897 4.480603902640024 13.320632908295163 9.034663727230436 0 0 0
450 150 1 0.5897 4.186656910795117 11.333600157233178 9.788551404192 0 0 0
451 151 2 -1.1794 0.7906846200919555 12.649332962155174 8.664722882954536 0 0 0
453 151 1 0.5897 0.9151680507879231 12.030324200986216 9.384108205769099 0 0 0
445 149 2 -1.1794 4.654452295932714 12.564120842400218 8.47464109043221 0 0 0
434 145 1 0.5897 2.710731125575743 10.238414625063124 6.740590729007824 0 0 0
544 182 2 -1.1794 4.241023290141762 14.650945245914462 10.28048067529752 0 0 0
769 257 2 -1.1794 4.552540158432295 12.570367480669743 15.1910933771162 0 0 0
545 182 1 0.5897 3.4192887336488194 14.556306739838996 10.762075566776703 0 0 0
457 153 2 -1.1794 2.4821562840197604 12.078411356043974 13.446732712133722 0 0 0
458 153 1 0.5897 1.873599442383593 12.300339707454755 14.151426669495654 0 0 0
459 153 1 0.5897 3.3471939264759185 12.276064050489689 13.805605780525566 0 0 0
546 182 1 0.5897 4.917818631140451 14.400082799952235 10.909123279130634 0 0 0
562 188 2 -1.1794 1.9037034400896213 14.143000601952922 11.676676453767895 0 0 0
563 188 1 0.5897 2.0348092853345214 13.35128864272666 12.1983610714525 0 0 0
449 150 1 0.5897 4.3840896882784355 10.881611026496644 11.219822908113448 0 0 0
444 148 1 0.5897 1.9994695820817294 10.747469617740789 10.689863078253461 0 0 0
442 148 2 -1.1794 1.0446771948930462 10.699730895025292 10.642702713016586 0 0 0
564 188 1 0.5897 2.0726058486569556 14.862114900911074 12.28536701045874 0 0 0
642 214 1 0.5897 0.10764732503630646 14.06464469282377 11.905939149623649 1 0 0
758 253 1 0.5897 2.423820227480982 10.328679992070152 13.896961229748262 0 0 0
448 150 2 -1.1794 3.833774253606754 10.73838024679381 10.44987371057717 0 0 0
775 259 2 -1.1794 0.8655256207824826 12.723566513922293 15.530445883551073 0 0 0
766 256 2 -1.1794 1.104694208746333 10.83173793703745 17.59627353914086 0 0 0
767 256 1 0.5897 0.4328231528649244 10.99165722605197 18.258972270013203 0 0 0
768 256 1 0.5897 1.0053364798896087 11.552931571312358 16.974853112985926 0 0 0
772 258 2 -1.1794 3.9499827839141504 10.873654589112897 17.28180246181241 0 0 0
773 258 1 0.5897 3.002410899012328 10.786994250797223 17.385235434731996 0 0 0
774 258 1 0.5897 4.057474868408373 11.417303791082167 16.50136888545338 0 0 0
782 261 1 0.5897 2.4651934092307735 11.25885777064868 20.615595457287398 0 0 0
777 259 1 0.5897 0.9464556318328006 13.654838271282921 15.736131974914787 0 0 0
868 290 2 -1.1794 4.000728154032026 14.699051233081335 17.035135891606622 0 0 0
869 290 1 0.5897 3.1660034794123155 14.485947964816155 17.452235687729825 0 0 0
886 296 2 -1.1794 2.0439810637519082 14.259001177814188 18.759833978472187 0 0 0
888 296 1 0.5897 2.2818003573472265 13.465956435044008 19.240105573615715 0 0 0
965 322 1 0.5897 0.23529302173446784 14.180272052670587 18.893613075772137 1 0 0
771 257 1 0.5897 4.377117911585178 13.327793149505156 15.749381164879274 0 0 0
887 296 1 0.5897 2.065132210793127 14.95357203511233 19.41806165457551 0 0 0
781 261 2 -1.1794 2.513091306664117 12.200148900468504 20.78232880672678 0 0 0
870 290 1 0.5897 4.657393108028925 14.523745268717393 17.709110826576612 0 0 0
249 83 1 0.5897 1.3775307328062976 15.542752150410886 1.4433083071576713 0 0 0
248 83 1 0.5897 1.0133266868273023 16.019084064784558 2.833387905237469 0 0 0
247 83 2 -1.1794 0.8079411685058546 15.344165836432868 2.1864928138572863 0 0 0
890 297 1 0.5897 1.754383460370713 18.90960999486981 0.18433399287456204 0 0 1
226 76 2 -1.1794 1.2596366108623953 17.624882475798515 3.7025852612985983 0 0 0
227 76 1 0.5897 1.1080144985882048 18.294406019378435 3.035559053001027 0 0 0
228 76 1 0.5897 0.5711672452505788 17.771922492782238 4.351096672491128 0 0 0
229 77 2 -1.1794 4.354728640796161 18.96991410423096 1.3071420714543307 0 0 0
230 77 1 0.5897 3.8600612195737267 18.934061140563138 0.48847250746324355 0 0 0
232 78 2 -1.1794 3.945214984825285 17.199771520409023 3.4405976519787296 0 0 0
233 78 1 0.5897 4.09972715804611 17.75404491330987 2.6756811128491567 0 0 0
234 78 1 0.5897 3.0128935964378036 17.305846057348106 3.6294342545774514 0 0 0
235 79 2 -1.1794 0.7763355646846508 19.365005720426204 1.614922814420454 0 0 0
221 74 1 0.5897 4.1705804029655695 15.195810091696787 3.0501435872058584 0 0 0
219 73 1 0.5897 3.298966563998253 15.825994135342201 0.16814142655184616 0 0 0
217 73 2 -1.1794 2.3758942578437168 16.034361975742442 0.024443558605426574 0 0 0
551 184 1 0.5897 1.0438972291658282 18.002280287665037 10.009972236425833 0 0 0
576 192 1 0.5897 4.211007770457294 15.832124223131173 7.17742223491062 0 0 0
572 191 1 0.5897 0.8832647601652688 15.94866814004145 9.558856117183328 0 0 0
241 81 2 -1.1794 2.7365973987017838 18.797850678088807 6.793144090772081 0 0 0
242 81 1 0.5897 2.5864562816452072 17.8681358733662 6.622229029899395 0 0 0
243 81 1 0.5897 2.03919964778607 19.045982607978388 7.399964128617185 0 0 0
541 181 2 -1.1794 2.5548010279448703 16.065009394490367 6.651627290130357 0 0 0
542 181 1 0.5897 1.9328008882606014 15.931248794538867 7.366749323391482 0 0 0
558 186 1 0.5897 4.095526653460533 17.95263265876227 9.98270533900449 0 0 0
553 185 2 -1.1794 4.6080460304343385 19.115852923752918 8.743572526785412 0 0 0
555 185 1 0.5897 4.076989631016539 19.010030816481255 7.954284886637833 0 0 0
559 187 2 -1.1794 0.6706245462585508 19.228048267717817 8.726413416752543 0 0 0
543 181 1 0.5897 2.349218212952593 15.373785008693318 6.022263964934115 0 0 0
571 191 2 -1.1794 0.8041395479123777 15.45592958472575 8.74206854884437 0 0 0
867 289 1 0.5897 2.1958107306246646 15.682078714677337 14.409701249337639 0 0 0
885 295 1 0.5897 1.1260083484008288 18.966688508433933 14.849812478629659 0 0 0
866 289 1 0.5897 3.577636887574505 15.897495869138012 13.830194749146559 0 0 0
879 293 1 0.5897 3.9989992071176017 19.10754205035503 14.77259368071667 0 0 0
550 184 2 -1.1794 1.1960913428941204 17.361200286786023 10.704252366980345 0 0 0
552 184 1 0.5897 2.1445550033292453 17.367242773625442 10.832765374060541 0 0 0
565 189 2 -1.1794 2.566874387416391 18.77631603180709 13.769057437571101 0 0 0
566 189 1 0.5897 2.493821712474548 17.88336962834439 13.432251194747565 0 0 0
567 189 1 0.5897 2.4466340438263785 19.33340102499254 13.000040172616727 0 0 0
865 289 2 -1.1794 2.648251860836369 15.93113177555306 13.603808848835621 0 0 0
556 186 2 -1.1794 3.94057166921448 17.373395886245312 10.728802072470254 0 0 0
896 299 1 0.5897 0.14451549736660446 15.648720044501312 15.264244267316805 0 0 0
877 293 2 -1.1794 4.668984876464522 19.1864756088317 15.451605371166268 0 0 0
883 295 2 -1.1794 0.47978992837685625 19.192742871506972 15.51874825950395 0 0 0
557 186 1 0.5897 4.047961992227419 16.491004051606453 10.37386285366162 0 0 0
881 294 1 0.5897 2.996547443111935 17.514017669192498 17.748219266880938 0 0 0
897 299 1 0.5897 0.9616740911866151 16.144192639601407 16.43834932501565 0 0 0
891 297 1 0.5897 2.268738031856865 19.56407100127926 19.79486698132233 0 0 0
882 294 1 0.5897 3.936445019062309 16.46683952895367 17.189948346591528 0 0 0
874 292 2 -1.1794 1.126364330590811 17.648264157431093 17.52603324351469 0 0 0
875 292 1 0.5897 0.47378587373894304 17.83690077430679 18.200370865290665 0 0 0
876 292 1 0.5897 0.9124070286023062 18.247226939119955 16.810737943238266 0 0 0
878 293 1 0.5897 4.410038762922468 18.55139385431569 16.119278662099276 0 0 0
880 294 2 -1.1794 3.911076120579087 17.370254241604158 17.50511406038767 0 0 0
218 73 1 0.5897 2.3740138569391074 16.959750594077605 20.65499192702447 0 0 -1
889 297 2 -1.1794 2.3373275332945878 18.763134849799464 20.31443203792977 0 0 0
895 299 2 -1.1794 0.9354540593483073 15.460235034319718 15.769255580774477 0 0 0
69 23 1 0.5897 6.63911207484309 2.326240675826016 1.5015628879682694 0 0 0
34 12 2 -1.1794 5.296955059074698 2.5074223428108566 0.3079701981803706 0 0 0
68 23 1 0.5897 8.13921425415685 2.318572420829111 1.2983826169091914 0 0 0
67 23 2 -1.1794 7.457457335497708 2.0506648336342725 1.9145025635285022 0 0 0
46 16 2 -1.1794 8.036977266841399 4.105740265218036 3.6242179654407956 0 0 0
47 16 1 0.5897 7.818882491775041 3.28783773444359 3.1774396333393256 0 0 0
48 16 1 0.5897 7.387329823904888 4.177888253505718 4.32345556958679 0 0 0
58 20 2 -1.1794 8.830359182543022 0.6735541303662577 5.107454211643841 0 0 0
37 13 2 -1.1794 9.353847642042401 2.798388618440567 -0.009045159662233432 0 0 0
9 3 1 0.5897 5.227119266206717 4.404728413862531 4.97674361861994 0 0 0
273 91 1 0.5897 7.216605766080705 0.3986533132636493 1.6230290060461927 0 1 0
53 18 1 0.5897 9.770179278825303 4.0999163940925945 3.9281173899837736 0 0 0
8 3 1 0.5897 5.9031627960424355 3.9824395053142965 6.263779726173607 0 0 0
391 131 2 -1.1794 7.496121399310256 2.004721132402106 8.977901059232586 0 0 0
393 131 1 0.5897 7.435103825804079 1.0512855588414185 8.920063909141538 0 0 0
360 120 1 0.5897 5.660072054423256 1.6632676317964998 6.552665743979503 0 0 0
361 121 2 -1.1794 9.42001467184429 2.5358281933930136 6.977164322773334 0 0 0
7 3 2 -1.1794 5.980396767873539 4.597901420010997 5.534795273884736 0 0 0
392 131 1 0.5897 8.084555482943038 2.25125490686493 8.264352402477142 0 0 0
362 121 1 0.5897 9.334772260854741 3.438135502783734 6.6694197566589875 0 0 0
358 120 2 -1.1794 5.506414515091478 2.3986379259329986 7.145775893145788 0 0 0
359 120 1 0.5897 6.098034957114374 2.241220679320911 7.8815730477156585 0 0 0
59 20 1 0.5897 9.08547841225753 1.3602552570664073 5.723509163136169 0 0 0
371 124 1 0.5897 7.819544238993336 3.248779571805105 10.269179687674313 0 0 0
28 10 2 -1.1794 6.112882741653538 0.5197522489233221 5.17882089065501 0 0 0
29 10 1 0.5897 7.062494572035909 0.6391794328036459 5.189129484383944 0 0 0
352 118 2 -1.1794 5.94017322952169 0.7633012726997356 12.544499602578284 0 0 0
353 118 1 0.5897 6.877146065847662 0.8193519723828132 12.357230238107666 0 0 0
354 118 1 0.5897 5.79554263655947 1.4052635537078613 13.239579314705813 0 0 0
684 228 1 0.5897 5.4416267563454435 3.448000740038732 13.786242316001832 0 0 0
372 124 1 0.5897 7.3443074492345675 4.2764283803530265 11.27408212442317 0 0 0
685 229 2 -1.1794 9.150146925837113 2.7604240077903834 14.091546239098394 0 0 0
382 128 2 -1.1794 8.630135998883222 0.9117887013921666 12.064442079254302 0 0 0
383 128 1 0.5897 8.82739101463779 1.6015705164867136 12.698052422552923 0 0 0
384 128 1 0.5897 9.285686880581661 1.0236223952492483 11.37601744738452 0 0 0
682 228 2 -1.1794 5.249168996827585 2.7265108835013714 14.385050889417922 0 0 0
686 229 1 0.5897 8.67490571940051 2.457173776586523 14.865097073155217 0 0 0
331 111 2 -1.1794 5.946175706265201 4.550011117620528 12.467900028445953 0 0 0
332 111 1 0.5897 5.218823190486617 4.4267458625079845 11.858036247294981 0 0 0
386 129 1 0.5897 8.852657275441521 4.6185582993065655 13.91666073963154 0 0 0
370 124 2 -1.1794 7.971170275016768 4.147207969079504 10.56236992125806 0 0 0
377 126 1 0.5897 9.822008218624624 4.23257751419403 10.664800648764608 0 0 0
716 239 1 0.5897 7.293052063326724 1.113101518634718 16.110613081194252 0 0 0
38 13 1 0.5897 9.018532512646416 2.213130968491489 20.18684727030113 0 0 -1
655 219 2 -1.1794 5.777776357863274 4.53764942775973 19.475179598873325 0 0 0
657 219 1 0.5897 6.59025346786942 4.24671477973741 19.06119289118923 0 0 0
676 226 2 -1.1794 5.990095029799669 0.7317009213938426 19.18763989501621 0 0 0
702 234 1 0.5897 9.685695006508544 4.061455564923634 18.040421966839673 0 0 0
694 232 2 -1.1794 7.898168437957118 4.030597480488119 18.013166800975682 0 0 0
695 232 1 0.5897 7.623735341565717 3.286496793582238 17.47731724277238 0 0 0
677 226 1 0.5897 5.344569119655495 0.9849235453077501 18.52783555577915 0 0 0
706 236 2 -1.1794 8.670813761559849 0.7964912358620052 18.90194514372738 0 0 0
708 236 1 0.5897 7.717779794041778 0.8285550980401898 18.819320300561948 0 0 0
36 12 1 0.5897 5.405239055604113 3.33026139943024 20.706175315731457 0 0 -1
715 239 2 -1.1794 7.287783618039774 2.0691933101779125 16.155114867279863 0 0 0
710 237 1 0.5897 9.268870353112556 4.59422522264741 20.6910621355852 0 0 0
35 12 1 0.5897 5.50813609334305 1.828941140866187 20.54171735291625 0 0 -1
696 232 1 0.5897 7.750731297575198 4.794799255812878 17.45602473011148 0 0 0
656 219 1 0.5897 5.114723720901333 4.4496315544127585 18.790494499894287 0 0 0
689 230 1 0.5897 9.97626754598638 0.8843313242089714 17.607447557434973 0 0 0
717 239 1 0.5897 6.462131685110592 2.3240415272643933 15.743410887916323 0 0 0
143 48 1 0.5897 5.969656798204038 9.164345485143723 0.7629356718067143 0 0 0
176 59 1 0.5897 7.429357363174006 8.075024995391331 2.143819129370086 0 0 0
177 59 1 0.5897 8.111382526971871 9.237773578519008 1.4549536661799047 0 0 0
711 237 1 0.5897 8.589486277432862 5.749890403718469 0.5192736760830228 0 0 1
175 59 2 -1.1794 7.363633055361562 9.020718334881797 2.011661986151059 0 0 0
55 19 2 -1.1794 7.41735646850785 6.243893285758662 1.8780454465492442 0 0 0
56 19 1 0.5897 6.530199737261007 6.011118024198862 1.6043632492913407 0 0 0
57 19 1 0.5897 7.6543997692241605 5.573709476037027 2.519010741769006 0 0 0
142 48 2 -1.1794 5.3138919223761505 9.099205994736453 0.06874729098623339 0 0 0
166 56 2 -1.1794 8.79617087225767 7.494067941425044 5.091219008712497 0 0 0
113 38 1 0.5897 5.123165094308697 7.682743772056104 3.895139218267404 0 0 0
155 52 1 0.5897 7.787247287257228 9.965442101061262 3.520568205043605 0 0 0
138 46 1 0.5897 7.049813598830468 7.5308383498681755 5.085711989930403 0 0 0
145 49 2 -1.1794 9.26273943977886 9.508180077652424 0.1033925206339319 0 0 0
168 56 1 0.5897 8.95617575379583 8.18560602331802 5.733353874440356 0 0 0
61 21 2 -1.1794 9.229986984426697 5.290890802068967 6.617744818932543 0 0 0
467 156 1 0.5897 5.716675785388558 8.382697238455394 6.7204031754779034 0 0 0
499 167 2 -1.1794 7.715506587289422 8.486603488121126 9.03046284762623 0 0 0
62 21 1 0.5897 8.512639599792617 5.36073670967911 7.247594314567894 0 0 0
338 113 1 0.5897 5.575698297648758 5.753902367739125 8.349670314859493 0 0 0
469 157 2 -1.1794 9.414997125388913 9.263004200928249 7.093245408620546 0 0 0
500 167 1 0.5897 7.873371628751833 9.21767373704387 9.627767492628355 0 0 0
470 157 1 0.5897 8.905631656571895 9.000169972393724 7.859811780309194 0 0 0
501 167 1 0.5897 6.905229605504548 8.718160975602913 8.576606257659906 0 0 0
381 127 1 0.5897 7.509086927938466 5.29002493142536 9.258829432088268 0 0 0
379 127 2 -1.1794 7.337089613445309 5.844258323545743 8.4976259395712 0 0 0
380 127 1 0.5897 7.524626481429047 6.732675923306906 8.800406080517229 0 0 0
466 156 2 -1.1794 5.548660023537405 9.053110015823522 7.38258112199745 0 0 0
137 46 1 0.5897 6.071929523304752 6.409670039348501 5.365636427343102 0 0 0
167 56 1 0.5897 8.97498096262637 6.6813969762241685 5.56423016562272 0 0 0
136 46 2 -1.1794 6.123615940031154 7.359029657580239 5.2553402024165266 0 0 0
791 264 1 0.5897 5.894758760721876 9.186775688294942 14.977457826220872 0 0 0
794 265 1 0.5897 9.181537424221716 8.548800075486179 13.55437020133099 0 0 0
790 264 2 -1.1794 5.37495411392137 9.178084766267775 14.173759742328782 0 0 0
333 111 1 0.5897 6.0079053984662485 5.498654129204736 12.5791821970792 0 0 0
793 265 2 -1.1794 9.30125663017377 9.140903457814284 14.296843053633726 0 0 0
385 129 2 -1.1794 8.922733449210169 5.536073869640993 14.180061383865116 0 0 0
387 129 1 0.5897 8.95842899258827 6.020445722373318 13.355252676189325 0 0 0
460 154 2 -1.1794 6.224676911289046 7.34883073186247 12.167091527631069 0 0 0
461 154 1 0.5897 5.949821210340108 7.788673791555284 12.971564225111917 0 0 0
462 154 1 0.5897 5.500028364002985 7.488529149368912 11.557559109890072 0 0 0
490 164 2 -1.1794 9.062650346713408 7.2858553592683375 12.072294859547432 0 0 0
491 164 1 0.5897 9.575173669070248 7.481942979050267 11.288033226878252 0 0 0
492 164 1 0.5897 8.17099066190992 7.552897799754595 11.849205227839413 0 0 0
705 235 1 0.5897 7.840290342710219 5.729839450224601 15.559364299588152 0 0 0
824 275 1 0.5897 7.97383038617733 8.95244575245711 15.450866365985208 0 0 0
814 272 2 -1.1794 8.786157507120523 7.582104479127904 19.120746739880218 0 0 0
786 262 1 0.5897 7.006605304064016 7.257411698660918 19.03394607191059 0 0 0
815 272 1 0.5897 9.022932150559877 6.797859870145721 19.61577111812135 0 0 0
816 272 1 0.5897 8.916000207835351 8.303024133630506 19.73684875638653 0 0 0
823 275 2 -1.1794 7.286248166955465 8.748273782695806 16.084681208195285 0 0 0
703 235 2 -1.1794 7.351711543450091 6.0513488091437475 16.3170612427635 0 0 0
825 275 1 0.5897 7.431942799742847 7.8292920801123405 16.309117857475137 0 0 0
784 262 2 -1.1794 6.052715141755488 7.212045111814461 19.098439943151774 0 0 0
785 262 1 0.5897 5.8690117268799264 6.293922028047793 19.2969809906088 0 0 0
144 48 1 0.5897 5.582690617557576 8.337392548368463 20.430410479785706 0 0 -1
709 237 2 -1.1794 9.275775270028475 5.54899131176965 20.758039171680046 0 0 0
704 235 1 0.5897 6.4331390862447275 5.911877579909555 16.087043741822463 0 0 0
154 52 2 -1.1794 8.050462861170043 10.733053019992964 4.028146217047476 0 0 0
819 273 1 0.5897 8.725458609173012 12.5055494639045 0.5620540941634088 0 0 1
156 52 1 0.5897 9.006383335776242 10.689945333211611 4.0501624141213135 0 0 0
163 55 2 -1.1794 7.577376653197338 12.575342594733044 1.9531748771074016 0 0 0
164 55 1 0.5897 6.648118221333558 12.490992141703991 1.7398848476106459 0 0 0
165 55 1 0.5897 7.7188194158917405 11.947954505558311 2.6620801878388876 0 0 0
285 95 1 0.5897 7.433401481323158 14.541303061367177 2.2081089544199517 0 0 0
276 92 1 0.5897 9.070484945488419 14.021099874455606 4.324125529575743 0 0 0
246 82 1 0.5897 5.355419387911855 14.108108367361774 4.739067686457781 0 0 0
275 92 1 0.5897 7.791061902485798 13.817978443255 5.107410413409275 0 0 0
146 49 1 0.5897 9.180743791046206 10.444730833760676 -0.07622283047493994 0 0 0
480 160 1 0.5897 7.880034927104373 11.383598921051114 10.152417858203089 0 0 0
169 57 2 -1.1794 9.227110771457456 12.04841733225531 7.220834410229175 0 0 0
170 57 1 0.5897 9.066306265634655 12.51361102226023 6.399896779113531 0 0 0
171 57 1 0.5897 9.284105036875502 11.127201026261442 6.967402005452382 0 0 0
117 39 1 0.5897 5.838464895739165 10.508069776372942 6.4018302365135735 0 0 0