LAMMPS data file via write_data, version 30 Jul 2021, timestep = 14250000

864 atoms
2 atom types
576 bonds
1 bond types
288 angles
1 angle types

0.0027306688626183018 18.204841731140057 xlo xhi
1.0947476373829677 22.534430162609603 ylo yhi
0.003331409647707062 22.209864390348525 zlo zhi

Masses

1 1.00794
2 15.9994

Pair Coeffs # lj/cut/tip4p/long/omp

1 0 0
2 0.21084 3.1668

Bond Coeffs # harmonic/omp

1 450 0.9572

Angle Coeffs # harmonic/omp

1 55 104.52

Atoms # full

438 1 1 0.5897 3.8238419860660997 4.146498909509889 1.678509710028261 -3 2 3
290 1 1 0.5897 2.210683502867818 5.380199549616561 5.047281740615104 -7 -4 -7
553 1 2 -1.1794 2.694791843622993 5.235730486958642 0.9304401418505278 -5 -3 3
131 1 1 0.5897 0.42576078504554016 3.1710111151358564 2.25285137244471 -4 -2 -3
273 1 1 0.5897 0.7888854397937652 5.200115139774234 3.491138214511641 -2 3 5
272 1 1 0.5897 0.9984107370459856 5.4219522660523145 2.008371402522257 -2 3 5
373 1 2 -1.1794 2.8742964767772863 1.4413713644929111 3.2242261385509727 5 5 0
437 1 1 0.5897 3.951472070777531 2.787647721574405 2.3334466262810603 -3 2 3
374 1 1 0.5897 2.1040124587411384 1.7593252439658995 2.7533567397805814 5 5 0
377 1 1 0.5897 1.6293165685701951 3.563858459264931 5.258093400251683 4 4 2
289 1 2 -1.1794 1.993219515546843 6.300763856056642 4.900880991915056 -7 -4 -7
375 1 1 0.5897 2.910447181617747 1.9785315280664977 4.01561780838117 5 5 0
130 1 2 -1.1794 0.6291151012849977 2.3703552358958495 1.7693786374658536 -4 -2 -3
554 1 1 0.5897 2.334831186173463 6.12139822948837 0.883784308139249 -5 -3 3
376 1 2 -1.1794 2.554571100681241 3.660545225001587 5.032908422393548 4 4 2
271 1 2 -1.1794 0.34507429030782294 5.133646910809939 2.645702511517664 -2 3 5
436 1 2 -1.1794 4.471162110877152 3.519298617449147 2.0006251074163637 -3 2 3
555 1 1 0.5897 2.568424865349615 4.8786999849344905 0.0513821338525815 -5 -3 3
182 1 1 0.5897 3.2513735222996245 2.6863523961392195 10.03651049282509 -4 1 -2
173 1 1 0.5897 2.941248411692617 5.878822263439868 8.31483109900576 0 -1 -1
378 1 1 0.5897 3.000628924796917 3.7328057881314014 5.876692139007489 4 4 2
589 1 2 -1.1794 3.498165576315937 4.012291181174888 7.514922396458172 0 4 1
181 1 2 -1.1794 4.18936838412169 2.7023684917396458 9.846604053535208 -5 1 -2
590 1 1 0.5897 3.7691088963884356 3.573380635915795 8.32120701280379 0 4 1
461 1 1 0.5897 0.4375800857125915 3.4107266375620013 10.131712686261956 2 3 0
591 1 1 0.5897 4.287826907868762 4.45681501292067 7.206664893632517 0 4 1
460 1 2 -1.1794 1.040777823793341 3.5486138706291004 10.861987595489463 2 3 0
183 1 1 0.5897 4.547295663459054 3.34488561653463 10.459148684374416 -5 1 -2
517 1 2 -1.1794 2.4716732376466215 1.8363440231476578 14.939250440655263 -1 -2 -4
694 1 2 -1.1794 1.1306515148425078 1.5086687476437974 12.641478751386797 4 -1 -2
462 1 1 0.5897 0.891915205187619 2.8008691214183825 11.440658881171052 2 3 0
519 1 1 0.5897 1.932944785304437 1.7154124638891544 14.15739994344993 -1 -2 -4
518 1 1 0.5897 2.272129042469799 2.725170613836604 15.233046234483417 -1 -2 -4
575 1 1 0.5897 1.0320015730430623 5.54087148124604 15.836029996504156 7 0 2
574 1 2 -1.1794 1.1443490980673898 4.690597706184207 15.411080651494823 7 0 2
576 1 1 0.5897 0.5635985125374716 4.102480749092814 15.893790399387239 7 0 2
422 1 1 0.5897 0.02135268552987196 4.793099024448847 13.809871992871146 -3 1 8
695 1 1 0.5897 0.37557477798018696 1.2392726575666493 13.164466459037351 4 -1 -2
532 1 2 -1.1794 4.257328738525456 4.706126428805508 16.716234603646406 -6 -2 -3
847 1 2 -1.1794 1.9529807869147504 3.127270082807901 17.832102403146774 4 -1 5
719 1 1 0.5897 2.1894785481124117 4.119151906103696 19.70688241896272 5 6 1
848 1 1 0.5897 1.0346492058533485 3.3609111437052097 17.697054782999516 4 -1 5
718 1 2 -1.1794 2.0993770744387117 4.81709784666214 20.355672444510308 5 6 1
720 1 1 0.5897 2.346539006755728 5.614077356097765 19.886717528569896 5 6 1
534 1 1 0.5897 3.3266062030360244 4.559400622804812 16.884773715655133 -6 -2 -3
849 1 1 0.5897 1.9632378329828541 2.170471157557955 17.807937131000564 4 -1 5
65 1 1 0.5897 0.36849987295121167 4.99736561580613 20.021762754021303 6 2 -5
383 1 1 0.5897 1.291496490150244 1.877634090394214 22.14656529096664 -8 -2 -2
382 1 2 -1.1794 1.8611881293423018 1.550355032827171 21.450514498528953 -8 -2 -2
593 1 1 0.5897 3.5119878804984745 10.889522380103765 4.535877339308645 1 -3 0
592 1 2 -1.1794 3.400966739322763 10.5280604043173 3.6565794375662386 1 -3 0
353 1 1 0.5897 1.9782357839361355 9.11657656722169 3.514451904666147 2 3 -4
796 1 2 -1.1794 1.5421917658204927 7.6607771170682275 0.7547698819693983 2 1 -2
352 1 2 -1.1794 1.2895501354004206 8.45946415198087 3.414050713441941 2 3 -4
753 1 1 0.5897 0.3772003599200252 11.356864531454391 0.5647117127398839 5 2 4
797 1 1 0.5897 2.330135779166976 8.083522286875063 0.41334041555615103 2 1 -2
798 1 1 0.5897 1.3296551709283946 8.153641966710449 1.547269561130398 2 1 -2
354 1 1 0.5897 1.6521935401573054 7.668810642360311 3.813459208170935 2 3 -4
594 1 1 0.5897 3.0994669621945086 11.267818108487596 3.129323689704757 1 -3 0
134 1 1 0.5897 4.237389640183806 9.078701244315381 3.1778991467927513 0 -6 -4
79 1 2 -1.1794 4.100680873153448 8.458493526000659 0.34404572289233204 1 3 -5
70 1 2 -1.1794 4.380725968181073 10.554304770401421 10.684078369549098 2 -1 -4
644 1 1 0.5897 1.0405104177315463 8.440924038940397 9.77137969922578 10 0 -3
204 1 1 0.5897 1.5831568300613437 11.07785779757918 9.23822728798223 -5 -2 1
645 1 1 0.5897 1.1010695880822092 6.966963936436417 9.431518447120904 10 0 -3
808 1 2 -1.1794 4.206231200628943 11.281916306184366 6.286009708113189 5 -2 -2
203 1 1 0.5897 1.1660469472731578 10.59579032956631 10.611290076987649 -5 -2 1
202 1 2 -1.1794 1.6932041806039435 10.350757292127073 9.850891042882678 -5 -2 1
809 1 1 0.5897 4.349612536936421 10.37095841576895 6.54241486968261 5 -2 -2
643 1 2 -1.1794 0.49120271584397945 7.662856964901318 9.676410280371028 10 0 -3
71 1 1 0.5897 3.480795948735591 10.402958652237482 10.395349663896644 2 -1 -4
174 1 1 0.5897 3.234361720481092 7.345865852984315 8.083399783704161 0 -1 -1
568 1 2 -1.1794 0.17929028367910127 7.241735349121889 6.8993791614762365 4 -2 2
172 1 2 -1.1794 2.7763935064781777 6.749805241496314 8.675961786825566 0 -1 -1
570 1 1 0.5897 0.385910057818997 7.505076874761327 7.796121207384177 4 -2 2
810 1 1 0.5897 3.7428120591388505 11.670009411700153 7.028147837278778 5 -2 -2
188 1 1 0.5897 3.614142507123242 6.632282365414487 10.763219996411804 -3 7 3
72 1 1 0.5897 4.359603499736703 11.420108063059827 11.091608724901885 2 -1 -4
291 1 1 0.5897 1.4313565434576292 6.535027254848717 5.639526404246585 -7 -4 -7
630 1 1 0.5897 3.980321142407903 8.016191955261316 14.716421713950078 -4 -5 3
190 1 2 -1.1794 2.5790126482617297 10.782251485460343 13.90303533007528 11 9 -5
628 1 2 -1.1794 3.987482427941211 8.401931236998426 13.840443969757251 -4 -5 3
192 1 1 0.5897 3.2125325624359267 10.137356413201514 13.588508161251188 11 9 -5
191 1 1 0.5897 1.9045640310868697 10.262556764433098 14.34031688832049 11 9 -5
823 1 2 -1.1794 0.4264784472163866 9.059325628373845 15.030366914396119 -3 5 0
43 1 2 -1.1794 0.37611805515152075 11.48221404041332 12.000710175801501 1 4 -1
44 1 1 0.5897 1.1925964853985267 11.57953455309568 12.490644731798088 1 4 -1
187 1 2 -1.1794 4.155250072364102 6.528382310537167 11.545903312149608 -3 7 3
825 1 1 0.5897 0.26753353252818934 8.226767820014693 15.475037097275479 -3 5 0
629 1 1 0.5897 3.8751450403995564 7.6574172862209435 13.249485906927445 -4 -5 3
491 1 1 0.5897 4.18673788544088 6.609665303971276 16.64078950753498 1 4 4
169 1 2 -1.1794 4.406785545239322 11.140128228113449 17.12297299432512 0 4 1
530 1 1 0.5897 2.5520273777742672 10.518829168055682 20.467464717907212 -5 0 -4
529 1 2 -1.1794 1.8156210761545375 9.953027240823111 20.235682249099604 -5 0 -4
367 1 2 -1.1794 2.131091943547006 7.280929914982981 18.899302999996802 3 7 0
331 1 2 -1.1794 1.33168004760589 10.719563920668527 17.556050565169535 -1 -1 -2
369 1 1 0.5897 2.0789471877091503 8.070603294976554 19.437671749173706 3 7 -1
531 1 1 0.5897 1.4806789070858009 10.318459269376028 19.416870941248778 -5 0 -4
752 1 1 0.5897 0.6318611544079943 10.483325418737524 21.561378008310996 5 2 3
368 1 1 0.5897 2.6818812106691063 7.531931681874984 18.15783663111121 3 7 0
513 1 1 0.5897 0.7331722430905883 7.107020987865487 17.63390592670932 4 1 -8
332 1 1 0.5897 2.25506151667118 10.852657883129012 17.342041421148593 -1 -1 -2
667 1 2 -1.1794 4.4405486035014485 11.351900204068112 19.94788961616339 -7 -6 -2
511 1 2 -1.1794 0.21478598368840868 7.044936761942452 16.831659937611924 4 1 -8
490 1 2 -1.1794 3.8867492120206 7.516362509677885 16.704503627436296 1 4 4
333 1 1 0.5897 1.0881282288720546 9.923627881953387 17.08346522109486 -1 -1 -2
654 1 1 0.5897 3.289301646920962 14.57898501473481 5.305109385569252 -2 0 -3
299 1 1 0.5897 1.7071379367585051 16.546142056945254 4.955516898506062 -2 2 -1
475 1 2 -1.1794 0.7899413622456217 12.954793006552533 4.286867691786953 5 -1 -3
652 1 2 -1.1794 2.4189607147387617 14.932703610774102 5.48825285280437 -2 0 -3
526 1 2 -1.1794 0.5138825857658679 16.09262483960049 1.808074557193838 -2 -4 2
435 1 1 0.5897 1.6170359508657954 13.286437634952744 1.3536736316725548 -2 3 -1
476 1 1 0.5897 1.1521798126845515 13.655669476625333 4.8288316758913234 5 -1 -3
586 1 2 -1.1794 2.4019215490642805 14.81717443894241 0.4479280874242763 -3 -1 5
458 1 1 0.5897 3.9165798294423397 13.657399176382725 1.2781253322982233 1 1 -5
587 1 1 0.5897 1.6960256233506783 15.305922277184104 0.8709904411646404 -3 -1 5
528 1 1 0.5897 0.792884106397951 16.369771967750363 2.680717390450416 -2 -4 2
434 1 1 0.5897 1.4523737955325473 12.540601837750419 2.6607129682913615 -2 3 -1
3 1 1 0.5897 3.310650197630067 16.432270835418247 0.24987017916371423 2 -2 1
298 1 2 -1.1794 1.0740418766917998 17.00004113522583 4.399346607552032 -2 2 -1
433 1 2 -1.1794 1.5925980265059099 12.40405529171843 1.7237685736955812 -2 3 -1
445 1 2 -1.1794 2.6438970572007694 15.59016800511763 8.089168026478989 3 0 1
380 1 1 0.5897 1.6571589442434504 12.99294481962913 8.502591285314232 7 2 -1
98 1 1 0.5897 0.7908506378197476 13.80758535814466 10.460243694411941 1 -8 7
97 1 2 -1.1794 1.6705086931421012 14.128878867202987 10.262407922432196 1 -8 7
379 1 2 -1.1794 1.9859902931198776 12.37296657465498 7.851713130231451 7 2 -1
15 1 1 0.5897 0.6409223782348785 16.014421942899773 8.379352003346765 -1 -6 -7
447 1 1 0.5897 3.1684843956360353 16.363151789840025 7.880705590954897 4 0 1
697 1 2 -1.1794 1.5428262334852987 16.85316601737593 10.956970472988834 4 1 -3
99 1 1 0.5897 1.5331912019172365 15.017229432146562 9.933556566463071 1 -8 7
446 1 1 0.5897 3.2527035194698946 14.999385616464874 8.532466913771344 3 0 1
381 1 1 0.5897 1.2712358092275893 12.28536736336985 7.221149090287528 7 2 -1
653 1 1 0.5897 2.422268196576158 15.102502989687046 6.430219855101549 -2 0 -3
168 1 1 0.5897 3.05376978898635 13.53023639795718 11.10252713832072 -2 1 0
699 1 1 0.5897 1.0013145694581325 16.658841311143465 11.721923890181067 4 1 -3
36 1 1 0.5897 2.0274655242149757 14.4289939784863 14.544649263123198 -6 2 -2
226 1 2 -1.1794 3.484636431626933 13.316637712683315 14.260237874821259 5 -4 -1
167 1 1 0.5897 3.765057056546881 13.466739228898708 12.437343977748931 -2 1 0
35 1 1 0.5897 1.4182279966368574 15.578023147459547 15.319426112856426 -6 2 -2
228 1 1 0.5897 3.091877917664207 12.44378327444609 14.263122437895444 5 -4 -1
34 1 2 -1.1794 1.1921177817987663 14.762874359200456 14.871589806723591 -6 2 -2
315 1 1 0.5897 3.734461015595824 16.657113262776587 14.810933593260513 1 -1 0
227 1 1 0.5897 3.808587869821574 13.436971073923456 15.152828326800861 5 -4 -1
166 1 2 -1.1794 3.876787784228125 13.259783200232816 11.509535039138239 -2 1 0
314 1 1 0.5897 4.2585706555472225 16.83895163588789 13.40241839201797 1 -1 0
698 1 1 0.5897 2.404312654145661 17.060173816246113 11.31915283844445 4 1 -3
313 1 2 -1.1794 4.495001782493343 16.479732693739088 14.25752640816064 1 -1 0
480 1 1 0.5897 1.154062806999554 16.74924425816695 18.988123034343943 -2 3 -7
110 1 1 0.5897 3.065322873448687 14.701447026016242 19.565759062842254 3 -2 -8
109 1 2 -1.1794 3.8266888320107855 14.123204574924774 19.51978211906846 3 -2 -8
762 1 1 0.5897 0.5360487162240561 12.432504408766626 18.06839826348222 -2 -1 1
111 1 1 0.5897 4.128308652747045 14.195091882697973 18.614224721010956 3 -2 -8
500 1 1 0.5897 0.6723758279901032 14.459864662691883 19.432699349128264 -1 -2 -2
499 1 2 -1.1794 1.0171336631837578 15.178436220909878 19.962758819294166 -1 -2 -2
649 1 2 -1.1794 4.435232989335512 13.795267291670456 16.893452739365827 1 -2 2
501 1 1 0.5897 0.2645110435302427 15.487073476426016 20.467211174628392 -1 -2 -2
668 1 1 0.5897 4.349248270282528 12.302051383656087 19.87701703951266 -7 -6 -3
588 1 1 0.5897 2.0987597238633864 14.687107027966604 21.755950893822313 -3 -1 4
541 1 2 -1.1794 2.8618275375117253 20.259578655457105 2.7646654041043344 -8 0 1
542 1 1 0.5897 2.0828852745304474 20.159117257118574 2.2175763681890306 -8 0 1
91 1 2 -1.1794 1.4157421992739772 18.93609485698221 0.9076988747882417 -1 -4 -1
92 1 1 0.5897 1.0152865722871358 18.11745451928089 1.2003454576327863 -1 -4 -1
543 1 1 0.5897 2.9132088367922844 21.199373046470974 2.9387826670572323 -8 0 1
634 1 2 -1.1794 2.0408743605627 19.43510694393887 5.332901045425736 -8 3 -1
635 1 1 0.5897 2.3569387847323156 19.633198677926124 4.451420218399771 -8 3 -1
2 1 1 0.5897 4.417361102462227 17.424296909249684 0.537535572677575 2 -2 1
93 1 1 0.5897 2.2945760675407847 18.685095412370345 0.6233241124575442 -1 -4 -1
24 1 1 0.5897 4.320130654323853 20.275335840364356 1.7252771299736482 -4 2 2
300 1 1 0.5897 1.346237644177534 17.91731536284764 4.425100816079732 -2 2 -1
636 1 1 0.5897 1.093086982001528 19.55832181589924 5.281328505110632 -8 3 -1
679 1 2 -1.1794 3.3432124963049143 20.224737466383175 8.509035554817935 -6 -8 -1
358 1 2 -1.1794 2.6836604546371685 21.817297596889553 6.266153153128177 0 -3 -2
680 1 1 0.5897 3.0604859899682655 20.89084796965836 7.882518906514084 -6 -8 -1
712 1 2 -1.1794 0.7169537115507185 18.926505137540133 9.219814007675504 -9 2 2
717 1 1 0.5897 3.7386695301292177 18.715089111469943 7.538026685319745 4 -5 -5
715 1 2 -1.1794 4.048509243550022 17.825324338573893 7.3692675679858795 4 -5 -5
681 1 1 0.5897 2.535468552815966 19.937390301245458 8.934634653435774 -6 -8 -1
5 1 1 0.5897 0.9020541078560012 22.11552334435421 6.45749946897231 -4 0 -1
360 1 1 0.5897 2.6266206107294967 20.899948178760063 5.999021689087351 0 -3 -2
714 1 1 0.5897 1.1366295379662223 18.17643085592225 9.641007912414643 -9 2 2
359 1 1 0.5897 3.5886432696850137 22.066095202700488 6.078377139345745 0 -3 -2
716 1 1 0.5897 3.9991754650230913 17.730384625431896 6.4180960321321185 4 -5 -5
696 1 1 0.5897 1.5738260081213014 22.129327851978466 12.42022819151353 4 -2 -2
463 1 2 -1.1794 2.7135070027861365 20.57313441759254 12.887019840131277 4 4 -2
269 1 1 0.5897 1.947076186765305 18.057996735852264 15.502894684100022 6 7 6
318 1 1 0.5897 3.650649156983449 18.978098853720702 12.098012937485857 -5 -5 3
161 1 1 0.5897 0.44371107618665173 19.995704850263706 15.171326298524189 5 8 1
160 1 2 -1.1794 1.3699911688547832 19.767268282303853 15.248573282349474 5 8 1
324 1 1 0.5897 4.08200372518798 18.920276458233204 16.27453542065808 1 2 -1
162 1 1 0.5897 1.7320404006925498 20.429038459480132 15.83775861151507 5 8 1
465 1 1 0.5897 2.2060169874264584 20.221657571297072 13.61850418076212 4 4 -2
726 1 1 0.5897 2.6097460390242904 22.214516591316837 16.537542860808657 2 -2 1
316 1 2 -1.1794 3.8089909580462082 18.03416843014439 12.089483660140594 -5 -5 3
464 1 1 0.5897 3.486568148152473 20.96189541381822 13.296145341418246 4 4 -2
268 1 2 -1.1794 2.2073532405796383 17.238034529008246 15.922655619818888 6 7 6
749 1 1 0.5897 3.9420065750284867 17.732067669806327 20.441918373778574 4 10 1
150 1 1 0.5897 0.6565755603831661 21.068145478577733 18.733245963903258 -7 0 6
478 1 2 -1.1794 1.447913954599543 17.572747330394762 18.598712142358046 -2 3 -7
724 1 2 -1.1794 2.245927685173137 21.74456373097925 17.28782672253757 2 -2 1
725 1 1 0.5897 2.994036079759494 21.284806813182783 17.668751596964057 2 -2 1
666 1 1 0.5897 3.419621012427549 21.896853456967 21.459980720045014 5 -2 3
664 1 2 -1.1794 4.325577757144269 21.62117811826355 21.32068456225379 5 -2 3
479 1 1 0.5897 2.260322322787318 17.780093834700942 19.06039103571491 -2 3 -7
748 1 2 -1.1794 4.182724116815404 17.881092938340615 19.527581101080475 4 10 1
148 1 2 -1.1794 0.3400154018044755 21.570944037824106 19.483668670213987 -7 0 6
750 1 1 0.5897 4.199748546425125 18.833717502192528 19.436126318443645 4 10 1
305 1 1 0.5897 4.167625813226056 21.09384628845489 19.56345969660208 3 -3 -3
304 1 2 -1.1794 4.2552858545244385 20.679375086544198 18.705160547190715 3 -3 -3
356 1 1 0.5897 0.14095350439394755 19.520710030104027 21.946019086463878 0 -6 3
1 1 2 -1.1794 3.6933216934523654 17.251467614683733 22.142349544451317 2 -2 0
270 1 1 0.5897 2.0584989355203 17.388527709282506 16.856111285547797 6 7 6
384 1 1 0.5897 1.2738774664660575 22.513437699122544 20.86391317399156 -8 -3 -2
362 1 1 0.5897 5.874330160551536 4.039931457297929 1.1817279691169902 4 -2 0
363 1 1 0.5897 7.355153532770893 3.729406532244845 1.1321689710198093 4 -2 0
293 1 1 0.5897 5.093528133740797 3.3475992006307504 3.8903586293051564 0 -3 0
556 1 2 -1.1794 8.241451454941712 3.063961923476705 2.7452889646013454 0 1 3
361 1 2 -1.1794 6.645720392081747 4.117877921223433 0.6203526524284954 4 -2 0
294 1 1 0.5897 6.60215274867989 3.2235676596317133 3.8717642735225297 0 -3 0
292 1 2 -1.1794 5.865203577889596 3.4110108244122936 4.453068398010189 0 -3 0
557 1 1 0.5897 8.533467390700624 2.2046973335769673 2.441065388988596 0 1 3
254 1 1 0.5897 5.761122744009565 1.8557117670627696 5.228870527966056 0 7 -5
558 1 1 0.5897 9.03627045461736 3.4859213349385922 3.071440002263202 0 1 3
307 1 2 -1.1794 7.887213732231212 4.474682793471396 8.582505195222787 1 4 0
736 1 2 -1.1794 5.900147001489106 4.930782075204492 6.6470914273240265 4 1 4
737 1 1 0.5897 6.034482448001412 5.79928091292123 6.267862941638929 4 1 4
309 1 1 0.5897 8.444758561528271 3.753786457581785 8.289934316398458 1 4 0
371 1 1 0.5897 7.844245129070513 4.548470477334208 10.37152131784278 5 8 0
308 1 1 0.5897 7.160561349847038 4.484117787905017 7.959583095862282 1 4 0
215 1 1 0.5897 8.310502544775023 1.600276171891088 7.645159904066468 1 3 0
738 1 1 0.5897 6.120470876987755 4.323751807997049 5.9406091278439765 4 1 4
214 1 2 -1.1794 9.082937456390203 2.165290444374317 7.661175363599756 1 3 0
509 1 1 0.5897 7.09208108105685 5.292553680968156 15.101890094976165 3 -4 2
510 1 1 0.5897 8.174666926548053 5.758316695063493 16.052048103423818 3 -4 2
439 1 2 -1.1794 6.003044602308048 3.69011548719625 14.776342464914983 -2 5 -6
198 1 1 0.5897 6.1619081984098525 4.23709184188165 11.81264589459884 -4 4 -1
440 1 1 0.5897 5.38639905513324 4.085857412273043 15.392200425052406 -2 5 -6
441 1 1 0.5897 5.59290927298445 3.8046650723821807 13.919112283375897 -2 5 -6
372 1 1 0.5897 8.120497728398616 3.521906674355152 11.449267346321639 5 8 0
508 1 2 -1.1794 7.652357094753656 6.04237173124248 15.301938609515435 3 -4 2
89 1 1 0.5897 6.276567202645398 2.5305915806297867 16.316254191562365 4 0 3
197 1 1 0.5897 4.848959618518995 4.987013280470007 11.88658518522455 -4 4 -1
288 1 1 0.5897 8.854807195768942 5.719398449352222 13.748728638942069 3 0 2
196 1 2 -1.1794 5.2405818502016555 4.128757147493621 12.048370960327572 -4 4 -1
287 1 1 0.5897 8.74644710939143 5.493719568203513 12.255742933566584 3 0 2
670 1 2 -1.1794 8.363176124854453 1.768337075762282 11.90049452113949 3 0 -3
370 1 2 -1.1794 7.826561919044137 4.423646083451823 11.320357684063062 5 8 0
671 1 1 0.5897 9.095247015064523 1.5695782881669422 11.316772154759459 3 0 -3
614 1 1 0.5897 5.582456594277712 3.4900471680577474 19.616443703936316 -4 1 5
90 1 1 0.5897 6.403748581183375 2.819816469318438 17.796751028491066 4 0 3
224 1 1 0.5897 8.143153943967794 5.550723082961507 19.637031770107892 2 2 -8
615 1 1 0.5897 6.290129812801509 4.778232852311833 19.253862589929284 -4 1 6
573 1 1 0.5897 6.915337364956248 1.483218921722445 20.812416241616877 5 -1 -5
613 1 2 -1.1794 5.658128078536613 4.141844318136332 18.919595879931567 -4 1 6
572 1 1 0.5897 6.3182178012393955 2.7272524056288745 21.434923128519166 5 -1 -5
88 1 2 -1.1794 6.782383050007078 2.2926953230515643 17.09323876172065 4 0 3
571 1 2 -1.1794 6.156047912064277 2.063991005395997 20.76415359494979 5 -1 -5
632 1 1 0.5897 8.585362172239979 2.4818276679645965 16.912164780667048 2 6 4
223 1 2 -1.1794 7.448069416010974 6.1136914681835 19.29629950936442 2 2 -8
327 1 1 0.5897 6.271662420129192 5.7579713156826715 22.160896903626774 -6 -1 -4
533 1 1 0.5897 4.690569091428852 4.463337088386443 17.534465221333896 -6 -2 -3
225 1 1 0.5897 6.90419147422787 6.311557534899788 20.05866830150607 2 2 -8
769 1 2 -1.1794 7.3237158800378035 9.67088600243777 2.104650363673016 5 2 1
81 1 1 0.5897 4.659110099125747 9.235666935055637 0.3615159451532786 1 3 -5
135 1 1 0.5897 4.642811722208559 8.237954991585703 1.9860650423829747 0 -6 -4
404 1 1 0.5897 6.274043602282734 10.908667488738327 0.7933337175885393 7 -4 2
771 1 1 0.5897 7.723247477187821 9.234581428795197 1.3522164640873178 5 2 1
468 1 1 0.5897 5.419108345262167 7.459918426672155 4.559887306201885 2 -4 5
770 1 1 0.5897 6.624778091949836 9.078749742470656 2.3821488048632617 5 2 1
481 1 2 -1.1794 8.485741532719102 8.87468613394153 4.536096835681212 -2 3 -3
482 1 1 0.5897 8.492860987946965 9.12755613423863 3.6129645735721314 -2 3 -3
466 1 2 -1.1794 6.093855324308846 7.445328197078051 5.238617632058976 2 -4 5
403 1 2 -1.1794 5.498479731050542 11.079158071341793 0.2589233130743626 7 -4 2
133 1 2 -1.1794 4.810191284240118 8.35615819277424 2.921030504494151 0 -6 -4
213 1 1 0.5897 7.543295788841337 11.082396263604556 3.5110233483399744 6 2 1
483 1 1 0.5897 8.477322652254783 9.704977188305559 5.012276711261606 -2 3 -3
467 1 1 0.5897 6.777508209967745 8.029082958902402 4.909971607796996 2 -4 5
432 1 1 0.5897 5.235665307701895 9.014230949385418 8.053560317747015 -7 -4 -1
431 1 1 0.5897 5.186402862439465 8.373244894325298 6.683013258509659 -7 -4 -1
151 1 2 -1.1794 8.559610118692303 10.606917100869588 6.963052704130697 -1 1 2
612 1 1 0.5897 5.832869007398733 10.750518939465362 9.484990955658663 3 9 2
611 1 1 0.5897 7.341222818819222 10.713783239513797 9.361739652481495 3 9 2
152 1 1 0.5897 7.725547215611135 10.679106575396421 7.4270249941621564 -1 1 1
610 1 2 -1.1794 6.537326508183547 10.539728394386213 8.872251795404292 3 9 2
153 1 1 0.5897 9.036505998790535 11.40178278894908 7.201612654991931 -1 1 2
430 1 2 -1.1794 4.6449235185781355 8.837142325233156 7.321562125631981 -7 -4 -1
51 1 1 0.5897 7.178266773775286 8.441264564435176 11.001502212443066 9 -3 1
413 1 1 0.5897 8.176454290584404 7.680242156360332 15.466230998496872 0 -4 1
412 1 2 -1.1794 8.472313694754105 8.589426099241297 15.421560740799046 0 -4 1
648 1 1 0.5897 5.72453395020292 9.507586351701468 14.356788349208664 -2 2 1
647 1 1 0.5897 6.947971807420842 9.267811919241696 15.215512157422868 -2 2 1
646 1 2 -1.1794 6.151786434438379 9.79648284994024 15.163107711158261 -2 2 1
50 1 1 0.5897 6.043922621294053 9.312736912240648 11.497006620199993 9 -3 1
243 1 1 0.5897 6.8358069134354205 11.388190052907015 14.529483959229745 1 -2 -1
189 1 1 0.5897 4.857303664350652 7.1701705184229665 11.439211490951854 -3 7 3
49 1 2 -1.1794 6.3494480317932265 8.405824685680479 11.478952305403967 9 -3 1
414 1 1 0.5897 8.83263021404705 8.681483427848727 14.539599836103509 0 -4 1
170 1 1 0.5897 4.908806891221834 10.503254217476181 16.61451809101505 0 4 1
660 1 1 0.5897 7.000357037969554 8.783339346265805 16.978137197183063 1 -2 1
328 1 2 -1.1794 7.937275277594967 9.861733998909953 19.383820292716766 -1 6 -4
325 1 2 -1.1794 6.207708726284305 6.6195869646048635 21.748934054074414 -6 -1 -4
863 1 1 0.5897 8.062563446807253 8.607214129644552 21.023085370277595 1 2 3
536 1 1 0.5897 8.103663383533164 11.609878442325138 19.853914891713075 6 3 3
329 1 1 0.5897 7.177805230138947 9.555237835634188 18.888404897126794 -1 6 -4
330 1 1 0.5897 8.6831934270179 9.693611957835225 18.808034975572426 -1 6 -4
326 1 1 0.5897 7.047847352480376 7.038174793764506 21.93635124978118 -6 -1 -4
659 1 1 0.5897 7.066427751474049 7.622410904333007 17.94744945498877 1 -2 1
658 1 2 -1.1794 6.481886960054241 8.31011529980502 17.628825216428407 1 -2 1
669 1 1 0.5897 4.856654877649257 11.213602159188587 20.79869705626308 -7 -6 -2
862 1 2 -1.1794 8.234954722302115 8.511956358149952 21.959757596901277 1 2 3
80 1 1 0.5897 4.629692524238524 7.792700385660165 22.111244872923635 1 3 -6
171 1 1 0.5897 4.5762251668167435 10.90589073438941 18.035429131998278 0 4 1
492 1 1 0.5897 4.6785493509129905 8.018062652245186 16.89813616079425 1 4 4
485 1 1 0.5897 8.098786899861464 14.635444698297341 1.7516062667843697 -3 1 2
442 1 2 -1.1794 4.985546259239396 14.471874109242972 4.41839137589364 4 4 -3
700 1 2 -1.1794 7.775992140633322 16.085063929207344 0.8046374078654578 5 -1 0
459 1 1 0.5897 5.41658645715731 13.847632243328881 1.2040820298221544 1 1 -5
443 1 1 0.5897 5.587401173232181 14.041956825915657 5.025954802343521 4 4 -3
701 1 1 0.5897 7.125551922162552 16.638298598265457 1.237078688738352 5 -1 0
211 1 2 -1.1794 7.812970190084657 11.878849438356495 3.9682879401948727 6 2 1
540 1 1 0.5897 4.677254998011927 16.431998236707095 4.457067826398193 0 0 1
212 1 1 0.5897 8.078403596026781 12.47793939070759 3.2705920993322994 6 2 1
484 1 2 -1.1794 8.49255769286453 13.909869009856077 2.2359906319200578 -3 1 2
457 1 2 -1.1794 4.7413913821249265 13.308660484341942 1.6161091857797725 1 1 -5
779 1 1 0.5897 6.978322219542693 12.645765225277353 5.431536367213164 -1 1 -3
444 1 1 0.5897 4.9126920311086595 13.864131925083134 3.682517755164294 4 4 -3
486 1 1 0.5897 9.027634456896772 13.451282560279777 1.588275433916144 -3 1 2
405 1 1 0.5897 5.161829474791204 11.914087156300443 0.5840549361791529 7 -4 2
702 1 1 0.5897 7.297959786637076 15.668204856998551 0.08778811053512633 5 -1 0
780 1 1 0.5897 5.763186504955989 12.406144503066702 6.302003733210342 -1 1 -3
812 1 1 0.5897 4.801272310913514 14.18472686804051 10.196948593621352 -4 7 -4
813 1 1 0.5897 5.8752296912675614 14.573757376619003 9.20349701062783 -4 7 -4
811 1 2 -1.1794 4.945882531054797 14.693120885651217 9.398971477970557 -4 7 -4
249 1 1 0.5897 6.91053832042364 16.27516902759293 8.405515366757674 -1 -1 -6
802 1 2 -1.1794 7.779178502071245 14.504550564455073 8.062639602117194 1 1 -7
803 1 1 0.5897 7.200699308365105 14.069003027552553 7.436690761804229 1 1 -7
804 1 1 0.5897 8.549090905750209 13.938047909737344 8.112256176226676 1 1 -7
778 1 2 -1.1794 6.451699171122537 13.046518190090962 6.12306596957647 -1 1 -3
844 1 2 -1.1794 6.52072198554814 14.60012877155932 14.297334517933033 0 0 2
707 1 1 0.5897 7.127282187174156 14.81418358559142 12.57978798039284 0 -4 -8
242 1 1 0.5897 6.835984623681597 12.822294449709016 14.044686686869083 1 -2 -1
845 1 1 0.5897 5.657923588347779 15.011237423808245 14.349591663414117 0 0 2
241 1 2 -1.1794 7.322034601845789 12.000483726686744 13.977376343922973 1 -2 -1
833 1 1 0.5897 7.445338077689249 11.98074578171214 12.088942607176834 1 -2 1
706 1 2 -1.1794 7.415804222167593 14.895657635347174 11.670795502795835 0 -4 -8
846 1 1 0.5897 6.958055450922063 14.856012620817236 15.109383888748361 0 0 2
473 1 1 0.5897 8.83699975246591 15.91512094724493 12.078692062170733 1 -1 -3
708 1 1 0.5897 7.015677549686055 15.709256692729344 11.364014181232333 0 -4 -8
742 1 2 -1.1794 9.09160983677968 16.611312665792713 15.34501610199252 -2 -1 6
834 1 1 0.5897 7.688572108848401 13.196339181856134 11.220094638034587 1 -2 1
832 1 2 -1.1794 7.667109760911258 12.23975181542957 11.194581032079842 1 -2 1
535 1 2 -1.1794 8.255639647869776 12.546425298066254 19.980156997851807 6 3 3
41 1 1 0.5897 6.82868326835739 15.702971464915276 17.67999504805875 0 1 4
651 1 1 0.5897 5.2983665739302515 14.207819864877852 16.862100699310385 1 -2 2
450 1 1 0.5897 8.608841127463252 16.71511717503914 19.32621924767169 4 -1 -8
83 1 1 0.5897 6.960728186541787 13.718284751036196 20.767370203289218 -5 -1 -8
537 1 1 0.5897 8.62257932649605 12.613314351360927 20.86166458796202 6 3 3
42 1 1 0.5897 7.756571085140609 14.559516070472913 17.328964042003854 0 1 4
84 1 1 0.5897 5.630767653945171 14.441108216533202 20.747278033485674 -5 -1 -8
82 1 2 -1.1794 6.410027652185138 14.304665379674438 21.286055564705602 -5 -1 -8
40 1 2 -1.1794 6.88971274796498 14.91709803265792 17.137018030109093 0 1 4
650 1 1 0.5897 4.618497247311368 12.855862075203463 16.903848867687504 1 -2 2
678 1 1 0.5897 6.359708925663438 20.761873446194073 2.6247245970505615 2 -3 -4
23 1 1 0.5897 5.113791469546215 20.86554784406951 0.5792295322660915 -4 2 2
231 1 1 0.5897 5.765593709796687 18.681468534140194 1.5313196949574297 -1 3 6
676 1 2 -1.1794 6.916655212959395 21.038823202439076 3.3522283586717814 2 -3 -4
620 1 1 0.5897 7.989077911697199 17.89836004980151 4.3333937385561105 -2 0 5
619 1 2 -1.1794 7.358962532960899 18.502151395582153 4.726529877696285 -2 0 5
22 1 2 -1.1794 5.2153550644236635 20.453026720530268 1.4369319845082407 -4 2 2
677 1 1 0.5897 7.066606426204539 20.2397523038301 3.8573481371570995 2 -3 -4
255 1 1 0.5897 5.818475201711306 21.8597332299367 4.752143743583174 0 6 -5
617 1 1 0.5897 8.127407450632264 21.589361200993373 2.223606844116527 -4 4 1
229 1 2 -1.1794 5.6672088974925 17.756527107166548 1.757166011715312 -1 3 6
616 1 2 -1.1794 8.82565011101535 21.89854628962162 1.6465075889516934 -4 4 1
538 1 2 -1.1794 4.686185239311227 17.383964505941215 4.556189013828773 0 0 1
230 1 1 0.5897 5.390941283148658 17.761351291680654 2.6735701343743448 -1 3 6
539 1 1 0.5897 5.577507017110455 17.587368014106858 4.839638019359472 0 0 1
253 1 2 -1.1794 5.454992227023942 22.41405634967662 5.442614431685691 0 6 -5
125 1 1 0.5897 8.68655253951153 22.269473844843226 4.100274153540676 0 3 4
278 1 1 0.5897 6.460618040209192 21.587580732434517 8.211951073804766 0 -1 -1