LAMMPS (30 Jul 2021)
  using 1 OpenMP thread(s) per MPI task
package omp 0
using multi-threaded neighbor list subroutines
echo both

include		in.partitions
variable        pid world 0
include		in.temp
variable        temperature equal 249.78
variable	tempDamp equal 100.0
include		in.pressure
variable        pressure equal 6625.0
variable        pressureDamp equal 1000.0 # This is 1 ps
include		in.seed
variable        seed world 745823

units		real
atom_style	full
box tilt large
read_restart	restart.lmp.${pid}
read_restart	restart.lmp.0
Reading restart file ...
  restart file = 30 Jul 2021, LAMMPS = 30 Jul 2021
  restoring atom style full from restart
  triclinic box = (-10.623948 -9.3031078 0.094548933) to (12.603948 12.293106 21.765450) with tilt (-9.4078317 2.1662864 2.8240908)
  4 by 4 by 4 MPI processor grid
  restoring pair style lj/cut/tip4p/long/omp from restart
  restoring bond style harmonic/omp from restart
  restoring angle style harmonic/omp from restart
  1296 atoms
  864 bonds
  432 angles
Finding 1-2 1-3 1-4 neighbors ...
  special bond factors lj:    0        0        0       
  special bond factors coul:  0        0        0       
     2 = max # of 1-2 neighbors
     1 = max # of 1-3 neighbors
     1 = max # of 1-4 neighbors
     2 = max # of special neighbors
  special bonds CPU = 0.122 seconds
  read_restart CPU = 0.299 seconds
include 	in.setup
variable	out_freq equal 1000
variable	out_freq2 equal 10000
variable	out_freq3 equal 1000

timestep	2.0

neigh_modify    delay 7 every 1

include		in.tip4p
# This is TIP4P/Ice

# create groups ###
group ox type 2
432 atoms in group ox
group hy type 1
864 atoms in group hy

# set charges - beside manually ###
set group ox charge -1.1794
Setting atom values ...
  432 settings made for charge
set group hy charge 0.5897
Setting atom values ...
  864 settings made for charge

# ### TIP3P Potential Parameters ###
pair_style lj/cut/tip4p/long/omp 2 1 1 1 0.1577 8.5
pair_coeff 1 1*2 0.000 0.000
pair_coeff 2 2 0.21084 3.1668
bond_style  harmonic
bond_coeff  1 450 0.9572
angle_style harmonic
angle_coeff 1 55 104.52
kspace_style pppm/tip4p/omp 1.0e-5
pair_modify tail yes

thermo          ${out_freq}
thermo          1000
thermo_style    custom step temp pe etotal epair emol press lx ly lz vol pxx pyy pzz pxy pxz pyz enthalpy

restart 	${out_freq3} restart.lmp.${pid} restart2.lmp.${pid}
restart 	1000 restart.lmp.${pid} restart2.lmp.${pid}
restart 	1000 restart.lmp.0 restart2.lmp.${pid}
restart 	1000 restart.lmp.0 restart2.lmp.0


include         in.dump
dump            myDump all atom ${out_freq2} dump.water.${pid}
dump            myDump all atom 10000 dump.water.${pid}
dump            myDump all atom 10000 dump.water.0
dump            myDump2 all dcd ${out_freq2} dump.dcd
dump            myDump2 all dcd 10000 dump.dcd
dump_modify     myDump append yes
dump_modify     myDump2 append yes


variable natoms 	equal  "count(all)"                        # NUMBER ATOMS
variable H      	equal  "enthalpy/v_natoms"                 # ENTHALPY-per-atom
variable Vol      	equal  "vol/v_natoms"                 # volume-per-atom
fix AVG all 		ave/time ${out_freq} 1 ${out_freq} v_Vol v_H file vol_enthalpy.dat
fix AVG all 		ave/time 1000 1 ${out_freq} v_Vol v_H file vol_enthalpy.dat
fix AVG all 		ave/time 1000 1 1000 v_Vol v_H file vol_enthalpy.dat


timer           timeout 10:00:00 every 1000
New timer settings: style=normal  mode=nosync  timeout=10:00:00

fix 		1 all shake 1e-6 200 0 b 1 a 1
       0 = # of size 2 clusters
       0 = # of size 3 clusters
       0 = # of size 4 clusters
     432 = # of frozen angles
  find clusters CPU = 0.252 seconds
fix             2 all nph tri ${pressure} ${pressure} ${pressureDamp}
fix             2 all nph tri 6625 ${pressure} ${pressureDamp}
fix             2 all nph tri 6625 6625 ${pressureDamp}
fix             2 all nph tri 6625 6625 1000
fix             3 all temp/csvr ${temperature} ${temperature} ${tempDamp} ${seed}
fix             3 all temp/csvr 249.78 ${temperature} ${tempDamp} ${seed}
fix             3 all temp/csvr 249.78 249.78 ${tempDamp} ${seed}
fix             3 all temp/csvr 249.78 249.78 100 ${seed}
fix             3 all temp/csvr 249.78 249.78 100 745823


run             250000
PPPM initialization ...
  extracting TIP4P info from pair style
  using 12-bit tables for long-range coulomb (../kspace.cpp:340)
  G vector (1/distance) = 0.36707081
  grid = 27 40 32
  stencil order = 5
  estimated absolute RMS force accuracy = 0.0045773064
  estimated relative force accuracy = 1.3784422e-05
  using double precision FFTW3
  3d grid and FFT values/proc = 4845 560
Last active /omp style is kspace_style pppm/tip4p/omp
Neighbor list info ...
  update every 1 steps, delay 7 steps, check yes
  max neighbors/atom: 2000, page size: 100000
  master list distance cutoff = 10.8154
  ghost atom cutoff = 10.8154
  binsize = 5.4077, bins = 7 5 5
  1 neighbor lists, perpetual/occasional/extra = 1 0 0
  (1) pair lj/cut/tip4p/long/omp, perpetual
      attributes: half, newton on, omp
      pair build: half/bin/newton/tri/omp
      stencil: half/bin/3d/tri
      bin: standard
Per MPI rank memory allocation (min/avg/max) = 9.400 | 9.412 | 9.422 Mbytes
Step Temp PotEng TotEng E_pair E_mol Press Lx Ly Lz Volume Pxx Pyy Pzz Pxy Pxz Pyz Enthalpy 
22500000    257.64116   -6299.6496   -5636.8834   -6299.6496            0    5886.1253    23.227896    21.596214    21.670901    10870.874    5469.4571    5702.2046    6486.7143    91.404537   -645.40426    150.51624   -4703.6939 
22501000    250.16766   -6335.0968   -5691.5557   -6335.0968            0    6198.9213    23.392472     21.36626    21.786163    10888.934    5107.3047    7444.8871    6044.5719    1945.9103   -558.20783   -513.77871   -4707.1426 
22502000    244.53942   -6320.1038    -5691.041   -6320.1038            0    4541.4634    23.590358    21.448162     21.66631    10962.499    4762.7191    4303.3261     4558.345    735.89828   -1083.8345    639.79066   -4964.9664 
22503000    244.81807    -6316.155   -5686.3754    -6316.155            0    5882.4212    23.270786    21.673472    21.527716    10857.691    6506.3141    4933.2312    6207.7184    566.56892   -1641.2712     174.7801   -4754.9041 
22504000    236.58831   -6346.6845   -5738.0755   -6346.6845            0     5436.969    23.319516    21.464165    21.792981    10908.127     6324.481    4824.3945    5162.0316     1010.681   -1112.1169    664.61748   -4873.1416 
22505000    250.54661   -6340.7824   -5696.2666   -6340.7824            0    6607.5852    23.483545    21.419765    21.573807    10851.885    6286.5058     5735.105    7801.1447   -72.418187   -603.36798    983.45788   -4650.5263 
22506000    257.58522   -6332.1583    -5669.536   -6332.1583            0    6732.4894    23.243337     21.57573    21.597291    10830.867    7800.4244    5623.6741    6773.3696    502.97571   -499.90569    527.35813   -4606.0916 
22507000    246.76961   -6344.9801   -5710.1803   -6344.9801            0    6063.9359    23.428844    21.195805    21.867849    10859.425    6130.0697    6772.7982    5288.9399    974.16372   -660.78256   -134.57998   -4749.8131 
22508000    254.09078   -6332.3554   -5678.7224   -6332.3554            0    6660.6652    23.191083    21.492154    21.788055    10859.741     8026.699    6228.0836    5727.2131    251.53685    511.89172   -803.55971   -4623.8184 
22509000    256.47487   -6309.2393   -5649.4734   -6309.2393            0     6393.384    23.347845    21.526553    21.620417    10866.392    5503.1486    7117.9815    6559.0219    617.89175    264.45952     626.9984   -4636.2807 
22510000    259.14963   -6347.1102   -5680.4636   -6347.1102            0    6109.2322    23.497616    21.310651    21.720381     10876.47    6590.6514    4450.5138    7286.5314    -877.4062    190.04066    757.48617    -4711.404 
22511000     251.4583   -6339.8929   -5693.0317   -6339.8929            0    6039.7711    23.207473    21.597209    21.701207    10877.006    5033.7558    6590.3421    6495.2155    570.18239    637.87733    340.25906    -4734.943 
22512000    253.09901   -6306.2449   -5655.1631   -6306.2449            0    6592.5675    23.476568    21.483429     21.55704    10872.448    4328.3139     7343.422    8105.9665    -637.3563    -439.3039   -672.23119   -4609.8225 
22513000    255.44873   -6323.3558   -5666.2295   -6323.3558            0    5891.4216    23.350731     21.39747    21.778938    10881.772    5988.8102    6058.8239    5626.6307   -926.43115   -31.566058   -8.8988174    -4731.264 
22514000    249.62901   -6360.7308   -5718.5754   -6360.7308            0    6542.7045    23.053388    21.647633    21.635403    10797.175    8368.6571    4824.7942    6434.6622   -103.96324    93.481386     220.6713   -4688.3236 
22515000    255.33259   -6335.7043   -5678.8768   -6335.7043            0    6859.0282     23.54226    21.240484    21.645719     10823.92    6290.6875    8081.1775    6205.2196    -120.1284   -213.94657    370.04263   -4596.1396 
22516000    244.34124   -6319.7579   -5691.2049   -6319.7579            0    5859.3961    23.113739    21.598546    21.758197    10862.196    6425.0924    5704.2364    5448.8594       451.96    70.781792   -841.58872   -4762.9946 
22517000    252.11094   -6329.6219   -5681.0819   -6329.6219            0     7522.708    23.303087    21.457996    21.604365    10802.994    6091.6388    8244.8958    8231.5895    793.88761    392.56952   -286.49623   -4495.8748 
22518000    242.98467    -6349.494   -5724.4307    -6349.494            0    5517.2645    23.481111    21.250586    21.822007    10888.906    4621.0036    7602.0913    4328.6986    129.27858    880.18778    394.13738   -4848.2696 
22519000    251.07314    -6337.068   -5691.1977    -6337.068            0    8054.8485    22.975691    21.514333    21.806413    10779.055    9723.0046    8272.5181    6169.0229    396.47455    446.22228    938.61368   -4424.9637 
22520000     241.8416   -6324.4856   -5702.3628   -6324.4856            0    7484.4976    23.316183    21.436368    21.566461    10779.225    6160.1044    7714.4457    8578.9426    858.28782     1149.994    903.94327   -4525.7703 
22521000    251.29594   -6364.9434   -5718.4999   -6364.9434            0    6291.2391    23.581029    21.256687    21.617545    10835.893    4889.6572    6497.5254    7486.5349   -182.02661    582.13581    304.35199    -4724.293 
22522000    250.72487    -6322.542   -5677.5676    -6322.542            0    6589.3809    23.002235     21.57134     21.89727    10865.185    7826.5979     6681.132     5260.413   -456.49309      493.128    604.50621   -4633.4302 
22523000    254.08091   -6364.4557    -5710.848   -6364.4557            0    6336.9822    23.345186    21.340207    21.741338    10831.341    5575.1052    6729.7514      6706.09   -573.90931    308.15852    925.28143    -4709.833 
22524000    260.91935   -6288.5106   -5617.3115   -6288.5106            0    7858.9961    23.409283    21.399728    21.630765    10835.981    6989.0778    8085.9494     8501.961   -195.23396    255.42813    206.41404   -4375.3412 
22525000    257.52237   -6309.1621   -5646.7015   -6309.1621            0    6039.5489    23.024726    21.760464    21.694238    10869.436    8597.1262     4849.373    4672.1476   -45.210602   -723.53406   -398.21448   -4689.3148 
22526000    263.62368   -6329.8215   -5651.6657   -6329.8215            0    6828.1202    23.451071    21.258359    21.761458    10848.767    6594.9098     7793.464    6095.9868     466.3839   -820.09377   -79.949791   -4571.3332 
22527000    250.01317   -6316.7642   -5673.6205   -6316.7642            0    6255.5088    23.358178    21.559814    21.582051    10868.677     6372.861      5548.84    6844.8255   -778.30813   -124.90748    43.317638   -4682.0692 
22528000    245.11086   -6349.8932   -5719.3604   -6349.8932            0    5209.9977    23.562109     21.34239    21.626874    10875.543    5076.2531    4844.0441     5709.696   -550.53545    226.90712   -567.01268   -4893.0097 
22529000    238.95388   -6332.7624   -5718.0681   -6332.7624            0     5753.227    23.376503    21.386804     21.76785    10882.808    6131.1328    6226.7339    4901.8143    920.53166   -771.77802    306.36349    -4804.947 
22530000    261.06348   -6324.1519    -5652.582   -6324.1519            0    5775.5465     23.17527    21.648719    21.674153    10874.245     6253.685     5159.016    5913.9386    65.282904    411.37046    -143.8329   -4736.6397 
22531000    259.19006   -6330.1615   -5663.4109   -6330.1615            0    4826.8372    23.614087    21.350773    21.660987    10921.015    4443.1897    4721.1012    5316.2207   -499.21496   -1858.0015    1011.9207   -4894.6318 
22532000    245.95223   -6306.4092   -5673.7121   -6306.4092            0    6686.5323    23.220839    21.613015    21.635405    10858.211    7790.9504    6217.1445     6051.502   -374.68674   -883.91456   -664.73797   -4614.8604 
22533000    251.29422   -6339.7669   -5693.3279   -6339.7669            0    5990.3843    23.326975    21.486418    21.658396    10855.473    6969.8015    5546.5737    5454.7776    74.823956   -648.92302    438.46524   -4744.9546 
22534000    251.21021    -6355.098   -5708.8751    -6355.098            0    5108.3224    23.341382    21.622975    21.557423     10880.25    4846.4627     3610.676    6867.8283    498.93545    141.80899    609.73019   -4898.3004 
22535000    250.05745    -6364.208   -5720.9504    -6364.208            0    7201.5082    23.394267    21.344785    21.660863    10816.257     6282.926    7595.6222    7725.9765      1124.81   -82.931809    2.3803955   -4584.9557 
22536000    253.12072   -6367.8129   -5716.6753   -6367.8129            0    7534.3082    23.311184    21.408512    21.586978    10773.149    7958.3237    7253.9515    7390.6493    26.240523    2.4119216   -32.162435     -4532.92 
22537000    258.45572   -6334.0927   -5669.2311   -6334.0927            0    7801.1576    23.349668    21.536428    21.377366    10750.003    7848.8617    7028.0346    8526.5766    1020.4347   -790.23266   -252.21663   -4446.1831 
22538000    251.49922   -6327.2348   -5680.2684   -6327.2348            0    8691.4743    23.346279    21.253843    21.667925    10751.584    9003.3425    8735.6165     8335.464    1117.9663   -1335.5659    278.53323   -4317.4381 
22539000    258.14584   -6355.5139   -5691.4494   -6355.5139            0    6160.7289    23.230645    21.374973    21.823218    10836.415    5990.0059    6766.3562    5725.8245    2124.0021   -694.18318   -58.147178   -4717.8201 
22540000    245.25617   -6326.2783   -5695.3718   -6326.2783            0    7748.5559    23.342268    21.553715    21.429653    10781.528    7364.2104    7538.8465    8342.6109   -957.93264    660.51458   -1195.0447    -4477.008 
22541000    249.79677   -6347.4077   -5704.8208   -6347.4077            0    7280.5418    23.259825    21.369162    21.778979    10825.089    7237.8632    8238.8532    6364.9092    114.98693    226.64849    217.02231   -4555.4211 
22542000    250.32863    -6331.894   -5687.9389    -6331.894            0    6459.5816    23.156872    21.440429     21.80197    10824.532    7079.8873    6525.2819    5773.5755   -295.68166   -965.53611    1881.8119    -4668.199 
22543000    261.90458   -6338.4042   -5664.6706   -6338.4042            0    8091.3753    23.466263    21.324324    21.485812    10751.548    9187.2974       6374.7    8712.1285   -1866.4156   -148.44995    405.41271   -4395.9405 
22544000    255.72646   -6339.9255   -5682.0848   -6339.9255            0    7192.3424     23.31234    21.356002    21.732534    10819.724    7999.4712    6995.4305    6582.1254   -924.87145    364.49429   -760.46663   -4547.1722 
22545000    236.65761   -6362.1405   -5753.3532   -6362.1405            0    7087.0194    23.191349    21.547532    21.615728    10801.732    8324.2176    6494.4208    6442.4199   -841.77751   -225.02696   -1124.9903   -4636.9196 
22546000    246.46485   -6300.8999   -5666.8841   -6300.8999            0     7561.204    23.344134    21.289073    21.743699    10806.074    8801.6951    6836.1058     7045.811     785.2149   -696.68901    268.00668   -4475.2723 
22547000    248.85969   -6345.1094    -5704.933   -6345.1094            0    6529.1995     23.26503    21.422554    21.727382    10828.848    6017.1866    6627.2411    6943.1707    1401.8062    -1262.882    457.19463   -4673.7919 
22548000    253.49526   -6317.4751    -5665.374   -6317.4751            0    6150.5613    23.253947    21.629787    21.557893    10843.144    6006.5932    5815.8283    6629.2623    143.28212      778.801     926.9238   -4692.7479 
22549000    258.84684   -6335.0813   -5669.2135   -6335.0813            0    5478.8344    23.518767    21.323553    21.693936    10879.589    6056.5023    6371.4853    4008.5156   -1594.4731   -606.28357   -236.38485   -4799.8998 
22550000     250.6779   -6327.9257    -5683.072   -6327.9257            0    7405.8359    23.066623    21.506964    21.774084    10801.971     9569.097    7041.9735    5606.4371    1446.9207   -345.11809   -1479.0791   -4516.3887 
22551000     251.2756   -6308.2435   -5661.8524   -6308.2435            0    6176.6129    23.262964    21.533162     21.75055    10895.398    6557.9829    4879.3648     7092.491    1032.7173    170.58857   -204.11183   -4680.3996 
22552000    249.19626   -6362.9278   -5721.8856   -6362.9278            0     5677.215    23.480718    21.298339    21.713423    10858.889    5956.6608    4807.0209    6267.9632    439.71477    510.14848    404.57372   -4822.8091 
22553000    241.24624   -6344.4233    -5723.832   -6344.4233            0     5247.498    23.239986    21.535942    21.816663     10919.13    5387.8222     5958.491    4396.1808    396.44079    -207.3784   -265.16451   -4888.1978 
22554000    254.44558   -6336.5817    -5682.036   -6336.5817            0    6142.0225     23.34416    21.401493    21.764355    10873.469    6225.4055     6829.221    5371.4409    48.073072   -484.57718   -1555.2023   -4708.0439 
22555000    258.40053   -6349.0265   -5684.3069   -6349.0265            0    6013.6405    23.457273    21.400328    21.605293    10845.714    4627.1009    6027.5573    7386.2632   -764.35807    164.48127    662.98024   -4733.1076 
22556000    255.23682   -6300.5757   -5643.9946   -6300.5757            0    8014.4787    23.304342    21.459841    21.593888    10799.265    8205.8558     7577.513    8260.0674   -1082.0459    1099.1119    370.78281   -4381.7446 
22557000    261.85006   -6357.4379   -5683.8446   -6357.4379            0    7502.4761    23.253544    21.394155    21.741801    10816.327    6990.7336    8069.8697    7446.8252    1875.0955   -869.42058    263.84763   -4500.3662 
22558000    250.29103   -6327.9465    -5684.088   -6327.9465            0    8412.0248    23.485569    21.307241    21.467763    10742.741    7309.6619    9487.0329    8439.3795   -45.120328   -1129.1786     158.5607   -4366.1605 
22559000    257.11119   -6337.7077   -5676.3048   -6337.7077            0    7316.6683     23.38393    21.447978    21.515346    10790.764     7752.079    7892.7319    6305.1942   -1220.3004   -570.58277   -385.33524   -4524.8644 
22560000    243.71283   -6350.8487   -5723.9124   -6350.8487            0    6818.6445    23.250526    21.469544    21.715477    10839.893     7733.449    6384.3064     6338.178   -239.29231    336.52664    -486.8457   -4645.9616 
22561000    246.45779   -6326.1951   -5692.1974   -6326.1951            0    5520.0113    23.283611    21.408834     21.79598     10864.75    5397.5344    6656.8347    4505.6647      743.545   -598.68149    363.55393   -4817.5449 
22562000    255.28766    -6327.971    -5671.259    -6327.971            0    5632.7391    23.520418    21.477781    21.526227    10874.326    4522.7628    5701.3244    6674.1301    205.98251   -508.28441    996.03715   -4777.9579 
22563000    264.88358   -6322.8888    -5641.492   -6322.8888            0    5906.0874    23.216076    21.608296    21.677292    10874.627     6460.375    4899.9292    6357.9581   -693.94833    319.69862   -486.97096   -4704.8143 
22564000    243.73698   -6329.3722   -5702.3737   -6329.3722            0    6188.0349     23.39039     21.41516    21.707787    10873.625    5027.8851    6627.7883    6908.4313    352.22101   -90.130298    928.28792   -4721.0711 
22565000    238.75007   -6359.4244   -5745.2544   -6359.4244            0    5431.1113    23.463256    21.312263    21.805337     10903.87     5336.244    6095.5066    4861.5833    506.19366    350.95697    -1020.383   -4881.5895 
22566000    261.44521   -6330.0497   -5657.4978   -6330.0497            0     6164.351    23.288898    21.536381    21.719674    10893.689    6277.0946    5304.1776    6911.7808   -13.100888   -368.62483   -344.32616   -4678.1472 
22567000    241.75492   -6352.3149   -5730.4151   -6352.3149            0    6567.6628    23.429358     21.41814    21.558797     10818.49    6151.2674    6541.5047    7010.2163    946.82414   -424.47398   -322.59443   -4694.1917 
22568000    246.73324   -6351.0952    -5716.389   -6351.0952            0    6644.3496    23.383828     21.37389     21.71371    10852.586    5585.5677    8260.3205    6087.1607   -49.212698     474.6833    717.14086   -4664.7623 
22569000    238.89458   -6352.9109   -5738.3691   -6352.9109            0     5112.831    23.130035    21.558201    21.727148    10834.067    5762.0309    4774.2882    4802.1739   -1293.8907    -1086.205    574.89696   -4930.5226 
22570000    245.85391   -6326.6054   -5694.1612   -6326.6054            0    7077.3424    23.406916    21.368032     21.67489    10840.907    6415.9629    8546.7321     6269.332   -93.491809   -339.51912   -632.72539   -4575.2085 
22571000    245.05502   -6318.8193   -5688.4302   -6318.8193            0    5696.1481    23.419396    21.510639    21.639797    10901.397    4729.8629    5853.2058    6505.3757    3.4429305    158.13078    271.24913   -4782.8241 
22572000    258.79363   -6292.1803   -5626.4494   -6292.1803            0    5955.8138     23.21582    21.626938    21.727669    10909.182    6917.1492    4869.2921    6081.0002    426.82023    240.54894   -1204.8765    -4678.884 
22573000    241.67514   -6338.3557   -5716.6611   -6338.3557            0     5523.178    23.541144    21.146859    21.771732    10838.431    5483.0753    6446.5442    4639.9147    239.95066   -952.48172   -708.53052   -4843.6267 
22574000    250.82146   -6340.0403   -5694.8174   -6340.0403            0    7157.9941    23.222637    21.545981    21.585041    10800.173     8602.215    5402.0162    7469.7511   -1448.4939   -932.76586    405.43684   -4567.3658 
22575000    252.91942   -6334.7725   -5684.1527   -6334.7725            0    7954.6601    23.149436     21.51375    21.665525    10790.107    7746.7189    7913.9949    8203.2665   -546.41899    856.59883    863.76644   -4432.3863 
22576000    262.11093   -6352.9343   -5678.6699   -6352.9343            0    8433.2311    23.345988    21.202177    21.645501    10714.215    7230.4581    9588.4548    8480.7805   -453.38184    357.52058   -72.036436   -4360.9283 
22577000    246.58491   -6338.1617   -5703.8371   -6338.1617            0    7463.5326    23.014237    21.535651    21.810017    10809.624    8231.3498    7050.5453    7108.7028   -554.43698    1375.5289    463.12826   -4527.2314 
22578000    255.56376    -6303.044   -5645.6218    -6303.044            0    6391.3975    23.500559     21.22295      21.7331    10839.409    5773.4222    7095.6081    6305.1623    33.785087   -463.46697    410.79302   -4635.2591 
22579000    243.72431   -6342.5327   -5715.5668   -6342.5327            0    6384.7067    23.279121    21.539551    21.587746    10824.567    6976.4184     4600.683    7577.0186   -945.41964   -259.09097   -578.76607   -4707.6438 
22580000    256.81494   -6317.0741   -5656.4334   -6317.0741            0    6049.2938    23.399839    21.373378    21.774958    10890.389    5717.4043    7603.4819    4826.9951   -487.79728    139.82934   -1875.2185   -4695.6534 
22581000    248.15744   -6347.9546   -5709.5847   -6347.9546            0    6451.7954    23.428004    21.312059    21.692038    10830.813    4761.9953    8328.6553    6264.7355    447.60115    1079.7998    559.33446    -4690.483 
22582000    251.30253   -6351.9071   -5705.4466   -6351.9071            0    6789.3252    23.173953    21.543617    21.638119    10802.847    6835.0181    5961.9844    7570.9729    310.47836    598.30169    1684.9796    -4635.799 
22583000    239.54003   -6311.1752   -5694.9731   -6311.1752            0    5354.3258    23.645849    21.189232    21.742053    10893.581    4802.9018    6151.5073    5108.5681   -182.23938    619.64475   -369.02255   -4844.3222 
22584000    259.29363   -6310.7081    -5643.691   -6310.7081            0    6311.3003    23.396101    21.489231    21.604635    10862.038    7304.7682     5963.335    5665.7977   -17.745132   -557.61445   -1192.3325   -4643.9074 
22585000    262.73704   -6376.3818   -5700.5067   -6376.3818            0    6568.2662    23.227441    21.503184    21.655962    10816.372    8190.8554    4913.9844    6599.9589   -770.97672    372.49803   -911.65544    -4664.391 
22586000    258.32755   -6368.0252   -5703.4933   -6368.0252            0    5224.7848    23.519495    21.143143    21.821186    10851.153    5277.7987    6878.5014    3518.0543   -388.64488    672.43949   -649.78571   -4876.6557 
22587000    241.90095   -6340.7619   -5718.4865   -6340.7619            0    6879.9844    23.071079    21.462626     21.80426    10796.727    6798.4912    6633.7643    7207.6978    304.00151    1042.2065    1599.0772   -4635.1697 
22588000    251.90482    -6328.939   -5680.9292    -6328.939            0    5730.1536    23.324889    21.478844     21.72209    10882.585    6437.4757    5612.6928    5140.2924  -0.31700506    182.37928   -627.67751   -4771.4888 
22589000     243.6072    -6361.722   -5735.0574    -6361.722            0    6188.1149    23.419968    21.476416    21.561054    10844.714    5844.5275    6243.2915    6476.5256   -13.291694   -208.18519    19.247996   -4756.3511 
22590000    249.36624   -6352.7658   -5711.2864   -6352.7658            0    5015.9277    23.182832    21.633171    21.723942    10894.952    5404.0277    4832.0153      4811.74   -772.73266   -499.17084   -637.91606   -4914.2971 
22591000    246.33117   -6355.0222   -5721.3502   -6355.0222            0    6659.3461    23.361635    21.292374    21.756642     10822.29    6815.2992    7637.2003    5525.5389    552.42851   -199.69659    448.97341   -4670.2923 
22592000    251.76284   -6332.0186   -5684.3741   -6332.0186            0    6744.5693    23.214681    21.428576    21.861895    10875.365    8311.0187    6649.5455    5273.1436   -413.83825    764.56737    128.14467   -4614.6446 
22593000    249.53825   -6333.2219      -5691.3   -6333.2219            0    6297.6869     23.23957    21.637756    21.628234    10875.804    5605.1277    5694.9824    7592.9506    446.02303    1961.7682    448.75564   -4692.4084 
22594000    254.73668   -6342.0029   -5686.7083   -6342.0029            0    6278.6981    23.473591      21.3708     21.60165    10836.455    6287.3594    7115.5227    5433.2121     568.3371    188.33905   -449.96461   -4694.4317 
22595000    239.76274   -6344.1726   -5727.3976   -6344.1726            0    7383.7639    23.180546    21.488718    21.642505    10780.569    7851.7319    6790.6961    7508.8638    676.91801   -199.85673   -1249.8136   -4566.4961 
22596000      261.348   -6334.7662   -5662.4644   -6334.7662            0    5565.6716    23.236228    21.463487    21.828856    10886.716    6187.1183    4081.1066    6428.7898    937.54451    868.63882    331.26291   -4778.7939 
22597000    249.37621   -6345.3792   -5703.8741   -6345.3792            0    4618.2663     23.62323    21.346145    21.597513    10890.868    2789.7948    5168.3513    5896.6527    919.38846   -501.23771    1761.2843   -4970.3451 
22598000    245.22187   -6367.8099   -5736.9915   -6367.8099            0    5376.3198    23.075096    21.586454    21.793868    10855.733    6320.0798    4512.5632    5296.3165   -61.334619    244.82286    872.53591    -4885.814 
22599000     246.7289    -6327.656    -5692.961    -6327.656            0    5150.3527    23.382182    21.419226    21.768542    10902.301    5715.3697    5590.2061    4145.4824    102.61369   -464.65759   -76.612304   -4874.0607 
22600000    252.34811   -6375.1987   -5726.0486   -6375.1987            0    6714.0241    23.546389    21.352198    21.539932    10829.571     5732.116    6783.8578    7626.0985    10.629189   -327.92868     418.4177   -4665.6478 
22601000    250.66348    -6365.691   -5720.8744    -6365.691            0    7293.3522     23.14652    21.653638    21.525812    10788.874    8129.3652    5579.4748    8171.2166   -82.826396   -1673.1216    -622.1208   -4573.3044 
22602000    249.17492   -6334.5189   -5693.5316   -6334.5189            0    6552.2653    23.486448    21.176575    21.787833    10836.451    5622.7911    7252.1746    6781.8303   -1423.5561   -364.67824   -227.56066   -4658.0213 
22603000    253.69989   -6306.9833   -5654.3558   -6306.9833            0    7069.2666    23.226646    21.593366    21.563087    10814.783    5732.6687    6553.6428    8921.4885    1288.5605    1008.4868    1349.2341   -4539.3733 
22604000    255.72089   -6348.7076   -5690.8812   -6348.7076            0    6500.4642     23.31184    21.438451    21.664686    10827.355    5913.7532    7397.8326    6189.8067   -198.03623    286.30471    896.61637   -4664.4198 
22605000    242.33533   -6304.2528     -5680.86   -6304.2528            0    5671.4104    23.459499     21.34753    21.831023    10933.028    4994.9369    6350.5706    5668.7237    78.941002   -685.23556    515.69238   -4776.5706 
22606000    242.16579   -6331.6308   -5708.6741   -6331.6308            0      7412.57    23.096191    21.646375    21.619637    10808.712    7911.0899     7308.668    7017.9522    616.79537   -605.57758    236.62673   -4540.2011 
22607000    255.36835   -6358.5736    -5701.654   -6358.5736            0    6787.7375    23.587798    21.384575    21.467789    10828.676    4861.4399    7209.4602    8292.3125    1010.1131     21.31193    986.68103   -4629.6997 
22608000    247.43119    -6333.795   -5697.2934    -6333.795            0    6210.8949    23.261004    21.582197    21.633121    10860.337    7386.6469    5501.1887    5744.8492   -430.45923     -314.777   -227.81439   -4713.5691 
22609000     244.3657   -6336.3269    -5707.711   -6336.3269            0    5726.0969    23.282924    21.585561     21.59102    10851.106    6289.7807    4805.3724    6083.1377    1344.6026   -618.83265    642.18661   -4801.5432 
22610000    249.71557   -6352.7978   -5710.4197   -6352.7978            0    5835.8944    23.420889    21.188142    21.836598    10836.305    5974.5467    6638.1633    4894.9731   -485.42957    337.93667   -215.18301    -4788.136 
22611000    244.25029   -6311.5325   -5683.2136   -6311.5325            0    6314.5564    23.093041    21.729902    21.648612     10863.48    7737.0229    4949.0583    6257.5881    167.53094   -722.33219   -614.09934   -4682.7813 
22612000    247.37151   -6327.1318   -5690.7836   -6327.1318            0    6770.7845    23.538042    21.326036    21.652884    10869.166    5747.2171    6640.8627    7924.2736    -842.2564   -317.69313   -1279.6908   -4617.5084 
22613000    248.03878   -6324.5918   -5686.5272   -6324.5918            0    6267.2446    23.369374    21.505553    21.604743    10857.925    6398.5748     6325.448    6077.7111    83.773792   -34.775462    -195.1054   -4694.0984 
22614000    250.14409   -6324.7546   -5681.2741   -6324.7546            0    6037.3539    23.191305    21.611197     21.66935    10860.502    6559.7118    3875.4928    7676.8569    759.77199    -8.187064    265.70698    -4725.022 
22615000    256.34529   -6336.3494   -5676.9167   -6336.3494            0    6975.3547     23.62083    21.097361    21.751519    10839.591    5815.2209    9353.3867    5757.4565    1067.1071   -720.00603    793.89695   -4574.2226 
22616000    243.39142   -6360.0745   -5733.9649   -6360.0745            0    6483.4124    23.069352     21.59475    21.763573    10842.109    8357.8179    5395.8699    5696.5496    368.16799   -446.18867   -998.85775    -4708.801 
22617000     237.0883   -6368.8186   -5758.9234   -6368.8186            0    6363.7246    23.468338    21.363021    21.594925    10826.715    6151.0971    6574.7512    6365.3256   -287.12129   -857.78387   -1439.1133   -4754.1133 
22618000    244.78875   -6360.4928   -5730.7886   -6360.4928            0    4823.9447    23.359654    21.412962    21.766894    10887.787    5312.6166    4695.1432    4464.0744    99.488936   -476.39001   -496.62559    -4964.808 
22619000    253.48589   -6354.3875   -5702.3105   -6354.3875            0    6082.0243     23.07619    21.633145    21.690841    10828.297    6367.2332    6009.7287    5869.1109    231.49498    662.04487   -114.01322   -4741.8396 
22620000    250.82695    -6341.153   -5695.9159    -6341.153            0    4837.4017    23.449993    21.329329    21.728233    10867.867    5924.9024     5054.552    3532.7505    977.32142   -909.89367   -641.61509   -4929.2038 
22621000    238.54822   -6315.8144   -5702.1637   -6315.8144            0    5672.0856    23.301992    21.533574    21.655267    10866.075    5546.5714     5672.329    5797.3565    185.54822    357.51068    215.34302   -4803.3051 
22622000    255.72413   -6315.8976   -5658.0629   -6315.8976            0    5650.2739    23.301835    21.490972    21.805062    10919.519    4629.1373    6797.7928    5523.8917    230.22065     425.4719   -2.5081213   -4758.2569 
22623000    248.83674   -6347.7348   -5707.6175   -6347.7348            0    6374.6064    23.440831    21.355957    21.755488    10890.827    6723.5093    6453.9214    5946.3885   -1337.8183   -25.128709   -473.06232   -4695.1289 
22624000    243.98993   -6319.7309   -5692.0817   -6319.7309            0    5037.4782    23.233594    21.628005    21.646026    10877.048    5959.0861    4164.6391    4988.7094   -211.89795   -171.40576   -880.99963   -4892.9836 
22625000    253.18647   -6310.5755   -5659.2688   -6310.5755            0    7102.4095    23.281505    21.400021     21.68505    10804.027     7592.511    6747.7868    6966.9308   -146.01855    313.33671   -544.77386   -4540.1729 
22626000    247.93654   -6328.6376    -5690.836   -6328.6376            0    8436.6594    23.340507    21.234913    21.698232    10754.373    9232.5165    8759.0987    7318.3628   -198.98602   -233.72198   -254.14885   -4367.6176 
22627000    239.98583   -6307.9434   -5690.5945   -6307.9434            0    7607.8542    23.035312    21.514645    21.780399    10794.291    7869.6131    8448.3973    6505.5523    961.72429    637.50686   -124.62333   -4492.9382 
22628000      238.721   -6300.8897   -5686.7945   -6300.8897            0    6391.4292    23.351845    21.398845    21.686642    10836.869    6831.8756    6513.8332    5828.5787   -1618.4855    737.18141   -962.00578   -4676.6635 
22629000    262.31207   -6323.0566   -5648.2748   -6323.0566            0     6044.883    23.474037    21.425959    21.557128    10842.238    5568.8026    5968.7365      6597.11    108.71604    164.90883    463.18935   -4692.4402 
22630000    236.92367   -6352.1206   -5742.6489   -6352.1206            0    5805.9969    23.211364    21.521447    21.703324    10841.725    6641.1348    5386.9276    5389.9282    44.463379     859.1734   -121.27227   -4824.6312 
22631000    243.67518   -6349.7419   -5722.9024   -6349.7419            0     7939.015    23.288199     21.23257    21.772601    10765.861    8205.0138    8382.8993    7229.1321    496.64519    -102.1749   -732.19531   -4476.4053 
22632000    251.30522   -6296.2863   -5649.8189   -6296.2863            0    7451.8488     23.44329    21.530939    21.485865     10845.12    5190.7617    8932.6765    8232.1083    1998.8018    753.81821   -180.75492   -4471.1976 
22633000    250.78753   -6320.9475   -5675.8119   -6320.9475            0    5965.6217    23.304599    21.554634    21.678165    10889.421    6923.3891    3949.6454    7023.8306   -938.16799    1043.5651    569.32434   -4728.4053 
22634000    244.71405   -6369.7674   -5740.2554   -6369.7674            0    5422.5096    23.477284    21.299968    21.790256    10896.553    4585.5315    7910.7795    3771.2178    563.53059   -463.00935   -1276.2851    -4878.537 
22635000     252.2844   -6385.6789   -5736.6927   -6385.6789            0    4944.2165    23.342751    21.445437    21.714876    10870.369     5458.878    4731.7849    4641.9864    314.25509   -663.32577    390.23658   -4952.8703 
22636000     259.0063   -6332.5882   -5666.3103   -6332.5882            0    5948.3463    23.296851    21.562476    21.582183    10841.546    6236.3714    4723.6207    6885.0469     50.36059   -1351.7688    1023.3477   -4725.8005 
22637000    244.78907   -6330.5503   -5700.8453   -6330.5503            0    6510.9943    23.359968    21.462189    21.617395    10838.012    7434.7028    5899.6617    6198.6184    346.77198   -292.36338    1732.7882   -4671.7092 
22638000    244.26322   -6356.7448   -5728.3925   -6356.7448            0    6823.8069    23.380585    21.303383    21.713484    10815.173    6530.1985    6221.0815    7720.1408    560.39113    194.83141   -554.30276   -4652.0857 
22639000    247.91939   -6345.3683   -5707.6108   -6345.3683            0    7745.4793    23.241721     21.41227    21.654529     10776.55    8096.9959    7648.1918    7491.2501    1326.7725   -1351.2319    108.19499   -4490.2931 
22640000     248.5755   -6328.9012   -5689.4559   -6328.9012            0    6613.0903     23.41487    21.473873    21.517743    10819.292    5107.6344    6621.3236    8110.3131    2.8951258    561.08919   -571.81135   -4645.9878 
22641000    245.05227   -6343.6237   -5713.2417   -6343.6237            0    5169.3288    23.572501    21.244752    21.738876    10886.654    4795.3694    5994.7592    4717.8577    735.79945    69.248198   -128.31269   -4892.5038 
22642000    250.29054   -6329.5599   -5685.7027   -6329.5599            0    7055.0607    23.248931    21.564996    21.542156    10800.442     7481.505    6424.4403    7259.2368   -441.77467   -219.64934    -615.6662   -4574.4363 
22643000    251.78234   -6336.6691   -5688.9743   -6336.6691            0    6142.8059    23.365848    21.365566    21.691667    10829.013    6920.0586    5095.7291    6412.6301   -972.14839    -674.0263    492.10756   -4718.8407 
22644000    245.93585   -6334.9029   -5702.2479   -6334.9029            0    6521.9863    23.333609    21.381312    21.779019    10865.621    6137.8946    7337.7841    6090.2803   -1174.8185    95.934056   -264.33244   -4668.7482 
22645000    256.77063   -6316.5483   -5656.0215   -6316.5483            0    6960.6626    23.277611    21.644191    21.473533    10818.904    6969.0525    6755.5243     7157.411    1835.3093   -1332.4438   -587.63091   -4557.7499 
22646000    246.00735   -6338.9546   -5706.1157   -6338.9546            0     6850.278    23.386385    21.347021    21.649875     10808.26    5698.5059    6893.9729    7958.3552   -1111.2691   -216.07781    772.37258   -4626.3243 
22647000     238.6235   -6341.3426   -5727.4982   -6341.3426            0    5240.5441    23.282533     21.38852    21.915156    10913.285    6237.3456      5173.21    4311.0769     1490.004   -382.11457    1017.5797   -4893.4181 
22648000     241.6091   -6344.7806   -5723.2559   -6344.7806            0    7243.9471    23.092474    21.616266    21.633493    10798.857    7573.1951    7157.8797    7000.7663    1224.3069   -166.25176    28.144199   -4582.4048 
22649000     262.1579   -6328.8281   -5654.4429   -6328.8281            0    6586.0401    23.500382    21.352579    21.651735    10864.706    4663.6757    9769.0279    5325.4167   -584.06499   -75.163143   -1059.1277    -4610.881 
22650000    243.38708   -6343.3917   -5717.2933   -6343.3917            0    4575.6489    23.373967    21.352478    21.906256     10933.24    4633.9308    6938.8906    2154.1253     106.4003    220.82109   -881.98011   -4987.7056 
22651000    252.94308   -6314.7236   -5664.0429   -6314.7236            0    5899.2902    23.327654    21.578242    21.554402    10849.834     5082.924    6231.1851    6383.7616   -759.51234    236.18881    1011.7739   -4730.5764 
22652000      241.764   -6340.0182   -5718.0951   -6340.0182            0     5968.663    23.523071    21.335135    21.586854    10833.749     4643.665    5615.7556    7646.5683   -1080.4773    716.68411    377.16924   -4775.0516 
22653000    253.28559   -6316.0454   -5664.4836   -6316.0454            0    6368.0722     23.34586    21.477908     21.65606    10858.787    6389.6412    7104.6209    5609.9547   -409.97342   -60.512136   -644.34307   -4656.0085 
22654000    254.39217   -6345.7375   -5691.3291   -6345.7375            0    7299.1724    23.248457    21.533888    21.581002     10804.09    8072.8562     6989.758    6834.9031    155.22679   -960.10421   -1522.7021   -4541.2236 
22655000    240.44635   -6338.4968   -5719.9632   -6338.4968            0    6169.3422     23.51446    21.288396    21.660635    10842.992     4934.857    7525.1955    6047.9741    690.85945   -582.69536    1027.2313    -4744.381 
22656000    239.82393   -6365.2876   -5748.3552   -6365.2876            0    5756.6152    23.235238    21.535511    21.680315    10848.455    6494.7572    5460.4257    5314.6625    377.65118   -273.38748    545.86082   -4837.5804 
22657000     244.2407   -6342.1034   -5713.8091   -6342.1034            0    5929.5845    23.397353     21.41064    21.703395    10872.365    4951.8831    7284.9105    5551.9599    60.864149    391.74988    -28.36788   -4773.6005 
22658000    251.21321   -6369.2015   -5722.9709   -6369.2015            0    4604.3189    23.411549    21.442385    21.707728    10897.267    3326.7703    5174.9056    5311.2807   -686.05803    1228.0269    351.66694   -4991.2273 
22659000    247.51314   -6337.5848   -5700.8723   -6337.5848            0    6794.6624    23.190185    21.694649    21.534064    10833.851    6660.3726    6119.6211    7603.9935    517.83101   -211.91582    -234.2043   -4627.3116 
22660000    255.96951   -6360.2288   -5701.7629   -6360.2288            0    6044.0286    23.577097    21.089758    21.837115    10858.184    5702.6018     7660.001    4769.4829     1315.201   -1388.5686   -643.15593   -4744.6579 
22661000    242.46529   -6351.4193   -5727.6921   -6351.4193            0    6169.0324    23.313917    21.417654    21.719974    10845.422    5284.6377    7079.4947    6142.9647    1047.4339    60.840025    151.26286   -4751.9403 
22662000    246.97466   -6330.8129   -5695.4856   -6330.8129            0    5249.3007    23.279843     21.53133    21.767982    10911.114    5539.0177    4874.8222    5334.0622    796.65176    31.016566    1350.4242   -4860.1781 
22663000    255.98677   -6348.3431   -5689.8327   -6348.3431            0    8060.1959    23.419618    21.305646    21.592498    10774.011    7487.5338     8430.762    8262.2919    -901.4082   -513.55789   -257.05721   -4423.3511 
22664000    242.35569   -6338.4607   -5715.0154   -6338.4607            0    7393.7152    23.251671    21.477154    21.644978    10809.063    6991.5335     6854.079     8335.533   -424.89033     118.2166   -383.91905   -4549.4768 
22665000    255.57646   -6347.3992   -5689.9443   -6347.3992            0    7255.0768    23.192872    21.550695    21.586118    10789.228    8404.7075    5217.0068    8143.5161    1078.6877    250.71864    1432.4542   -4548.3593 
22666000    248.70411   -6301.3777   -5661.6015   -6301.3777            0    6219.0923     23.49096    21.259007    21.721888    10847.791    5508.3207     7156.279    5992.6772    794.53561   -852.30617   -5.7817895   -4677.7168 
22667000    248.93115   -6353.6208   -5713.2606   -6353.6208            0     5727.525    23.046521    21.595962     21.81637    10858.265     7437.259    5243.9695    4501.3465   -878.27803    712.95432   -435.68472   -4806.2688 
22668000    253.71196   -6318.9657   -5666.3071   -6318.9657            0    5954.2557    23.465464     21.33648    21.657138    10843.088    5830.5034    5185.0944    6847.1692    664.13678    254.91276   -726.89388    -4724.729 
22669000    260.77034    -6313.084   -5642.2681    -6313.084            0    6529.5402    23.397121    21.419742    21.664468    10857.371    6011.0026     5440.503    8137.1151    264.70212     82.86585    1014.0953   -4608.3571 
22670000    249.02497   -6341.4485   -5700.8469   -6341.4485            0    6600.6241    23.037404    21.639328    21.823186    10879.162    7976.9122    5318.1968    6506.7632   -12.637278   -386.83363    5.6195343   -4653.5826 
22671000    259.32737   -6361.9929   -5694.8891   -6361.9929            0    6547.4204    23.640205    21.195924    21.587704     10817.08    5592.7922     7749.178    6300.2911   -114.06495    288.17104   -747.65548   -4661.9941 
22672000    249.16525   -6334.0451   -5693.0827   -6334.0451            0     6990.843    23.257192    21.516022    21.640287    10828.849    7657.2546    6945.6993    6369.5751    704.64966   -1624.7108    704.19931   -4589.0353 
22673000    243.40981   -6336.8698   -5710.7129   -6336.8698            0    6919.1734    23.181501    21.445878    21.823781    10849.641     7649.713    7493.8091     5613.998   -550.70637   -48.596028   -1086.8747   -4615.8859 
22674000    241.60649   -6333.0491   -5711.5311   -6333.0491            0     6585.497    23.625651    21.319674    21.549516    10854.301    5815.4411    7934.8401    6006.2098   -858.78215    -833.1218   -1043.9854   -4669.0546 
22675000    253.45582   -6343.0685   -5691.0688   -6343.0685            0    6274.1696    23.193883    21.663265    21.590391    10848.205    7128.0719    6847.1355    4847.3015    414.78499    -786.1407     -615.226   -4698.4328 
22676000    238.00044   -6333.7193   -5721.4776   -6333.7193            0    7766.3951    23.444463     21.23458    21.657964    10782.056    5106.6929    10250.252    7942.2407    -770.1564    449.05621   -826.89045   -4500.2491 
22677000     265.5499   -6340.8039    -5657.693   -6340.8039            0    7316.6919     23.16047    21.518499    21.691638    10810.647     7621.596    6991.2854    7337.1943   -200.86255   -496.77084    9.5305027   -4504.1272 
22678000    248.96609   -6319.2284   -5678.7783   -6319.2284            0      7265.32    23.228741    21.451197     21.72865    10827.045     7724.279    7506.7017    6564.9792    375.67201    675.80241    13.952824   -4531.5744 
22679000    256.91878   -6355.2012   -5694.2933   -6355.2012            0    5409.2316    23.567554     21.30448    21.615517    10853.032    4304.3869    5870.2759    6053.0319   -863.65846    499.97868   -190.57952   -4838.1183 
22680000    250.56954   -6327.5893   -5683.0144   -6327.5893            0    6343.3746    23.165388    21.631949    21.677284    10862.758    5507.5134    5306.4364     8216.174    239.55121    389.63225     939.9739   -4678.0832 
22681000     246.8372   -6336.5594   -5701.5858   -6336.5594            0     7666.629    23.340699    21.239023    21.851623    10832.585    7228.7934    9783.3359    5987.7576   -608.92642   -212.69725   -1294.4372   -4490.3953 
22682000    248.75983   -6302.3861   -5662.4666   -6302.3861            0    8100.7971    23.441034    21.335711     21.53451    10770.079    6048.1815    9146.1894    9108.0202    79.482613    913.04858   -475.22262   -4390.0699 
22683000     248.7759    -6356.743   -5716.7821    -6356.743            0    6226.2931    23.131773    21.512195    21.783535    10839.819    6635.1789    6007.5924     6036.108    2022.9033    159.11851    506.49965   -4732.4822 
22684000    244.61627   -6344.9238   -5715.6634   -6344.9238            0    5472.5333    23.522236    21.273325    21.731127    10874.173    4329.1123     6377.706    5710.7815    411.74069    511.97479   -139.01603   -4847.7817 
22685000    247.89161   -6310.1465   -5672.4605   -6310.1465            0    6835.2223    23.266688     21.55153    21.622768    10842.364    7516.3278    6470.2792    6519.0598   -702.30093    136.40699   -1303.6396   -4591.6426 
22686000    257.19071   -6336.9998   -5675.3923   -6336.9998            0    5032.1112    23.402988    21.420748    21.801376    10929.237    5165.9414      4649.63    5280.7623   -742.43722    914.82476   -464.09011   -4873.3155 
22687000    246.48954   -6372.9643    -5738.885   -6372.9643            0    5706.3251    23.341812    21.448817    21.684955    10856.665    6439.8499    5593.1067    5086.0187    -1513.837    517.36575   -241.18517   -4835.3836 
22688000    253.18232   -6310.9921    -5659.696   -6310.9921            0    6861.6059    23.210486    21.549966    21.604129    10806.065    7484.4437    6739.2219    6361.1522    893.65583   -519.42407   -47.214998   -4578.3387 
22689000    236.27548   -6350.3553   -5742.5511   -6350.3553            0     6406.456    23.596424    21.172084    21.642038    10812.048    4671.2732    6927.2097    7620.8849   -323.05397    451.81489    453.60476   -4732.3643 
22690000    256.62601   -6303.5469   -5643.3921   -6303.5469            0    6028.8732    23.199927    21.539397    21.855163    10921.296    6659.8543    6147.9033     5278.862   -804.37432    854.21531   -175.86837   -4683.1379 
22691000    258.50265   -6340.9372   -5675.9549   -6340.9372            0    5686.6545    23.333014    21.508286    21.657775    10869.022    6665.6466    3814.6293    6579.6876   -503.48044   -141.75228    873.10865   -4774.5431 
22692000    253.27217   -6334.8727   -5683.3455   -6334.8727            0    6603.9498    23.406709    21.374667    21.691965     10852.72    6709.8147    7067.4152    6034.6195    986.64371    283.58454     1343.076   -4638.1001 
22693000     241.6892   -6327.8623   -5706.1316   -6327.8623            0    6915.2912    23.033671    21.596858    21.770821    10830.002    7243.4165    5421.6294    8080.8279    982.20172   -180.70847    -66.09801   -4613.8995 
22694000    247.30814   -6323.3382   -5687.1531   -6323.3382            0    5931.6619     23.55383    21.318726    21.628256    10860.362     5506.618    7250.3783    5037.9895   -1097.0969   -321.64478   -729.45378   -4747.6536 
22695000    251.55429   -6324.4888   -5677.3807   -6324.4888            0    6553.3806    23.339817    21.507102    21.617458    10851.355    6274.2369    6301.8309     7084.074    269.91145   -396.54997   -785.65448   -4640.2697 
22696000    243.59349   -6330.1786   -5703.5491   -6330.1786            0    6362.5862    23.116188    21.551838      21.7574    10839.457    7048.5797    5826.6174    6212.5616    213.74169   -191.85974   -404.17834   -4697.7365 
22697000    247.56024   -6323.0883   -5686.2547   -6323.0883            0    5559.9849    23.569246    21.283275     21.69412    10882.437    4739.5388      5895.14     6045.276    1198.3379   -372.84839    702.93973    -4803.834 
22698000    260.29042    -6340.074   -5670.4928    -6340.074            0    6838.2173    23.318687    21.527015    21.585342    10835.447    7406.9986    6105.5976    7002.0559    161.27198    590.90193    1180.3334   -4589.8911 
22699000    259.21368   -6334.5325   -5667.7211   -6334.5325            0    6066.2828    23.226407    21.470132    21.766687    10854.481    6050.8663    7145.4525    5002.5295    1359.6058    133.67272   -376.09006   -4707.4196 
22700000    244.55025   -6342.8838   -5713.7932   -6342.8838            0    6850.9083    23.556095    21.305938    21.548149    10814.686    6429.2412    7202.9902    6920.4935   -335.19233    118.43573   -668.33275   -4633.2603 
22701000    251.24478   -6326.0138   -5679.7019   -6326.0138            0    8146.9473    23.367535    21.425638    21.483067    10755.806    7900.5805    8659.1843    7881.0771    577.09094    902.62563   -799.10017   -4401.7523 
22702000    257.22615   -6342.3708   -5680.6722   -6342.3708            0    8509.3016    23.183664     21.37955    21.650341    10731.128    9189.2065    8457.3586    7881.3398    917.28867   -687.00023    8.5464051   -4348.9453 
22703000    238.46021   -6349.4237   -5735.9993   -6349.4237            0    8807.0468     23.23975    21.372871    21.573632    10715.627     9021.023    9474.3473    7925.7702   -425.39945   -980.65537    255.43998   -4359.6655 
22704000    249.33731   -6344.7457   -5703.3406   -6344.7457            0    7855.9081    23.237182     21.51889    21.540115    10770.884     6831.657    7145.1205    9590.9468   -650.56849   -228.20961     321.4092   -4469.3166 
22705000    251.91699   -6355.7396   -5707.6985   -6355.7396            0       8462.4    23.211838     21.32833    21.737781    10761.718    8226.3227     8564.108    8596.7694    835.25897    -117.0906    705.31152   -4379.5365 
22706000    228.62503   -6316.4637   -5728.3397   -6316.4637            0    6992.6471    23.416183    21.387869    21.617613    10826.582    7373.3014    6796.4207     6808.219      -349.99    261.49394   -414.83223   -4624.2386 
22707000    244.31951   -6350.4101    -5721.913   -6350.4101            0    6684.0098    23.363567    21.510994    21.520124    10815.445    6196.3723    5826.2259    8029.4314    248.96327    77.918924   -155.90913   -4667.6296 
22708000     246.1009   -6324.5741   -5691.4946   -6324.5741            0    6127.9369      23.3378    21.366747    21.746855    10844.132    5769.0847    8296.7642    4317.9619   -740.85499   -74.133198   -1442.7996    -4722.358 
22709000    251.59513    -6324.175   -5676.9618    -6324.175            0     7285.281    23.377256    21.273033     21.77639     10829.51     7534.249    8053.0119    6268.5822    11.396121    400.98228   -392.74592   -4526.3442 
22710000    253.49548   -6350.9569   -5698.8552   -6350.9569            0    5843.6076    23.262386     21.53296    21.686611    10862.998    5292.6899    6052.3359    6185.7969   -134.66467    1090.1696     974.0937   -4773.0778 
22711000    250.47703    -6322.865   -5678.5281    -6322.865            0    6293.8032    23.397855    21.571755    21.519258    10861.476     5423.437    5342.1902    8115.7823   -222.21523     1099.292    602.95565   -4681.5677 
22712000    246.34156   -6352.1361   -5718.4374   -6352.1361            0    5807.4045    23.329066     21.39851    21.764582    10865.037    5368.8279    6653.1243    5400.2614    955.34666   -479.07427   -902.75291   -4798.2227 
22713000    247.60346   -6338.9317   -5701.9869   -6338.9317            0    6513.3462    23.179901    21.582964    21.702288    10857.459    5654.9813    8145.6745    5739.3829   -549.18928    1113.0044   -1180.5822   -4670.6318 
22714000    250.59808   -6343.8471   -5699.1988   -6343.8471            0    6612.9814    23.415923    21.395346    21.632787    10837.848    5523.0372    7509.2816    6806.6255    7.0724579   -558.95223   -243.14801   -4653.9583 
22715000    240.04033   -6355.3616   -5737.8725   -6355.3616            0    6288.9785    23.341277     21.34865    21.715978    10821.175    5856.0809    7177.6252    5833.2296   -799.65767   -12.698906    122.64336   -4745.3727 
22716000    250.32874   -6340.2728   -5696.3174   -6340.2728            0    6613.1938    23.287059    21.404796    21.590067    10761.672    7369.6348    5652.7786    6817.1678   -94.441964    713.98348    85.172137   -4658.3902 
22717000    245.61604   -6328.0812   -5696.2489   -6328.0812            0    6748.7398    23.259224    21.473111    21.692389    10834.218    6405.7316    7493.8888    6346.5989   -121.52813    417.02283   -146.01941   -4629.9078 
22718000    264.21787   -6353.4056   -5673.7212   -6353.4056            0     6246.649    23.299564    21.317943    21.832081    10843.968    5957.4866    8171.1234    4611.3371   -1143.3464    1119.2109   -7.2681579   -4685.8252 
22719000    247.25561   -6337.0135   -5700.9635   -6337.0135            0    5841.0598     23.26443    21.534977    21.682924    10863.123    6042.1987    5837.5174    5643.4632   -1452.5263   -726.95058   -15.264492    -4775.579 
22720000    235.16254   -6348.6464   -5743.7051   -6348.6464            0    5450.4222    23.432575    21.458713    21.593637    10857.991    4087.0411     5612.233    6651.9926    294.26016    621.54632    644.49351   -4880.6162 
22721000    248.06876   -6349.2444   -5711.1026   -6349.2444            0    6340.7327    23.310346    21.406843    21.709671    10833.146    7481.7768    5576.5026    5963.9188    274.40923   -1057.9039   -627.64284   -4709.3282 
22722000    253.64134   -6369.1671   -5716.6902   -6369.1671            0     6541.748    23.226592    21.556805    21.569964    10799.889    6462.6988    5836.3969    7326.1483    -94.29718   -73.522189    136.24551   -4686.3302 
22723000    248.67633   -6363.4533   -5723.7486   -6363.4533            0    5302.1472    23.507013    21.424666    21.638086    10897.587    4336.0044    5942.2946    5628.1426   -355.62774   -769.73781    617.27642   -4881.0776 
22724000    247.13646   -6298.8859   -5663.1424   -6298.8859            0    7672.8541    23.261276    21.360048    21.830557    10846.773    9076.3401    8095.5413    5846.6809   -10.556447    -762.8245    493.61522   -4449.3808 
22725000     249.1305   -6353.1132   -5712.2402   -6353.1132            0    6165.6171     23.15372    21.524776    21.736797    10833.155    6756.1345    6701.9192    5038.7977    953.20611    669.22121    349.77696   -4738.1315 
22726000    244.06497   -6327.2078   -5699.3655   -6327.2078            0    5913.5647     23.60216     21.30873     21.60163    10864.152    4925.1036    6192.4177    6623.1727    1634.9455   -1069.0859     847.7226   -4762.4055 
22727000     269.2762    -6342.359   -5649.6624    -6342.359            0    4650.0527    23.174361    21.577457    21.869169    10935.542    5416.7888    4273.2658    4260.1035   -244.42209    961.84415    836.39541    -4908.055 
22728000    247.98832   -6293.3679    -5655.433   -6293.3679            0    5668.2706    23.395942    21.503775    21.639699    10886.956    4232.5921    5135.9342    7636.2854   -9.6649701    1670.8974   -472.28657   -4755.4529 
22729000    252.36103   -6336.3434     -5687.16   -6336.3434            0    5570.9879    23.554296     21.34063    21.676929    10896.202    6427.7158    5530.1597    4755.0882   -933.74008  -0.44116904     -1046.71   -4801.8747 
22730000    257.74732   -6324.6095   -5661.5702   -6324.6095            0    5516.8176    23.101507     21.74062    21.672379    10884.759    6394.3299    4216.7734    5939.3495    400.83565    1208.8223    248.76695   -4785.8137 
22731000    260.40604   -6331.5022   -5661.6236   -6331.5022            0    7455.9533    23.467095    21.205282    21.691559    10794.292    6664.7545    9233.8461    6469.2592     665.0404    234.05843    837.77094     -4487.88 
22732000    246.21338   -6317.2612   -5683.8922   -6317.2612            0    8061.7147    23.263317    21.456953     21.64847    10806.048     8688.872    6931.4169    8564.8552    522.23648   -886.55335    812.19669   -4413.4053 
22733000    241.01944   -6328.2499    -5708.242   -6328.2499            0    7724.3978    23.144864    21.541499    21.634335     10786.34    8585.2591    6979.2313     7608.703    381.03225    -2525.113     122.2035   -4493.1347 
22734000    244.34221   -6322.4015   -5693.8461   -6322.4015            0    7278.7716    23.559597    21.253444    21.629889    10830.574     5813.112    8043.5763    7979.6266   -509.17633   -429.72835    685.40527   -4544.1436 
22735000    251.31227   -6353.0418   -5706.5563   -6353.0418            0    7027.8293    23.310727    21.495098    21.566387    10806.191    6629.2886    6422.0764     8032.123    101.98778    -204.4099   -543.78256     -4598.99 
22736000    250.65693   -6352.1626   -5707.3629   -6352.1626            0    8042.3315     23.11826    21.463434    21.751858    10793.213     9851.299    8373.4322    5902.2635   -799.90021   -788.36634   -1443.8918   -4441.4361 
22737000    237.55294   -6323.6563   -5712.5658   -6323.6563            0    8336.7785    23.436445    21.166914    21.689629     10759.73     7600.403    10163.704    7246.2283   -542.58992    1373.1618    191.92135   -4404.3616 
22738000     264.5762   -6336.2093   -5655.6031   -6336.2093            0    7517.0914    23.360317    21.482684    21.495884    10787.544    6900.8899    5490.1532    10160.231    -387.0709    520.43724     1643.095   -4472.9747 
22739000    251.50981   -6356.0788   -5709.0852   -6356.0788            0    6506.3465    23.206252    21.459147    21.789181    10850.715     6638.639    7517.8105    5362.5901     204.8501   -889.94679   -689.64347   -4679.4782 
22740000     247.1404   -6316.1205   -5680.3669   -6316.1205            0    6407.6407    23.453051    21.218817    21.850557    10873.843    5767.7475    8773.8487     4681.326    1443.7671    397.83292   -894.47818   -4664.2186 
22741000    243.18009   -6330.2863   -5704.7203   -6330.2863            0    7557.8005    23.275162    21.574969    21.525431     10809.23    8079.9201    7253.5201    7339.9612    926.05646    391.05645    304.97527   -4513.2971 
22742000    247.77268   -6347.0191    -5709.639   -6347.0191            0    6038.5404    23.445365    21.377977    21.584808    10818.618    4880.6403     6214.606    7020.3749   -680.42423    647.20618     519.6833   -4756.8875 
22743000    250.28679   -6323.4503   -5679.6028   -6323.4503            0    6441.3686    23.292685    21.208553    21.963059    10849.842    7967.1194    7905.5681    3451.4183    518.17612   -335.60937   -732.76078   -4660.3604 
22744000    257.03624   -6364.9064   -5703.6964   -6364.9064            0    5535.1614    23.235265    21.539712    21.697322    10859.095    6431.3437    4995.5461    5178.5945    474.65238   -258.01637   -852.12372   -4827.0997 
22745000    259.24653   -6312.9317   -5646.0358   -6312.9317            0    5908.6329    23.528018    21.373263     21.65965        10892    5484.9889    6362.3852    5878.5247    659.32786    719.12157    726.57921   -4707.4575 
22746000    245.46733   -6349.3264   -5717.8767   -6349.3264            0    6021.1811    23.223703    21.589885    21.683795    10872.192    5958.2723    5799.2863    6305.9849   -382.54495    1368.6498   -455.48864   -4763.1596 
22747000    258.22276   -6354.2146   -5689.9522   -6354.2146            0    6947.7941    23.344807    21.320539    21.681174    10791.238    7701.4957    7596.0027    5545.8841   -546.58675    550.52468   -355.01502   -4596.5144 
22748000     252.7916   -6331.4777   -5681.1867   -6331.4777            0    7140.4477    23.196654    21.384039     21.82726    10827.154     7323.506    6248.9934    7848.8436    -535.8931     525.6759     1136.922   -4553.6891 
22749000    247.58945   -6339.6672   -5702.7585   -6339.6672            0    7445.6834     23.16693    21.456296    21.691985    10782.576    7851.8997    7018.6139    7466.5365   -659.24385    1104.0891    445.85278   -4531.9039 
22750000    252.47195   -6286.9604   -5637.4917   -6286.9604            0     5853.203    23.263636    21.510029    21.722376    10869.909    5853.7634    4989.1197    6716.7258    -1524.396    1147.1042    824.21759   -4709.6041 
Loop time of 581.488 on 64 procs for 250000 steps with 1296 atoms

Performance: 74.292 ns/day, 0.323 hours/ns, 429.931 timesteps/s
99.2% CPU use with 64 MPI tasks x 1 OpenMP threads

MPI task timing breakdown:
Section |  min time  |  avg time  |  max time  |%varavg| %total
---------------------------------------------------------------
Pair    | 30.126     | 39.51      | 48.634     |  96.5 |  6.79
Bond    | 0.27256    | 0.28007    | 0.29218    |   0.8 |  0.05
Kspace  | 286.53     | 302.99     | 318.03     |  44.2 | 52.11
Neigh   | 4.2559     | 5.0498     | 5.5611     |  16.0 |  0.87
Comm    | 98.557     | 105.8      | 118.51     |  53.2 | 18.19
Output  | 1.4348     | 1.4368     | 1.4524     |   0.3 |  0.25
Modify  | 116.35     | 118.84     | 121.38     |  11.2 | 20.44
Other   |            | 7.584      |            |       |  1.30

Nlocal:        20.2500 ave          26 max          14 min
Histogram: 4 7 5 7 2 13 7 7 7 5
Nghost:        2545.14 ave        2579 max        2514 min
Histogram: 3 6 6 12 6 11 6 5 7 2
Neighs:        6415.06 ave        8232 max        4398 min
Histogram: 3 8 5 8 2 11 8 7 7 5

Total # of neighbors = 410564
Ave neighs/atom = 316.79321
Ave special neighs/atom = 2.0000000
Neighbor list builds = 8950
Dangerous builds = 0

unfix		3
unfix		2
unfix		1

write_data	data.final.${pid}
write_data	data.final.0
System init for write_data ...
PPPM initialization ...
  extracting TIP4P info from pair style
  using 12-bit tables for long-range coulomb (../kspace.cpp:340)
  G vector (1/distance) = 0.37275677
  grid = 30 36 32
  stencil order = 5
  estimated absolute RMS force accuracy = 0.0033775126
  estimated relative force accuracy = 1.0171279e-05
  using double precision FFTW3
  3d grid and FFT values/proc = 4896 600
Last active /omp style is kspace_style pppm/tip4p/omp
WARNING: Not all mixed pair coeffs generated from mixing. Use write_data with 'pair ij' option to store all pair coeffs. (../write_data.cpp:312)

write_restart   restart.lmp.${pid}
write_restart   restart.lmp.0
System init for write_restart ...
PPPM initialization ...
  extracting TIP4P info from pair style
  using 12-bit tables for long-range coulomb (../kspace.cpp:340)
  G vector (1/distance) = 0.37275677
  grid = 30 36 32
  stencil order = 5
  estimated absolute RMS force accuracy = 0.0033775126
  estimated relative force accuracy = 1.0171279e-05
  using double precision FFTW3
  3d grid and FFT values/proc = 4896 600
Last active /omp style is kspace_style pppm/tip4p/omp
Total wall time: 0:09:43
