LAMMPS data file via write_data, version 30 Jul 2021, timestep = 8000000

972 atoms
2 atom types
648 bonds
1 bond types
324 angles
1 angle types

-0.06750369662127653 20.067504696618798 xlo xhi
-0.1885693274380973 20.188570327434476 ylo yhi
-0.025248652315056574 20.725246652314986 zlo zhi

Masses

1 1.008
2 15.999

Pair Coeffs # lj/cut/tip4p/long/omp

1 0 0
2 0.21084 3.1668

Bond Coeffs # harmonic/omp

1 450 0.9572

Angle Coeffs # harmonic/omp

1 55 104.52

Atoms # full

31 11 2 -1.1794 1.2496810852413693 1.936475764455572 1.651016236314303 0 0 0
17 6 1 0.5897 4.498471256898897 4.538160467032694 2.7112228711368416 0 0 0
33 11 1 0.5897 1.9671247762066582 2.2792566710134605 1.1180659544163702 0 0 0
12 4 1 0.5897 2.295075590452233 4.625671495818143 3.839145579526803 0 0 0
23 8 1 0.5897 2.435235657861394 1.0525028159061884 3.8965881191032947 0 0 0
16 6 2 -1.1794 4.361970483821082 3.903370838198753 3.414516077931111 0 0 0
10 4 2 -1.1794 1.364771610043084 4.408770155553389 3.7778547770010222 0 0 0
11 4 1 0.5897 1.3403804167214666 3.597832578068384 3.2699096842903996 0 0 0
102 34 1 0.5897 0.032123484266514526 0.7326576070433342 4.657051035264164 1 0 0
4 2 2 -1.1794 4.1738908999285 1.0027340285586444 3.140903598038935 0 0 0
5 2 1 0.5897 4.168640124929316 0.2837588618792617 2.5090053256939675 0 0 0
18 6 1 0.5897 4.602960756947865 3.0614752569371118 3.0280402511086315 0 0 0
236 79 1 0.5897 0.7968526680956527 0.12761970122134836 2.083026702344409 0 1 0
32 11 1 0.5897 0.4719466192589119 2.0421540766750312 1.1030978434724836 0 0 0
22 8 2 -1.1794 1.7855358200202036 0.896882817812777 4.582085973329688 0 0 0
6 2 1 0.5897 4.823796597342466 0.7434326304203371 3.7940378060192 0 0 0
24 8 1 0.5897 2.0750229398588713 0.09022719279320768 5.008423336285762 0 0 0
3 1 1 0.5897 4.077283438922451 2.3016032251517204 0.2808491121380001 0 0 0
27 9 1 0.5897 2.8940607911856655 4.605831670208294 6.058068732837193 0 0 0
356 119 1 0.5897 1.8694999206633633 2.0746199805617476 8.043608058239531 0 0 0
355 119 2 -1.1794 1.2818012917253014 1.842965599815483 8.76276813523332 0 0 0
325 109 2 -1.1794 2.8332509133793904 2.466100666182396 6.562068743118995 0 0 0
326 109 1 0.5897 2.5219413203161656 1.9410491238884204 5.8247422490768495 0 0 0
327 109 1 0.5897 3.7875337219909317 2.429848408986062 6.496550316025575 0 0 0
330 110 1 0.5897 3.987888229424292 0.7762805550247024 9.365778381789065 0 0 0
335 112 1 0.5897 0.9345822278938833 3.2069692638631224 9.854536808112302 0 0 0
561 187 1 0.5897 1.140077275968735 0.16650923206061574 8.616074136090221 0 1 0
342 114 1 0.5897 3.916759423690603 4.611940126926318 9.908876197605045 0 0 0
357 119 1 0.5897 0.40301716651758634 1.9600839821367746 8.401810422140812 0 0 0
328 110 2 -1.1794 4.088853512321708 1.4740178489785927 10.013255563124227 0 0 0
347 116 1 0.5897 1.2463207498414206 0.606026028607414 11.622107340749416 0 0 0
651 217 1 0.5897 1.781016545168618 2.185372795481428 14.619536807959541 0 0 0
650 217 1 0.5897 2.165886631535229 1.8269495979884636 13.199945923240119 0 0 0
334 112 2 -1.1794 0.9585062883183029 3.9685262369926235 10.433926250570838 0 0 0
348 116 1 0.5897 2.703192296386349 0.8036535438319163 11.261034859954782 0 0 0
649 217 2 -1.1794 2.2260896154981373 2.5309037687620535 13.845751647327544 0 0 0
350 117 1 0.5897 2.6162197053825706 4.262657036135517 13.841357064580025 0 0 0
340 114 2 -1.1794 3.7839847597829004 4.065613426881954 10.683563086206972 0 0 0
346 116 2 -1.1794 2.1286034355995405 0.576753712826968 11.992171938258133 0 0 0
336 112 1 0.5897 1.8254390686078115 3.9352522371659475 10.838326748962384 0 0 0
683 228 1 0.5897 4.139763415811205 2.8234688231524223 13.89816188182725 0 0 0
329 110 1 0.5897 4.753693870299372 1.1454239566021405 10.618447737168232 0 0 0
341 114 1 0.5897 3.922753418677153 3.1708812900851315 10.37294540182132 0 0 0
672 224 1 0.5897 1.0356835685140597 0.8426160916628986 19.09179553448021 0 0 0
653 218 1 0.5897 3.356841413558207 0.5783714773773528 17.81629778384669 0 0 0
665 222 1 0.5897 3.2739192149228877 3.561682389587478 17.26004093406217 0 0 0
658 220 2 -1.1794 1.5314026054932641 3.8328929293735055 17.441963765171742 0 0 0
670 224 2 -1.1794 1.9606795451535923 0.6003135429823061 19.135406598798934 0 0 0
681 227 1 0.5897 0.7990924148527897 2.414844896740607 16.531015445428217 0 0 0
664 222 2 -1.1794 4.216716973584764 3.414141200189207 17.335019949728807 0 0 0
654 218 1 0.5897 4.142855651334343 0.274979462159986 16.558547052042726 0 0 0
652 218 2 -1.1794 4.216332832182063 0.7000853923342919 17.412982236589805 0 0 0
666 222 1 0.5897 4.313900854211374 2.4623573094404123 17.30407721641521 0 0 0
671 224 1 0.5897 2.359335743316194 1.2733442540127924 19.68710089457577 0 0 0
660 220 1 0.5897 1.2197910008854673 4.5854050880443165 16.939132427006932 0 0 0
2 1 1 0.5897 3.3871598329979262 3.562085053020469 20.555332361251583 0 0 -1
659 220 1 0.5897 1.212567871035506 3.989557148360328 18.330769267256116 0 0 0
1 1 2 -1.1794 3.281760524461037 2.6117112731072716 20.598725194713985 0 0 -1
662 221 1 0.5897 4.65177177330369 4.7359646039864005 16.293709114113447 0 0 0
884 295 1 0.5897 0.5058162343035009 -0.14660053347098767 15.840503045899005 0 1 0
679 227 2 -1.1794 0.6135009199071028 1.6905757332689368 15.933320840664589 0 0 0
139 47 2 -1.1794 0.6046797199862782 9.118671193941491 2.0543504624609157 0 0 0
674 225 1 0.5897 1.8733127946320998 5.4906765216170355 0.6873170551437386 0 0 1
19 7 2 -1.1794 0.568488397646817 6.275610682936974 1.9167744681652907 0 0 0
112 38 2 -1.1794 4.332685599397742 8.198167078873098 3.219183275914203 0 0 0
15 5 1 0.5897 4.586629744332267 6.811704961364729 2.234646962914944 0 0 0
114 38 1 0.5897 3.5398163913472693 8.133706236994726 3.751570847449651 0 0 0
13 5 2 -1.1794 4.854199370135616 6.013730126096949 1.7786731768857589 0 0 0
110 37 1 0.5897 1.872404749498525 9.22613383572741 0.45926505721020294 0 0 0
140 47 1 0.5897 0.8019161699021474 9.490129959961463 2.914191484914464 0 0 0
141 47 1 0.5897 0.5847629710382346 8.172877999799734 2.2003085969817437 0 0 0
673 225 2 -1.1794 2.631986602694761 5.41186315049566 0.10900290017784192 0 0 1
14 5 1 0.5897 4.224700367757984 5.923597728569066 1.0632556697749196 0 0 0
142 48 2 -1.1794 4.925241635245009 8.939815028856415 0.3859445288417309 0 0 0
20 7 1 0.5897 0.7165442484220341 5.620454248604439 2.5987355039339537 0 0 0
130 44 2 -1.1794 1.7316370420482923 7.6120422352731465 4.7581173379369535 0 0 0
132 44 1 0.5897 0.7786067826412497 7.654231272058469 4.836547075436727 0 0 0
436 146 2 -1.1794 4.1057635217847706 8.11937783699799 10.239782530826373 0 0 0
463 155 2 -1.1794 0.7920837175663661 8.404674448561172 9.07045777845856 0 0 0
343 115 2 -1.1794 1.0504506734463142 5.875682995520192 8.50099261170221 0 0 0
433 145 2 -1.1794 2.184051789708301 9.381711442735494 6.891929382338577 0 0 0
435 145 1 0.5897 1.940773268302162 8.936254075822639 6.0803782677453615 0 0 0
337 113 2 -1.1794 4.314620070067958 5.835330575695326 8.540421204933486 0 0 0
131 44 1 0.5897 1.9827966373420431 6.85557570217421 5.288092263688441 0 0 0
25 9 2 -1.1794 2.714255052715875 5.499065197582042 6.351478624457589 0 0 0
464 155 1 0.5897 1.4075353255520906 8.783722377156117 8.44293472520056 0 0 0
345 115 1 0.5897 1.290846163436048 6.727876047899977 8.864584259410071 0 0 0
26 9 1 0.5897 1.997770999633759 5.405772381583258 6.979312020117185 0 0 0
468 156 1 0.5897 4.103246249408217 9.270700108953937 6.984348529284444 0 0 0
437 146 1 0.5897 4.105977398639093 7.581591390087251 9.447935054754893 0 0 0
339 113 1 0.5897 3.886455176755002 5.6143147918996315 7.713343971860145 0 0 0
344 115 1 0.5897 1.1267658017481554 5.270011642294355 9.238256268413926 0 0 0
438 146 1 0.5897 3.811058005515873 8.980978627183736 9.944688942062768 0 0 0
757 253 2 -1.1794 2.983974214954943 9.36239318859439 14.378058859132462 0 0 0
668 223 1 0.5897 1.3972601566899665 5.6894723390374615 14.83511507644069 0 0 0
454 152 2 -1.1794 2.477381320194768 7.5189026451597645 12.493311583163566 0 0 0
455 152 1 0.5897 3.0885198326075938 7.829435071904529 11.825238579076492 0 0 0
456 152 1 0.5897 2.8419270117727833 6.682102295828155 12.781684664401748 0 0 0
759 253 1 0.5897 3.020804834896719 8.710788409612551 13.677845355029294 0 0 0
792 264 1 0.5897 4.832115132497985 9.017836362035974 14.509058924572045 0 0 0
533 178 1 0.5897 0.7821170839623619 7.156615143910654 12.386300738569608 1 0 0
351 117 1 0.5897 3.668419292628096 5.2262507035629895 14.347680503204868 0 0 0
349 117 2 -1.1794 2.877080668067146 5.183140408966405 13.81085603445367 0 0 0
789 263 1 0.5897 1.54800081384684 8.821573041411721 15.2206250526919 0 0 0
760 254 2 -1.1794 4.2834072734298285 7.756311583440665 17.196754409056705 0 0 0
780 260 1 0.5897 2.7069003765343362 7.2931541469325 18.061704286363785 0 0 0
778 260 2 -1.1794 2.0770884744887765 7.119788469103385 18.761355172941734 0 0 0
858 286 1 0.5897 0.21645844316759083 7.265651432234838 18.492078282250088 1 0 0
779 260 1 0.5897 2.2293843950891157 7.816838119468827 19.399468858444823 0 0 0
663 221 1 0.5897 4.674114348225146 6.246924906049775 16.201158437508468 0 0 0
761 254 1 0.5897 4.205176344381505 8.709195457073516 17.15000628511647 0 0 0
788 263 1 0.5897 0.9475066354834911 9.042878852693104 16.59258740703218 0 0 0
787 263 2 -1.1794 0.8143977344469472 8.559836948889041 15.777020828909906 0 0 0
675 225 1 0.5897 2.4901027262680375 6.076618357410846 20.1855537556427 0 0 0
762 254 1 0.5897 4.861686429607694 7.599311181077694 17.943196166979284 0 0 0
109 37 2 -1.1794 2.3542074733140366 9.248569289694489 20.382980597538428 0 0 -1
669 223 1 0.5897 0.9076479262196142 6.720638391353125 15.829543070543629 0 0 0
661 221 2 -1.1794 4.897413005447496 5.455162388033505 15.711743792674493 0 0 0
111 37 1 0.5897 3.2432489574758643 8.98100842712512 20.615946245338925 0 0 -1
667 223 2 -1.1794 0.8876757706072014 5.782571688088868 15.64001604363025 0 0 0
119 40 1 0.5897 2.4655955879910163 11.268480500882687 3.9441074182825084 0 0 0
122 41 1 0.5897 3.9549329685107404 12.09668493389131 0.6587298028146745 0 0 0
120 40 1 0.5897 1.2794548894108013 11.73360047087467 3.126450261566178 0 0 0
123 41 1 0.5897 4.325743976625598 11.853944357098499 2.106285659059333 0 0 0
125 42 1 0.5897 4.865194767470207 11.413710648844237 4.550818177059973 0 0 0
118 40 2 -1.1794 1.5151325107949218 11.18124275453573 3.8717887041834667 0 0 0
220 74 2 -1.1794 4.162860153724198 14.386796091153503 3.269004150487877 0 0 0
240 80 1 0.5897 2.836662498707847 14.124830511402285 4.515343193972314 0 0 0
129 43 1 0.5897 0.8709095094762583 13.771971493186202 1.926557749307495 0 0 0
124 42 2 -1.1794 4.415142199600891 11.062815704599831 3.782387258588276 0 0 0
222 74 1 0.5897 4.182276256438874 13.873327393934597 2.4614301386545105 0 0 0
127 43 2 -1.1794 0.7843351805359333 12.905425122518759 1.5292077556996768 0 0 0
121 41 2 -1.1794 4.654472419952163 12.242493387845565 1.2956045420018978 0 0 0
783 261 1 0.5897 2.0504100676138366 12.523290434562616 0.209677323185733 0 0 1
238 80 2 -1.1794 2.088436362570075 14.190092398352158 5.108764219758711 0 0 0
126 42 1 0.5897 4.543479931591634 10.116010299656077 3.840581154484611 0 0 0
317 106 1 0.5897 0.005168232473838741 14.448128331219534 5.048233641293634 1 0 0
188 63 1 0.5897 0.09210749853275685 11.355260120402285 4.942511848069282 1 0 0
133 45 2 -1.1794 2.4226871008530857 12.172121463736834 6.808548045390656 0 0 0
134 45 1 0.5897 1.6613783091567977 12.534411809695918 7.261752244045275 0 0 0
135 45 1 0.5897 3.1747416811504316 12.572403207115814 7.244959461469412 0 0 0
450 150 1 0.5897 3.741019015116352 11.843019582105283 9.545997464319472 0 0 0
448 150 2 -1.1794 3.576668125778849 11.124683105410343 10.156935791321999 0 0 0
451 151 2 -1.1794 0.3913962074737385 12.513279156090558 8.578486433632431 0 0 0
453 151 1 0.5897 0.43722473764988146 11.821203784749974 9.238167045499958 0 0 0
446 149 1 0.5897 4.241214232624929 14.019948264653053 8.602531131300722 0 0 0
445 149 2 -1.1794 4.507595678391779 13.197158277844478 8.192237322485125 0 0 0
434 145 1 0.5897 2.3059057012925694 10.296167518559207 6.6365653247953 0 0 0
573 191 1 0.5897 0.8493642573718063 14.215837807142805 8.953627633870425 0 0 0
443 148 1 0.5897 0.7051645210568509 10.07695219671945 10.08010163869113 0 0 0
239 80 1 0.5897 2.196030468509286 13.455005813977277 5.712360465993914 0 0 0
563 188 1 0.5897 2.0773066841789083 13.470542336560182 12.442732310745775 0 0 0
564 188 1 0.5897 2.042285107228391 14.962766558066518 12.695903529454204 0 0 0
562 188 2 -1.1794 2.0457658618315646 14.314308867113487 11.991815463556804 0 0 0
449 150 1 0.5897 4.065848666746473 11.362806219728363 10.94447900723628 0 0 0
457 153 2 -1.1794 2.559181427241153 11.908130476041773 13.388624520971101 0 0 0
458 153 1 0.5897 1.9123960692123052 12.219616775275366 14.021774594819817 0 0 0
459 153 1 0.5897 3.4044003824832214 12.097873747149325 13.79586695189184 0 0 0
758 253 1 0.5897 2.831514587107268 10.192208683104722 13.925961631369038 0 0 0
545 182 1 0.5897 3.239911696222528 14.717105422437713 10.864277245509568 0 0 0
546 182 1 0.5897 4.7484478750409425 14.589651842165498 10.858042351770113 0 0 0
444 148 1 0.5897 1.619358242442242 11.084088176876683 10.744777096157083 0 0 0
442 148 2 -1.1794 0.6953819325906243 10.868549157149687 10.618189081885586 0 0 0
544 182 2 -1.1794 4.017060427911264 14.948899129452391 10.355784573085904 0 0 0
642 214 1 0.5897 -0.06642819564549399 14.124066399360967 12.085300578412278 1 0 0
769 257 2 -1.1794 4.538624662354762 12.763903943053547 14.98180606881527 0 0 0
776 259 1 0.5897 -0.008812479499798798 12.7826169452987 15.141323777803516 0 0 0
771 257 1 0.5897 4.582086433538191 13.56879644124823 15.498065455364156 0 0 0
775 259 2 -1.1794 0.8652024546166833 12.836625594805895 15.527901838748383 0 0 0
870 290 1 0.5897 4.767532032077184 14.316825107228937 17.58946261338035 0 0 0
766 256 2 -1.1794 1.263691291699133 10.856700322490546 17.511783385836107 0 0 0
768 256 1 0.5897 1.252221233814934 11.68377035381434 17.030015146754813 0 0 0
774 258 1 0.5897 4.386895525521039 11.074501905107281 16.343528502348665 0 0 0
773 258 1 0.5897 3.248287283263039 10.709531631367117 17.27212404568711 0 0 0
869 290 1 0.5897 3.2884560850576694 14.560419581342908 17.377479439540092 0 0 0
777 259 1 0.5897 0.9123155131736906 13.720597375568163 15.892120177319482 0 0 0
888 296 1 0.5897 2.265914439907844 13.335072545847058 18.848111457146008 0 0 0
772 258 2 -1.1794 4.167777584958694 10.516086838855728 17.08945492591134 0 0 0
886 296 2 -1.1794 2.000368973581979 14.170630892136915 18.463958808952224 0 0 0
767 256 1 0.5897 0.6140323867747849 10.973734528586425 18.204956991296523 0 0 0
868 290 2 -1.1794 4.136718474095219 14.624590402721482 16.938639915950095 0 0 0
965 322 1 0.5897 0.04439380067930239 14.341925903151735 18.701579460065503 1 0 0
782 261 1 0.5897 2.23708218078218 11.343572040477737 20.029903060293925 0 0 0
887 296 1 0.5897 2.0662059278029465 14.797646250104181 19.184200348778788 0 0 0
781 261 2 -1.1794 2.5496562011306874 12.232783840733587 20.196891151536295 0 0 0
227 76 1 0.5897 0.744061017858877 18.336944757702746 3.0982466341054864 0 0 0
234 78 1 0.5897 2.9229876327721076 17.316531253791254 3.953078749491736 0 0 0
249 83 1 0.5897 1.4007801410873262 15.663760350824806 1.535853380088287 0 0 0
890 297 1 0.5897 1.5108302024256377 18.967130198841296 0.5008187311862591 0 0 1
226 76 2 -1.1794 0.8865080145103245 17.694898090668424 3.7937488662528454 0 0 0
228 76 1 0.5897 0.11091314385746123 17.767594271281396 4.349982685416926 0 0 0
232 78 2 -1.1794 3.8186184340480827 17.11642181882516 3.6809933619615207 0 0 0
230 77 1 0.5897 4.059680301639556 19.089709907022083 0.7865460045041888 0 0 0
233 78 1 0.5897 4.0137021196945595 17.763375397721965 3.0030270397684946 0 0 0
248 83 1 0.5897 0.7985281683602619 16.369411440377696 2.7322072653688925 0 0 0
219 73 1 0.5897 3.216433389901697 15.730290997855407 0.330808543999246 0 0 0
229 77 2 -1.1794 4.573167481216005 19.16720579272001 1.5906235947400837 0 0 0
250 84 2 -1.1794 4.962505707700053 15.68177194507128 0.6269816334839381 0 0 0
221 74 1 0.5897 4.07924040453595 15.293833426249687 2.9747732309818895 0 0 0
235 79 2 -1.1794 0.40371068087758677 19.712131829530882 1.7177055803655084 0 0 0
247 83 2 -1.1794 0.6873260317916406 15.601988585544516 2.170997747914572 0 0 0
241 81 2 -1.1794 2.6135360728826185 19.264869830010525 6.2432997844315805 0 0 0
551 184 1 0.5897 1.229122690435962 18.29917724522636 9.88248307119797 0 0 0
243 81 1 0.5897 1.98515852037215 19.469251940672116 6.935830527249912 0 0 0
542 181 1 0.5897 1.6555742139707799 16.321332049452792 7.229592635039606 0 0 0
572 191 1 0.5897 1.4056418667699395 15.533066932433456 9.451072282963645 0 0 0
576 192 1 0.5897 4.313266387704297 16.43055902427286 7.151765009945055 0 0 0
242 81 1 0.5897 2.446056315606779 18.346732597768124 6.030571892977003 0 0 0
571 191 2 -1.1794 1.049018412505923 15.108298127680266 8.670937795427184 0 0 0
553 185 2 -1.1794 4.625409864182096 19.774910655569748 8.325045773806556 0 0 0
559 187 2 -1.1794 0.9351027666656635 19.621588958033385 8.460910684459908 0 0 0
541 181 2 -1.1794 2.324323766393648 16.49888041665988 6.568175512427053 0 0 0
555 185 1 0.5897 4.108745788990126 19.545732490025408 7.552542931192894 0 0 0
560 187 1 0.5897 -0.021423896939644534 19.585149391457755 8.46046063854287 0 0 0
556 186 2 -1.1794 4.2452060771180005 17.79310921630958 10.224961495784859 0 0 0
557 186 1 0.5897 4.277136864836761 16.8486195841001 10.072695715692598 0 0 0
558 186 1 0.5897 4.326141899775967 18.179656019218818 9.353053215625412 0 0 0
543 181 1 0.5897 2.169923514819787 15.842636521473471 5.888653936755379 0 0 0
885 295 1 0.5897 1.1268982819226265 19.263038135649765 14.855542793828056 0 0 0
879 293 1 0.5897 3.8899442318693027 19.210779202948963 14.712808665213254 0 0 0
865 289 2 -1.1794 2.171495068965051 16.043568665052554 14.227100053532975 0 0 0
565 189 2 -1.1794 2.476314015043014 18.87166870697576 13.657850588823193 0 0 0
566 189 1 0.5897 2.450054838809649 17.953597825020495 13.388140299556866 0 0 0
867 289 1 0.5897 1.53473067729717 16.011027980290862 14.94104305259201 0 0 0
866 289 1 0.5897 3.022665034720239 15.993836276684997 14.662187424009074 0 0 0
552 184 1 0.5897 2.3683174502009257 17.550732848995516 10.541301563415091 0 0 0
567 189 1 0.5897 2.3742059450116133 19.364110561733767 12.843411807192476 0 0 0
550 184 2 -1.1794 1.4189248375795678 17.530761237130967 10.42079183034715 0 0 0
621 207 1 0.5897 0.1662822149441684 18.027005226133113 12.159283291035234 1 0 0
877 293 2 -1.1794 4.6580417231939775 19.251568159561593 15.28255048895503 0 0 0
883 295 2 -1.1794 0.41241681059904756 19.345842288210115 15.487133461700838 0 0 0
891 297 1 0.5897 2.0051735124001575 19.302909517493184 19.86039898576748 0 0 0
876 292 1 0.5897 0.7806570072536967 18.144313668954922 17.180998451779814 0 0 0
874 292 2 -1.1794 0.9066179951933867 17.446990366785492 17.824511738576675 0 0 0
882 294 1 0.5897 4.055527174589912 16.326569337720073 17.29224359824189 0 0 0
880 294 2 -1.1794 3.957022642847317 17.249708843276096 17.525483846822098 0 0 0
881 294 1 0.5897 3.196736018275098 17.270585233109045 18.106671583071037 0 0 0
895 299 2 -1.1794 0.1858276689028172 15.414206071373183 16.248914308884896 0 0 0
897 299 1 0.5897 0.22294988096137025 16.079724251796073 16.935906595404767 0 0 0
878 293 1 0.5897 4.560483540935235 18.502809226480394 15.870845821892326 0 0 0
875 292 1 0.5897 0.396825321217819 17.727074475782793 18.58466229105777 0 0 0
889 297 2 -1.1794 2.069662857062824 18.63897664693095 20.546855855826497 0 0 0
218 73 1 0.5897 2.1745730912107124 16.70757695062099 20.579890006574786 0 0 -1
217 73 2 -1.1794 2.3462057123012583 15.771719632131042 20.684781384403752 0 0 -1
68 23 1 0.5897 8.825903522545495 2.3073413483318217 1.492150922657868 0 0 0
69 23 1 0.5897 7.398837065018345 2.215504113872015 1.989149029315472 0 0 0
67 23 2 -1.1794 8.304588630725583 2.2696853465750824 2.2940088200725524 0 0 0
46 16 2 -1.1794 8.187232311933785 4.485875052201978 3.9805750448075994 0 0 0
47 16 1 0.5897 7.930658842610381 3.715991226992116 3.472923092725861 0 0 0
9 3 1 0.5897 5.372316665181144 4.461895405967105 4.656029059970572 0 0 0
53 18 1 0.5897 9.997245950949571 4.17786292327379 3.746480561062768 0 0 0
48 16 1 0.5897 7.514227506628028 4.562550240082851 4.656904879766519 0 0 0
59 20 1 0.5897 9.422459729088784 1.0343197712856822 4.292713402755208 0 0 0
58 20 2 -1.1794 8.86819033324546 0.8018608947777106 5.037686019522211 0 0 0
34 12 2 -1.1794 5.790024642099491 2.369203854790687 0.7186847098511348 0 0 0
273 91 1 0.5897 7.996494539510703 0.4494308550731325 2.2003717503962394 0 1 0
29 10 1 0.5897 6.969058620172686 0.6442471530123423 4.915393064522047 0 0 0
28 10 2 -1.1794 6.03650957815476 0.48686379652009304 5.063201648702247 0 0 0
35 12 1 0.5897 5.9141701956101596 1.4888194872029534 0.3640412979744134 0 0 0
391 131 2 -1.1794 7.492276814717865 2.017524246008443 9.060804903338852 0 0 0
60 20 1 0.5897 9.085784128024951 1.4480259641749709 5.7095175535286184 0 0 0
362 121 1 0.5897 9.138022732594425 3.4942852958397532 6.893123948658769 0 0 0
392 131 1 0.5897 8.148558003110795 2.1938552565916525 8.386688328388276 0 0 0
360 120 1 0.5897 6.213196698586697 2.321800101443873 7.6212758196419506 0 0 0
359 120 1 0.5897 5.951224841333393 1.758579430395121 6.240692726961293 0 0 0
393 131 1 0.5897 7.441560577763624 1.0625613963349663 9.10246115347882 0 0 0
8 3 1 0.5897 5.807517943959674 3.8913241909168272 5.989043479052578 0 0 0
361 121 2 -1.1794 9.255232146397491 2.567998877888982 7.103896912028687 0 0 0
358 120 2 -1.1794 5.668601438881821 2.4459292705389606 6.843952331762184 0 0 0
7 3 2 -1.1794 5.882695696171426 4.6707007627038974 5.438414092580027 0 0 0
371 124 1 0.5897 7.966498140210101 3.5375408645007167 10.100831769309556 0 0 0
331 111 2 -1.1794 5.914143361681474 4.574258448988786 12.26461899395621 0 0 0
686 229 1 0.5897 8.988203276266303 2.224908050976146 14.565204257848338 0 0 0
353 118 1 0.5897 6.587467897043118 0.677536855565087 12.25450783634125 0 0 0
354 118 1 0.5897 5.34039890389887 1.2474633170904843 12.896370765744255 0 0 0
386 129 1 0.5897 9.18360150456531 4.6479519640351965 13.990098329012616 0 0 0
384 128 1 0.5897 8.679230342961882 1.155935712292106 11.013962196686366 0 0 0
382 128 2 -1.1794 8.435357895467748 0.661377232686238 11.796367064426887 0 0 0
682 228 2 -1.1794 5.0843603160035835 2.671746395593832 13.929576955993028 0 0 0
377 126 1 0.5897 9.809180938784499 4.239552511761563 10.923682570471778 0 0 0
383 128 1 0.5897 8.586166979186327 1.2685962856789157 12.52076795973502 0 0 0
352 118 2 -1.1794 5.647161541315845 0.5250069008429762 12.348446184553291 0 0 0
685 229 2 -1.1794 9.300791130395133 2.51536568281917 13.70839426802329 0 0 0
372 124 1 0.5897 7.317617408268679 4.308868581746197 11.23039789070031 0 0 0
684 228 1 0.5897 5.466202794760971 3.451293661237222 13.526136371826668 0 0 0
370 124 2 -1.1794 7.991263994062221 4.380250583339282 10.554155871396981 0 0 0
717 239 1 0.5897 6.579273357558225 2.1096591453588482 15.335396283913711 0 0 0
332 111 1 0.5897 5.108139521995699 4.36149547164652 11.794178565424353 0 0 0
696 232 1 0.5897 8.050122112372573 4.5186547828113355 17.245564595280456 0 0 0
694 232 2 -1.1794 8.274316658410388 3.693605216361573 17.67600051565355 0 0 0
655 219 2 -1.1794 6.0168501675400465 4.072750961076981 19.24422728732339 0 0 0
676 226 2 -1.1794 6.189113368893837 0.09246069197458479 19.556463007963846 0 0 0
677 226 1 0.5897 5.55039122402316 0.11282415373780441 18.843820171498702 0 0 0
710 237 1 0.5897 9.44176498035459 4.302383701044778 20.669489479425504 0 0 0
708 236 1 0.5897 7.76153912362754 0.6176840504653148 18.776168294151628 0 0 0
38 13 1 0.5897 9.351840120297604 2.160170440499558 19.89616986972034 0 0 -1
715 239 2 -1.1794 7.4006747621098015 1.8506340080315238 15.753080920166964 0 0 0
695 232 1 0.5897 7.841102319654577 3.0223562544401315 17.148750068657485 0 0 0
716 239 1 0.5897 7.378341454508309 0.8936716049791544 15.753555222251348 0 0 0
706 236 2 -1.1794 8.71703309312977 0.5894573964378391 18.726127444332157 0 0 0
657 219 1 0.5897 6.851467498621322 4.1964567698279795 18.792198650782492 0 0 0
656 219 1 0.5897 5.450328377034931 3.658718479247725 18.593164805177203 0 0 0
36 12 1 0.5897 5.9159833689394805 2.9501463456309214 20.71893820649271 0 0 -1
37 13 2 -1.1794 9.588382056442148 2.6898167296891264 20.65754768969805 0 0 -1
57 19 1 0.5897 7.964872228126724 5.417112633009014 2.5913100221412564 0 0 0
55 19 2 -1.1794 7.713350198740072 5.965576254433213 1.848229577606411 0 0 0
177 59 1 0.5897 7.775699182936658 9.296834272614667 1.5700497253631054 0 0 0
175 59 2 -1.1794 7.198056032533085 8.89383182138753 2.218251760751814 0 0 0
145 49 2 -1.1794 9.240447430212079 9.612131718421647 0.5460244672991496 0 0 0
176 59 1 0.5897 7.487135614032903 7.982421040840773 2.2636344407364124 0 0 0
56 19 1 0.5897 6.756702467525079 5.983549610134532 1.8761476697085837 0 0 0
143 48 1 0.5897 5.219154275725549 8.974211555090095 1.2962392237939562 0 0 0
149 50 1 0.5897 9.963596975663823 7.725291843440488 4.182991668542308 0 0 0
711 237 1 0.5897 8.82127212674341 5.560574736746168 0.48817512861885837 0 0 1
113 38 1 0.5897 5.0374811164657745 7.9184668551932464 3.8033560716287824 0 0 0
138 46 1 0.5897 6.785517108801441 7.671737593431189 5.098437027591883 0 0 0
501 167 1 0.5897 6.204551455936513 8.870504231402528 8.271117906555043 0 0 0
381 127 1 0.5897 7.331393529042649 5.732194239944176 9.389286211496048 0 0 0
380 127 1 0.5897 7.0763247826105315 6.983101442848605 8.575546200161789 0 0 0
379 127 2 -1.1794 6.940107833203966 6.035622966828189 8.57010621157795 0 0 0
499 167 2 -1.1794 7.0523493824427925 8.712814139300102 8.686615061894074 0 0 0
467 156 1 0.5897 5.400935073601385 8.862399396711362 6.320088791453542 0 0 0
168 56 1 0.5897 8.686082794851032 8.404353488618943 5.7168714216854 0 0 0
471 157 1 0.5897 8.431359701961236 9.480481720891937 7.528616416114759 0 0 0
137 46 1 0.5897 5.913473710956524 6.49821981872076 5.4913563698442385 0 0 0
469 157 2 -1.1794 9.032510268251722 9.72957054729936 6.826629996428115 0 0 0
338 113 1 0.5897 5.247526560639033 5.862876733624513 8.32787264614987 0 0 0
61 21 2 -1.1794 9.10030301536057 5.483541174732706 6.93774185309532 0 0 0
500 167 1 0.5897 7.153182084690834 9.434277305687397 9.307547413116456 0 0 0
466 156 2 -1.1794 5.030925741351744 9.500360652108053 6.93029900822725 0 0 0
62 21 1 0.5897 8.39994824507663 5.522073502297273 7.589084531065481 0 0 0
63 21 1 0.5897 9.903958275832695 5.612231219652579 7.441547139459791 0 0 0
167 56 1 0.5897 8.793744720040273 6.912458001976471 5.950764501117473 0 0 0
470 157 1 0.5897 9.893738803327354 9.451181096098361 7.138102561454022 0 0 0
136 46 2 -1.1794 5.876012020751748 7.429322996618611 5.272417914330377 0 0 0
166 56 2 -1.1794 8.557796344108928 7.559350678927252 5.285846709900521 0 0 0
794 265 1 0.5897 9.351097148970934 8.957528006748719 13.369344785292165 0 0 0
791 264 1 0.5897 6.280805982889805 8.82189571022756 14.902618831933275 0 0 0
491 164 1 0.5897 9.520884696764508 7.5764365796092745 11.33834570036724 0 0 0
460 154 2 -1.1794 6.285718214216471 7.54505849206102 11.889932485561593 0 0 0
333 111 1 0.5897 5.852623989968204 5.514531301229757 12.4330915197302 0 0 0
385 129 2 -1.1794 9.35741914340314 5.562534551706138 14.212846565476152 0 0 0
490 164 2 -1.1794 9.064992931489542 7.544990775240676 12.179412105167566 0 0 0
387 129 1 0.5897 9.243976465217223 6.036018986751961 13.388731148014141 0 0 0
492 164 1 0.5897 8.146939064144957 7.705300610974338 11.96093283283006 0 0 0
462 154 1 0.5897 5.999360712559936 8.147279303198648 12.576645500056355 0 0 0
790 264 2 -1.1794 5.72134437765077 9.032525908521434 14.155046387114162 0 0 0
793 265 2 -1.1794 9.49890043644603 9.42573444531323 14.191018919266968 0 0 0
461 154 1 0.5897 5.677426634890232 7.6987457848288425 11.167022985961523 0 0 0
705 235 1 0.5897 8.185203540806267 5.862060915290313 15.479244562074786 0 0 0
825 275 1 0.5897 8.365993183205406 8.85090410206468 15.434917245790665 0 0 0
815 272 1 0.5897 9.141068741127768 6.943114598701188 19.819103099986563 0 0 0
785 262 1 0.5897 6.050201487737337 6.136476281167188 19.394254312635294 0 0 0
816 272 1 0.5897 9.011933051255065 8.43831253382001 20.01851432251266 0 0 0
784 262 2 -1.1794 6.032094639263085 7.038562108353623 19.07457736360188 0 0 0
704 235 1 0.5897 6.712003690148816 5.746021329929309 15.808084518692137 0 0 0
786 262 1 0.5897 6.950946746653335 7.256268728304821 18.918162711861058 0 0 0
814 272 2 -1.1794 8.864635462925564 7.744903449978841 19.37528510157054 0 0 0
703 235 2 -1.1794 7.571741827406628 5.857182636202246 16.213978275151476 0 0 0
824 275 1 0.5897 7.642902421073681 7.675364985656385 16.057134629308806 0 0 0
823 275 2 -1.1794 7.652924000539513 8.63227158855365 16.03488782397254 0 0 0
709 237 2 -1.1794 9.409510856496984 5.251542341823893 20.549670901532973 0 0 0
144 48 1 0.5897 5.499640924882739 8.295294046229404 20.72301112127731 0 0 -1
164 55 1 0.5897 6.337688141803823 12.459096063489973 1.89814056098626 0 0 0
285 95 1 0.5897 7.610257690322242 14.89678268122029 2.4999780712693283 0 0 0
819 273 1 0.5897 8.358155843621393 12.381236207036478 0.574248493707194 0 0 1
165 55 1 0.5897 7.478490816021707 12.272714926357338 2.875771943751586 0 0 0
156 52 1 0.5897 8.588649498157075 10.617338705732402 4.1525664992479525 0 0 0
163 55 2 -1.1794 7.24523855530761 12.716552928066506 2.0604179640979243 0 0 0
154 52 2 -1.1794 7.641852578015162 10.755952776141518 4.127446665412801 0 0 0
155 52 1 0.5897 7.344948538729405 10.248387446299953 3.3721533934071384 0 0 0
274 92 2 -1.1794 8.395026584427994 14.303901079668236 4.556449831308098 0 0 0
246 82 1 0.5897 5.237361176364085 14.41288741337984 4.776281990167876 0 0 0
275 92 1 0.5897 7.575088441492123 14.733973814432737 4.799260065665343 0 0 0
146 49 1 0.5897 9.096145979209158 10.420317748859322 0.05381512453907199 0 0 0
252 84 1 0.5897 5.153545861604039 14.912583599878737 0.0902475556875757 0 0 0
480 160 1 0.5897 7.4594710565589 11.81540730912799 9.716267929509195 0 0 0
487 163 2 -1.1794 7.237045123875679 13.268765162778521 8.682295622279687 0 0 0