LAMMPS data file via write_data, version 30 Jul 2021, timestep = 8250000

972 atoms
2 atom types
648 bonds
1 bond types
324 angles
1 angle types

0.013424467136246676 19.986576532856883 xlo xhi
-0.06425339312881562 20.064254393128184 ylo yhi
-0.006986702420306301 20.7069847024206 zlo zhi

Masses

1 1.008
2 15.999

Pair Coeffs # lj/cut/tip4p/long/omp

1 0 0
2 0.21084 3.1668

Bond Coeffs # harmonic/omp

1 450 0.9572

Angle Coeffs # harmonic/omp

1 55 104.52

Atoms # full

4 2 2 -1.1794 4.115510895138081 1.346014803594585 3.336576657119307 0 0 0
31 11 2 -1.1794 0.847731126832279 2.3344379364987393 2.1793497327643947 0 0 0
16 6 2 -1.1794 3.799900057153783 4.124134239132778 3.4824983004142385 0 0 0
10 4 2 -1.1794 1.0995346892204019 4.147405199946403 4.038036867326699 0 0 0
18 6 1 0.5897 4.05127382407212 3.208623548350173 3.36048166601795 0 0 0
11 4 1 0.5897 0.9083811754306268 3.3569512868199562 3.533249847893062 0 0 0
33 11 1 0.5897 1.5288990918068057 2.6408773336298093 1.5807641238957364 0 0 0
23 8 1 0.5897 2.694372425828968 1.0078123373919723 4.407535499970388 0 0 0
12 4 1 0.5897 2.055031123522379 4.174160853914896 4.089448363163065 0 0 0
5 2 1 0.5897 3.885334805964931 0.6410166606692104 2.7314886168457435 0 0 0
17 6 1 0.5897 4.225984598208967 4.588101911016002 2.761910882741511 0 0 0
32 11 1 0.5897 0.03036444779708044 2.459377713687934 1.697129399189954 0 0 0
236 79 1 0.5897 0.7010699659416809 0.43892956727526866 2.0612286367845494 0 1 0
102 34 1 0.5897 0.14613431975993152 1.0119361549954768 5.011035748913471 1 0 0
22 8 2 -1.1794 1.9335042965991485 0.7855340412310253 4.944110757742918 0 0 0
9 3 1 0.5897 4.879485657816216 4.411248851304303 4.994155746484943 0 0 0
6 2 1 0.5897 4.768457177253555 0.9583970432039346 3.9193437585684734 0 0 0
34 12 2 -1.1794 4.917616829775359 2.4947713582034496 0.572674790708831 0 0 0
356 119 1 0.5897 1.798379776310423 2.533254733984485 8.173949604148003 0 0 0
27 9 1 0.5897 2.807868414759969 4.340648012774872 6.449820208551789 0 0 0
355 119 2 -1.1794 1.1238650443798202 2.367643912464322 8.832579089052107 0 0 0
325 109 2 -1.1794 2.9269236965182777 2.559176666378003 6.795743432092423 0 0 0
326 109 1 0.5897 2.5347017226475375 1.89042444796527 6.234427612666653 0 0 0
327 109 1 0.5897 3.823421760905363 2.2561241060347763 6.9397337648843935 0 0 0
328 110 2 -1.1794 4.344178717440055 1.3209094564731247 9.99425673564351 0 0 0
330 110 1 0.5897 4.574784861268475 0.503747834264895 9.552364865263538 0 0 0
342 114 1 0.5897 4.032552119832811 4.802686318789563 9.752688363868586 0 0 0
357 119 1 0.5897 0.30573202336380884 2.339004180872571 8.336495629981977 0 0 0
24 8 1 0.5897 2.1833526417115383 -0.022927837153794574 5.391438314332651 0 0 0
341 114 1 0.5897 3.8384424788559124 3.332348985120883 10.056503162982349 0 0 0
561 187 1 0.5897 1.100615767901717 0.29681068174917863 9.058644227958045 0 1 0
335 112 1 0.5897 0.8910859552605415 3.4005132073119375 10.097322447910226 0 0 0
81 27 1 0.5897 0.05312944534503927 4.533831153815762 5.521994683050038 1 0 0
334 112 2 -1.1794 0.9006441887721242 4.095166225627602 10.755740663412482 0 0 0
346 116 2 -1.1794 2.269686421875256 1.0713154565108318 11.884699709819447 0 0 0
650 217 1 0.5897 2.7550550206570263 1.6124789558261143 13.75188351456454 0 0 0
329 110 1 0.5897 4.746758657158709 1.2476163985090485 10.859474573965583 0 0 0
348 116 1 0.5897 2.7522708053164044 1.0480188138458566 11.058454442715396 0 0 0
350 117 1 0.5897 2.593947918036525 3.927062368926537 13.976098015833468 0 0 0
651 217 1 0.5897 2.0869622488043085 1.9208029276812486 15.074807865871893 0 0 0
649 217 2 -1.1794 2.8920486697013 2.0726841829891067 14.579820844930858 0 0 0
683 228 1 0.5897 4.563505745263151 2.4750329237612823 14.75154448613261 0 0 0
347 116 1 0.5897 1.407653634449692 1.4147797987329034 11.649671460956343 0 0 0
336 112 1 0.5897 1.8216394570286871 4.178874789941302 11.00289753358031 0 0 0
884 295 1 0.5897 0.6661256296795752 0.13154823492182752 15.512386787045717 0 1 0
340 114 2 -1.1794 3.678390471123258 4.2064077564039195 10.412347207518167 0 0 0
332 111 1 0.5897 4.79383711087867 4.301997048173481 11.820124744502657 0 0 0
349 117 2 -1.1794 2.690516922956754 4.794011292576861 13.58207818801334 0 0 0
652 218 2 -1.1794 4.225026942026387 0.8388773838125407 17.151226769083753 0 0 0
653 218 1 0.5897 3.3305641072454217 0.7845467387902773 17.48778596064082 0 0 0
671 224 1 0.5897 0.8561532078230019 1.0567576339891218 18.16849953752467 0 0 0
665 222 1 0.5897 3.122650683657046 3.9268909921436244 17.20626854574601 0 0 0
658 220 2 -1.1794 1.255972482021401 4.091474657549495 17.324046731674354 0 0 0
654 218 1 0.5897 4.281135277488404 0.13557898712499974 16.504423051276518 0 0 0
664 222 2 -1.1794 4.031478910034274 3.708211112758814 17.41251151436825 0 0 0
681 227 1 0.5897 0.6826111837570675 2.6508522611743475 16.472877512018766 0 0 0
660 220 1 0.5897 0.987666530219117 4.830560263367588 16.77819606215052 0 0 0
672 224 1 0.5897 1.8085576130060306 1.6733962538202227 19.17071870031866 0 0 0
670 224 2 -1.1794 1.7547698263542928 0.999353089821825 18.493291383023866 0 0 0
659 220 1 0.5897 0.8457796564489142 4.25855499214866 18.172529753310616 0 0 0
666 222 1 0.5897 4.116988462064684 2.7857838166802535 17.171575009093058 0 0 0
679 227 2 -1.1794 0.46887171520811816 1.847966309815303 15.997599966308364 0 0 0
1 1 2 -1.1794 2.397561104643605 2.8408008910558395 20.40248338570442 0 0 -1
2 1 1 0.5897 2.2720627399106035 3.7861759037275147 20.48472166452435 0 0 -1
3 1 1 0.5897 3.314129004141907 2.6988578979669606 20.63925158828579 0 0 -1
114 38 1 0.5897 3.421701205282092 7.528236892405327 4.032813398323742 0 0 0
141 47 1 0.5897 0.8704138923181806 7.9646245399824185 2.1566747476402206 0 0 0
113 38 1 0.5897 4.929118901762235 7.44748610987093 4.14834187958164 0 0 0
14 5 1 0.5897 4.671560794031348 5.928386513948494 0.8915664837101984 0 0 0
19 7 2 -1.1794 0.8650736326666236 6.262088648648846 2.245587849996877 0 0 0
110 37 1 0.5897 2.2427977281388705 9.307407949559686 0.8221000841164198 0 0 0
139 47 2 -1.1794 0.9227492368067621 8.87497065399643 1.8655367809748158 0 0 0
112 38 2 -1.1794 4.227992747321294 7.681881362268938 3.540330520331985 0 0 0
674 225 1 0.5897 2.0742340412751616 5.72988382640266 0.9846693055052238 0 0 1
140 47 1 0.5897 1.154259585779345 9.366140846106001 2.6537371926204574 0 0 0
20 7 1 0.5897 0.974931625726553 5.6495056443975455 2.9727619283652134 0 0 0
15 5 1 0.5897 4.70406619879687 6.605513585689162 2.245023739580021 0 0 0
111 37 1 0.5897 3.6671925819495756 9.165444948157985 0.3291288600305574 0 0 0
673 225 2 -1.1794 2.6565311109085883 5.56691498195486 0.2426967764906587 0 0 1
126 42 1 0.5897 3.988807356256117 9.647420412834272 3.01925356257507 0 0 0
109 37 2 -1.1794 2.8060894531376115 9.494476547162808 0.07119459532656691 0 0 0
463 155 2 -1.1794 0.566583466026339 8.523503143876532 9.094164764879563 0 0 0
433 145 2 -1.1794 2.687229636378355 8.761822400431322 7.237531498585065 0 0 0
26 9 1 0.5897 1.9038053158675583 5.217042520548593 7.290289419886712 0 0 0
435 145 1 0.5897 2.4788131726266136 8.174267215596288 6.511262530779586 0 0 0
345 115 1 0.5897 0.6746578812321352 6.710320604933514 9.142627458951424 0 0 0
468 156 1 0.5897 4.376068038450766 9.034722625004601 7.349222883605889 0 0 0
25 9 2 -1.1794 2.5869711722474005 5.256125602031875 6.621019273824458 0 0 0
131 44 1 0.5897 2.0401778817776934 6.395181286789913 5.497740568417676 0 0 0
464 155 1 0.5897 1.247398686268641 8.484054717982897 8.422509448359133 0 0 0
434 145 1 0.5897 2.546099220967097 9.64003511224413 6.8839231700771375 0 0 0
437 146 1 0.5897 3.517601897774823 7.415446701795088 9.771810129224077 0 0 0
337 113 2 -1.1794 4.25149243869321 6.122189072455154 8.558005239050301 0 0 0
343 115 2 -1.1794 0.6786402199361843 5.813351653870913 8.808512155128604 0 0 0
339 113 1 0.5897 3.782252025167515 5.714004550557428 7.830461280583643 0 0 0
344 115 1 0.5897 0.8383107495747018 5.270364429239122 9.580381478206398 0 0 0
130 44 2 -1.1794 1.8634869354226364 7.28575389337036 5.194629369687041 0 0 0
132 44 1 0.5897 0.9351789884516112 7.423706820568085 5.383088862224977 0 0 0
436 146 2 -1.1794 3.320653426392186 7.7894052360298085 10.630549171249129 0 0 0
443 148 1 0.5897 1.0836097566383858 9.704890390941658 10.377567187905603 0 0 0
454 152 2 -1.1794 1.810104493451764 7.26590404393446 12.801225335073584 0 0 0
455 152 1 0.5897 2.142550331986473 7.407046870487816 11.914867514360296 0 0 0
456 152 1 0.5897 2.3022581591710964 6.511340871490133 13.1247461909349 0 0 0
668 223 1 0.5897 1.1087383249643583 5.783695362303524 14.434842832890881 0 0 0
759 253 1 0.5897 2.732323380780286 9.140127002106604 13.74548036802555 0 0 0
661 221 2 -1.1794 4.775083114817351 5.811169683416394 15.477135431436487 0 0 0
757 253 2 -1.1794 3.011201018490637 9.83656306635936 14.339938289368643 0 0 0
351 117 1 0.5897 3.3873673151368027 5.2114997095973035 14.088363616815245 0 0 0
667 223 2 -1.1794 0.7742167632263536 5.923229089934288 15.320665149822556 0 0 0
789 263 1 0.5897 1.4414022501404888 9.068030785675361 15.528020803262597 0 0 0
669 223 1 0.5897 0.8728536740604184 6.863676334173084 15.46910315800921 0 0 0
438 146 1 0.5897 3.5160409921777704 8.721754736256509 10.536858823562122 0 0 0
675 225 1 0.5897 2.3914019758806577 6.2089409101979935 20.2981512168015 0 0 0
780 260 1 0.5897 3.050843480070837 7.529586092391084 18.193888604516292 0 0 0
778 260 2 -1.1794 2.461915422968308 7.37799703482315 18.933034420876588 0 0 0
761 254 1 0.5897 3.9725030865292412 9.07038995042118 16.545603652726214 0 0 0
779 260 1 0.5897 2.533445684403866 8.171559806508032 19.463428745599682 0 0 0
788 263 1 0.5897 0.6520558995920043 9.241809593942447 16.808003075614565 0 0 0
762 254 1 0.5897 4.8385511037646225 8.067055759462642 17.27712773982221 0 0 0
662 221 1 0.5897 4.540983127513711 5.188935909799718 16.16572837503237 0 0 0
760 254 2 -1.1794 4.162527461237853 8.133986847661994 16.602821481991587 0 0 0
858 286 1 0.5897 0.5305933431301805 7.259674793679449 19.000876811136823 1 0 0
787 263 2 -1.1794 0.7973420360925145 8.631243645510766 16.08534932980778 0 0 0
663 221 1 0.5897 4.545731970815285 6.667142762796476 15.838943727061437 0 0 0
220 74 2 -1.1794 4.332107623915139 14.589099138320607 3.1809968784995863 0 0 0
123 41 1 0.5897 3.8572368048216092 12.530851011661275 0.7432701880253448 0 0 0
120 40 1 0.5897 2.251520010147489 10.838277063380806 3.976191197225456 0 0 0
125 42 1 0.5897 4.611804679933166 10.648539702873919 3.968590982553509 0 0 0
124 42 2 -1.1794 3.96986818728753 10.572928844717044 3.262681705554584 0 0 0
240 80 1 0.5897 2.7015275718667193 14.090629899672395 4.263370590552691 0 0 0
127 43 2 -1.1794 0.3326824847486005 12.514348820759675 2.0377991521013317 0 0 0
119 40 1 0.5897 1.0546534199826711 11.545534284793893 3.376777568904427 0 0 0
129 43 1 0.5897 0.3083004767845048 13.37173529404703 2.462647840910362 0 0 0
118 40 2 -1.1794 1.2959468665167442 10.876878862839495 4.017744299689671 0 0 0
122 41 1 0.5897 4.533142648937236 11.8937062559478 1.938613260130003 0 0 0
222 74 1 0.5897 4.334505709275471 14.219041824242906 2.2983304801473703 0 0 0
783 261 1 0.5897 1.6576056975653461 12.245191801539704 0.6019404500747921 0 0 1
121 41 2 -1.1794 4.705873339093839 12.449111181462952 1.1784772318806127 0 0 0
238 80 2 -1.1794 2.1297602003869467 13.787274542353034 4.968500997305967 0 0 0
317 106 1 0.5897 0.4239633223625729 13.845688672172733 4.955953642757653 1 0 0
133 45 2 -1.1794 2.6470490519540064 11.441035700452618 6.787579733792664 0 0 0
134 45 1 0.5897 2.027983796273551 11.784928513959926 7.431523466309599 0 0 0
135 45 1 0.5897 3.503435589472392 11.531812883501932 7.205485430291512 0 0 0
453 151 1 0.5897 1.2514952632189715 12.004891314826097 9.600649639695165 0 0 0
446 149 1 0.5897 4.306302844767552 12.972775775471552 8.831711902249618 0 0 0
451 151 2 -1.1794 1.0705627626786316 12.517458899311688 8.812842622140574 0 0 0
573 191 1 0.5897 1.012701814922211 14.471219712700016 9.165296651605818 0 0 0
452 151 1 0.5897 0.14544780640903962 12.355118997901476 8.628118724289985 0 0 0
450 150 1 0.5897 4.313766279810722 11.120365126801348 9.691315182868166 0 0 0
445 149 2 -1.1794 4.805698766659137 12.331011266080576 8.326779386663187 0 0 0
188 63 1 0.5897 0.04364682463076264 11.123825132855613 5.2031814012965585 1 0 0
544 182 2 -1.1794 4.347127064298983 14.44904197862364 10.109623818799019 0 0 0
239 80 1 0.5897 2.476017382145118 12.926729264965585 5.204736763508236 0 0 0
564 188 1 0.5897 2.235623903550718 13.623216849829806 12.222789626377024 0 0 0
546 182 1 0.5897 3.5321087869094066 14.526742256726113 10.6055398374636 0 0 0
442 148 2 -1.1794 1.2673949783788934 10.543309614450346 10.801221202684733 0 0 0
758 253 1 0.5897 2.9196225296191476 10.640143341058884 13.828019335473448 0 0 0
457 153 2 -1.1794 2.590541967230502 12.369468813683559 13.470917047394673 0 0 0
458 153 1 0.5897 2.054724595676301 12.571931827599121 14.237758191738868 0 0 0
459 153 1 0.5897 3.4907798444479505 12.515559133100687 13.76167664600901 0 0 0
512 171 1 0.5897 0.22588954127018365 11.043214334173504 12.342918290415792 1 0 0
562 188 2 -1.1794 2.160089128230049 14.36163534838396 11.618500851910348 0 0 0
444 148 1 0.5897 2.22286860969206 10.59913685194156 10.818517181285939 0 0 0
449 150 1 0.5897 4.605085027888726 11.099184823405963 11.176613672382542 0 0 0
769 257 2 -1.1794 4.744399975259013 12.368258973315282 15.140399648792833 0 0 0
642 214 1 0.5897 0.38854389533851175 14.048086396520134 12.133755483708653 1 0 0
448 150 2 -1.1794 4.009384108421925 10.743917881886258 10.516989782448325 0 0 0
777 259 1 0.5897 1.1231510639712212 13.503575079814912 16.06301321184477 0 0 0
772 258 2 -1.1794 3.8792957299810387 10.896051537816751 17.376499638085715 0 0 0
767 256 1 0.5897 0.40599170838992804 10.824263528141167 18.40843924360672 0 0 0
768 256 1 0.5897 0.7849333620993667 11.416878011992772 17.068018339088265 0 0 0
766 256 2 -1.1794 1.048598672389229 10.750853503454865 17.702879079093066 0 0 0
888 296 1 0.5897 2.134581811794261 13.350186829081087 19.44227902529584 0 0 0
886 296 2 -1.1794 2.1372873782585438 14.101682718635727 18.849487300359428 0 0 0
870 290 1 0.5897 4.7478364887897175 14.106848352650031 17.41662891436588 0 0 0
773 258 1 0.5897 2.925291336528517 10.8251657780207 17.34213866018769 0 0 0
869 290 1 0.5897 3.268885624771787 14.37832599660913 17.59312708536242 0 0 0
774 258 1 0.5897 4.1207379089203355 11.29311508567396 16.539781619036244 0 0 0
868 290 2 -1.1794 3.9777820180844325 14.435209843632208 16.952475363521277 0 0 0
771 257 1 0.5897 4.4098689606622505 12.985787123736515 15.790708989280267 0 0 0
782 261 1 0.5897 2.565976164604783 11.279048641070156 20.58564004739121 0 0 0
781 261 2 -1.1794 2.306156938869481 12.19985752824583 20.613429211426418 0 0 0
775 259 2 -1.1794 0.847450893773969 12.60889800164168 15.86365465671253 0 0 0
965 322 1 0.5897 0.29832957264512083 14.292947137125998 18.788364531578438 1 0 0
887 296 1 0.5897 2.3077896322163394 14.853931557901417 19.416227371397422 0 0 0
247 83 2 -1.1794 0.6966004514937432 15.34860164694593 2.2341346190191906 0 0 0
234 78 1 0.5897 3.148627017767702 17.564998523243613 4.096548944924929 0 0 0
233 78 1 0.5897 4.172480645421748 18.140175414448386 3.1411842747550587 0 0 0
230 77 1 0.5897 3.6585932744142204 18.999928389342905 0.8988618368641383 0 0 0
226 76 2 -1.1794 1.4115252527284445 17.65022284936122 3.7945623804719553 0 0 0
227 76 1 0.5897 1.2543139061895825 18.26358760595507 3.0768255388584285 0 0 0
248 83 1 0.5897 0.7519952493477642 16.104259742496353 2.8189472768357726 0 0 0
229 77 2 -1.1794 4.121722199076605 19.191082360286668 1.7143743129708047 0 0 0
228 76 1 0.5897 0.7962493285981992 17.917235750946677 4.477382277044009 0 0 0
232 78 2 -1.1794 4.062483438809171 17.47933903337723 3.8248045728250935 0 0 0
221 74 1 0.5897 4.0288561764401205 15.489303093194442 3.06303918533219 0 0 0
235 79 2 -1.1794 0.6748995401228101 19.63237452175148 1.8583298118575948 0 0 0
249 83 1 0.5897 1.3332718956541947 15.532543869935957 1.5435025937871298 0 0 0
890 297 1 0.5897 1.639123480041681 19.02680062651734 0.30496202297043895 0 0 1
219 73 1 0.5897 3.2054573320409605 15.956385711420076 0.0955524283925331 0 0 0
250 84 2 -1.1794 4.98477816997247 15.734162853650696 0.19117735883995743 0 0 0
241 81 2 -1.1794 2.7066428878736937 18.79505162233336 6.764358619943085 0 0 0
541 181 2 -1.1794 2.4787520117727553 16.03411139724852 6.667732624713561 0 0 0
243 81 1 0.5897 2.15529338761743 18.789862068685913 7.546740545717602 0 0 0
543 181 1 0.5897 2.32540495319346 15.363704314493093 6.00201645526486 0 0 0
576 192 1 0.5897 4.629506464748238 15.670582015801681 7.29511925821907 0 0 0
572 191 1 0.5897 0.8810216361416247 15.940181962089376 9.506870849151491 0 0 0
559 187 2 -1.1794 1.1016510844100984 19.469330290389284 9.010357733903318 0 0 0
542 181 1 0.5897 2.0426161749586695 15.698654846830241 7.450877487720917 0 0 0
555 185 1 0.5897 4.762122955586899 18.980402912422793 7.834738420074158 0 0 0
242 81 1 0.5897 2.8331458456761314 17.86991582529043 6.553783218498103 0 0 0
557 186 1 0.5897 4.223533466568064 16.462479799846367 9.955804943733344 0 0 0
571 191 2 -1.1794 0.8852707501359752 15.3324437604712 8.767470504507012 0 0 0
558 186 1 0.5897 4.512898939766167 17.921665470329298 9.674791008439215 0 0 0
551 184 1 0.5897 1.4267436644282183 18.048575566243414 9.985436737470721 0 0 0
560 187 1 0.5897 0.20188529132647193 19.239809135622103 8.777848796554391 0 0 0
567 189 1 0.5897 2.6859442793871646 19.62782656648535 12.723105035315522 0 0 0
866 289 1 0.5897 3.1750386007409324 16.070924393718503 13.736380698876976 0 0 0
867 289 1 0.5897 1.875176316013086 15.962187244373649 14.504799025852092 0 0 0
565 189 2 -1.1794 3.0806545872752253 19.014608361985665 13.343057539462686 0 0 0
566 189 1 0.5897 2.746908618122408 18.157436734673674 13.078266903228467 0 0 0
865 289 2 -1.1794 2.2397952651331106 16.26500214191391 13.673277361666155 0 0 0
552 184 1 0.5897 2.367990803609691 17.09547039285735 10.690783808991432 0 0 0
885 295 1 0.5897 1.6916890973316272 19.37785017429446 14.832797733426869 0 0 0
879 293 1 0.5897 4.456595888235098 19.23894733796349 14.477599258856756 0 0 0
556 186 2 -1.1794 4.187567304033261 17.331814422205955 10.354770931009964 0 0 0
550 184 2 -1.1794 1.4429182357759311 17.330639024615756 10.618244679464308 0 0 0
883 295 2 -1.1794 0.8184396241683679 19.359987024260665 15.224462043260075 0 0 0
563 188 1 0.5897 1.9908618256538004 15.116644844193505 12.181951298306668 0 0 0
898 300 2 -1.1794 4.988476382333692 16.02308065105495 13.84589055761385 0 0 0
621 207 1 0.5897 0.17256932626641527 17.877373699606622 11.662014666449764 1 0 0
874 292 2 -1.1794 1.123688576363856 17.716755405952252 17.441728957890746 0 0 0
878 293 1 0.5897 4.506914353223782 18.418555111766512 15.748771847548392 0 0 0
891 297 1 0.5897 2.2053994880376444 19.64524665489481 19.758596022534483 0 0 0
875 292 1 0.5897 0.9750764758113327 18.31036906833666 16.705753201771874 0 0 0
880 294 2 -1.1794 3.8629796039312265 17.232285701610955 17.163212023270923 0 0 0
881 294 1 0.5897 2.987751973823085 17.32387087216665 17.539855687514713 0 0 0
897 299 1 0.5897 0.8162288527596222 16.130649515409914 16.696282680154464 0 0 0
882 294 1 0.5897 3.9305671506072417 16.304928772457945 16.93588990722126 0 0 0
876 292 1 0.5897 0.547415361592696 18.042735157030204 18.132971508577896 0 0 0
873 291 1 0.5897 4.862264127985019 17.792922608744792 18.681088507470626 0 0 0
895 299 2 -1.1794 0.6611637113043627 15.48246123030399 16.009318670262672 0 0 0
889 297 2 -1.1794 2.2874015294333025 18.881632482705687 20.32984529312166 0 0 0
218 73 1 0.5897 2.245421270950876 17.07604051960784 20.468063698521505 0 0 -1
217 73 2 -1.1794 2.2794687239951976 16.13631035718486 20.64680428118246 0 0 -1
68 23 1 0.5897 8.042520530869727 2.3206676807615607 1.1811908328541605 0 0 0
48 16 1 0.5897 7.149932478635206 3.7676657657509565 4.578754234726647 0 0 0
67 23 2 -1.1794 7.345614807012997 1.9422698387050557 1.7172181504041455 0 0 0
69 23 1 0.5897 6.536008277761051 2.208975968316544 1.281722843686733 0 0 0
47 16 1 0.5897 7.359264818006002 2.819134986145288 3.417694612643248 0 0 0
36 12 1 0.5897 5.06387345959971 3.2768889893159234 0.04061553846937274 0 0 0
46 16 2 -1.1794 7.792660206204569 3.5108309744744552 3.9176020163098797 0 0 0
29 10 1 0.5897 7.25339203205089 0.6927995682137891 4.800902730813847 0 0 0
53 18 1 0.5897 9.67487699754787 3.7743349586351425 3.901541524342991 0 0 0
37 13 2 -1.1794 9.482220587347022 2.925808068386224 0.029008364862225244 0 0 0
58 20 2 -1.1794 9.05770550245329 0.832316375067158 4.9806719902008805 0 0 0
272 91 1 0.5897 7.080559147944776 0.11320871865558149 1.568471988926538 0 1 0
28 10 2 -1.1794 6.307352773712004 0.546873996312501 4.7937558873252675 0 0 0
35 12 1 0.5897 5.267363113991562 1.7767169020206566 0.04515782930097245 0 0 0
391 131 2 -1.1794 7.255663429980932 2.454096880393448 8.902670091402582 0 0 0
8 3 1 0.5897 5.67493352760558 3.726117687068523 6.084722775238941 0 0 0
361 121 2 -1.1794 9.378745469852388 2.7368337084806833 7.177931424030956 0 0 0
392 131 1 0.5897 8.086906582026081 2.5962780034882447 8.449810641583836 0 0 0
358 120 2 -1.1794 5.583172461728472 1.9877125168269019 6.825739790835527 0 0 0
362 121 1 0.5897 9.443597820496063 3.690877139607506 7.135041463323851 0 0 0
393 131 1 0.5897 7.287498157105278 1.5387882774837611 9.180898634620837 0 0 0
359 120 1 0.5897 6.071518390302464 1.6365636929623566 6.081193941893245 0 0 0
360 120 1 0.5897 6.2252244493196 2.0322104901181053 7.534199222761464 0 0 0
7 3 2 -1.1794 5.731777857803194 4.421656796920656 5.4296997470945465 0 0 0
59 20 1 0.5897 9.236057025280896 1.5260566394099153 5.61554264620715 0 0 0
60 20 1 0.5897 9.36879445001966 0.03273953573522173 5.4050391901268995 0 0 0
371 124 1 0.5897 7.522328655009892 3.5113437003437227 10.08191579196537 0 0 0
377 126 1 0.5897 9.856000489562202 3.808902840224291 10.462908852343656 0 0 0
352 118 2 -1.1794 5.586799130744869 0.930187964750288 12.467391932321469 0 0 0
353 118 1 0.5897 6.523813842543873 0.8524202375606973 12.287784894154651 0 0 0
682 228 2 -1.1794 5.510219789398244 2.54351419838705 14.627641752891329 0 0 0
685 229 2 -1.1794 9.02317504590055 2.401230488662429 13.833347982080019 0 0 0
386 129 1 0.5897 8.93548120414563 4.444342781162805 13.35892135695427 0 0 0
686 229 1 0.5897 8.489486878059259 2.358212746214728 14.626719009512987 0 0 0
384 128 1 0.5897 8.951641350713425 0.8088024632751386 11.07679801647689 0 0 0
382 128 2 -1.1794 8.215996363998146 0.8270395626093013 11.688934314900598 0 0 0
383 128 1 0.5897 8.402264447439169 1.567758390622511 12.265833917531664 0 0 0
372 124 1 0.5897 7.060624544552265 4.158875497206118 11.369949679296685 0 0 0
684 228 1 0.5897 5.61678232024869 3.226385283504887 13.9654731471539 0 0 0
370 124 2 -1.1794 7.780403522307749 4.157699115154784 10.738998106848538 0 0 0
354 118 1 0.5897 5.540981104163997 1.3640433044685119 13.319296817811166 0 0 0
331 111 2 -1.1794 5.55020721787206 4.382374284842864 12.401165944588701 0 0 0
687 229 1 0.5897 9.918850662851359 2.2560312280845563 14.138299657075457 0 0 0
717 239 1 0.5897 6.940759989685064 2.017153263962312 15.485605123955011 0 0 0
694 232 2 -1.1794 7.9603416245638945 4.01111965356599 17.857484006672088 0 0 0
702 234 1 0.5897 9.652225574416871 3.8685411986575655 17.967836873587625 0 0 0
676 226 2 -1.1794 5.995794502722234 0.7996198931079832 19.23061959553274 0 0 0
716 239 1 0.5897 7.728522794656821 1.0230402842434814 16.31204572044757 0 0 0
677 226 1 0.5897 5.549490100484211 0.9415007940531646 18.395892848017777 0 0 0
655 219 2 -1.1794 5.723501060853869 4.69346624025665 19.428683100043056 0 0 0
708 236 1 0.5897 7.733095165819609 1.2199375157260917 18.896506511274524 0 0 0
710 237 1 0.5897 9.280706262868675 4.542739191624249 20.37482782475605 0 0 0
706 236 2 -1.1794 8.672155003597974 1.069864541695776 18.78707706528851 0 0 0
695 232 1 0.5897 7.717683975810346 3.2106702203342157 17.392085232416182 0 0 0
657 219 1 0.5897 6.520231041622863 4.462956783354827 18.9508319404637 0 0 0
715 239 2 -1.1794 7.646643936097942 1.959096195790523 16.129467007166458 0 0 0
38 13 1 0.5897 9.229878537290432 2.3728530657031466 20.003603755062347 0 0 -1
696 232 1 0.5897 7.966740019742053 4.689073229537282 17.181875207867492 0 0 0
707 236 1 0.5897 8.815540701063016 0.18721496957368378 19.128532089088843 0 0 0
656 219 1 0.5897 5.025386931548138 4.628242230071243 18.77713480692719 0 0 0
175 59 2 -1.1794 7.515662546145125 8.484878869171276 2.17745501916719 0 0 0
56 19 1 0.5897 6.940155352364027 5.7129559572210065 1.862727409358723 0 0 0
143 48 1 0.5897 6.317322340133327 8.879576551526792 0.8897344816094447 0 0 0
177 59 1 0.5897 8.293130677543614 8.850611584262818 1.7554953774038864 0 0 0
55 19 2 -1.1794 7.893059254499707 5.6751841745613145 1.9453891957445475 0 0 0
176 59 1 0.5897 7.68859102541052 7.544647053051907 2.2254930468547913 0 0 0
711 237 1 0.5897 8.761540538528653 5.714852866484046 0.4660842448570823 0 0 1
155 52 1 0.5897 7.534714138156264 9.748138984343656 3.4514960958107905 0 0 0
142 48 2 -1.1794 5.545015460495205 8.986181879591461 0.33440576115054854 0 0 0
145 49 2 -1.1794 9.490500976439257 9.493453914062577 0.7405056321260853 0 0 0
13 5 2 -1.1794 5.048683512103323 5.850745522632738 1.767819901545361 0 0 0
166 56 2 -1.1794 8.744093011295368 7.369800294188587 4.862366880388557 0 0 0
138 46 1 0.5897 7.01728052299818 7.216825942721494 5.085516534952748 0 0 0
57 19 1 0.5897 8.0515394471846 4.972491843159024 2.575614320527289 0 0 0
168 56 1 0.5897 8.764054080341856 8.223357916379376 5.295032356204153 0 0 0
466 156 2 -1.1794 5.3308190134479325 9.069999856874238 7.28964892549055 0 0 0
469 157 2 -1.1794 9.16326391220471 9.560817930904623 6.619557667598784 0 0 0
338 113 1 0.5897 5.168020172655933 5.885681189413973 8.415407746553894 0 0 0
499 167 2 -1.1794 7.678209883055608 8.759949104571122 8.703192658114425 0 0 0
501 167 1 0.5897 6.851221979296585 8.97825517323579 8.273418434429896 0 0 0
470 157 1 0.5897 8.620673771398305 9.170600094975585 7.304724156618691 0 0 0
500 167 1 0.5897 7.648185687812138 9.232182273054065 9.535161923997569 0 0 0
467 156 1 0.5897 5.572932859998655 8.262919509138483 6.835550390019676 0 0 0
380 127 1 0.5897 7.230803841851791 6.85906563244005 8.783613961489575 0 0 0
62 21 1 0.5897 8.379915629140596 5.6258401692392725 7.405774375194062 0 0 0
379 127 2 -1.1794 7.064836379063285 5.921552329751366 8.685264331873194 0 0 0
61 21 2 -1.1794 9.134789703080825 5.563994318470518 6.820481876821434 0 0 0
381 127 1 0.5897 7.266244321764302 5.550663037322332 9.544281089396286 0 0 0
167 56 1 0.5897 8.91195355743088 6.740951058695021 5.5641510066994435 0 0 0
137 46 1 0.5897 5.99565000147202 6.136149583238635 5.369089974819467 0 0 0
136 46 2 -1.1794 6.120072930679666 7.084951497184033 5.391997251878346 0 0 0
63 21 1 0.5897 9.880318768032234 5.8234156545153475 7.361889273222881 0 0 0
461 154 1 0.5897 5.739163159678045 8.251336753402029 12.93557231523301 0 0 0
385 129 2 -1.1794 8.844980678040278 5.305137527417911 13.767639678159794 0 0 0
794 265 1 0.5897 9.224561140787252 8.792227300914627 13.220291234390306 0 0 0
387 129 1 0.5897 8.82447591155693 5.9185853098878205 13.033322216188598 0 0 0
491 164 1 0.5897 9.155927179256993 7.41608591833386 11.147753570440319 0 0 0
791 264 1 0.5897 6.510850524547168 9.195532593823392 14.990114555053301 0 0 0
490 164 2 -1.1794 8.805550525437148 7.558665543283215 12.02694357851501 0 0 0
460 154 2 -1.1794 5.813115823137372 7.574332876443014 12.263033784474882 0 0 0
492 164 1 0.5897 7.858733798124816 7.620967501161772 11.900878755211053 0 0 0
793 265 2 -1.1794 9.335039619108196 9.448096025431449 13.90858486872819 0 0 0
462 154 1 0.5897 5.052125958171746 7.712296358006837 11.699047739048767 0 0 0
790 264 2 -1.1794 5.9647622451038 9.506863942877708 14.268311150408602 0 0 0
705 235 1 0.5897 7.9343367518150885 5.564332073117885 15.303650140773751 0 0 0
333 111 1 0.5897 5.741462514963506 5.320134613456967 12.417872468681997 0 0 0
824 275 1 0.5897 8.483281530741678 8.9586160237189 15.315502797900766 0 0 0
792 264 1 0.5897 5.080979285494705 9.543284777861631 14.634219221225408 0 0 0
144 48 1 0.5897 5.7798750236615275 8.556699141840992 20.22589799649317 0 0 -1
785 262 1 0.5897 5.493870724028317 6.5350470442090876 19.16754244946916 0 0 0
816 272 1 0.5897 9.192875059668154 8.27980417678726 19.71013120768298 0 0 0
823 275 2 -1.1794 7.817627060873244 8.747344114082999 15.970075225469289 0 0 0
784 262 2 -1.1794 5.852470131201173 7.366767733774275 18.85789738704459 0 0 0
786 262 1 0.5897 6.759217978456849 7.165749742633567 18.626131328141277 0 0 0
814 272 2 -1.1794 8.793195381023233 7.712239952105492 19.051160021343442 0 0 0
815 272 1 0.5897 8.94701653669593 6.824337373478322 19.373940344716853 0 0 0
825 275 1 0.5897 7.712459348289446 7.797980200976154 15.907676782034962 0 0 0
703 235 2 -1.1794 7.459157796420709 6.0422916484051505 15.983295750643574 0 0 0
709 237 2 -1.1794 9.230763994585901 5.49863213322869 20.374341535846682 0 0 0
704 235 1 0.5897 6.538090499996374 5.8384139685972185 15.820812708595929 0 0 0
164 55 1 0.5897 7.4387140011933015 11.926471311960961 2.6651379089134597 0 0 0
275 92 1 0.5897 9.549877551764347 14.071756800568718 4.310857055706303 0 0 0
156 52 1 0.5897 8.742339195274322 10.582576849747044 3.822189630329491 0 0 0
165 55 1 0.5897 6.481752257200375 12.462056084071264 1.6215327768081096 0 0 0
154 52 2 -1.1794 7.7904799132176485 10.544789498916295 3.9164003825941394 0 0 0
163 55 2 -1.1794 7.398934501027473 12.491916758188177 1.8939128882447416 0 0 0
284 95 1 0.5897 7.280260264812561 14.744751894762214 2.3727292043954336 0 0 0
116 39 1 0.5897 6.485230650347297 10.817640550487928 4.9769287776045665 0 0 0
819 273 1 0.5897 8.397971747051116 12.174796037192225 0.17464193652254542 0 0 1
246 82 1 0.5897 5.5807396951560415 14.078710613998483 4.312720160229304 0 0 0
276 92 1 0.5897 8.096874802480496 13.791010569601035 4.630379779429081 0 0 0
244 82 2 -1.1794 6.12592301257758 13.725757168815571 5.0158295116229 0 0 0
146 49 1 0.5897 9.389222491068155 10.26678745998171 0.18565697887387747 0 0 0