LAMMPS data file via write_data, version 30 Jul 2021, timestep = 26000000

972 atoms
2 atom types
648 bonds
1 bond types
324 angles
1 angle types

0.12178503956380382 19.878215960427177 xlo xhi
0.15544016877488787 19.844560831201996 ylo yhi
0.09139570621941573 20.608602293783314 zlo zhi

Masses

1 1.008
2 15.999

Pair Coeffs # lj/cut/tip4p/long/omp

1 0 0
2 0.21084 3.1668

Bond Coeffs # harmonic/omp

1 450 0.9572

Angle Coeffs # harmonic/omp

1 55 104.52

Atoms # full

10 4 2 -1.1794 1.536893496520197 4.084006242149345 3.865078368173097 0 0 0
11 4 1 0.5897 1.330240281450075 3.2576338904575053 3.428548691682481 0 0 0
31 11 2 -1.1794 1.0527110593414433 1.7392391778548553 2.3067972486412973 0 0 0
33 11 1 0.5897 1.76500469181612 2.048806194686364 1.7472840533489322 0 0 0
23 8 1 0.5897 2.5411882639327517 0.7205114346715963 4.2667195475015625 0 0 0
12 4 1 0.5897 2.488566763965833 4.070253542638021 3.9668205226849698 0 0 0
16 6 2 -1.1794 4.227176635813909 3.729487276331203 3.6986388484047086 0 0 0
18 6 1 0.5897 4.3435265360455215 2.8122177941753153 3.4512504627872467 0 0 0
4 2 2 -1.1794 4.39203228270063 1.1154862890407466 3.3466993290157974 0 0 0
53 18 1 0.5897 9.858390122414363 4.179988846444916 4.078570440623763 0 0 0
68 23 1 0.5897 8.185280047222255 2.4648160503329986 1.4945066413729706 0 0 0
17 6 1 0.5897 4.531467069777477 4.223723772503124 2.9374635480199047 0 0 0
5 2 1 0.5897 4.4778923970064834 0.45923663742466886 2.6551806107496385 0 0 0
6 2 1 0.5897 5.047180293372254 0.8649785389866624 3.998073993467775 0 0 0
273 91 1 0.5897 7.534355878924036 0.5537945908987707 1.9033462309579845 0 1 0
3 1 1 0.5897 3.629175522141756 2.54921500738181 0.43978657669255683 0 0 0
32 11 1 0.5897 0.25722063122700445 1.927738426563117 1.8088885170241586 0 0 0
47 16 1 0.5897 7.804300632125732 3.697782942894284 3.5085233047967828 0 0 0
46 16 2 -1.1794 8.037591034819712 4.38856314933068 4.1286639030445675 0 0 0
22 8 2 -1.1794 2.0310432325326024 0.899025069760383 5.056771198172248 0 0 0
67 23 2 -1.1794 7.484029517113001 2.5031342676177863 2.1449348388498497 0 0 0
69 23 1 0.5897 6.678762430630546 2.5311952031316127 1.6282039800589172 0 0 0
48 16 1 0.5897 7.35801443121034 4.346699568949456 4.801489815415503 0 0 0
34 12 2 -1.1794 5.476422010373238 2.312093546404682 0.39527107774883685 0 0 0
41 14 1 0.5897 9.822463047746691 1.259679525504905 3.6321104037035963 0 0 0
9 3 1 0.5897 5.2524418207465216 4.146947757380545 5.20288318013538 0 0 0
58 20 2 -1.1794 8.60966107985786 1.0885336868059212 4.919702081022161 0 0 0
102 34 1 0.5897 0.32665396633196814 0.7604496710936886 5.084480510251912 1 0 0
1 1 2 -1.1794 2.7258472090526973 2.8265964018453613 0.28728839044639615 0 0 0
81 27 1 0.5897 0.3996125759097242 4.470729328860116 5.19482887023519 1 0 0
29 10 1 0.5897 6.788451621540162 0.7363201540540251 5.16427708233275 0 0 0
2 1 1 0.5897 2.7820857985753906 3.775299742315484 0.1736403271258311 0 0 0
325 109 2 -1.1794 2.653269695350681 2.8102529977438313 6.860651718914934 0 0 0
326 109 1 0.5897 2.5022026429322204 2.214149995226702 6.127107630671158 0 0 0
327 109 1 0.5897 3.5575124674364833 2.641060777286843 7.125127436227108 0 0 0
355 119 2 -1.1794 1.1772190121068764 2.3341614851333423 8.94446924190772 0 0 0
356 119 1 0.5897 1.8215363110653287 2.4718978601370334 8.250087207167002 0 0 0
27 9 1 0.5897 2.792641356034968 4.55108288176145 6.429726407023086 0 0 0
342 114 1 0.5897 4.239396577502005 4.869722359846193 9.63259274676714 0 0 0
561 187 1 0.5897 1.0952234942879993 0.4827098413556495 8.798688962911692 0 1 0
7 3 2 -1.1794 5.849561979190272 4.493482562825226 5.865920505547685 0 0 0
391 131 2 -1.1794 7.488421729220268 2.4449801034100145 8.926135132301512 0 0 0
330 110 1 0.5897 4.40726271115022 0.6024027644037303 9.594917631902195 0 0 0
362 121 1 0.5897 8.901510477782619 4.0060176083198975 6.622768969887508 0 0 0
361 121 2 -1.1794 9.008115201075332 3.090695529068069 6.881499447342764 0 0 0
358 120 2 -1.1794 5.437378252875788 2.3001636752997365 7.349832997800707 0 0 0
392 131 1 0.5897 8.082762516496336 2.7238714106888833 8.22954831877988 0 0 0
357 119 1 0.5897 0.33572912770370716 2.3070994720096443 8.489042691532989 0 0 0
359 120 1 0.5897 6.155250589702586 2.291064138451181 7.98295365091002 0 0 0
8 3 1 0.5897 5.7666296194668645 3.888762488510893 6.603261311451442 0 0 0
360 120 1 0.5897 5.6802256739684305 1.6386244886175014 6.702055940595697 0 0 0
393 131 1 0.5897 7.560644449732422 1.4906180442117092 8.93538259513724 0 0 0
335 112 1 0.5897 1.1280181308602986 3.754738185105018 10.20952700053822 0 0 0
328 110 2 -1.1794 4.314697666312551 1.4217515565061645 10.080993416935728 0 0 0
60 20 1 0.5897 8.928738393709127 0.4107367354164639 5.515508058173776 0 0 0
59 20 1 0.5897 8.667273367963643 1.8990677588356115 5.425557168157852 0 0 0
371 124 1 0.5897 7.572746259699731 3.5599926753093625 10.273756272157987 0 0 0
28 10 2 -1.1794 5.8978401699694505 0.5569774556207424 5.465722921679081 0 0 0
363 121 1 0.5897 9.933418772598479 3.0132010562917904 7.113931612283078 0 0 0
24 8 1 0.5897 2.2801686383471207 0.20369677103130357 5.6655953593875354 0 0 0
377 126 1 0.5897 9.590561551481022 4.238601614436837 10.23738487549977 0 0 0
341 114 1 0.5897 4.241188598259611 3.3982746832442885 9.988217829300874 0 0 0
340 114 2 -1.1794 4.03309048183356 4.262478799455494 10.343179916406344 0 0 0
649 217 2 -1.1794 2.62123788574107 2.6843587015758965 13.654285661002588 0 0 0
650 217 1 0.5897 2.4581702215175527 2.0530368261261773 12.953517752102632 0 0 0
348 116 1 0.5897 2.865083306323632 1.1730489947740659 11.247384681325952 0 0 0
651 217 1 0.5897 2.0952856767872623 2.368585797795842 14.389090023402632 0 0 0
346 116 2 -1.1794 2.2458005138754333 0.8341872987004928 11.893852803476237 0 0 0
683 228 1 0.5897 4.357270269719078 2.604107751323156 14.248568119235355 0 0 0
350 117 1 0.5897 2.711257492345906 4.499191195195681 13.51059012279909 0 0 0
347 116 1 0.5897 1.3903384610262337 0.915172797675893 11.472107070143862 0 0 0
354 118 1 0.5897 5.783154976695389 1.5683706231101127 12.96212751869765 0 0 0
370 124 2 -1.1794 7.906786723150484 4.2228466386100685 10.878122275511723 0 0 0
332 111 1 0.5897 5.040710569499428 4.508285204276777 11.730312790522731 0 0 0
336 112 1 0.5897 2.323804146808068 4.433506917945628 10.842946536271553 0 0 0
386 129 1 0.5897 9.225615215530201 4.471190407618205 13.642490387896961 0 0 0
682 228 2 -1.1794 5.304657919028807 2.7402931972626416 14.25991704927914 0 0 0
331 111 2 -1.1794 5.694816178657862 4.6851055141864535 12.406446275173336 0 0 0
329 110 1 0.5897 4.959014145945319 1.356769340009419 10.785899144062267 0 0 0
686 229 1 0.5897 8.882000048884766 2.5252595718361213 14.36184191570826 0 0 0
680 227 1 0.5897 0.2612182440677822 2.3373653830243994 15.458917386218554 0 0 0
382 128 2 -1.1794 8.552029423023495 1.1994263440986028 11.576941082214212 0 0 0
383 128 1 0.5897 8.89751060172277 1.8016846042336052 12.235844592667837 0 0 0
685 229 2 -1.1794 9.422315991636834 2.7190196892722764 13.595809920096709 0 0 0
684 228 1 0.5897 5.441808246559894 3.517984589770884 13.719024166797343 0 0 0
353 118 1 0.5897 6.919267710894491 1.0553890839238615 12.103048891871419 0 0 0
384 128 1 0.5897 9.205781126409141 1.2078028754877979 10.877782518925615 0 0 0
372 124 1 0.5897 7.159032294708685 4.437901069913874 11.43568119878078 0 0 0
352 118 2 -1.1794 5.966134702571291 1.0349178479259793 12.188716077411438 0 0 0
334 112 2 -1.1794 1.3679892968453462 4.3962262804487136 10.878204142075687 0 0 0
717 239 1 0.5897 6.717287028585269 2.4267964495278087 15.424406857088297 0 0 0
658 220 2 -1.1794 1.4175482340478625 4.344941368168392 17.630253238426267 0 0 0
664 222 2 -1.1794 4.229140717687896 4.122935238653512 17.414883348106112 0 0 0
671 224 1 0.5897 2.3361423079899826 1.8361332952431304 19.33075038772466 0 0 0
653 218 1 0.5897 3.288612608753563 1.2854922284277066 17.136591651205627 0 0 0
670 224 2 -1.1794 2.193141178796211 1.1601616698011743 18.66830174413147 0 0 0
652 218 2 -1.1794 4.189722550633209 1.3416224234643719 16.81865836987318 0 0 0
672 224 1 0.5897 1.2418263653258705 1.1158282784012068 18.572130815480044 0 0 0
665 222 1 0.5897 3.303780499908299 4.2368951876539285 17.631561753547032 0 0 0
666 222 1 0.5897 4.274847202508873 3.2596912757318672 17.003935378477454 0 0 0
681 227 1 0.5897 1.2010171040159514 2.8173735154275588 16.544432963904217 0 0 0
654 218 1 0.5897 4.360483246260053 0.4843447914918898 16.42870280951277 0 0 0
659 220 1 0.5897 0.8801028140481295 4.384180894241078 18.421391403905044 0 0 0
656 219 1 0.5897 5.408963589302439 4.177936111714876 18.73324788315143 0 0 0
655 219 2 -1.1794 6.062468782292108 4.432108904304092 19.384854688425236 0 0 0
715 239 2 -1.1794 7.598655134025492 2.2064036699995655 15.72579501909616 0 0 0
677 226 1 0.5897 5.35758023259056 0.7106606543582785 18.128754456465785 0 0 0
36 12 1 0.5897 5.6376025209897955 3.129761613512147 20.44172257074829 0 0 -1
676 226 2 -1.1794 6.0757579124222625 0.5226538209886729 18.733013693633826 0 0 0
716 239 1 0.5897 7.571597163338765 1.2615233946399826 15.876078979429154 0 0 0
657 219 1 0.5897 6.901566851159603 4.329511152307305 18.93581432212449 0 0 0
695 232 1 0.5897 7.935519074190082 3.3013326791311433 17.172944818753002 0 0 0
679 227 2 -1.1794 1.0881214722693087 2.1259393998857896 15.892238952703483 0 0 0
38 13 1 0.5897 9.005547001852966 2.291851759908817 19.598967431699307 0 0 -1
694 232 2 -1.1794 8.210608764536238 4.0596722979226225 17.688148554096223 0 0 0
708 236 1 0.5897 7.769756895259947 0.6558215326686705 18.336278542415585 0 0 0
706 236 2 -1.1794 8.72135530219454 0.7539090520051317 18.368880867384803 0 0 0
35 12 1 0.5897 5.758765926083068 1.6268647736684376 20.306708907708863 0 0 -1
702 234 1 0.5897 9.935689388008171 4.1185633474451055 17.68463333520515 0 0 0
884 295 1 0.5897 1.240952358187646 0.34571915769070105 15.685846456574883 0 1 0
696 232 1 0.5897 8.027899054087015 4.811543006504446 17.124678067107503 0 0 0
37 13 2 -1.1794 9.124199977267986 2.729552925701162 20.44193986278237 0 0 -1
710 237 1 0.5897 8.960245453650717 4.505271560164774 20.38783401847654 0 0 0
112 38 2 -1.1794 3.825407830972162 7.733858590043649 3.6163246875752844 0 0 0
15 5 1 0.5897 4.3748282122893976 6.5682386965025765 2.4346418352276777 0 0 0
141 47 1 0.5897 1.084698690844454 7.571494148063814 2.479798511530556 0 0 0
142 48 2 -1.1794 5.0894691015029645 8.88764552812691 0.5075485735277602 0 0 0
145 49 2 -1.1794 9.241645002501006 9.255182211198674 0.14274439141741002 0 0 0
19 7 2 -1.1794 0.9453923243350544 5.716909122741452 1.8545276500837482 0 0 0
126 42 1 0.5897 3.9118771257898195 9.662749412158476 3.3412278833784197 0 0 0
140 47 1 0.5897 1.0063247474245687 8.992874401609305 2.9947529325032853 0 0 0
674 225 1 0.5897 2.250669702497841 5.769848696861916 0.465811759883126 0 0 1
139 47 2 -1.1794 0.973184071163741 8.476667658876597 2.1893467922832253 0 0 0
114 38 1 0.5897 3.0269418530518393 7.427982419882398 4.046581386770676 0 0 0
14 5 1 0.5897 4.216922352660362 5.680959050788254 1.218190565689795 0 0 0
110 37 1 0.5897 1.9285021360773258 9.150675406375296 0.7388468536916611 0 0 0
56 19 1 0.5897 6.572363139285698 6.097086299759084 1.9706456313746108 0 0 0
143 48 1 0.5897 5.76694700588654 8.848013305030706 1.1826279663065238 0 0 0
13 5 2 -1.1794 4.766027059773382 5.815958730868323 1.9905536570809725 0 0 0
113 38 1 0.5897 4.518651086611397 7.57696836568748 4.2574704148496005 0 0 0
57 19 1 0.5897 7.695199859958257 5.712448525221733 2.910466106279823 0 0 0
177 59 1 0.5897 7.851113517890399 9.046158118742808 1.4676511092488738 0 0 0
176 59 1 0.5897 7.299478272066632 8.030583085486974 2.445469753397222 0 0 0
175 59 2 -1.1794 7.1671219730726845 8.923037125357244 2.125871080012022 0 0 0
711 237 1 0.5897 8.497560356253276 5.610629264613271 0.7957826847359474 0 0 1
55 19 2 -1.1794 7.5141509458987485 6.200258044322036 2.1070231953845497 0 0 0
166 56 2 -1.1794 8.477373541834531 7.781483465371175 5.072292350461983 0 0 0
20 7 1 0.5897 1.1730449533143945 5.093892045073537 2.544644855675428 0 0 0
111 37 1 0.5897 3.3843777551600756 9.149081430282749 0.3237395380286089 0 0 0
130 44 2 -1.1794 1.4170312438694692 7.355950208098715 4.966390796890452 0 0 0
468 156 1 0.5897 4.385523199498885 9.059520282720916 7.430489636253187 0 0 0
137 46 1 0.5897 5.852432541778935 6.191648956336794 5.632324720061673 0 0 0
168 56 1 0.5897 8.499944496140484 8.530259479024146 5.668126107656345 0 0 0
343 115 2 -1.1794 1.0653699322102324 6.176325813786251 8.600984117143673 0 0 0
437 146 1 0.5897 4.032333560186764 7.646917516982403 9.467627997842522 0 0 0
464 155 1 0.5897 1.4108070828905013 8.822636996120695 8.345734538310356 0 0 0
61 21 2 -1.1794 9.039645261403246 5.7620673248953 6.677511120338099 0 0 0
438 146 1 0.5897 3.7865845069983473 8.971960328158259 10.15724613052082 0 0 0
339 113 1 0.5897 4.131924212105245 6.037848223736769 7.521303233655813 0 0 0
471 157 1 0.5897 9.761542992954165 9.644572243316382 7.063257395210525 0 0 0
463 155 2 -1.1794 0.8109266496580504 8.772268170317195 9.089978241115304 0 0 0
345 115 1 0.5897 0.9896095009400175 7.116497514678652 8.763617341396055 0 0 0
435 145 1 0.5897 2.232668078314554 8.640733802956257 6.03856759813665 0 0 0
433 145 2 -1.1794 2.573844826348525 9.119947210899012 6.793697169208276 0 0 0
337 113 2 -1.1794 4.553456398371257 6.252314489172813 8.353540702324736 0 0 0
338 113 1 0.5897 5.477721677500351 6.045786873938709 8.214625157934357 0 0 0
470 157 1 0.5897 8.411497749442944 9.34897551276704 7.6812494239492075 0 0 0
466 156 2 -1.1794 5.326698056986301 8.959643748841444 7.573422290305317 0 0 0
62 21 1 0.5897 8.431441222830504 5.858944486243297 7.410308631715849 0 0 0
469 157 2 -1.1794 8.829595941768275 9.84553957657126 6.977780146868423 0 0 0
344 115 1 0.5897 1.266398658821504 5.800019102407659 9.457878382033579 0 0 0
499 167 2 -1.1794 7.540218978755452 8.521232344903916 9.033965368714576 0 0 0
501 167 1 0.5897 6.679861068272177 8.753712076504575 8.68472522109169 0 0 0
380 127 1 0.5897 7.391116154183331 6.764562988243367 9.099034778134941 0 0 0
467 156 1 0.5897 5.599795040801145 8.308469776339527 6.92719633756411 0 0 0
379 127 2 -1.1794 7.255243674895684 5.864517174507447 8.803081994048853 0 0 0
500 167 1 0.5897 7.760128629425559 9.238946809942627 9.627874758559448 0 0 0
25 9 2 -1.1794 2.7344031746968724 5.505313352668804 6.476139380293676 0 0 0
26 9 1 0.5897 2.1906324354788898 5.675423227043823 7.245337541539466 0 0 0
381 127 1 0.5897 7.353150995100347 5.3344993692463385 9.594133132559872 0 0 0
136 46 2 -1.1794 5.885950300015754 7.137942907112198 5.492596741123783 0 0 0
63 21 1 0.5897 9.894941033332431 5.985969471545328 7.044352730831502 0 0 0
131 44 1 0.5897 1.8098689479681702 6.644998225498147 5.472757684727431 0 0 0
436 146 2 -1.1794 3.7651220016079927 8.026502528407844 10.30476674705554 0 0 0
167 56 1 0.5897 8.681653675031002 7.027995604180343 5.626109271508433 0 0 0
138 46 1 0.5897 6.791893744453961 7.310766482149139 5.23646557369719 0 0 0
132 44 1 0.5897 0.49920502496905655 7.36528202312677 5.23793138023434 0 0 0
349 117 2 -1.1794 2.67282816278344 5.407083000748511 13.81121756449293 0 0 0
351 117 1 0.5897 3.450134893665005 5.511280184638142 14.360016927375103 0 0 0
668 223 1 0.5897 1.3544987966139304 5.841062061732639 14.991435031073296 0 0 0
824 275 1 0.5897 8.017883532266469 9.01870275353545 15.38107833904324 0 0 0
757 253 2 -1.1794 2.6973656872627823 9.427022711809634 13.940589824890758 0 0 0
759 253 1 0.5897 2.359268828040031 8.796500561497167 13.304700894330548 0 0 0
455 152 1 0.5897 2.3923072080059344 7.680699466015708 11.587239539398295 0 0 0
456 152 1 0.5897 2.1554954165275424 6.842509068108639 12.825504262884538 0 0 0
454 152 2 -1.1794 1.8043549898593694 7.586821097406653 12.336758663562584 0 0 0
792 264 1 0.5897 4.583081195765094 9.13694487712967 14.320798091354987 0 0 0
333 111 1 0.5897 5.7515017756443365 5.639914964897018 12.44163002231942 0 0 0
794 265 1 0.5897 9.11231064258554 8.631412715968624 13.39413726846733 0 0 0
793 265 2 -1.1794 9.278573906404157 9.178918039357855 14.161507519703564 0 0 0
491 164 1 0.5897 9.165717401850673 7.360252036026172 11.17752994926576 0 0 0
791 264 1 0.5897 5.992156947406388 9.028561553190608 14.863635323509968 0 0 0
461 154 1 0.5897 5.885175757746877 7.88795473072648 12.751753467739395 0 0 0
460 154 2 -1.1794 5.978381355827218 7.372402709833666 11.950635922625391 0 0 0
462 154 1 0.5897 5.222701404333734 7.618852244521843 11.417285701629787 0 0 0
385 129 2 -1.1794 9.190743626067135 5.383562816583761 13.929705080251376 0 0 0
492 164 1 0.5897 7.84123903820725 7.390568969668765 11.9101749077245 0 0 0
490 164 2 -1.1794 8.783797651224695 7.305443142698378 12.053570264931519 0 0 0
387 129 1 0.5897 9.110280848824974 5.887176143973155 13.119664553915738 0 0 0
790 264 2 -1.1794 5.498935605914959 9.093931894660956 14.045852998202927 0 0 0
661 221 2 -1.1794 4.872247413060714 5.905949140323536 15.45416764678356 0 0 0
789 263 1 0.5897 1.6304821892183543 9.026006226306816 15.287996894328252 0 0 0
705 235 1 0.5897 8.068311026674259 5.991235525154158 15.195542073906974 0 0 0
761 254 1 0.5897 4.357745711013693 9.11235703992756 17.080107564623617 0 0 0
144 48 1 0.5897 5.330212360698644 8.20130564121978 20.40250918951579 0 0 -1
703 235 2 -1.1794 7.572365998839515 6.080984161835465 16.009354159750956 0 0 0
786 262 1 0.5897 6.895203808461658 7.332501347346062 19.124793121365133 0 0 0
787 263 2 -1.1794 1.0056007668906015 8.769447654938558 15.96620445442543 0 0 0
675 225 1 0.5897 2.768310415437484 5.97072126478744 19.574580248807973 0 0 0
788 263 1 0.5897 1.175750393656998 9.37241396223982 16.689883603599537 0 0 0
760 254 2 -1.1794 4.4113072783668335 8.166377804190237 16.94459915475433 0 0 0
778 260 2 -1.1794 2.2614170488733585 7.488917750023345 18.4592666332038 0 0 0
780 260 1 0.5897 2.9524493414598934 7.6907541813731175 17.828393250564822 0 0 0
779 260 1 0.5897 2.314155731044906 8.192324237293903 19.106300684764964 0 0 0
785 262 1 0.5897 5.799240383176249 6.288322043263259 19.10780763384043 0 0 0
709 237 2 -1.1794 9.055574112566878 5.4431224662365425 20.553491681964626 0 0 0
816 272 1 0.5897 8.883460382797775 8.169431405408027 19.34802950019748 0 0 0
825 275 1 0.5897 7.405809795485122 7.904981532848423 16.203746702358696 0 0 0
814 272 2 -1.1794 8.689624628040022 7.4803601939053745 18.712558185525445 0 0 0
662 221 1 0.5897 4.681496734368453 5.24053897798438 16.115273439109867 0 0 0
823 275 2 -1.1794 7.325874389809568 8.840504173981031 16.017974122 0 0 0
762 254 1 0.5897 5.002532655160682 7.858659147301554 17.63164428371551 0 0 0
858 286 1 0.5897 0.5076123806990744 7.325081674597541 18.539074944922852 1 0 0
784 262 2 -1.1794 5.948486737484423 7.230317089906742 19.027300523110096 0 0 0
815 272 1 0.5897 8.821911466537127 6.664597491164024 19.19546318556014 0 0 0
663 221 1 0.5897 4.585273716293404 6.728084728557182 15.85153423595145 0 0 0
669 223 1 0.5897 0.8304623522359967 7.037348807724447 15.75696789322878 0 0 0
804 268 1 0.5897 7.88275690945494 9.8946199512151 17.234948866086665 0 0 0
673 225 2 -1.1794 2.961170065461291 5.515449002213207 20.3941914760955 0 0 0
109 37 2 -1.1794 2.509975861480246 9.388526400539622 20.53384843018982 0 0 -1
704 235 1 0.5897 6.657328253500203 5.988084020043844 15.744205401735288 0 0 0
667 223 2 -1.1794 0.6814067729676757 6.101847199026425 15.620080615868268 0 0 0
660 220 1 0.5897 1.146088467055623 5.106336912932143 17.11764032564213 0 0 0
240 80 1 0.5897 2.58910596665662 14.266355540668481 4.362863164436926 0 0 0
129 43 1 0.5897 0.7932048517151425 13.495267742084135 2.410176843094724 0 0 0
120 40 1 0.5897 1.1825389859346604 11.295049275367436 3.2865045062844738 0 0 0
118 40 2 -1.1794 1.3383373209656024 10.587276623646249 3.9118005448714404 0 0 0
119 40 1 0.5897 2.288552914072067 10.572979226967549 4.026251535788483 0 0 0
127 43 2 -1.1794 0.8039375309421836 12.622044728542203 2.0183972163867687 0 0 0
124 42 2 -1.1794 4.080542588639231 10.58252531019273 3.5454114282575184 0 0 0
222 74 1 0.5897 4.074216800129474 13.82790478090479 2.424541902847079 0 0 0
123 41 1 0.5897 4.201549359702434 12.25097564071041 0.896498363831431 0 0 0
220 74 2 -1.1794 3.8053366515634015 14.287014216937738 3.220270930264818 0 0 0
783 261 1 0.5897 2.0589209264324255 12.333387737709293 0.7933526536182618 0 0 1
122 41 1 0.5897 4.609851206497814 11.825184269166725 2.2907923028334665 0 0 0
125 42 1 0.5897 4.589169998600727 10.559085833960475 4.355997281631177 0 0 0
121 41 2 -1.1794 4.873334265232896 12.38976556713416 1.564113612700323 0 0 0
246 82 1 0.5897 4.931314056940924 13.932719276697185 4.418732258733656 0 0 0
275 92 1 0.5897 7.382505913585476 14.167093479191918 5.008979056074039 0 0 0
819 273 1 0.5897 8.386474066188322 12.319296720073167 0.683570868411257 0 0 1
156 52 1 0.5897 9.004181132997056 10.95209131427452 3.9213504535626806 0 0 0
154 52 2 -1.1794 8.048200389160009 10.917444745227906 3.9548839204702353 0 0 0
163 55 2 -1.1794 7.519665266840756 12.80471287542308 2.1537488957214426 0 0 0
165 55 1 0.5897 7.647553250172983 12.137684583541926 2.828240937429413 0 0 0
164 55 1 0.5897 6.615400768696171 12.683147850199479 1.8643635723268746 0 0 0
276 92 1 0.5897 8.712987374973467 14.346885531301842 4.309391557439498 0 0 0
285 95 1 0.5897 7.727863124353991 14.768770344383034 2.1928721623490683 0 0 0
155 52 1 0.5897 7.812144043780607 10.214737228574904 3.349348131212626 0 0 0
274 92 2 -1.1794 8.305966748392178 14.355850483908748 5.175746163695488 0 0 0
238 80 2 -1.1794 2.0420120835752273 14.284873656864274 5.1481234973597365 0 0 0
317 106 1 0.5897 0.2671795292261346 14.083602672077758 4.963055134574958 1 0 0
244 82 2 -1.1794 5.634355950469118 13.732302706691582 5.036658754494704 0 0 0
245 82 1 0.5897 5.565520487026251 12.788555280153403 5.180614176977158 0 0 0
133 45 2 -1.1794 2.5167970347552826 12.109318413115037 6.707682199347596 0 0 0
134 45 1 0.5897 1.9729760484689212 12.241243107400264 7.484304375760792 0 0 0
135 45 1 0.5897 3.4096331101857826 12.278578234359754 7.008374034250411 0 0 0
453 151 1 0.5897 0.8458353172187721 11.9888756916012 9.721498761178195 0 0 0
451 151 2 -1.1794 0.7459650419665355 12.655019666480191 9.04141951093299 0 0 0
450 150 1 0.5897 4.185268924142498 11.338323208506106 9.559351083292572 0 0 0
446 149 1 0.5897 4.478628551994471 13.243307106082153 8.677572858910203 0 0 0
448 150 2 -1.1794 3.8573425710006037 10.756572204845515 10.245113511190466 0 0 0
171 57 1 0.5897 9.244191442011639 11.51977601311732 6.636818915103131 0 0 0
445 149 2 -1.1794 4.748404065920545 12.428834408859078 8.25328076781008 0 0 0
116 39 1 0.5897 6.642992962160222 10.82015365796447 5.461453190718108 0 0 0
573 191 1 0.5897 0.9056576799953454 14.48924109160136 9.250568101749014 0 0 0
169 57 2 -1.1794 9.524838432558623 12.433206654285192 6.691481708820306 0 0 0
489 163 1 0.5897 7.582048486128174 13.640373925396247 8.965635873257941 0 0 0
117 39 1 0.5897 5.572911905865668 10.396331568742475 6.444948483454299 0 0 0
447 149 1 0.5897 5.7028233002349555 12.48619705176437 8.20858412968934 0 0 0
115 39 2 -1.1794 5.743068085656717 11.007634529759418 5.7282929788336165 0 0 0
487 163 2 -1.1794 7.592652206361164 12.770097999967556 8.567312610281896 0 0 0
170 57 1 0.5897 9.060681214511208 12.869977321351058 5.977317850325996 0 0 0
488 163 1 0.5897 8.37572177231472 12.767610590044539 8.016815288336655 0 0 0
575 192 1 0.5897 5.627127712366047 14.60071332651395 6.646636544496836 0 0 0
434 145 1 0.5897 2.473532791552451 10.04214834834864 6.557882829529896 0 0 0
480 160 1 0.5897 8.005631745933112 11.513993541890551 9.652142435288791 0 0 0
239 80 1 0.5897 2.256823019735563 13.4742235970749 5.609467338989707 0 0 0
544 182 2 -1.1794 4.367868159113363 14.40439947739314 10.097642624873778 0 0 0
478 160 2 -1.1794 8.156782591236324 10.802714783387069 10.274589366610448 0 0 0
443 148 1 0.5897 0.979080540688003 10.064244991076839 10.267444126384305 0 0 0
188 63 1 0.5897 0.24471649103737292 10.939370851194948 5.271042180239443 1 0 0
457 153 2 -1.1794 2.618966465167224 12.113139258100132 13.162770927078697 0 0 0
458 153 1 0.5897 1.8953578490518508 12.073184470629275 13.788119969894145 0 0 0
459 153 1 0.5897 3.364307479459644 12.422246774926046 13.677704294198076 0 0 0
562 188 2 -1.1794 1.9836828289692294 14.321150121798825 11.57694973877254 0 0 0
563 188 1 0.5897 2.1877212427234833 13.500014863486246 12.024441574650135 0 0 0
442 148 2 -1.1794 1.2141848016706678 10.72670264902649 10.917112171425135 0 0 0
449 150 1 0.5897 4.509748578819662 10.81651189506002 10.943007601856516 0 0 0
494 165 1 0.5897 8.362937351963096 11.877414676585879 14.198044491023243 0 0 0
600 200 1 0.5897 8.933071151587182 14.460406842801657 12.415406330508253 0 0 0
642 214 1 0.5897 0.25314173190714817 14.289385303384282 11.659700918850323 1 0 0
795 265 1 0.5897 9.040645547649643 10.062779159809397 13.881677412935918 0 0 0
545 182 1 0.5897 3.558143948731758 14.1698187478858 10.551028338700982 0 0 0
546 182 1 0.5897 5.065034963096583 14.100430617418343 10.678860076709194 0 0 0
444 148 1 0.5897 2.153530059465159 10.862145909036823 10.79264886682089 0 0 0
769 257 2 -1.1794 4.547357823564161 12.433634693097751 15.079128873698185 0 0 0
770 257 1 0.5897 5.47079482264986 12.191314646918146 15.010173594406826 0 0 0
569 190 1 0.5897 6.03407187142708 12.91535304990597 12.280139903012289 0 0 0
495 165 1 0.5897 9.870500515108903 11.86689563944171 14.060293792275509 0 0 0
439 147 2 -1.1794 5.961095142495033 10.960836291135731 12.178121756295393 0 0 0
570 190 1 0.5897 7.037584698227809 13.996634856177609 11.940224266298719 0 0 0
441 147 1 0.5897 5.929128152707072 10.353451243418666 12.917244894813576 0 0 0
493 165 2 -1.1794 9.063568356612516 11.764539613945265 13.55568372278254 0 0 0
568 190 2 -1.1794 6.109593630618616 13.857484703156015 12.12914020979134 0 0 0
598 200 2 -1.1794 8.726931091526339 13.756733464790829 11.800143001329046 0 0 0
440 147 1 0.5897 6.795123222652853 10.771907731472309 11.74807222033076 0 0 0
599 200 1 0.5897 8.88570003022736 12.952242450691628 12.293864770092723 0 0 0
758 253 1 0.5897 2.608861997879915 10.275803706132184 13.507140216656978 0 0 0
479 160 1 0.5897 9.107411797980767 10.777110798913055 10.383535234297119 0 0 0
888 296 1 0.5897 2.2689260061005907 13.297515350303456 19.415084289335976 0 0 0
768 256 1 0.5897 1.326304628621929 11.441055650272128 16.93249164380333 0 0 0
773 258 1 0.5897 3.2347108811922585 10.951314369605207 17.60157235006335 0 0 0
766 256 2 -1.1794 1.5205469038402804 10.817486523679392 17.632255206246203 0 0 0
886 296 2 -1.1794 2.138844109604611 14.085174104100366 18.887029239818386 0 0 0
772 258 2 -1.1794 4.15600687087996 10.84933196454068 17.362780832849847 0 0 0
774 258 1 0.5897 4.231984458792484 11.278570516212348 16.51057517695139 0 0 0
870 290 1 0.5897 4.988740585212738 14.127871587693562 17.844504737468533 0 0 0
767 256 1 0.5897 0.9618023120719036 11.091226797207522 18.359683470449536 0 0 0
869 290 1 0.5897 3.4923242721730725 13.98187050496635 17.66773386549397 0 0 0
777 259 1 0.5897 1.2253983780841362 13.303250169763466 15.672342473663077 0 0 0
771 257 1 0.5897 4.526366429801717 13.108474352410457 15.757634191423548 0 0 0
887 296 1 0.5897 2.324976445455202 14.808639375329673 19.48548609279607 0 0 0
803 268 1 0.5897 7.448998111254095 10.657891607487212 18.468345339995007 0 0 0
764 255 1 0.5897 5.387757403230975 10.91943245228398 18.70129458410995 0 0 0
893 298 1 0.5897 6.962742633064157 13.953678169467674 18.921251378001983 0 0 0
924 308 1 0.5897 9.087699813000418 14.141581885991167 17.83129191368733 0 0 0
781 261 2 -1.1794 2.6070050528281365 12.056737564052819 20.576154152982124 0 0 0
765 255 1 0.5897 5.666096052515201 10.258614411351127 20.034671104676395 0 0 0
782 261 1 0.5897 2.4990035517942104 11.106368025519426 20.540807906425236 0 0 0
818 273 1 0.5897 8.847032619658625 12.566918882546727 19.779975809884775 0 0 0
892 298 2 -1.1794 6.109718447977426 13.748911208282644 19.304210847594632 0 0 0
802 268 2 -1.1794 8.123412232152695 10.63684408852512 17.789371789947545 0 0 0
894 298 1 0.5897 6.142637120222937 12.807521132512951 19.473974179735972 0 0 0
922 308 2 -1.1794 8.719032214375941 13.986418880017302 18.70095768584581 0 0 0
813 271 1 0.5897 7.589388400898298 11.808792115557615 16.472164851877118 0 0 0
763 255 2 -1.1794 5.97851210815984 10.952255521661296 19.453767340914478 0 0 0
810 270 1 0.5897 9.93567229316069 10.595320865299293 17.699689915299295 0 0 0
868 290 2 -1.1794 4.298228334252777 14.158225022892251 17.182287369215498 0 0 0
812 271 1 0.5897 7.348283719021431 13.171923768511922 15.85944501344841 0 0 0
146 49 1 0.5897 9.107384609548312 10.198224425398953 20.566329399077866 0 0 -1
965 322 1 0.5897 0.35958239641860673 14.04137310407713 19.20030459659374 1 0 0
817 273 2 -1.1794 8.964772653905738 11.97283507222904 20.521223660502674 0 0 0
775 259 2 -1.1794 1.043042623114995 12.377106366453432 15.513820389942756 0 0 0
923 308 1 0.5897 9.14672182428601 14.633415008078954 19.26192268064358 0 0 0
811 271 2 -1.1794 7.258528224693239 12.235691971713686 15.681869996699945 0 0 0
233 78 1 0.5897 4.421671213243066 17.467921104879906 2.932792239641874 0 0 0
283 95 2 -1.1794 7.693421118457433 15.631055907402432 1.7788319533929766 0 0 0
235 79 2 -1.1794 0.903035715453311 18.784692132876923 1.8139308496614632 0 0 0
262 88 2 -1.1794 8.218227758949883 17.464552208038114 3.6795061086964207 0 0 0
234 78 1 0.5897 3.2804814798347595 17.212649678115973 3.8942950655895765 0 0 0
229 77 2 -1.1794 4.675699813413587 18.715214260393854 1.7174594132144918 0 0 0
228 76 1 0.5897 0.757985719514776 17.368366661923197 4.672949028445076 0 0 0
227 76 1 0.5897 1.1694420770241603 17.833980653090922 3.292377263746773 0 0 0
230 77 1 0.5897 4.2160669805324895 18.83210738951537 0.8859704714733845 0 0 0
250 84 2 -1.1794 5.26893506100296 15.599789266906823 0.6857359252832683 0 0 0
249 83 1 0.5897 1.3696778580380289 15.633709269896604 1.7542808998802122 0 0 0
232 78 2 -1.1794 4.184037743658814 16.958071829756104 3.7072942709181005 0 0 0
248 83 1 0.5897 0.9318374205520034 15.83798040740737 3.1890954948862458 0 0 0