#include		in.partitions
include		in.temp
variable        temperature equal 133.97
variable	tempDamp equal 100.0
include		in.pressure
variable        pressure equal 7113.3
variable        pressureDamp equal 1000.0 # This is 1 ps
include		in.seed
variable        seed equal 745823

units		real
atom_style	full

read_restart	restart.lmp.${pid}
read_restart	restart.lmp.1
Reading restart file ...
  restart file = 30 Jul 2021, LAMMPS = 30 Jul 2021
  restoring atom style full from restart
  orthogonal box = (0.17310241 0.073073696 0.13859384) to (19.826899 19.926927 20.561404)
  2 by 4 by 4 MPI processor grid
  restoring pair style lj/cut/tip4p/long/omp from restart
  restoring bond style harmonic/omp from restart
  restoring angle style harmonic/omp from restart
  972 atoms
  648 bonds
  324 angles
Finding 1-2 1-3 1-4 neighbors ...
  special bond factors lj:    0        0        0       
  special bond factors coul:  0        0        0       
     2 = max # of 1-2 neighbors
     1 = max # of 1-3 neighbors
     1 = max # of 1-4 neighbors
     2 = max # of special neighbors
  special bonds CPU = 0.002 seconds
  read_restart CPU = 0.008 seconds
include 	in.setup
variable	out_freq equal 1000
variable	out_freq2 equal 10000
variable	out_freq3 equal 1000

timestep	2.0

neigh_modify    delay 7 every 1

include		in.tip4p
# This is TIP4P/Ice

# create groups ###
group ox type 2
324 atoms in group ox
group hy type 1
648 atoms in group hy

# set charges - beside manually ###
set group ox charge -1.1794
Setting atom values ...
  324 settings made for charge
set group hy charge 0.5897
Setting atom values ...
  648 settings made for charge

# ### TIP3P Potential Parameters ###
pair_style lj/cut/tip4p/long/omp 2 1 1 1 0.1577 8.5
pair_coeff 1 1*2 0.000 0.000
pair_coeff 2 2 0.21084 3.1668
bond_style  harmonic
bond_coeff  1 450 0.9572
angle_style harmonic
angle_coeff 1 55 104.52
kspace_style pppm/tip4p/omp 1.0e-5
pair_modify tail yes

thermo          ${out_freq}
thermo          1000
thermo_style    custom step temp pe etotal epair emol press lx ly lz vol pxx pyy pzz pxy pxz pyz enthalpy

restart 	${out_freq3} restart.lmp.${pid} restart2.lmp.${pid}
restart 	1000 restart.lmp.${pid} restart2.lmp.${pid}
restart 	1000 restart.lmp.1 restart2.lmp.${pid}
restart 	1000 restart.lmp.1 restart2.lmp.1


include         in.dump
dump            myDump all atom ${out_freq2} dump.water.${pid}
dump            myDump all atom 10000 dump.water.${pid}
dump            myDump all atom 10000 dump.water.1
dump            myDump2 all dcd ${out_freq2} dump.dcd
dump            myDump2 all dcd 10000 dump.dcd
dump_modify     myDump append yes
dump_modify     myDump2 append yes


variable natoms 	equal  "count(all)"                        # NUMBER ATOMS
variable H      	equal  "enthalpy/v_natoms"                 # ENTHALPY-per-atom
variable Vol      	equal  "vol/v_natoms"                 # volume-per-atom
fix AVG all 		ave/time ${out_freq} 1 ${out_freq} v_Vol v_H file vol_enthalpy.dat
fix AVG all 		ave/time 1000 1 ${out_freq} v_Vol v_H file vol_enthalpy.dat
fix AVG all 		ave/time 1000 1 1000 v_Vol v_H file vol_enthalpy.dat


timer           timeout 02:55:00 every 1000
New timer settings: style=normal  mode=nosync  timeout=02:55:00

fix 		1 all shake 1e-6 200 0 b 1 a 1
       0 = # of size 2 clusters
       0 = # of size 3 clusters
       0 = # of size 4 clusters
     324 = # of frozen angles
  find clusters CPU = 0.001 seconds
fix             2 all nph aniso ${pressure} ${pressure} ${pressureDamp}
fix             2 all nph aniso 7113.3 ${pressure} ${pressureDamp}
fix             2 all nph aniso 7113.3 7113.3 ${pressureDamp}
fix             2 all nph aniso 7113.3 7113.3 1000
fix             3 all temp/csvr ${temperature} ${temperature} ${tempDamp} ${seed}
fix             3 all temp/csvr 133.97 ${temperature} ${tempDamp} ${seed}
fix             3 all temp/csvr 133.97 133.97 ${tempDamp} ${seed}
fix             3 all temp/csvr 133.97 133.97 100 ${seed}
fix             3 all temp/csvr 133.97 133.97 100 745823


run             250000
PPPM initialization ...
  extracting TIP4P info from pair style
  using 12-bit tables for long-range coulomb (../kspace.cpp:340)
  G vector (1/distance) = 0.37239655
  grid = 24 24 24
  stencil order = 5
  estimated absolute RMS force accuracy = 0.0034833402
  estimated relative force accuracy = 1.0489976e-05
  using double precision FFTW3
  3d grid and FFT values/proc = 3211 432
Last active /omp style is kspace_style pppm/tip4p/omp
Neighbor list info ...
  update every 1 steps, delay 7 steps, check yes
  max neighbors/atom: 2000, page size: 100000
  master list distance cutoff = 10.8154
  ghost atom cutoff = 10.8154
  binsize = 5.4077, bins = 4 4 4
  1 neighbor lists, perpetual/occasional/extra = 1 0 0
  (1) pair lj/cut/tip4p/long/omp, perpetual
      attributes: half, newton on, omp
      pair build: half/bin/newton/omp
      stencil: half/bin/3d
      bin: standard
Per MPI rank memory allocation (min/avg/max) = 10.19 | 10.19 | 10.19 Mbytes
Step Temp PotEng TotEng E_pair E_mol Press Lx Ly Lz Volume Pxx Pyy Pzz Pxy Pxz Pyz Enthalpy 
25750000    143.02184   -4967.0131   -4691.1834   -4967.0131            0    7356.1391    19.653796    19.853854     20.42281     7969.054    6693.6522    7665.0393    7709.7259   -120.08206    174.75413    77.827113   -3836.2494 
25751000    134.91813   -4976.3268   -4716.1258   -4976.3268            0    6142.5124     20.00651    19.871814       20.222    8039.5722    4601.1006     6175.687    7650.7495    344.40271    491.94059   -1541.9557   -3995.9229 
25752000    137.60533   -4977.7938   -4712.4104   -4977.7938            0    5905.3624    19.762133    19.822061    20.484814    8024.4386    7007.1146    5245.1341    5463.8386   -432.46955   -591.00945    728.77113   -4021.3164 
25753000    132.17526   -4976.0507   -4721.1396   -4976.0507            0    6974.5621    19.643143    19.905104    20.550848    8035.3571    7332.0673    6907.4231    6684.1958   -188.36252    406.47817   -595.22088   -3903.8085 
25754000    129.52906   -4984.9239   -4735.1162   -4984.9239            0     6491.266    19.771371    19.845093     20.44542    8022.0609    8056.0849    4392.1595    7025.5537    300.02321    670.35985   -156.03865   -3975.6801 
25755000    131.10668   -4964.5408   -4711.6905   -4964.5408            0    6795.5381    19.719589    19.931607    20.352592    7999.4456    7163.2784    6555.0467     6668.289     -253.351    916.76388   -909.26074   -3918.8978 
25756000    134.82412   -4962.3783   -4702.3587   -4962.3783            0    7414.4538     19.60768    19.910753    20.504349    8004.9731    7342.0222    7352.7297    7548.6093   -548.57502    489.55786    -106.5252   -3836.7633 
25757000    133.03805   -4969.8872   -4713.3122   -4969.8872            0    6757.4597    19.718343    19.727376    20.590559    8009.5453    5698.9031    7711.7415    6861.7343   -172.71307    101.50119    527.12536   -3923.9665 
25758000     136.5362   -4969.3299   -4706.0084   -4969.3299            0    8147.5094    19.901134    19.655433    20.407523    7982.7167    6638.9396    9150.0733    8653.5152   -89.410309   -229.19512    549.28236   -3757.4775 
25759000    136.72473   -4958.4916   -4694.8065   -4958.4916            0    6995.3349    19.777195    19.753446    20.446902    7987.9452     4949.117    8765.4348    7271.4529    42.140709    474.70161      864.576    -3879.878 
25760000    134.32495   -4958.3514   -4699.2945   -4958.3514            0      8507.58    19.627772    19.880031    20.370962    7948.7639    8966.5354    7539.7658    9016.4389    323.80381    250.80362    912.19026   -3713.0569 
25761000    132.40308   -4971.2677   -4715.9172   -4971.2677            0    6909.0946    19.772794     19.80309    20.426034    7998.0675    7342.3183    6829.7004    6555.2652    211.19805    578.24253     578.5349   -3910.0155 
25762000    138.57727   -4957.9976   -4690.7397   -4957.9976            0    5882.5994    19.718542    19.968558    20.401959    8033.2887    5405.3316     6119.993    6122.4734   -87.462616   -1262.5823    585.49762   -4001.5504 
25763000    139.55063   -4966.1964   -4697.0613   -4966.1964            0    5567.0082    19.873403    19.694664    20.593829    8060.4246    4980.5875    6426.0524    5294.3846   -405.97321    351.55601    -979.1718   -4042.6427 
25764000    133.60257   -4974.9825   -4717.3187   -4974.9825            0    7324.3589    19.721021     19.76523    20.452452    7972.1721    7807.0715    6729.7711    7436.2341     196.4264    961.34942   -602.91124   -3865.7451 
25765000    134.10755   -4973.5414   -4714.9037   -4973.5414            0    7212.7762    19.771988    19.850124    20.289469    7963.1381    5809.2044    8578.5758    7250.5485    486.26247    918.37888   -1050.8138   -3877.2537 
25766000     129.6058   -4963.6545   -4713.6989   -4963.6545            0     7879.737    19.758737    19.844317    20.387657    7993.9725    8012.9191    7603.5886    8022.7034   -920.55305    1107.0561    483.51241   -3795.0485 
25767000    130.83945   -4965.2194   -4712.8845   -4965.2194            0    7474.9577    19.727144    19.714128      20.5208    7980.6096    5920.3357    8867.0396    7637.4978    159.99374    174.61889    362.68343   -3842.8816 
25768000     129.8827   -4978.2471   -4727.7574   -4978.2471            0    6476.6539     19.90844      19.6959    20.430919    8011.2625     4764.382    8201.9701    6463.6097   -294.00127    187.65202    1088.4909   -3971.0508 
25769000    133.63316   -4975.6127   -4717.8899   -4975.6127            0    6123.4361    19.833102    19.876989    20.407838    8045.2255    5352.0228    5991.1529    7027.1325    -526.8529    516.82656    255.35387   -3999.4188 
25770000    128.70699   -4961.9193    -4713.697   -4961.9193            0    6957.7863    19.862288    19.864736    20.263816    7995.2734    7168.2705    6167.8819    7537.2065     869.0001   -85.543714    401.70281   -3902.3992 
25771000    128.40939   -4979.2967   -4731.6484   -4979.2967            0    7685.9419     19.77244    19.740191    20.552771    8021.9878    7980.3189     8065.592    7011.9147   -314.14228    605.62473    415.97667   -3832.4511 
25772000     134.2598   -4968.1131   -4709.1818   -4968.1131            0    8582.8487    19.762814    19.720781     20.45222    7971.0098    7356.7838    9879.1157    8512.6465   -156.50727    793.52168   -868.51286   -3711.4342 
25773000    126.28289   -4965.8858   -4722.3386   -4965.8858            0    8634.7733    19.772404    19.848402    20.249743    7947.0244    7387.2392    8099.3927    10417.688   -555.60733    286.53583    479.27393   -3721.5753 
25774000    142.59459   -4958.7481   -4683.7425   -4958.7481            0    8092.1329    19.843173    19.678881    20.419671    7973.7069    8177.9096    7725.9748    8372.5143   -278.51746     1303.599   -563.19429   -3742.7218 
25775000    133.48087   -4955.0352   -4697.6061   -4955.0352            0    7120.1126    19.682256    19.989443    20.372509    8015.3054    7726.9757    6003.5265    7629.8355    -735.4462    504.51392    699.87012   -3865.3005 
25776000    146.84843   -4982.0667   -4698.8572   -4982.0667            0     7407.228    19.731821    19.768908    20.504205    7998.2097    7025.0629    8163.3684    7033.2528     29.50225    358.26861    888.87421    -3834.836 
25777000    141.89085   -4967.8258   -4694.1773   -4967.8258            0    7953.0167    19.760769    19.812014    20.471619    8014.6518     6178.765    9915.5775    7764.7077   -82.950439    231.75661    607.92325   -3764.5852 
25778000    133.86725   -4973.4796   -4715.3054   -4973.4796            0     8681.544    19.718694    19.693465    20.485663    7955.1856    8656.6231    9243.9519    8144.0571   -369.70526    686.71837   -1032.2525   -3708.0881 
25779000    139.94152   -4981.7702   -4711.8812   -4981.7702            0    7329.0213    19.715111    19.763679     20.55665    8009.7578    7882.8799    7190.2314    6913.9526    554.22506    414.32524   -412.24018   -3855.7481 
25780000    132.14638   -4958.1166   -4703.2612   -4958.1166            0     6877.312    19.846011    19.673956     20.52704    8014.7735    6793.8087    7675.2957    6162.8316    49.056403    -74.26917   -800.99822   -3899.3911 
25781000    135.58448   -4952.4063   -4690.9202   -4952.4063            0    7774.3022     19.73423    19.658782    20.524704    7962.5779    7927.4386    8340.4677    7055.0003   -13.418476    17.722888    599.52595   -3788.1214 
25782000    131.04213   -4957.7365   -4705.0107   -4957.7365            0    7205.3793    19.794337     19.79713    20.450748    8014.0564    6812.7055    6923.9721    7879.4604     212.7794   -511.33203    487.13923   -3862.8691 
25783000    137.76477   -4980.4439   -4714.7529   -4980.4439            0     6055.434    19.953077    19.692812     20.47988    8047.2044    4967.5974    7278.3662    5920.3384   -683.19916    187.49071    440.81839   -4004.0858 
25784000     130.3554   -4983.1701   -4731.7688   -4983.1701            0    7182.9758    19.767209     19.85856    20.552133     8067.705    6463.3566    8457.6301    6627.9405    437.40134    164.39343     655.9529   -3886.6256 
25785000     129.8697   -4988.1371   -4737.6725   -4988.1371            0    7610.8794    19.742607    19.897154    20.372962    8002.9413    8474.0823    6761.3132    7597.2428   -236.16974    432.77485   -1327.2346    -3849.371 
25786000     131.0156    -4978.715   -4726.0404    -4978.715            0    6726.2535    19.705639     19.84048    20.501779    8015.5665    7644.7143    6336.4728    6197.5733    77.638135     970.0763    843.77051   -3939.7493 
25787000    133.92262   -4971.3857   -4713.1047   -4971.3857            0    8153.2138     19.79652     19.74361     20.44395    7990.6151    7597.6925    9146.9586    7714.9901    -43.76872   -27.426137    593.31029   -3762.9705 
25788000    139.02867   -4979.7158   -4711.5873   -4979.7158            0    6545.3311    19.915212    19.746462    20.519254    8069.2986    7690.1404    6990.6738    4955.1793   -575.81225    -810.5072    570.69983   -3941.3167 
25789000     128.2867   -4978.4918   -4731.0801   -4978.4918            0     5958.591    19.949332    19.793639     20.47817    8086.2124    6303.9433    6235.2267    5336.6029   -104.67844     547.5935   -282.86205   -4028.3888 
25790000    137.21165   -4973.9862    -4709.362   -4973.9862            0    7827.8371    19.658772    19.771504    20.436619    7943.3761    8264.7793    7193.9072    8024.8247    225.75988   -116.77947    598.83887   -3802.5385 
25791000    135.21568   -4970.1586   -4709.3838   -4970.1586            0    7509.2302    19.796096    19.787008    20.398209    7990.0912    8939.9693    7163.8691    6423.8522    224.89416    1693.5491   -604.75748   -3834.3536 
25792000    133.96822   -4980.2038   -4721.8348   -4980.2038            0    6746.1803    19.787921    19.898627    20.361348    8017.3308    7471.0731     5528.278    7239.1897    261.88996    -47.01359     -30.4716   -3933.0407 
25793000    138.44601   -4969.5982   -4702.5934   -4969.5982            0    6812.7765    19.891683    19.922893    20.253606    8026.5016    5613.2919    6718.3905    8106.6473   -289.51596    131.90943   -462.54485   -3905.1014 
25794000    129.23964   -4978.4529   -4729.2034   -4978.4529            0    7099.8577    19.849375    19.740956    20.395566    7991.9137    5122.9869    9765.9521    6410.6339   -358.20863   -379.18086    208.25697   -3901.6876 
25795000    130.68964   -4982.9106   -4730.8646   -4982.9106            0    7144.9212    19.838974    19.836633    20.304042    7990.4211    7101.7465    7387.9072      6945.11    234.83143    29.831238    18.530071    -3898.252 
25796000    129.38553   -4972.4717   -4722.9408   -4972.4717            0    7100.4122     19.74743    19.883131     20.39587    8008.2493    8034.3685    6377.4657    6889.4025    80.760557   -282.13329   -1045.4341   -3893.6688 
25797000     130.9452   -4969.4056   -4716.8667   -4969.4056            0    7608.4232    19.776696    19.768104    20.500234    8014.5214    8630.2435    7796.0117    6399.0143   -489.22323   -99.639026    -927.4579    -3827.567 
25798000     133.6807   -4983.6479   -4725.8334   -4983.6479            0     7588.398    19.832909    19.637557    20.513181     7989.266    9479.7723    6466.6242    6818.7975   -354.70791    1092.0304   -422.63127   -3841.6693 
25799000    134.61936   -4969.2081   -4709.5833   -4969.2081            0    6930.2346    19.908883    19.626653    20.515419    8016.2921     5944.326    8542.0096    6304.3683   -123.45982    1239.2517    695.25125   -3899.3738 
25800000    130.66629    -4981.697   -4729.6961    -4981.697            0    6794.0413    19.893026    19.875137    20.323134    8035.2922    6242.7103    7069.5096    7069.9039   -205.06486    -212.8001   -51.299107   -3933.5262 
25801000    137.63032    -4946.386   -4680.9543    -4946.386            0    8015.0308    19.857238    19.813029    20.343515    8003.7904    8702.7365    6712.6664    8629.6894   -241.95428    178.32429    972.57019   -3745.3833 
25802000     126.9911   -4971.8398   -4726.9268   -4971.8398            0    6110.8448    19.785735    19.917102    20.394838    8037.0857    5523.6388    6883.8824    5925.0133   -567.31747    359.83534    275.85705   -4010.6585 
25803000    130.18787   -4990.5585   -4739.4802   -4990.5585            0    6350.3143    19.828955    19.964881     20.37025    8064.2301    9169.0662    3844.3612    6037.5155   -376.09762    1568.2594   -176.00091   -3992.6292 
25804000    135.92186   -4967.6091   -4705.4724   -4967.6091            0    6029.7245    19.732926    19.889856    20.500076    8045.9735    6074.5971    6640.2854    5374.2908   -682.72575    659.57711     505.3224   -3997.9308 
25805000    130.54806   -4962.6966   -4710.9237   -4962.6966            0    6758.4983    19.604594    20.005241    20.456315    8022.8564    6712.5184    6257.5555    7305.4209    134.71259    650.21284   -99.276408   -3920.1447 
25806000    139.07688   -4958.7198   -4690.4984   -4958.7198            0    7364.7141    19.709626    19.974114    20.320393    7999.7794    8730.4038    5651.8281    7711.9104    808.96166   -750.79274    301.50989   -3831.2676 
25807000    131.03476   -4978.5573   -4725.8458   -4978.5573            0    7055.4696    19.762806    19.779859    20.412946    7979.5334    6573.4525    7226.8986    7366.0575    -408.2825    323.67176   -533.84921   -3904.7774 
25808000    135.44066   -4973.7705   -4712.5618   -4973.7705            0    7451.3808    19.718352     19.84729    20.416808    7990.2373     7693.224    6750.2123    7910.7062     188.7577    333.17516   -315.03101   -3844.2568 
25809000    132.50512   -4974.3602    -4718.813   -4974.3602            0    5830.9738    19.726895    19.900187    20.480869    8040.1521    6401.9138     5270.026    5820.9817   -399.51969    629.99559   -926.08946   -4035.0883 
25810000    138.89665   -4980.7774   -4712.9035   -4980.7774            0    8689.8648    19.706014    19.762844    20.469405     7971.746    10942.467    7308.5192    7818.6077    43.038975   -56.084903    117.65527   -3702.6221 
25811000    134.16793   -4966.7707   -4708.0165   -4966.7707            0    8124.7854    19.748578    19.623476     20.66425    8008.1354    8533.0325    9412.7524    6428.5714   -395.64098    469.40723   -120.20734   -3759.1193 
25812000    140.67343   -4963.2402   -4691.9397   -4963.2402            0    7629.3423    19.791625    19.853506    20.421196    8024.1646    7300.0379    8030.6056    7557.3835    26.833447   -123.49837    278.98898   -3799.1219 
25813000    139.01338   -4969.7218   -4701.6228   -4969.7218            0    6887.8392    19.918185    19.747208    20.415884    8030.1499    5606.1084    7301.7226    7755.6865   -124.64006    660.83169    269.88355   -3894.9776 
25814000    131.74619   -4974.2566    -4720.173   -4974.2566            0    6185.2684    19.862784    19.923138    20.286026    8027.7688    5306.5132    5543.2743    7706.0176   -847.32962    1214.6121   -994.25453   -3996.0218 
25815000    135.83889    -4985.539   -4723.5623    -4985.539            0    6897.6437    19.761507    19.891187    20.384534    8012.7489    6028.4726    6767.4492    7897.0093   -492.37191    17.647087    108.25034   -3917.5194 
25816000    141.22652   -4960.7511   -4688.3838   -4960.7511            0    6546.9241    19.668685    19.843816    20.407424    7965.0534    8407.7397    5730.9338    5502.0989   -43.274185   -574.78672   -30.773412   -3927.8792 
25817000    133.65412   -4977.6499   -4719.8867   -4977.6499            0     6440.161    19.697647    19.917166    20.378522    7994.9283    6587.0782    6352.0285    6381.3765    -163.5214    678.15426   -434.84305   -3968.9779 
25818000    135.60862    -4979.037   -4717.5044    -4979.037            0    7172.1139    19.749107    19.787523     20.52348    8020.2865    7872.9912    7028.0131    6615.3374   -512.02828   -539.23188    273.16799   -3878.5991 
25819000    124.33162   -4968.8534   -4729.0694   -4968.8534            0    8177.5574    19.557087    19.956107    20.492566    7997.9068     11030.56     5615.011    7887.1012    256.98818   -1477.1277   -134.56397   -3775.2287 
25820000    136.06036   -4971.5653   -4709.1614   -4971.5653            0    6415.8555    19.749621    19.744121    20.568024     8020.273    4900.8187    7872.0768     6474.671   -235.86879    1041.9123    578.43106   -3958.7152 
25821000     130.1647   -4956.9703   -4705.9367   -4956.9703            0    8909.7521    19.748315    19.659153    20.543196    7975.5905    8806.1613    9397.7705    8525.3244    137.45597    54.613328   -1375.0741   -3669.5917 
25822000    145.65863   -4961.0679    -4680.153   -4961.0679            0    6630.0491    19.791194    19.807353    20.422333    8005.7823    5600.7972    7191.6374    7097.7126   -353.46259   -55.345819   -489.07958   -3906.0542 
25823000    128.45629   -4986.5618   -4738.8231   -4986.5618            0    7204.1281    19.968602    19.807652    20.314345    8034.9555     6614.684    6993.7099    8003.9902    115.40229   -113.86047    -395.9958   -3894.6319 
25824000    126.31798   -4972.4526   -4728.8378   -4972.4526            0    5844.9165    19.832394    19.846378    20.396826    8028.2152    5640.3683    5329.0051    6565.3761    21.977282    1211.5784   -353.86247   -4044.4958 
25825000    130.90088   -4970.2424    -4717.789   -4970.2424            0    8706.1832    19.691331    19.787517    20.505267    7989.7246    7850.5594    9710.2278    8557.7625   -675.21167    982.64489   -686.79196   -3703.3277 
25826000    139.29215   -4985.2813   -4716.6447   -4985.2813            0    5865.1269     19.73626    19.925607    20.407316    8025.3191    6488.2476    4253.5001     6853.633   -11.279266   -288.02837   -662.21228   -4030.1841 
25827000    129.69889   -4988.3767   -4738.2415   -4988.3767            0    6815.7787    19.869169    19.895996    20.294076    8022.5912    5834.0437    6916.5361    7696.7563   -108.61605    330.60274   -51.393898   -3940.7868 
25828000    137.87345   -4964.1784   -4698.2779   -4964.1784            0    7416.5471     19.86108    19.702653    20.555423     8043.665    8014.9697    6879.2118    7355.4598    247.42316    1217.5052    202.59309   -3828.2531 
25829000    132.18959   -4981.5218    -4726.583   -4981.5218            0    6003.9965    19.779427    19.809401    20.526162    8042.5318     5617.506    6346.6772    6047.8065    -438.9769   -573.72415   -995.10862   -4022.3618 
25830000    139.26616   -4967.1705    -4698.584   -4967.1705            0    7632.3682    19.761595    19.819099    20.332071    7963.1981    7817.5151    6882.4454    8197.1442    452.00674   -564.34759   -133.62309   -3812.1983 
25831000    138.14765   -4971.2034    -4704.774   -4971.2034            0    7370.2151    19.836419    19.900161    20.240667    7989.9616     7630.946    6799.6235    7680.0759    335.71264     714.9158   -589.78606   -3845.9568 
25832000    131.82128    -4984.052   -4729.8236    -4984.052            0    7076.3889    19.729709    19.726855     20.65458    8038.8678    7172.7918    7043.5051    7012.8698    -155.8183    363.10211    486.53196   -3900.1973 
25833000    138.36978   -4971.2836   -4704.4259   -4971.2836            0    8369.4964    19.716058    19.935856    20.309949    7982.9571    8131.4496    8057.9144    8919.1251   -25.413439    943.85045     718.4304    -3730.022 
25834000    135.55484   -4949.7834   -4688.3545   -4949.7834            0    8377.1272    19.611129    19.959171    20.383248    7978.4491    9640.9161    6744.2457    8746.2198   -127.92072     608.2011    99.033954    -3713.613 
25835000    132.70496   -4984.8246   -4728.8919   -4984.8246            0    5645.6805     19.80014    19.813389    20.475588    8032.7344    6397.0813    5122.2471    5417.7132   -700.61258   -637.33888    972.98581    -4067.505 
25836000    129.66411   -4972.3674   -4722.2993   -4972.3674            0    7103.4627    19.735597     19.76407    20.605303    8037.2161    6573.6888    7398.3311    7338.3681   -373.35166   -75.506958    111.93348   -3889.6701 
25837000     131.2461   -4974.4177   -4721.2985   -4974.4177            0    7677.8953    19.781814    19.865295    20.415564     8022.736    8653.7296    6389.9607    7989.9957    329.74663    773.47934    1272.9354   -3822.9589 
25838000    134.43467   -4971.8187   -4712.5501   -4971.8187            0    7224.4849    19.768613    19.740677    20.473571    7989.7253    7307.8989    7320.9398     7044.616   -412.09771    100.13656     342.3251   -3870.7391 
25839000    130.90413   -4987.6248   -4735.1652   -4987.6248            0    8073.3581    19.619123    19.948984    20.335094    7958.7813    8950.2277    6526.4667      8743.38   -407.29363     326.1791    156.54149   -3798.0851 
25840000    131.30718   -4969.3926   -4716.1557   -4969.3926            0    8124.3021    19.659214    19.863358    20.399459    7965.9481    9972.4675    7074.6972    7325.7416   -313.52725    126.28769    62.777809   -3772.3134 
25841000    132.75151   -4976.8364   -4720.8139   -4976.8364            0      7693.51    19.788958    19.940149    20.292601    8007.3542    9399.8071    5394.8657    8285.8573   -312.78153    586.90317    409.57046   -3822.3731 
25842000    135.65959   -4981.3757   -4719.7447   -4981.3757            0    6820.8165    19.760092    19.818653    20.453745    8010.0631    6786.2673    6344.4938    7331.6883   -16.073256    398.18331   -151.57044   -3922.9468 
25843000    141.00145   -4974.5382    -4702.605   -4974.5382            0    6023.1748    19.732605    19.828171    20.491573    8017.5628    5431.1291    5919.9233    6718.4721   -628.15808    27.521756     1107.552   -3998.3277 
25844000     134.7699   -4970.0942   -4710.1791   -4970.0942            0    7729.3437    19.849566    19.706006    20.388311    7975.0035    7417.8592    8328.6451    7441.5268   -386.67611    140.28188    734.66078   -3811.2004 
25845000    127.14683   -4982.4197   -4737.2063   -4982.4197            0     7320.877    19.842327    19.666202    20.586739    8033.4231    7194.6707    8035.7301    6732.2301   -137.80832    268.53426   -446.84513    -3879.498 
25846000    135.66486   -4969.8216   -4708.1805   -4969.8216            0    7262.6333    19.748525    19.749788    20.452222    7976.9632    6581.0708    7530.2881     7676.541   -71.167634   -478.63756   -16.223475   -3863.2761 
25847000    137.58899   -4977.6109   -4712.2589   -4977.6109            0    8194.2458    19.735245    19.671574    20.541287    7974.6069    7591.2033     9410.469    7581.0651    78.891999    970.01128   -300.52511   -3759.2562 
25848000    136.37551   -4973.3514   -4710.3398   -4973.3514            0    7408.1703    19.770592    19.794022    20.457491    8005.8253    8586.4778     5793.838    7844.1951    534.99912    462.39806   -156.82325   -3845.3859 
25849000    134.94997   -4979.2064   -4718.9441   -4979.2064            0    6961.0604    19.831662    19.762238    20.405381    7997.2366    6774.2452     7362.002    6746.9341   -839.12646     341.4481    350.37715   -3907.0652 
25850000    132.93655   -4971.3969   -4715.0175   -4971.3969            0    8782.2793    19.813882    19.794716    20.266172    7948.5986    8403.4469    8372.1735    9571.2174    221.66792    86.514689    802.89477   -3696.9568 
25851000    129.60596   -4982.1276   -4732.1716   -4982.1276            0    7897.0019    19.717546    19.798573    20.382073    7956.7389    7133.8903    8307.7433    8249.3722   -205.79777    375.20237   -493.40334   -3815.7966 
25852000    132.07604   -4964.4348   -4709.7151   -4964.4348            0    8718.5678    19.773632    19.739516    20.438423    7977.5645    8741.9639    9706.1572    7707.5823   -94.312465    1324.7792   -637.64164   -3695.3568 
25853000    132.89473   -4963.2747    -4706.976   -4963.2747            0    6258.7002     19.79552    19.701588    20.514128    8000.5752    7204.6695    6972.0989    4599.3321   -227.76079    199.95354     1000.278   -3976.7097 
25854000    138.55406   -4981.5089   -4714.2957   -4981.5089            0    5414.4123    19.811969    19.748605    20.641246    8076.0682    6072.3337    4513.5097    5657.3936    476.16593   -39.403916   -131.07241   -4076.5799 
25855000    142.06499   -4970.7664   -4696.7821   -4970.7664            0    7030.7731    19.889505    19.830862    20.436448     8060.667      6960.37     6717.256    7414.6933   -301.30651   -1175.8692    1032.1133   -3870.2686 
25856000    129.80815   -4975.1538   -4724.8079   -4975.1538            0    6791.6215    19.736928     19.76801    20.443157    7976.0977    6355.7229    6787.0983    7232.0433    56.084729   -42.514662   -334.41587   -3934.7847 
25857000    135.15483   -4975.8566   -4715.1991   -4975.8566            0    6336.2139    19.767666    19.770702     20.51298    8016.8958    4561.4944    7461.9211    6985.2261    135.54973    40.664494   -472.93483   -3974.3804 
25858000    133.67407   -4967.6286   -4709.8269   -4967.6286            0    6426.8285    19.741323    19.841094    20.573583    8058.4554    6528.9792    6695.5469    6055.9595   -261.49902   -45.236087    323.91621   -3954.5183 
25859000    134.87179   -4971.7745   -4711.6629   -4971.7745            0    7968.2313    19.681595    19.879549    20.446484    7999.9163     7369.575    8878.8385    7656.2803   -29.784078    888.22603    388.71739   -3782.0048 
25860000    138.92935   -4967.5658   -4699.6288   -4967.5658            0    7214.1748    19.658413    20.029767    20.341547    8009.5543     9193.715    4568.8523    7879.9572    233.46627    1337.3356    -312.4051   -3856.9329 
25861000    136.50163   -4966.3367   -4703.0818   -4966.3367            0    6652.8672    19.838736    19.685898    20.594621    8043.0918    6145.3353    7960.9883     5852.278     518.8652   -139.44888    191.66785   -3922.6988 
25862000     135.4401   -4963.5081   -4702.3005   -4963.5081            0    6748.9329    19.951963    19.623922    20.442898    8004.1254    6870.3581    5678.7205    7697.7202   -315.24803    438.77078    703.95153   -3914.4843 
25863000    132.90782   -4978.8904   -4722.5665   -4978.8904            0     7657.231    19.815163    19.855154    20.257177    7969.8441    7991.8121    6552.5455    8427.3355   -498.99353   -288.09202   -242.99932   -3832.5513 
25864000    131.46627   -4964.0784   -4710.5346   -4964.0784            0    5454.5953    19.787108    19.914057    20.402406    8039.3971    6088.4656    4869.0502    5406.2703   -515.64844    1492.4919    -483.5599   -4071.0032 
25865000     135.1081   -4975.3315   -4714.7642   -4975.3315            0    6365.7789    19.778798     19.70504    20.560759    8013.3915    4732.3171    8253.8987    6111.1209   -500.09594   -7.5640375    53.514809   -3970.8141 
25866000    129.32603   -4979.9017   -4730.4856   -4979.9017            0    7192.9744    20.071906    19.565221    20.424717    8021.0165    4488.9357    10663.942    6426.0453   -16.794727   -964.11709   -529.83862   -3889.0637 
25867000     129.5616   -4984.9545   -4735.0841   -4984.9545            0    6603.4648    19.798565    19.765466    20.542047    8038.6756    6086.2445     7087.442    6636.7078   -122.98476     366.8557    542.03479   -3960.9214 
25868000    131.84499   -4976.0873   -4721.8131   -4976.0873            0    8067.7301    19.651595    19.672365    20.701331    8002.9969    7022.2177    9681.7984    7499.1741    315.89107    326.84857     53.10707   -3780.1839 
25869000    128.06719   -4982.5839   -4735.5955   -4982.5839            0    6456.2417    19.814688    19.770424    20.654112    8091.1406    6281.9847    6440.1586    6646.5818   -338.81041   -117.43565    636.59985   -3973.7526 
25870000    133.20229   -4965.9819     -4709.09   -4965.9819            0    7513.6609    19.863564    19.759928    20.354211    7989.0805    6570.5224    8042.9068    7927.5534    221.00978   -443.12349    481.74401   -3833.6543 
25871000    123.55328   -4971.4852   -4733.2023   -4971.4852            0    6185.7376    19.822201     19.87089    20.351184    8016.0213     5474.963    7228.1097    5854.1401   -753.46355     1440.385    602.28924   -4010.0559 
25872000    136.12744   -4961.1929   -4698.6596   -4961.1929            0    7235.8309    19.774035    19.661492    20.581177    8001.6949    6131.9021    8693.1503    6882.4403    381.30028   -912.92989    -201.9477   -3854.2634 
25873000    135.88168   -4973.1414   -4711.0822   -4973.1414            0    7817.1185    19.707107    19.662988    20.593587    7980.0277    8570.5351    8105.0979    6775.7225   -9.3054426   -1140.0929   -520.53323   -3801.3219 
25874000    133.87284   -4969.9491   -4711.7641   -4969.9491            0     8509.907    19.802266    19.778071     20.44225    8006.2197    9956.0717    7573.6045    8000.0449    5.7688713    850.15584    250.47718   -3718.1261 
25875000    138.53227   -4969.7227   -4702.5516   -4969.7227            0    6891.6049    19.820481    19.840455    20.431253    8034.5364     7890.197    6706.8124    6077.8053    398.69226   -859.60715    597.55304   -3895.0245 
25876000    126.84057   -4979.7329   -4735.1102   -4979.7329            0    5950.7815    20.006052     19.74199    20.350941    8037.7931    4776.6263    6066.8765    7008.8415    153.40285      659.267   -588.72918   -4037.5419 
25877000      135.842   -4977.9291   -4715.9463   -4977.9291            0    7572.8688    19.658461    19.695742    20.561498    7961.1648    8315.6836    6533.5521    7869.3707    64.485038   -108.54982    -311.8418   -3836.6952 
25878000    133.16291   -4975.2883   -4718.4724   -4975.2883            0     8394.222    19.761497    19.790657    20.381662    7971.1255    9456.7147    7804.4563    7921.4951   -87.523155    558.70144   -252.66783   -3742.6383 
25879000     137.9725   -4959.9624   -4693.8708   -4959.9624            0    6626.2556    19.733079    19.746682    20.615471    8033.0829     8291.357    6184.8058    5402.6042    -109.5335   -110.07609   -27.513908   -3917.5767 
25880000    129.47633   -4988.2062   -4738.5002   -4988.2062            0    7234.8878    19.779284    19.767947     20.47301    8004.8617    7923.8832    6489.9736    7290.8065    38.199728   -1004.8505   -755.24854   -3893.8799 
25881000     126.2976   -4979.3894   -4735.8139   -4979.3894            0    6376.4825    19.922544    19.770474    20.371139    8023.7464    4415.0429    7346.0301    7368.3743   -34.143205    142.11139    398.63326   -3989.6499 
25882000    137.37074    -4962.344    -4697.413    -4962.344            0    7000.5989    19.882593    19.827118    20.331076    8014.8052    7020.9385    5557.8451     8423.013    306.74761    137.32249   -586.33132    -3879.129 
25883000    133.29451   -4952.3652   -4695.2956   -4952.3652            0    8789.7308    19.873891    19.681864    20.469507    8006.7545    9917.4833    8387.7255    8063.9837   -293.95311    1346.6558    713.67409    -3668.916 
25884000    129.82873   -4981.5471   -4731.1615   -4981.5471            0    6248.9846    19.813071    19.809903    20.494956     8044.168    5387.9578     6592.995    6766.0011    733.01486    633.74218   -30.203521    -3998.056 
25885000    133.59637   -4966.8167   -4709.1649   -4966.8167            0    7037.3621    19.560633    19.898456    20.386414    7934.9304    8535.8338    5579.4622    6996.7902   -504.80189    57.063398   -78.835051   -3894.7815 
25886000    137.05451   -4973.9059   -4709.5847   -4973.9059            0    7407.5762    19.876115    19.791516    20.355617    8007.4611    7561.4677    7031.3435    7629.9174   -231.39665   -277.43049   -572.57007   -3844.5235 
25887000    131.37805   -4975.6835   -4722.3099   -4975.6835            0    7969.8886    19.790148    19.752313    20.404392     7976.101    6637.6656    9270.1369    8001.8633    199.71789   -446.89381    -169.8311   -3795.2266 
25888000    136.41046   -4990.5838   -4727.5048   -4990.5838            0    6001.9256    19.834619    19.866246    20.442441    8055.1281    5298.7951    6867.7597     5839.222     265.1499    245.15776    610.87091   -4022.4239 
25889000    122.56401   -4974.0463   -4737.6713   -4974.0463            0    7141.9815    19.773049    19.774846    20.466861    8002.7265    6732.7275    7545.6861    7147.5308   -413.30858   -191.26263    338.56535   -3904.1195 
25890000     137.4884   -4979.0334   -4713.8754   -4979.0334            0    5828.3832    19.880556    19.747765    20.548801    8067.3886     5383.187    6847.9672    5253.9954    462.60534    465.89808   -642.36277   -4028.1394 
25891000    132.25569   -4976.0881   -4721.0218   -4976.0881            0     6438.413    19.869449    19.734145    20.501339    8038.7099    5787.5427    7407.1324    6120.5639   -418.59837    50.759648    220.63161   -3966.2059 
25892000    131.21616   -4972.6014     -4719.54   -4972.6014            0    6795.4875    19.963444    19.776329    20.342028    8031.1068    5199.3025    8036.0721     7151.088    200.27005    537.45713    91.961218   -3923.6155 
25893000    136.11283   -4975.8578   -4713.3528   -4975.8578            0    7611.5871    19.792801    19.949194    20.130624    7948.5857    6726.3501    6695.5116    9412.8995   -142.97726    105.84093    319.19769   -3831.0026 
25894000    139.87479   -4987.3129   -4717.5526   -4987.3129            0    6273.6481     19.78593    19.956363    20.402871    8056.1794    6738.0494    5827.4485    6255.4463    268.00509    607.82092    422.31911   -3980.4547 
25895000    134.48612   -4981.6685   -4722.3007   -4981.6685            0    6523.6705    19.871687    19.855677    20.480487    8080.8998    7727.7891    5550.2445    6292.9779    105.80229    65.373346   -180.13945   -3953.4755 
25896000    126.64473   -4963.3117   -4719.0667   -4963.3117            0    7070.5192    19.602639    19.845533    20.446245    7954.0969    8077.8873    6065.2583     7068.412   -375.19345   -74.696821   -145.87932   -3898.8699 
25897000    132.19813   -4985.6817   -4730.7265   -4985.6817            0    6992.0407    19.835339    19.906493    20.303858    8017.0196    8291.9512    5970.7938     6713.377   -124.90601   -922.28189   -22.617982    -3913.217 
25898000    131.27111   -4974.5564    -4721.389   -4974.5564            0    8402.7524    19.596291    19.736846    20.601241    7967.9209    9351.8338    8556.6818    7299.7414    472.87887    884.68594   -736.49533   -3744.9559 
25899000    137.42448   -4974.0731   -4709.0384   -4974.0731            0    7813.1808    19.682125    19.885886    20.568899    8050.5949    7307.5833    8615.8193    7516.1398   -241.22632    2431.9532   -703.11757   -3791.6954 
25900000    136.41779    -4986.847   -4723.7538    -4986.847            0    6788.8957    19.728788    19.930027    20.469987    8048.7021     7160.592    7040.7072    6165.3879    174.86537    187.60691    487.41415   -3926.8592 
25901000    134.06974   -4959.0388    -4700.474   -4959.0388            0    6142.7266    19.775789    19.940545    20.439549    8060.1322    6465.2802    5231.4605    6731.4391   -365.31026    256.66863   -40.144412   -3978.4041 
25902000     136.8332   -4967.9101   -4704.0158   -4967.9101            0    7926.9004    19.712784    19.859781    20.387392    7981.4919    7652.8618    8440.2171    7687.6224   -20.334449    342.03381    214.09521   -3781.3098 
25903000    137.71527   -4982.3596   -4716.7641   -4982.3596            0    7856.6292    19.696276    19.672696    20.597023    7980.9106    7951.9035    7750.3289    7867.6553    33.874243   -488.73756    215.34089   -3802.3043 
25904000      136.491   -4977.3122   -4714.0779   -4977.3122            0    7781.9184    19.665976    19.816404    20.508276    7992.2586     8161.476    7535.0715    7649.2077   -184.15325    1950.3489    207.40815   -3807.0261 
25905000    129.93523   -4972.5456   -4721.9546   -4972.5456            0    6221.2981    19.812095    19.748375    20.518214    8027.8881    4888.1435    7062.9789    6712.7718    50.515501   -273.82684    1037.5738   -3993.5743 
25906000    124.27756   -4966.0338   -4726.3541   -4966.0338            0    7124.8084    19.813642    19.848006    20.369776    8010.6443    6297.8921    7755.6459    7320.8871   -146.29016   -510.81953     1672.308   -3893.9839 
25907000    137.27431   -4978.6393   -4713.8943   -4978.6393            0    6298.0106    20.006563     19.77459    20.328259    8042.2978    5200.0487    7105.9811    6588.0022   -147.78898    164.34975    217.97811    -3975.209 
25908000    125.86981   -4981.9698   -4739.2193   -4981.9698            0    6194.4408    19.840519    19.795132     20.49598    8049.7081    6206.8767    5547.1563    6829.2895   -821.18856    536.79124    237.24085   -4012.0122 
25909000    132.27165   -4981.8905   -4726.7935   -4981.8905            0    5820.7447    19.675512    19.970842    20.373701    8005.5718    5539.0986    5219.2705     6703.865    -160.1502   -86.269885   -207.29912   -4047.2038 
25910000    139.22542   -4985.5096   -4717.0016   -4985.5096            0     5960.715    19.507375    19.998815    20.586066    8031.1261    6325.9708    6460.5024    5095.6717   -505.14975   -65.974491   -1082.0917   -4018.8485 
25911000    135.76464   -4989.4688   -4727.6353   -4989.4688            0    7376.5167    19.758315    19.833473    20.504571    8035.2496    8662.3797     6251.524    7215.6463   -2.0707106    1556.5768    65.483107   -3863.2117 
25912000    131.91525   -4969.2152   -4714.8055   -4969.2152            0    6755.8491    19.632302    19.844243    20.568754    8013.3433     6717.548    7540.2459    6009.7533    243.78473    1470.3748    911.85916   -3925.2738 
25913000    134.27862   -4969.3476   -4710.3799   -4969.3476            0    6746.6781    19.792171    19.862792    20.365781    8006.3544    5071.7275    8070.0834    7098.2233    14.048562   -32.763588    198.07637   -3922.6077 
25914000    137.16099    -4989.796   -4725.2695    -4989.796            0    6641.6429    19.850736    19.742956    20.475412    8024.5638    6190.2058    7257.1757    6477.5471     107.5876   -174.04812    -48.51209   -3947.9978 
25915000    134.16425   -4977.9479   -4719.2008   -4977.9479            0    7761.5969    19.785514    19.899717    20.356421    8014.8551    8712.1397    7355.9356    7216.7155    27.023737   -1167.5138   -873.34759   -3811.9599 
25916000     138.8608   -4976.5102   -4708.7055   -4976.5102            0    7171.6248    19.633398    19.973023    20.388332    7995.0464    7009.2206    6642.0817     7863.572   -326.46584    1136.3072    -666.2237   -3872.4973 
25917000    136.86244   -4979.6434   -4715.6927   -4979.6434            0    6693.0244    19.785832    19.921861    20.386366    8035.7062    6909.5224    6183.5221    6986.0286    432.26149   -470.92095     356.2889   -3931.3203 
25918000      135.824    -4955.624    -4693.676    -4955.624            0    8024.1319    19.768496    19.915862    20.258412    7975.8713    7507.4756    7006.8498    9558.0702   -394.24457   -231.24881    190.64352   -3760.3097 
25919000    139.17746   -4973.6675   -4705.2521   -4973.6675            0     6613.374    19.889344    19.782053    20.463167    8051.2752    6224.5963    5795.6822    7819.8436   -248.77347     192.2531    260.00639   -3928.7124 
25920000    136.42175   -4975.6356   -4712.5348   -4975.6356            0    7393.6874    19.664387    19.792423     20.54631    7996.7441    8174.7853    6746.4796    7259.7974    427.20718    674.49136     365.3713   -3850.2511 
25921000    138.52317   -4977.2589   -4710.1053   -4977.2589            0    6988.5776    19.861845    19.740406    20.513467     8042.938    8133.0725    6294.5674     6538.093    55.600837   -408.34604   -511.86931   -3890.3591 
25922000    134.81677   -4986.8417   -4726.8363   -4986.8417            0    6072.6743    19.842353    19.700733    20.603224    8053.9839    5133.3413    7412.8645    5671.8171      33.9148   -55.804643   -180.05245   -4013.5454 
25923000    130.61327   -4983.2767   -4731.3781   -4983.2767            0    6932.8129    19.860889    19.711712    20.497117    8024.4597    7404.2044    6228.3089    7165.9255     97.93322    331.84134    537.55181   -3920.0413 
25924000    137.73335    -4983.793   -4718.1627    -4983.793            0    6848.2285    19.802895    19.750809    20.529618    8029.6101    9149.4144    5583.2786    5811.9925    493.40623    693.71235   -807.47372   -3916.2103 
25925000     132.3282   -4978.3257   -4723.1197   -4978.3257            0    7127.7342    19.697162      19.7985    20.566946    8020.5798    6826.3205    8679.6028    5877.2792   -258.10794    1188.1882    727.96271   -3889.3748 
25926000    135.44959   -4987.3008   -4726.0749   -4987.3008            0    7580.9849    19.805906    19.872358    20.241574    7966.8818    7038.5185    7674.1064    8030.3299   -671.50916    477.22005    -533.6594   -3845.2494 
25927000    133.07577   -4968.4311   -4711.7833   -4968.4311            0    7299.3726    19.862546    19.860051    20.306761    8010.4322    7426.7194    7057.7244    7413.6739    550.90994    417.38638    -146.4516   -3859.0419 
25928000    131.04385   -4969.5743   -4716.8452   -4969.5743            0    7092.8325    20.001305    19.696473    20.412145      8041.47    5449.9642    8087.3529    7741.1803   -58.999428    242.14434    -1303.542    -3885.022 
25929000    135.01981   -4961.9891    -4701.592   -4961.9891            0    7183.6424    19.814845    19.785727    20.487327    8032.0795    7257.1372    6618.7845    7675.0055   -190.58272    176.17539    31.213094   -3860.1027 
25930000    142.53706   -4980.8023   -4705.9076   -4980.8023            0    6910.1002    19.711292    19.859265    20.470892    8013.3672    7518.0707     6614.245    6597.9849    294.11419    557.71926    640.80592   -3898.3467 
25931000    131.94258   -4977.0023     -4722.54   -4977.0023            0    6390.8805     19.72371    19.889815    20.469693    8030.2802    7451.6636    5237.1993    6483.7788   -119.29687    897.57215    591.17483   -3974.0822 
25932000     127.8584    -4964.738   -4718.1523    -4964.738            0    6485.9993    19.707377    19.852534    20.596637    8058.2562    7023.1057      7536.34    4898.5523    -159.9695    430.98916   -660.22094   -3955.9086 
25933000    130.94343   -4985.2447   -4732.7093   -4985.2447            0    7876.5307    19.731548     19.75055    20.598832    8027.5489    8456.7357    8741.6701    6431.1865   -147.00504     47.78656   -1057.7718   -3810.5757 
25934000    130.15289   -4981.7363   -4730.7255   -4981.7363            0    8155.6858    19.837362    19.743361    20.441194    8005.9206    7902.4881    7409.8427    9154.7265   -367.77348    181.95094   -101.73245   -3778.4828 
25935000    141.54098   -4981.1213   -4708.1476   -4981.1213            0    6938.9581    19.804823     19.84635    20.441763    8034.7051    7090.1564    7058.2691    6668.4488   -214.42756    703.29043    70.839875   -3895.0549 
25936000    133.15716   -4961.3939   -4704.5891   -4961.3939            0    7268.6099    19.807053    19.872461    20.396685     8028.439    7044.7011    7212.0067     7549.122    34.210432   -1178.0704   -635.37873   -3853.5327 
25937000    128.63966   -4971.3936   -4723.3012   -4971.3936            0    5169.3402     19.83772    19.709445    20.608632    8057.7781     5652.702    5044.0654    4811.2532    68.889419    227.30378   -1060.9422   -4115.8291 
25938000    132.09332   -4958.3652   -4703.6121   -4958.3652            0    8192.3866    19.688549    19.681292    20.582993    7975.8288     7365.666     9659.879    7551.6149    257.87318    898.42064   -970.00073   -3750.6796 
25939000    128.80194   -4978.7435   -4730.3381   -4978.7435            0    7368.9083    19.820925    19.804598     20.38934    8003.7428    7637.4706    6818.1595    7651.0948    429.16413    1077.2138   -395.19928   -3870.1921 
25940000    138.16377   -4959.0688   -4692.6083   -4959.0688            0    7752.6074    19.603788    19.924308    20.407763    7971.1071    8370.4242    7777.2034    7110.1947   -209.19543   -743.89119   -741.48993   -3791.3645 
25941000    130.36179   -4970.1753   -4718.7616   -4970.1753            0    4740.9161    19.900547    19.799381    20.530833    8089.5278     5625.311    4591.0532    4006.3841    866.79612    95.331864   -193.15647   -4159.4404 
25942000    136.62077   -4969.4113   -4705.9267   -4969.4113            0    7566.0397    19.663586     19.80071     20.51888    7989.0866    8096.8985    7483.0549    7118.1656    4.2129193    2070.1607   -613.89366   -3824.3875 
25943000    142.70425   -4986.9124   -4711.6953   -4986.9124            0    7299.6437    19.929629    19.700072    20.324237     7979.603    6482.0713    7644.9834    7771.8763   -659.39227   -557.88416   -910.35363   -3862.2042 
25944000    138.88819   -4968.9062   -4701.0487   -4968.9062            0    7074.0068    19.899013     19.87747     20.23774     8004.877    6795.4298    5996.4831    8430.1075   -808.23306   -34.130858   -176.62123   -3875.2085 
25945000    135.21161   -4964.3901   -4703.6231   -4964.3901            0    8514.3331    19.768669    19.649481     20.35818    7908.0148     6802.854    9673.7677    9066.3775   -392.65785    499.44996    263.57355   -3721.6626 
25946000    134.84297   -4979.4111   -4719.3551   -4979.4111            0    7737.6415    19.838045    19.846082     20.34823    8011.2502    8032.2389    7186.1547    7994.5309    169.31146   -10.862805   -621.71678    -3815.321 
25947000    128.77038   -4965.7638   -4717.4193   -4965.7638            0    5771.1992    19.791997    19.808933    20.486209    8031.7889     4469.029    6925.4701    5919.0986    58.341761    1285.4174    1038.6469   -4041.4075 
25948000    133.30807   -4961.5376   -4704.4417   -4961.5376            0     7531.736    19.619835    19.667354      20.6035    7950.2771    7780.7967    8649.5651    6164.8462   -501.92906     1218.893   -294.87707   -3831.1623 
25949000    137.67926   -4974.5546   -4709.0286   -4974.5546            0    6270.6939    19.907519    19.672506     20.53891    8043.6695    6477.1043    6512.2492    5822.7282    -276.4434   -120.03511   -1028.2268   -3973.4218 
25950000    126.86483     -4966.65   -4721.9805     -4966.65            0    7697.8406    19.863736    19.793464     20.40851    8024.0576    8014.3492    7758.1756    7320.9969   -963.01807   -457.78504    105.41881   -3821.1588 
25951000    131.69564   -4974.3662   -4720.3801   -4974.3662            0    6929.3245    19.707837    19.823706    20.471147    7997.7157     5940.558    8307.6539    6539.7616   -522.19014      442.469   -307.11822   -3912.1542 
25952000    135.32678   -4973.6559   -4712.6668   -4973.6559            0     7211.396    19.759699    19.818016    20.443731    8005.7248    7164.8651    7364.2224    7105.1006   -406.11802     310.0144    416.35759   -3870.6982 
25953000    129.57005     -4979.64   -4729.7532     -4979.64            0    6210.2244    19.811409    19.876984    20.306477    7996.5091    5372.0211    6551.2697    6707.3823    -384.9374   -23.097468   -788.05874   -4005.5114 
25954000    130.22289   -4979.1221   -4727.9763   -4979.1221            0     7345.995    19.831875    19.825172    20.392704     8017.806    8256.7627    5695.2549    8085.9674   -137.91742   -665.19187   -51.487016   -3868.9983 
25955000    131.02368   -4980.6274   -4727.9372   -4980.6274            0    8658.2801    19.662487     19.67625    20.619144    7977.2167    8852.3259    9101.5853    8020.9289   -367.28202     774.1357    465.80443   -3720.6371 
25956000    127.80533   -4979.2698   -4732.7865   -4979.2698            0    7722.9952    19.798328    19.768287    20.519431    8030.8752    6987.7237    8608.0683    7573.1936   -103.72186   -517.44627    133.07291   -3828.2532 
25957000    129.58853    -4966.808   -4716.8856    -4966.808            0    6931.7869    19.710281    19.754943    20.478929     7973.993     7399.258    6382.3936    7013.7091    -205.0703    1459.1907    285.48623   -3910.7707 
25958000    136.69984   -4970.7782    -4707.141   -4970.7782            0    7202.2706    19.606303    19.607153    20.811549     8000.454    8956.6685    7495.1575    5154.9856   -13.003851    20.046225   -277.39961   -3866.7915 
25959000     134.9188   -4975.4942    -4715.292   -4975.4942            0    7433.9555    19.690562    19.875115    20.443433    8000.5822    8006.1044    6788.4992    7507.2628   -669.36113    472.60399    559.80946    -3847.896 
25960000    141.57821   -4971.6102   -4698.5648   -4971.6102            0    7811.7239    19.708347    19.980767    20.321551    8002.3805    9586.1896    5789.5531    8059.4288    23.683147   -610.52328   -571.61895   -3786.8857 
25961000    137.10303   -4980.7538   -4716.3391   -4980.7538            0    7155.5704    19.717619    19.901191    20.440997    8021.1311    7126.2063    7359.4741    6981.0308    193.54754    954.56362    733.38429   -3879.2807 
25962000    135.97513   -4975.8463   -4713.6068   -4975.8463            0    8015.0085     19.72341    19.752708    20.486289    7981.2692    7784.2718    8420.7559    7839.9978   -239.85756   -292.46328   -234.13769   -3780.6708 
25963000    137.37884   -4967.0237    -4702.077   -4967.0237            0    7943.4028    19.755792    19.859693    20.392751    8000.9732    8496.5028    7206.0834    8127.6223   -485.28793    566.35583   -265.34875   -3775.1932 
25964000    134.63041   -4970.3528   -4710.7067   -4970.3528            0    7111.6426      19.7579    19.818271      20.4674    8014.3665    6619.2099    7088.3031     7627.415    13.026448    1100.8759   -73.885521   -3879.4886 
25965000     131.7101   -4992.9067   -4738.8927   -4992.9067            0    8200.4672    19.909745    19.728371    20.361222    7997.6202    8096.0784    8912.0013    7593.3219    14.022358    11.498113    14.920601   -3782.4141 
25966000    130.13426   -4981.1096   -4730.1348   -4981.1096            0     5472.822     19.89562     19.74899    20.521876    8063.4224    6199.2063    5344.2715    4874.9883   -157.39762   -655.58913    1284.5025   -4086.5487 
25967000    137.11595   -4999.9525   -4735.5129   -4999.9525            0     7081.595    19.783617    19.824416    20.465504    8026.5431    6974.5543    7552.2914    6717.9392   -163.58757   -962.14243   -200.79901   -3906.5491 
25968000    141.07217   -4980.9181   -4708.8486   -4980.9181            0    7374.5929    19.777896    19.852152    20.505533     8051.165    6456.2632    8064.1969    7603.3187   -87.776998    688.59106    881.98176   -3842.9388 
25969000    139.97226   -4978.5305   -4708.5822   -4978.5305            0    7228.2056    19.623012    19.851797    20.551214    8005.7675    6588.2279    8631.1038     6465.285    384.80883    276.65838     922.3526   -3864.6465 
25970000     132.8624   -4984.0544   -4727.8181   -4984.0544            0    8296.4788    19.790551    19.610343    20.527988    7966.9014    7334.9049     9313.265    8241.2665   -345.74419    1044.6279    383.41182   -3763.8578 
25971000    135.40782   -4980.3519   -4719.2066   -4980.3519            0    8006.9017    19.770793    19.769129    20.495703    8010.7731    9108.6931    6874.4792    8037.5328    306.97849   -667.01663    892.25291    -3783.769 
25972000    135.82061   -4987.2977   -4725.3562   -4987.2977            0    7623.3897    19.780495    19.956207    20.236843    7988.3655    7940.4316    7129.7295     7800.008   -1122.1077    577.54681   -300.09253   -3837.2152 
25973000    129.16883   -4968.3941   -4719.2812   -4968.3941            0    8107.9376    19.692211     19.81397    20.407621    7962.6637    9773.8204    6303.6973    8246.2952   -286.97986    43.439065     1157.719   -3777.7284 
25974000    130.89335   -4969.0149   -4716.5761   -4969.0149            0    7438.3159    19.556361    19.795044    20.618079    7981.6508    8119.7378    7514.7161     6680.494   -243.48766   -675.40882    1542.5871    -3850.725 
25975000    132.25881   -4981.3447   -4726.2725   -4981.3447            0    7944.6553    19.844522    19.677919    20.531792    8017.6421    8319.9097    8359.6114    7154.4449    243.55509   -211.67546   -318.21591   -3797.3112 
25976000    131.03799    -4970.235   -4717.5173    -4970.235            0    5973.9241    19.924111    19.764492    20.308519      7997.29    5771.8759    4739.3482    7410.5483   -107.56952    -203.2958   -817.02419   -4020.7649 
25977000    141.27372   -4958.1902    -4685.732   -4958.1902            0    6137.9937    19.876488    19.805874    20.405146    8032.9189     5832.727    4990.2447    7591.0094     51.41301    247.31585   -630.16812   -3966.6544 
25978000    137.37559   -4967.7758   -4702.8354   -4967.7758            0    7295.3263    19.734937    19.849175    20.510367    8034.3664    7944.5661    6637.6809     7303.732   -491.12372    293.75513     289.4339   -3848.0201 
25979000    140.31556   -4982.6534   -4712.0431   -4982.6534            0    6966.0016    19.877219    19.789175    20.496886    8062.5275    5661.1392    8218.1765    7018.6891   -458.53198   -423.37876    43.918858   -3892.9549 
25980000     142.0417   -4972.1387   -4698.1993   -4972.1387            0    7257.1053    19.753674    19.863603    20.461293    8028.5844    8087.6285    6297.6273      7386.06   -206.96769   -283.28678     81.58565   -3848.4745 
25981000    137.05107   -4962.8313   -4698.5168   -4962.8313            0    8647.1803    19.731999    19.871191    20.281909    7952.5023    8794.0086    8760.1731    8387.3591    396.05689     691.7114   -608.07068   -3695.6247 
25982000    132.73203   -4968.3645   -4712.3796   -4968.3645            0    7346.1883    19.561651    19.845197    20.597509    7996.0522    7552.1272    7313.0651    7173.3726   -156.20716   -215.56656    137.75374   -3855.7096 
25983000    131.63757   -4979.7464   -4725.8723   -4979.7464            0    6612.7365    19.887605    19.543588    20.652701    8027.1917    6868.9407    6627.5368     6341.732     116.4472   -52.790305    425.27457   -3951.7301 
25984000    139.61577   -4975.0967    -4705.836   -4975.0967            0    8144.3905    19.768845    19.819075    20.474492    8021.9105    6344.0577    10457.203    7631.9111   -340.79373   -322.91652    637.61795   -3753.0129 
25985000    124.68274   -4967.8744   -4727.4132   -4967.8744            0    7881.8271    19.785923    19.752982    20.415984    7979.1994    6711.9342    8439.2351    8494.3118   -151.25329   -779.28156    1048.5278   -3810.2173 
25986000    131.73408   -4975.2257   -4721.1655   -4975.2257            0    6324.4853    19.898408    19.646219    20.365179    7961.3287    5229.0067    6286.2929    7458.1563    142.92593    109.93721    186.35252   -3986.8433 
25987000    134.41276   -4969.5524   -4710.3261   -4969.5524            0    8639.2413    19.643804    19.762288    20.513691    7963.5486    9482.6138    7797.5543    8637.5557   -705.08897    1074.3787   -87.603325    -3706.963 
25988000    131.57108   -4965.8587   -4712.1128   -4965.8587            0    7111.5851    19.829043    19.713378    20.548927    8032.5226    4553.5187    9619.5185    7161.7182   -171.93185    116.98558    427.93573   -3879.0183 
25989000    136.64117    -4981.425    -4717.901    -4981.425            0    6984.2286    19.912644    19.677813    20.415703    7999.6334    5759.8727    8376.5369    6816.2761    373.61651    1195.2177   -64.070185   -3903.0759 
25990000     137.6361   -4974.6539   -4709.2111   -4974.6539            0    7162.2625    20.002017     19.59218    20.412017    7999.1249    7008.4142    7287.8332    7190.5401    273.96146   -12.170994    -980.2193   -3873.6685 
25991000    132.12688   -4979.3344   -4724.5166   -4979.3344            0    7266.8529    19.685919    19.775646     20.50501    7982.6364    7085.0302    7517.9751    7197.5535   -852.19706   -1355.4822    259.57292   -3878.5201 
25992000     132.7405   -4976.5152   -4720.5139   -4976.5152            0    6431.9862    19.779413    19.710138    20.656395    8052.9979    6752.8678    7616.8469    4926.2439    709.21334    702.25627    371.13292   -3965.1112 
25993000    137.12601   -4970.4426   -4705.9835   -4970.4426            0     6841.144      19.7783    19.782555    20.385113    7975.9877    4707.7263    8991.7372    6823.9685   -811.91289   -348.57409   -322.75411   -3910.2107 
25994000    133.53159   -4964.8445   -4707.3176   -4964.8445            0    7552.9386    19.837925    19.825779    20.392342    8020.3554    8127.9339    6845.5608     7685.321   -289.74325     456.6013   -111.73751   -3823.8605 
25995000    142.61258   -4964.3696   -4689.3292   -4964.3696            0    7180.8219    19.670558    19.847684    20.360781    7949.1549     7098.247    7002.2479     7441.971   -228.82406     687.1418   -309.76554   -3856.8546 
25996000    133.59958   -4961.6885   -4704.0304   -4961.6885            0    7382.7671    19.876963    19.657383    20.502673    8010.9906    7595.3149    7490.4361    7062.5505    236.23282   -1069.1288    545.15393   -3841.4864 
25997000    128.59271   -4967.2132   -4719.2114   -4967.2132            0    5593.7602    19.842717    19.678545    20.543659    8021.8017    5342.2624    5880.1912     5558.827   -1.0259256    183.11248    796.05216   -4064.7988 
25998000    136.51126   -4970.6911   -4707.4177   -4970.6911            0    6014.2195    20.010681    19.662247    20.487623    8060.9565    4496.3876      6868.88    6677.3907   -200.53747   -275.22925   -2.5804816   -4000.3814 
25999000    132.86492    -4978.992   -4722.7508    -4978.992            0    7007.8656    19.962582    19.751583    20.225466    7974.7513    4583.4126    8956.7972    7483.3868    272.31551   -524.97245    261.27015    -3907.711 
26000000    133.89011   -4945.6692   -4687.4509   -4945.6692            0    8149.0538    19.756431    19.689121    20.517207    7980.9216    8170.4359    8634.5494    7642.1761    3.3390269    806.66606   -513.08688   -3738.9535 
Loop time of 356.836 on 64 procs for 250000 steps with 972 atoms

Performance: 121.064 ns/day, 0.198 hours/ns, 700.603 timesteps/s
194.6% CPU use with 32 MPI tasks x 2 OpenMP threads

MPI task timing breakdown:
Section |  min time  |  avg time  |  max time  |%varavg| %total
---------------------------------------------------------------
Pair    | 29.811     | 36.024     | 45.717     |  66.6 | 10.10
Bond    | 1.0687     | 1.2162     | 1.8063     |  12.6 |  0.34
Kspace  | 150.91     | 164.39     | 171.3      |  33.4 | 46.07
Neigh   | 0.87193    | 0.98914    | 1.0395     |   4.9 |  0.28
Comm    | 64.285     | 67.4       | 72.617     |  25.8 | 18.89
Output  | 0.50173    | 0.50207    | 0.50353    |   0.0 |  0.14
Modify  | 70.671     | 73.02      | 75.179     |  13.8 | 20.46
Other   |            | 13.29      |            |       |  3.73

Nlocal:        30.3750 ave          37 max          25 min
Histogram: 3 1 4 2 5 13 1 0 1 2
Nghost:        2718.47 ave        2761 max        2683 min
Histogram: 2 2 4 8 4 3 4 3 1 1
Neighs:        9833.38 ave       12776 max        7426 min
Histogram: 3 1 2 6 8 2 7 2 0 1

Total # of neighbors = 314668
Ave neighs/atom = 323.73251
Ave special neighs/atom = 2.0000000
Neighbor list builds = 2858
Dangerous builds = 0

unfix		3
unfix		2
unfix		1

write_data	data.final.${pid}
write_data	data.final.1
System init for write_data ...
PPPM initialization ...
  extracting TIP4P info from pair style
  using 12-bit tables for long-range coulomb (../kspace.cpp:340)
  G vector (1/distance) = 0.37232977
  grid = 24 24 24
  stencil order = 5
  estimated absolute RMS force accuracy = 0.0034933012
  estimated relative force accuracy = 1.0519973e-05
  using double precision FFTW3
  3d grid and FFT values/proc = 3211 432
Last active /omp style is kspace_style pppm/tip4p/omp
WARNING: Not all mixed pair coeffs generated from mixing. Use write_data with 'pair ij' option to store all pair coeffs. (../write_data.cpp:312)

write_restart   restart.lmp.${pid}
write_restart   restart.lmp.1
System init for write_restart ...
PPPM initialization ...
  extracting TIP4P info from pair style
  using 12-bit tables for long-range coulomb (../kspace.cpp:340)
  G vector (1/distance) = 0.37232977
  grid = 24 24 24
  stencil order = 5
  estimated absolute RMS force accuracy = 0.0034933012
  estimated relative force accuracy = 1.0519973e-05
  using double precision FFTW3
  3d grid and FFT values/proc = 3211 432
Last active /omp style is kspace_style pppm/tip4p/omp
Total wall time: 0:05:56
