LAMMPS data file via write_data, version 30 Jul 2021, timestep = 18000000

864 atoms
2 atom types
576 bonds
1 bond types
288 angles
1 angle types

0.08378785569487768 18.123784544308197 xlo xhi
0.24288913379492172 23.386288666218704 ylo yhi
0.07717753842305264 22.136018261573682 zlo zhi

Masses

1 1.00794
2 15.9994

Atoms # full

707 1 1 0.5897 2.916300323065933 1.914962337544523 3.670387296537432 0 0 0
706 1 2 -1.1794 2.806856227163868 1.8426647717761304 2.722221849723558 0 0 0
30 1 1 0.5897 5.0576872916417095 3.909416813503155 2.4929961061518964 0 0 0
708 1 1 0.5897 1.9964422248934919 2.3172034461658586 2.537324832942813 0 0 0
29 1 1 0.5897 4.280389356970636 2.6122419274893955 2.423214415587761 0 0 0
28 1 2 -1.1794 5.142697926283737 2.9883597318480746 2.2468354670946824 0 0 0
495 1 1 0.5897 8.018178484246693 2.1149130319528435 2.7465523366052715 0 0 0
668 1 1 0.5897 5.089035399112909 3.043294381200819 0.3578353871485952 0 0 0
3 1 1 0.5897 0.499643049504265 4.0708253536246115 2.373610777887712 0 0 0
494 1 1 0.5897 6.518934858771181 2.1466430775969467 2.953742319487075 0 0 0
493 1 2 -1.1794 7.322168920977634 1.7542228140392395 3.2957682904159027 0 0 0
846 1 1 0.5897 7.571363028627443 2.167252463424948 4.914474644211798 0 0 0
1 1 2 -1.1794 0.457602029780776 3.202347875092832 1.973416146096745 0 0 0
136 1 2 -1.1794 4.9998952188904315 5.679761672341392 2.9721503601021357 0 0 0
20 1 1 0.5897 0.4477627719965975 3.0709515725422185 0.13203203974289307 0 0 0
597 1 1 0.5897 0.8442872831916205 5.903646310338761 4.087821726998292 0 0 0
595 1 2 -1.1794 0.7337881201301085 5.674728999652418 3.1649850561703112 0 0 0
137 1 1 0.5897 5.100454101666614 5.546200029674711 3.914636531082293 0 0 0
487 1 2 -1.1794 3.2376461544178943 2.0127076466829643 5.453280115295927 0 0 0
35 1 1 0.5897 0.6877510931233027 3.9920948226458806 9.892547640934726 0 0 0
488 1 1 0.5897 2.5113351377564754 2.53117713057989 5.799441713863113 0 0 0
356 1 1 0.5897 7.719566624597007 1.2458992435855758 10.160721298166196 0 0 0
685 1 2 -1.1794 5.2765972567747585 5.740858894517373 5.634177477295878 0 0 0
784 1 2 -1.1794 1.0000757549971704 3.461924086336821 6.63598052228841 0 0 0
34 1 2 -1.1794 0.7678628032573929 3.135737402676085 9.47250211044414 0 0 0
82 1 2 -1.1794 5.151899106265083 3.333431618223547 6.767116626930511 0 0 0
112 1 2 -1.1794 0.7402625110919172 5.647245650497184 10.710836685936522 0 0 0
84 1 1 0.5897 5.990877767234551 2.9973562812567693 6.45197585985343 0 0 0
676 1 2 -1.1794 5.2830580309160355 5.861766925306791 10.502771184890122 0 0 0
355 1 2 -1.1794 7.734787640473051 2.1682560534772968 10.416054361333963 0 0 0
274 1 2 -1.1794 5.307618596809113 3.3240629781687985 9.510677180607745 0 0 0
678 1 1 0.5897 5.3182225886104195 4.953166326801316 10.203801992540841 0 0 0
83 1 1 0.5897 4.495675025343687 2.8114927772021665 6.305476087693797 0 0 0
36 1 1 0.5897 1.5500676955120993 2.7481242290985386 9.865051756513465 0 0 0
183 1 1 0.5897 0.5978235533964192 5.202811202595126 5.960326323485968 0 0 0
674 1 1 0.5897 3.8121579812691673 2.6172485904607288 10.114547424086723 0 0 0
785 1 1 0.5897 0.9716625611960883 3.358132542253739 7.58711037777466 0 0 0
276 1 1 0.5897 6.128327809023561 2.861479726365275 9.679805357438626 0 0 0
675 1 1 0.5897 3.2327715831971453 1.2235731482167003 10.23159759372746 0 0 0
275 1 1 0.5897 5.244492205784388 3.3597128639867013 8.556221160862275 0 0 0
673 1 2 -1.1794 3.068720792105059 2.134459209012836 10.475611182772573 0 0 0
845 1 1 0.5897 7.576014909051091 1.4482744326266392 6.246723687364928 0 0 0
686 1 1 0.5897 5.158939279879988 4.8769811844627915 6.029222106432112 0 0 0
489 1 1 0.5897 3.248489172736162 1.223412401960883 5.994675640722903 0 0 0
844 1 2 -1.1794 7.593416429464348 2.3230738365294403 5.858648640955181 0 0 0
786 1 1 0.5897 0.2884057227942525 2.9093816556364156 6.3129073743361905 0 0 0
176 1 1 0.5897 9.095492592325572 3.0001096293132896 9.737437026340384 0 0 0
114 1 1 0.5897 1.5912242546507172 5.981698673756637 10.427740655076411 0 0 0
166 1 2 -1.1794 3.1057869791485992 1.7946576095663946 13.208365157539063 0 0 0
167 1 1 0.5897 3.1994049615349835 2.022370432647824 12.28337791161235 0 0 0
457 1 2 -1.1794 5.116587852977843 3.4519574003379137 14.024968405142904 0 0 0
458 1 1 0.5897 5.8839888958740785 3.0492491245089552 13.618653581535929 0 0 0
459 1 1 0.5897 4.386651332065015 2.8871268050202605 13.771355728514658 0 0 0
762 1 1 0.5897 5.169998482566031 5.1276204400644545 13.407198938216549 0 0 0
594 1 1 0.5897 8.22302487560718 2.703196113634027 13.468659900037643 0 0 0
168 1 1 0.5897 2.317483661656507 2.25814730201049 13.49102097691738 0 0 0
71 1 1 0.5897 5.464756870471669 3.2087637913806413 15.92958236336911 0 0 0
592 1 2 -1.1794 7.422998128855667 2.2888865024179825 13.145481297677133 0 0 0
466 1 2 -1.1794 0.7330968068039145 3.058703627279689 14.097233921156793 0 0 0
593 1 1 0.5897 7.472378140407891 1.388575721093285 13.466689754530787 0 0 0
468 1 1 0.5897 0.6106069101493411 3.238990226108937 15.02928567787923 0 0 0
365 1 1 0.5897 0.6527355080346277 4.844697319569037 13.564891987255491 0 0 0
357 1 1 0.5897 7.5092372547179105 2.1635178862460602 11.34628385913539 0 0 0
364 1 2 -1.1794 0.515376346875561 5.775052608349968 13.386715855813229 0 0 0
113 1 1 0.5897 0.7831999293300725 5.660454812452108 11.666987231880473 0 0 0
21 1 1 0.5897 0.7528033271960215 4.202292778198265 21.232334133698124 0 0 0
40 1 2 -1.1794 7.596009042270575 2.0018570262571203 20.65297901408941 0 0 0
756 1 1 0.5897 6.72747316580405 2.5698862998887773 17.62286664359712 0 0 0
755 1 1 0.5897 7.574408399949244 2.183419620994737 18.8166875915298 0 0 0
754 1 2 -1.1794 7.630882307616558 2.391655354864393 17.884120677919626 0 0 0
667 1 2 -1.1794 5.180469981175289 3.134545647558805 21.468236721624486 0 0 0
289 1 2 -1.1794 3.021463699475431 1.7325281869979452 17.49740898017491 0 0 0
81 1 1 0.5897 3.084849578688025 0.4499158070213085 20.964483050617112 0 1 0
143 1 1 0.5897 5.293153403298249 4.89299788053813 21.029898497577307 0 0 0
569 1 1 0.5897 2.1434773638289983 2.551881262700169 20.525203643105876 0 0 0
323 1 1 0.5897 7.556760981381244 0.7758607606277194 17.0764958103008 0 1 0
570 1 1 0.5897 2.8476418660395884 2.0445450883855987 19.28481461401801 0 0 0
571 1 2 -1.1794 0.8218834123170193 5.740073279090191 17.84028272319445 0 0 0
669 1 1 0.5897 4.382912484354988 2.743642461206825 21.111524511153092 0 0 0
291 1 1 0.5897 2.2240955165745158 2.1653659081553167 17.192427322222954 0 0 0
134 1 1 0.5897 0.4983965416742678 4.05715295785405 17.218358130673124 0 0 0
568 1 2 -1.1794 2.95193754798722 2.131454134161822 20.2323340437637 0 0 0
41 1 1 0.5897 6.747667524569606 2.3826227913458973 20.879902135135808 0 0 0
42 1 1 0.5897 7.55734911084191 1.1086767499006434 20.99490021765859 0 0 0
72 1 1 0.5897 4.498175746831179 2.6736405472904043 16.96452926153279 0 0 0
278 1 1 0.5897 5.284192130838735 4.809905741043514 17.659027432809722 0 0 0
290 1 1 0.5897 2.931817027617325 0.827152802428677 17.20003437590102 0 0 0
19 1 2 -1.1794 0.692171752685323 3.248372619739507 21.28257569192067 0 0 0
646 1 2 -1.1794 0.8502456712053179 5.808828795514915 20.735305374925353 0 0 0
70 1 2 -1.1794 5.321658959071768 3.1531003329545215 16.87438070026667 0 0 0
277 1 2 -1.1794 5.4119678148028445 5.726589753362958 17.903048854503545 0 0 0
648 1 1 0.5897 0.9204526182876958 5.762832456409848 19.781790869245192 0 0 0
599 1 1 0.5897 9.085640890862914 3.171199922070837 17.25188759794308 0 0 0
144 1 1 0.5897 5.46676727227121 5.753802664185147 19.79673369319567 0 0 0
142 1 2 -1.1794 5.438681531910729 5.797462641724135 20.752520123841805 0 0 0
133 1 2 -1.1794 0.6654841616153426 3.1792842520853424 16.875428562221565 0 0 0
217 1 2 -1.1794 5.397525038486615 11.200330004205293 1.8554635539670288 0 0 0
123 1 1 0.5897 3.1591110086185723 8.826862928833025 2.803274441687783 0 0 0
121 1 2 -1.1794 3.2813473059623424 9.729925960983572 3.09603820870446 0 0 0
122 1 1 0.5897 3.1998995045466154 9.68645268372811 4.048771674511003 0 0 0
44 1 1 0.5897 1.6552928414897583 10.4914697756892 2.406101288152628 0 0 0
218 1 1 0.5897 6.137111455207246 10.728701480310805 2.2385105577736155 0 0 0
396 1 1 0.5897 0.8663936837016282 10.807018001542698 0.3917754428319922 0 0 0
219 1 1 0.5897 4.627982250368675 10.698258898010936 2.123545310593867 0 0 0
416 1 1 0.5897 6.681367814410007 6.759974864741215 2.497170277564784 0 0 0
417 1 1 0.5897 8.17570292986451 6.599972922800489 2.315564044101126 0 0 0
254 1 1 0.5897 2.8789222770714225 7.118073285929018 1.3565979600299038 0 0 0
415 1 2 -1.1794 7.471669688745248 7.246232137764131 2.2623999216564563 0 0 0
43 1 2 -1.1794 0.7859232223967829 10.78174967298674 2.130301580669382 0 0 0
66 1 1 0.5897 7.541895533935527 9.771575544809556 3.9816140022597453 0 0 0
65 1 1 0.5897 7.539609463008915 8.959227709120578 2.704144539159937 0 0 0
64 1 2 -1.1794 7.572160937837899 9.859032641858235 3.028903228956401 0 0 0
253 1 2 -1.1794 2.8787159503862374 7.156125971823113 2.3130415339061243 0 0 0
255 1 1 0.5897 2.130934989114244 6.618871164305482 2.574429198760274 0 0 0
363 1 1 0.5897 5.124089992685246 11.226154789513615 0.10757089243947912 0 0 1
138 1 1 0.5897 4.1933580159057655 6.187996086843886 2.8865059624585845 0 0 0
162 1 1 0.5897 7.5154122698365455 7.291464290505468 0.4970482446653316 0 0 1
45 1 1 0.5897 0.7199193649397831 11.680867535562449 2.4518685787270535 0 0 0
578 1 1 0.5897 5.933001195372787 10.382902877395825 6.651781937985057 0 0 0
793 1 2 -1.1794 3.0445435308065436 9.815483757282552 5.843134989076887 0 0 0
10 1 2 -1.1794 3.1368671907508308 7.2450559474526655 6.734218235240454 0 0 0
526 1 2 -1.1794 7.456735268984332 6.922034348177809 9.247489840909708 0 0 0
145 1 2 -1.1794 7.685871902972357 7.031466773803598 6.445541545237449 0 0 0
580 1 2 -1.1794 5.117445847878491 10.53774760145161 9.841292685522742 0 0 0
11 1 1 0.5897 2.3046577155593564 6.848960065181203 6.47599071648427 0 0 0
713 1 1 0.5897 8.08916399513828 10.060964616308 6.212143891495272 0 0 0
551 1 1 0.5897 0.50941665448761 11.109061168616519 7.6450191985045315 0 0 0
258 1 1 0.5897 3.6201498764220146 9.728290731219957 10.22893111148644 0 0 0
650 1 1 0.5897 3.0571972285237705 6.976566361637744 8.443250259848014 0 0 0
528 1 1 0.5897 8.20095057595036 6.479911655080736 9.655931482359918 0 0 0
527 1 1 0.5897 7.406122305020865 7.767774214153627 9.692842495171048 0 0 0
15 1 1 0.5897 1.3912001449773317 10.328885391907678 10.014310603722887 0 0 0
794 1 1 0.5897 2.248905033243884 10.304216312951771 6.0534709636640365 0 0 0
581 1 1 0.5897 5.951501314280274 10.156596731151732 10.115539188241593 0 0 0
147 1 1 0.5897 7.705351231771173 6.925053592797233 7.396606815957024 0 0 0
550 1 2 -1.1794 0.5494311595178907 11.08046668087324 6.689075299667575 0 0 0
649 1 2 -1.1794 2.940565569627806 6.803292790919421 9.37737617961527 0 0 0
577 1 2 -1.1794 5.237766588335559 10.795701125283518 7.164051973993556 0 0 0
795 1 1 0.5897 3.6875976470969443 10.116093652351156 6.485233098909699 0 0 0
13 1 2 -1.1794 0.6761883725395266 10.85843664974447 9.661473180071578 0 0 0
822 1 1 0.5897 8.193969695036621 10.126753712046067 10.21340587834567 0 0 0
257 1 1 0.5897 2.7959561528203833 8.46578077432682 10.092771265656621 0 0 0
256 1 2 -1.1794 2.802898454999978 9.322945247240913 10.518695551812307 0 0 0
820 1 2 -1.1794 7.534052458233032 9.52113169121977 10.55086810418252 0 0 0
14 1 1 0.5897 0.7361010944854943 11.688335036263535 10.13462454562058 0 0 0
651 1 1 0.5897 3.7881707169466208 6.465457928790762 9.666460111038322 0 0 0
12 1 1 0.5897 3.1271631590275146 8.111056749663362 6.326636101385976 0 0 0
582 1 1 0.5897 5.227784749582161 10.70894815972899 8.906020209973109 0 0 0
146 1 1 0.5897 6.856416403461347 6.636584409839858 6.176814900364024 0 0 0
687 1 1 0.5897 4.574534962469506 6.273319416074473 6.008002705453344 0 0 0
714 1 1 0.5897 7.365529699637136 8.753027483695293 5.9725855061212325 0 0 0
677 1 1 0.5897 5.9676606715574145 6.30570700648127 10.002376936081097 0 0 0
579 1 1 0.5897 5.0858194385808115 11.635058073788983 6.729804006223412 0 0 0
165 1 1 0.5897 8.964660155875917 6.095501634305692 5.828225078293308 0 0 0
181 1 2 -1.1794 0.6522403393086634 6.138014736422397 5.7637670535571806 0 0 0
712 1 2 -1.1794 7.348006121051028 9.681386381358362 5.740159844586991 0 0 0
828 1 1 0.5897 7.695520271367546 6.994012064888694 15.025292011244252 0 0 0
261 1 1 0.5897 1.034556599104945 11.2421606679892 15.030441950636787 0 0 0
332 1 1 0.5897 2.974556020759491 7.960572032733144 13.79894053458549 0 0 0
797 1 1 0.5897 3.125040765768613 9.489413200010807 12.248297000804746 0 0 0
796 1 2 -1.1794 3.2577627237851456 9.603363276580827 13.18937076185095 0 0 0
798 1 1 0.5897 2.5098537269711767 10.127697178868289 13.475464985082183 0 0 0
722 1 1 0.5897 4.76963817204613 10.343974101554927 13.931727537267744 0 0 0
333 1 1 0.5897 3.7710774614425016 6.676797103694035 13.894732108757397 0 0 0
259 1 2 -1.1794 1.1143159033515222 11.08397066748981 14.089785150331341 0 0 0
721 1 2 -1.1794 5.531676228820985 10.807907322287162 14.278458663659404 0 0 0
723 1 1 0.5897 5.425752531916562 10.766734778874486 15.228882086979317 0 0 0
331 1 2 -1.1794 2.9562760622314337 7.085573661158892 14.186524663339211 0 0 0
225 1 1 0.5897 3.3618538282129062 7.20790038149287 15.879841079372895 0 0 0
826 1 2 -1.1794 7.841032908354031 7.083785765521984 14.083477136338283 0 0 0
475 1 2 -1.1794 7.771943480711567 9.754927253384327 13.23681593788992 0 0 0
476 1 1 0.5897 6.958605683917519 10.09574876289933 13.608923471155485 0 0 0
477 1 1 0.5897 7.845726606767012 8.8691949120365 13.592089016718287 0 0 0
827 1 1 0.5897 7.068395064977527 6.686001679712183 13.682256153927696 0 0 0
366 1 1 0.5897 1.3576249848092146 6.184261404694412 13.58499027766532 0 0 0
821 1 1 0.5897 7.584871493889751 9.616402793919193 11.501952299620603 0 0 0
260 1 1 0.5897 0.34957288502389616 10.551903999702251 13.870213855925853 0 0 0
761 1 1 0.5897 5.399911260386091 6.10712643726764 12.276042564807401 0 0 0
760 1 2 -1.1794 5.356079843813436 6.049755310825908 13.230511078745707 0 0 0
361 1 2 -1.1794 4.943982181115889 11.094867867558742 21.23552221310011 0 0 0
4 1 2 -1.1794 3.159221472186305 6.921601210311177 21.635295659261644 0 0 0
7 1 2 -1.1794 7.670734810458409 9.282391810236854 17.975879345275892 0 0 0
139 1 2 -1.1794 7.389394237869271 9.908648038424895 20.51212808868798 0 0 0
447 1 1 0.5897 0.2408508657356755 10.853220096749741 17.130022456866755 1 0 0
681 1 1 0.5897 5.490570188918056 11.550112971785477 17.204481979762086 0 0 0
141 1 1 0.5897 7.301042541588571 9.033873202093393 20.89047334534404 0 0 0
5 1 1 0.5897 3.9964852919513008 6.5291861712021 21.388039142751346 0 0 0
680 1 1 0.5897 4.621311647063388 10.31080860400525 17.219233505849317 0 0 0
9 1 1 0.5897 6.863587049179464 9.679869407337799 17.649218510184944 0 0 0
690 1 1 0.5897 2.2538783002953875 9.919129925739622 20.85783404034445 0 0 0
625 1 2 -1.1794 3.0523088110630523 9.717987472179027 17.771394277883225 0 0 0
688 1 2 -1.1794 2.9938485955267304 9.42158948065798 20.50992194817826 0 0 0
140 1 1 0.5897 6.683992346020132 10.416059582563792 20.913491405487534 0 0 0
627 1 1 0.5897 2.2687207573052595 10.15644577542155 17.439884197637298 0 0 0
689 1 1 0.5897 3.7602073465551022 9.958001106541479 20.71264590305556 0 0 0
520 1 2 -1.1794 7.583887643732501 6.805223890811748 16.84316596680803 0 0 0
626 1 1 0.5897 2.8720958193620882 9.574421499359707 18.700463071859495 0 0 0
160 1 2 -1.1794 7.621567399111929 7.350251287328486 21.606414957759718 0 0 0
6 1 1 0.5897 3.106456273269856 7.7227201323363985 21.11413203240187 0 0 0
522 1 1 0.5897 7.633649337706609 7.638609558455805 17.31132422445453 0 0 0
8 1 1 0.5897 7.618145641121458 9.379144003764225 18.926723885110015 0 0 0
161 1 1 0.5897 6.995159607855154 6.717438708417005 21.255251202979792 0 0 0
224 1 1 0.5897 3.2303488671342597 8.04890663012319 17.13174631496082 0 0 0
647 1 1 0.5897 1.703656858621111 6.132554023625777 21.02344629760821 0 0 0
394 1 2 -1.1794 0.9324195492288531 10.86730323059239 21.49760535662186 0 0 0
279 1 1 0.5897 4.708131620980293 6.1947920159884955 17.45408099354077 0 0 0
287 1 1 0.5897 8.92062367006915 10.607107710086824 21.037752080217942 0 0 0
521 1 1 0.5897 6.845980769712664 6.347493229155919 17.24581705975517 0 0 0
445 1 2 -1.1794 1.0174084573034747 11.32768242689153 16.833376480587184 0 0 0
573 1 1 0.5897 0.0933755870775812 6.282928805169876 17.539057260883787 0 0 0
395 1 1 0.5897 0.1737116558930012 10.382188631464563 21.173304929762267 0 0 0
679 1 2 -1.1794 5.506839813683664 10.611845408632725 17.015876673115024 0 0 0
572 1 1 0.5897 1.5992819217241963 6.149667598912612 17.46076658362079 0 0 0
223 1 2 -1.1794 3.343378384241681 7.145990237037686 16.834855624172036 0 0 0
200 1 1 0.5897 4.9637152927849195 13.314000050352593 5.039658130285717 0 0 0
173 1 1 0.5897 4.7002208720731415 14.119201106515371 2.843138600628207 0 0 0
172 1 2 -1.1794 5.398938526353126 13.567238864547464 3.1942509298828035 0 0 0
293 1 1 0.5897 2.8967031782427743 16.328040761398583 2.8369523041474194 0 0 0
558 1 1 0.5897 3.103549309138449 14.910457212220868 1.1788420118413054 0 0 0
556 1 2 -1.1794 3.1596707054114015 14.827825552186647 2.1308187796756 0 0 0
557 1 1 0.5897 2.3664911743553376 14.35231619221147 2.377602315694635 0 0 0
478 1 2 -1.1794 7.438838400648355 14.985985493775392 1.9512179389539437 0 0 0
373 1 2 -1.1794 0.8163128489503743 13.40891931794284 2.875931325178924 0 0 0
174 1 1 0.5897 5.337497220865633 12.754296531231724 2.6927227608657223 0 0 0
479 1 1 0.5897 8.24468370132132 14.51783724949353 2.1694014561716575 0 0 0
449 1 1 0.5897 7.5162529484575495 16.696847769150388 2.490103024291314 0 0 0
480 1 1 0.5897 6.753606297879533 14.520510562154533 2.430763156742599 0 0 0
374 1 1 0.5897 0.6851997913242304 13.418087775336602 3.824072864018177 0 0 0
308 1 1 0.5897 7.013190260337369 17.438846887751065 4.524046080044306 0 0 0
448 1 2 -1.1794 7.327499847870103 17.574749187101183 2.821509468967205 0 0 0
375 1 1 0.5897 0.12410332981659877 13.973747007250218 2.5324528906075474 0 0 0
294 1 1 0.5897 2.886464545715826 17.34129050556589 3.9616904246322284 0 0 0
292 1 2 -1.1794 2.782824407986067 17.261886286344254 3.0134387815873245 0 0 0
307 1 2 -1.1794 6.882992237880364 17.396786807622348 5.471411762174282 0 0 0
518 1 1 0.5897 6.949493545008443 15.679167589744685 6.208288036304858 0 0 0
186 1 1 0.5897 7.307598291964593 16.235064794246163 9.996915254117622 0 0 0
656 1 1 0.5897 1.5730571919437741 14.013364222589054 6.010066593308647 0 0 0
199 1 2 -1.1794 4.904754862814073 13.24807495009131 5.992758473699006 0 0 0
811 1 2 -1.1794 3.1422725848172863 14.678384857324984 9.514051088686747 0 0 0
519 1 1 0.5897 7.643031622206528 14.34316654993212 6.3689962416640284 0 0 0
813 1 1 0.5897 2.3543037185391245 14.221575441650321 9.808289519272503 0 0 0
17 1 1 0.5897 3.0692006709826214 14.79143424289694 7.732541346609241 0 0 0
384 1 1 0.5897 3.0198452941926526 16.354533124361428 9.847465521939556 0 0 0
377 1 1 0.5897 6.66911482895555 14.191890615813389 9.713754482629895 0 0 0
376 1 2 -1.1794 7.453822343632942 14.68214671972204 9.468744427558825 0 0 0
766 1 2 -1.1794 0.8500531629068396 13.57653070579913 10.439963515648378 0 0 0
18 1 1 0.5897 3.58830690678201 14.328748225895978 6.387816546855801 0 0 0
812 1 1 0.5897 3.8646662450537117 14.186376674297229 9.904239842060761 0 0 0
456 1 1 0.5897 5.26321674360334 12.378203254094828 10.087888580462524 0 0 0
454 1 2 -1.1794 5.215619923293771 13.287137827133321 10.38410550131704 0 0 0
16 1 2 -1.1794 2.8989657626103185 14.855044838135324 6.792757406973978 0 0 0
517 1 2 -1.1794 6.93540343648203 14.876952625861232 6.730239527960765 0 0 0
201 1 1 0.5897 5.594674296289434 13.827168322592057 6.316523003981971 0 0 0
378 1 1 0.5897 7.356542857655193 14.83686227148587 8.529157837765313 0 0 0
185 1 1 0.5897 8.15212968956225 17.48429582743823 10.130839517870482 0 0 0
239 1 1 0.5897 2.7841492016432925 16.58648765099436 6.093603923761803 0 0 0
238 1 2 -1.1794 2.688773260572756 17.472453349334472 5.74410861502446 0 0 0
768 1 1 0.5897 0.14179845677723374 14.030640595478642 9.983549416090177 0 0 0
184 1 2 -1.1794 7.283648152160355 17.13312546488243 10.32722371793648 0 0 0
805 1 2 -1.1794 9.080191777173182 13.453622647913537 5.658808757979414 0 0 0
382 1 2 -1.1794 2.925487260149119 17.24629954009747 10.182169733038393 0 0 0
552 1 1 0.5897 0.5855629132726227 11.999142172045566 6.422806256117013 0 0 0
655 1 2 -1.1794 0.7700363162122289 13.642776428893757 5.644056411180396 0 0 0
429 1 1 0.5897 5.973960059885505 13.54664382253562 13.37979951417617 0 0 0
232 1 2 -1.1794 3.101743002384562 14.708657166780066 14.152378979968441 0 0 0
234 1 1 0.5897 3.1850604959147786 14.903781341891674 15.085766859652303 0 0 0
606 1 1 0.5897 3.1148104854385554 16.36518886624946 13.385938759970726 0 0 0
427 1 2 -1.1794 5.1770172355300685 13.137602705695523 13.042522335570332 0 0 0
233 1 1 0.5897 3.87540456130749 14.183891951739987 13.946908403030582 0 0 0
639 1 1 0.5897 1.264682153601235 14.111447862824258 13.619027732401397 0 0 0
428 1 1 0.5897 5.187832374548501 12.253193043059019 13.408512227918564 0 0 0
637 1 2 -1.1794 0.5721277454288951 13.6109210204534 13.187751732072744 0 0 0
297 1 1 0.5897 8.125058044971132 14.097070055413457 13.78541703539865 0 0 0
296 1 1 0.5897 7.317004883887756 14.758120112436782 14.881700235964466 0 0 0
295 1 2 -1.1794 7.283220307822107 14.519668301441486 13.955295431019254 0 0 0
270 1 1 0.5897 7.401527840885857 16.26206351734653 13.193832529276909 0 0 0
638 1 1 0.5897 0.7422661693559747 12.702393383658016 13.436345286517591 0 0 0
604 1 2 -1.1794 3.0476892630214616 17.28857597015905 13.142993580191405 0 0 0
605 1 1 0.5897 2.985207208953144 17.28151398857661 12.187865488258284 0 0 0
268 1 2 -1.1794 7.527036778276882 17.202316287284948 13.066005673972683 0 0 0
269 1 1 0.5897 7.6367547110457945 17.303433678717575 12.120512016775894 0 0 0
455 1 1 0.5897 5.182493304247963 13.22699268275934 11.338834100137172 0 0 0
767 1 1 0.5897 0.6380998677810906 13.67317936041268 11.368379065319061 0 0 0
52 1 2 -1.1794 0.8077768190681984 13.891639053415153 17.737748560315673 0 0 0
824 1 1 0.5897 3.910193502017584 14.383413206984738 17.174606532842837 0 0 0
452 1 1 0.5897 0.8272366125029695 12.637581671906897 20.771217313564655 0 0 0
126 1 1 0.5897 6.151203084751897 13.634418606995162 17.359589310104937 0 0 0
665 1 1 0.5897 2.172794438221608 14.401633529159605 21.184547554757565 0 0 0
664 1 2 -1.1794 2.9786089782387903 14.822360598177292 21.484203071097596 0 0 0
125 1 1 0.5897 5.255876513492684 13.309542861819743 18.536287502376652 0 0 0
53 1 1 0.5897 0.7449998792564876 13.870209434817278 18.692643908391496 0 0 0
684 1 1 0.5897 4.206202297975508 13.949799193997796 20.608269335739138 0 0 0
451 1 2 -1.1794 0.8668649746331294 13.520526880266502 20.40377683621618 0 0 0
666 1 1 0.5897 2.9406326845600756 15.704405888833405 21.114432274171968 0 0 0
318 1 1 0.5897 7.093571182521877 15.813116555281837 20.853471225120636 0 0 0
50 1 1 0.5897 7.453295522538258 15.684513407454322 17.045933014533297 0 0 0
453 1 1 0.5897 0.10664697052660443 13.968916231498548 20.77413273921502 0 0 0
117 1 1 0.5897 8.775464406715376 14.182794193641422 20.691799983501767 0 0 0
584 1 1 0.5897 2.8862366211812627 16.530637489579767 17.57736270382385 0 0 0
683 1 1 0.5897 5.708796772557481 14.113758353978758 20.69189970996208 0 0 0
316 1 2 -1.1794 7.123978712322747 14.90552754742079 21.156011712277568 0 0 0
682 1 2 -1.1794 5.027339557013143 13.576078395858545 20.288554778112925 0 0 0
124 1 2 -1.1794 5.320588800477412 13.21607503003143 17.585868167061527 0 0 0
825 1 1 0.5897 2.39829838647299 14.40777751032498 17.24685817185867 0 0 0
715 1 2 -1.1794 2.5708710213784243 17.404798415344203 20.69376351464784 0 0 0
51 1 1 0.5897 8.284008262564344 14.427360711414972 17.191537270729924 0 0 0
446 1 1 0.5897 0.943840572199231 12.18905762507194 17.244241976165483 0 0 0
610 1 2 -1.1794 7.290536506473322 17.407726572580458 17.508836308623827 0 0 0
823 1 2 -1.1794 3.146854302223095 14.886156682410581 16.890520653862765 0 0 0
157 1 2 -1.1794 6.697515727591265 17.421370445460628 20.20201349334264 0 0 0
159 1 1 0.5897 6.714388894714027 17.34415691315788 19.24808546757577 0 0 0
716 1 1 0.5897 2.5670019675814957 17.432865001489073 19.73698000711844 0 0 0
583 1 2 -1.1794 2.7895515698544457 17.426259599407775 17.9009544281802 0 0 0
362 1 1 0.5897 5.041896490076165 11.964227674764539 20.84718890352672 0 0 0
317 1 1 0.5897 7.044235092432775 14.967051215244696 22.107892935957153 0 0 -1
49 1 2 -1.1794 7.52925849633232 14.786033661497596 16.724775945228124 0 0 0
267 1 1 0.5897 5.935401660542088 21.67344147164473 2.811365403946728 0 0 0
696 1 1 0.5897 1.493843840918742 21.804420076361218 2.5432563272912145 0 0 0
266 1 1 0.5897 4.428914567531298 21.525894070427075 2.792160963734814 0 0 0
265 1 2 -1.1794 5.215045242495421 21.207374803198675 3.2356759639941752 0 0 0
343 1 2 -1.1794 0.6165223133995412 18.732802159610152 2.444774564229046 0 0 0
228 1 1 0.5897 4.938223507235678 19.41846855782834 2.169628210412047 0 0 0
345 1 1 0.5897 0.39771587428647465 18.726193829609297 1.5129479214339225 0 0 0
819 1 1 0.5897 7.356777495166316 23.29994943250443 2.748626450600343 0 -1 0
249 1 1 0.5897 5.191903470158283 21.30074614233058 5.112384202510647 0 0 0
226 1 2 -1.1794 4.903516047436559 18.51069948881703 1.868096094326341 0 0 0
187 1 2 -1.1794 3.1600278468251046 22.43778635584884 1.8181925206386542 0 0 0
694 1 2 -1.1794 0.9183609473137246 21.43683706048464 3.2139881649101167 0 0 0
818 1 1 0.5897 8.182289263166062 22.037334344371242 2.6220079656862136 0 0 0
189 1 1 0.5897 3.3165482840933103 22.512016457374784 0.8768042229162628 0 0 0
344 1 1 0.5897 1.3704977635522297 18.147783734914153 2.5183744193836417 0 0 0
227 1 1 0.5897 4.141034826394049 18.13942277047379 2.311858313312904 0 0 0
695 1 1 0.5897 0.8317751066995487 20.513718078934563 2.9762335667965014 0 0 0
817 1 2 -1.1794 7.416073260860888 22.480418165749633 2.2576769953377545 0 0 0
413 1 1 0.5897 0.7412273052029126 21.57317267844867 4.964517230389751 0 0 0
321 1 1 0.5897 8.75176507962472 18.46495556980612 2.288440396941608 0 0 0
450 1 1 0.5897 6.496877398232505 17.81314898321325 2.4099578029869564 0 0 0
498 1 1 0.5897 7.48201180356535 22.506871294752237 0.45807541645773703 0 0 0
188 1 1 0.5897 3.1233016866502394 23.34286490993451 2.127473207661645 0 0 0
553 1 2 -1.1794 5.097847460210265 21.22320526533688 10.46549042127331 0 0 0
387 1 1 0.5897 4.953973235329822 19.677638949851083 6.515956526597176 0 0 0
701 1 1 0.5897 3.0965739057614474 22.76557093495783 7.729555928398099 0 0 0
404 1 1 0.5897 1.4542311881863654 18.206037839619402 9.744132948078459 0 0 0
32 1 1 0.5897 8.371522391674043 22.467877693243512 6.474822316190554 0 0 0
385 1 2 -1.1794 4.846359158726991 18.76456558956602 6.7822236966098846 0 0 0
85 1 2 -1.1794 7.211848925342251 22.76364089890326 9.55624318502883 0 0 0
342 1 1 0.5897 0.41582705855480334 18.846982638699966 7.545339162943894 0 0 0
39 1 1 0.5897 3.845682914522727 22.351669181822288 9.795959554065506 0 0 0
37 1 2 -1.1794 3.076768258632064 22.82834836933642 9.483399432702207 0 0 0
86 1 1 0.5897 7.327815568517936 22.76936766404373 8.606115063958237 0 0 0
94 1 2 -1.1794 0.893192415623217 21.36285454915214 10.100199189170153 0 0 0
100 1 2 -1.1794 5.025559427048342 18.69329897318858 9.568852867734774 0 0 0
102 1 1 0.5897 5.13570374833631 18.71341042998209 8.61820843570045 0 0 0
405 1 1 0.5897 0.7503239466732621 19.545105395611376 9.68820025768599 0 0 0
555 1 1 0.5897 5.010154483535209 20.37209242151272 10.036393979587276 0 0 0
33 1 1 0.5897 6.873272979550641 22.297777131240075 6.340786865536326 0 0 0
38 1 1 0.5897 2.3327041175803616 22.304143019870622 9.779582795358966 0 0 0
240 1 1 0.5897 3.446960125631569 17.947481429696712 6.084172751484337 0 0 0
101 1 1 0.5897 5.764149672058018 18.17306013212215 9.885086711266283 0 0 0
31 1 2 -1.1794 7.538593935483432 22.841792318563368 6.762166967839393 0 0 0
702 1 1 0.5897 2.140689030289663 22.345410381888545 6.633420098689766 0 0 0
700 1 2 -1.1794 3.02717196937123 22.6756588175747 6.779105743511995 0 0 0
554 1 1 0.5897 5.9071949303465585 21.589395053604083 10.10908785970737 0 0 0
403 1 2 -1.1794 0.6834333965466867 18.64135014553617 9.380099821444873 0 0 0
386 1 1 0.5897 5.517362750363655 18.29066614822599 6.2909680758896975 0 0 0
247 1 2 -1.1794 5.270222456872962 21.312458868209294 6.066298058328174 0 0 0
87 1 1 0.5897 7.908431616451122 22.19235764966989 9.879601902476374 0 0 0
248 1 1 0.5897 4.542024839366099 21.85972832902085 6.360182437656804 0 0 0
340 1 2 -1.1794 0.3927517668100793 18.979979676222424 6.597703829106521 0 0 0
341 1 1 0.5897 1.1758300838187468 18.53499230618116 6.273778167237203 0 0 0
383 1 1 0.5897 3.7544086087000696 17.672954432115077 9.96536593283989 0 0 0
414 1 1 0.5897 0.6292780613456358 20.666476398626966 6.171667389940914 0 0 0
412 1 2 -1.1794 0.57779679076161 21.58505216706416 5.907590574766327 0 0 0
96 1 1 0.5897 0.8619088932495609 21.44165232029028 11.053633434027468 0 0 0
309 1 1 0.5897 7.704229728599851 17.720829371834274 5.841152969766531 0 0 0
504 1 1 0.5897 0.6278463585896947 18.86795987678779 14.641890571879856 0 0 0
88 1 2 -1.1794 5.422236992219517 21.284069704705065 13.206036560737886 0 0 0
381 1 1 0.5897 1.5080928033739451 21.726607457369894 13.307623031257215 0 0 0
90 1 1 0.5897 5.3919645139223915 20.35572352479073 13.437173547729355 0 0 0
763 1 2 -1.1794 5.306421217659801 18.581582152883914 13.97995827518054 0 0 0
738 1 1 0.5897 3.9238227910252865 22.05365895574456 13.736285602738276 0 0 0
89 1 1 0.5897 5.401664291050365 21.293926886272462 12.249108391628898 0 0 0
736 1 2 -1.1794 3.066553649968297 22.30249871245438 14.081705581758552 0 0 0
789 1 1 0.5897 6.814046413357373 22.171258433089623 13.621454043605615 0 0 0
765 1 1 0.5897 6.092932508974867 18.198321963315163 13.591814136533253 0 0 0
787 1 2 -1.1794 7.551716238365179 22.73306203788315 13.858863309107772 0 0 0
503 1 1 0.5897 1.4568969137694716 18.12699367963393 13.614562090083323 0 0 0
380 1 1 0.5897 0.8098811138552676 20.40782419536928 13.052605302974003 0 0 0