LAMMPS data file via MDAnalysis

        3840  atoms
        2560  bonds
        1280  angles
           0  dihedrals
           0  impropers

           2  atom types
           1  bond types
           1  angle types
           0  dihedral types
           0  improper types

0.000000 52.789078 xlo xhi
0.000000 24.959999 ylo yhi
0.000000 23.002001 zlo zhi


Masses

1 1.008000
2 15.999000

Atoms

1 0 2 -1.179400 5.660915 22.348831 5.486293
2 0 1 0.589700 5.590858 23.288982 5.649404
3 0 1 0.589700 6.178065 22.015995 6.219163
4 0 2 -1.179400 2.154505 10.622579 13.343362
5 0 1 0.589700 2.076732 10.351778 14.257444
6 0 1 0.589700 2.319133 11.564160 13.385199
7 0 2 -1.179400 20.342388 13.737876 4.811458
8 0 1 0.589700 20.160734 13.790709 5.749081
9 0 1 0.589700 20.285221 12.804682 4.608315
10 0 2 -1.179400 0.794406 1.748660 2.838680
11 0 1 0.589700 -0.044712 1.567327 2.415716
12 0 1 0.589700 1.446896 1.586192 2.157974
13 0 2 -1.179400 -0.617437 2.500927 5.090428
14 0 1 0.589700 -0.083548 2.280964 4.327612
15 0 1 0.589700 -1.324372 3.042957 4.740845
16 0 2 -1.179400 50.959103 1.373177 2.007668
17 0 1 0.589700 50.575558 0.573669 1.648313
18 0 1 0.589700 50.363136 2.069534 1.732759
19 0 2 -1.179400 7.596868 12.020803 9.268961
20 0 1 0.589700 7.636259 12.000587 10.224429
21 0 1 0.589700 8.488070 11.814016 8.987831
22 0 2 -1.179400 -0.469972 4.136934 1.321441
23 0 1 0.589700 -0.917825 3.428975 0.859190
24 0 1 0.589700 -0.637574 4.914416 0.789746
25 0 2 -1.179400 1.420091 22.247261 22.010706
26 0 1 0.589700 1.380498 21.827112 21.152285
27 0 1 0.589700 2.026213 21.705269 22.515118
28 0 2 -1.179400 -0.504784 24.875423 5.394241
29 0 1 0.589700 -0.620323 0.664127 5.516267
30 0 1 0.589700 -1.136438 24.642471 4.714370
31 0 2 -1.179400 20.861223 2.568342 10.876614
32 0 1 0.589700 21.675962 2.472595 11.369425
33 0 1 0.589700 21.127419 2.968125 10.049338
34 0 2 -1.179400 6.627828 9.005198 17.072403
35 0 1 0.589700 7.213501 9.228638 17.795214
36 0 1 0.589700 5.933052 8.486590 17.477436
37 0 2 -1.179400 4.656413 3.563939 13.080883
38 0 1 0.589700 4.006052 4.225137 13.316645
39 0 1 0.589700 5.254001 3.537712 13.827601
40 0 2 -1.179400 14.858161 0.701723 10.616266
41 0 1 0.589700 15.451818 1.435520 10.458768
42 0 1 0.589700 15.095773 0.054462 9.953096
43 0 2 -1.179400 9.708245 24.120117 21.462130
44 0 1 0.589700 10.460000 24.552734 21.057775
45 0 1 0.589700 9.763423 24.358568 22.386801
46 0 2 -1.179400 16.260799 3.044290 10.352135
47 0 1 0.589700 16.712934 3.713287 10.865403
48 0 1 0.589700 15.706403 3.538595 9.749008
49 0 2 -1.179400 6.638612 21.018246 12.256527
50 0 1 0.589700 7.020474 20.995447 11.379745
51 0 1 0.589700 6.630075 20.103939 12.538185
52 0 2 -1.179400 21.408625 20.560007 13.216789
53 0 1 0.589700 20.997351 20.202158 12.430665
54 0 1 0.589700 22.154165 21.063272 12.890125
55 0 2 -1.179400 2.252083 18.685915 16.771568
56 0 1 0.589700 1.371353 18.833578 16.427324
57 0 1 0.589700 2.759821 19.435587 16.462109
58 0 2 -1.179400 11.127789 15.277006 3.891659
59 0 1 0.589700 10.988672 14.986995 2.990829
60 0 1 0.589700 11.816863 14.702621 4.224833
61 0 2 -1.179400 20.258768 22.885996 10.929690
62 0 1 0.589700 20.447250 22.237700 10.251931
63 0 1 0.589700 19.469761 22.559128 11.361493
64 0 2 -1.179400 9.480866 20.543287 13.718573
65 0 1 0.589700 9.293409 20.542866 14.656542
66 0 1 0.589700 8.739902 20.082199 13.325948
67 0 2 -1.179400 11.352970 10.094588 22.921371
68 0 1 0.589700 12.234372 10.182039 0.012327
69 0 1 0.589700 10.921653 9.456906 0.217805
70 0 2 -1.179400 0.647012 19.854546 1.656381
71 0 1 0.589700 0.930567 19.061651 2.110555
72 0 1 0.589700 1.275588 19.959579 0.942723
73 0 2 -1.179400 21.286358 2.847470 18.461773
74 0 1 0.589700 21.013290 2.011839 18.839319
75 0 1 0.589700 22.085947 2.642212 17.977686
76 0 2 -1.179400 17.414761 16.842611 2.311703
77 0 1 0.589700 17.675259 17.420362 3.028300
78 0 1 0.589700 17.705124 15.973388 2.586608
79 0 2 -1.179400 21.290995 0.511757 6.813761
80 0 1 0.589700 21.232731 1.300182 6.275028
81 0 1 0.589700 20.411888 0.134563 6.782770
82 0 2 -1.179400 17.569098 3.711832 3.562789
83 0 1 0.589700 17.803085 4.431451 4.148154
84 0 1 0.589700 17.823538 2.922282 4.039447
85 0 2 -1.179400 12.038623 9.994927 12.269203
86 0 1 0.589700 11.503497 10.782684 12.362569
87 0 1 0.589700 12.330169 10.009489 11.358276
88 0 2 -1.179400 12.550319 18.600685 17.508060
89 0 1 0.589700 13.288657 18.160229 17.087797
90 0 1 0.589700 12.858994 18.794369 18.392504
91 0 2 -1.179400 23.705061 2.678596 0.234632
92 0 1 0.589700 23.888422 3.617588 0.245065
93 0 1 0.589700 24.447495 2.284237 0.691825
94 0 2 -1.179400 13.331395 6.822328 11.083866
95 0 1 0.589700 13.028085 7.020717 10.198611
96 0 1 0.589700 12.567108 6.975880 11.638857
97 0 2 -1.179400 25.042719 4.560572 3.389066
98 0 1 0.589700 25.736376 4.361217 2.760827
99 0 1 0.589700 25.392769 5.281637 3.911448
100 0 2 -1.179400 6.113071 4.674314 5.618491
101 0 1 0.589700 5.604631 4.624855 6.427372
102 0 1 0.589700 5.629282 5.290204 5.068893
103 0 2 -1.179400 14.345393 0.810904 21.784204
104 0 1 0.589700 13.910233 1.663080 21.784525
105 0 1 0.589700 14.186221 0.460039 22.659729
106 0 2 -1.179400 13.728245 4.891324 15.907176
107 0 1 0.589700 13.509710 4.246334 16.579052
108 0 1 0.589700 14.612749 4.656037 15.627322
109 0 2 -1.179400 21.265629 2.859335 1.575061
110 0 1 0.589700 22.122534 2.693466 1.182451
111 0 1 0.589700 21.112278 2.105256 2.143470
112 0 2 -1.179400 15.491619 -0.009360 7.845793
113 0 1 0.589700 14.583891 0.258708 7.703437
114 0 1 0.589700 15.559643 24.290661 7.418275
115 0 2 -1.179400 24.017632 5.467352 0.513118
116 0 1 0.589700 23.097775 5.656086 0.698454
117 0 1 0.589700 24.498066 5.894951 1.221394
118 0 2 -1.179400 20.753939 11.199488 13.095369
119 0 1 0.589700 20.142860 11.821795 13.489009
120 0 1 0.589700 21.168560 10.765850 13.840541
121 0 2 -1.179400 30.114540 1.175830 4.205972
122 0 1 0.589700 29.440514 1.142680 3.527654
123 0 1 0.589700 30.941380 1.164518 3.724242
124 0 2 -1.179400 28.350382 1.143816 2.255884
125 0 1 0.589700 27.393290 1.131271 2.257474
126 0 1 0.589700 28.600704 0.307482 1.864405
127 0 2 -1.179400 31.539164 4.287965 3.300642
128 0 1 0.589700 31.978342 4.361338 2.453946
129 0 1 0.589700 31.752047 3.406400 3.605464
130 0 2 -1.179400 28.692034 4.344160 3.646846
131 0 1 0.589700 29.618694 4.552794 3.528948
132 0 1 0.589700 28.337862 4.313696 2.758764
133 0 2 -1.179400 26.575333 2.544966 4.876038
134 0 1 0.589700 27.261854 2.911192 4.319086
135 0 1 0.589700 25.799278 3.068263 4.676547
136 0 2 -1.179400 25.637442 1.132505 2.009597
137 0 1 0.589700 25.020456 1.286669 2.724437
138 0 1 0.589700 25.251875 0.412242 1.511651
139 0 2 -1.179400 30.111626 2.678340 0.553698
140 0 1 0.589700 30.145796 3.634270 0.532791
141 0 1 0.589700 29.316000 2.477441 1.046063
142 0 2 -1.179400 27.055338 4.179130 1.209126
143 0 1 0.589700 26.915176 4.917582 0.617294
144 0 1 0.589700 27.091494 3.414765 0.634970
145 0 2 -1.179400 30.164005 5.599221 0.402859
146 0 1 0.589700 30.893526 5.983582 0.888440
147 0 1 0.589700 30.266947 5.932675 22.783895
148 0 2 -1.179400 26.678005 24.989616 4.976514
149 0 1 0.589700 25.891970 24.654667 4.545496
150 0 1 0.589700 26.608738 0.787307 4.896311
151 0 2 -1.179400 36.359657 0.738016 4.078897
152 0 1 0.589700 35.659096 0.864112 3.439447
153 0 1 0.589700 37.159142 0.695805 3.554646
154 0 2 -1.179400 34.517715 1.110116 2.032724
155 0 1 0.589700 33.581848 0.917384 2.088875
156 0 1 0.589700 34.558216 2.040505 1.813370
157 0 2 -1.179400 37.655483 4.377097 3.573529
158 0 1 0.589700 38.068977 4.229133 2.723669
159 0 1 0.589700 38.139050 3.813185 4.176491
160 0 2 -1.179400 34.981514 4.083647 3.619661
161 0 1 0.589700 35.937042 4.120218 3.577194
162 0 1 0.589700 34.745029 4.740947 4.273297
163 0 2 -1.179400 32.894260 2.553200 4.795959
164 0 1 0.589700 33.599045 2.955822 4.289147
165 0 1 0.589700 33.008114 1.612987 4.660152
166 0 2 -1.179400 31.729069 0.977605 1.790775
167 0 1 0.589700 31.357662 1.777682 1.420127
168 0 1 0.589700 31.194380 0.273299 1.425215
169 0 2 -1.179400 36.750404 2.995008 0.597746
170 0 1 0.589700 36.585453 2.678806 22.981815
171 0 1 0.589700 36.603439 3.939086 0.547313
172 0 2 -1.179400 33.470192 4.234364 1.376789
173 0 1 0.589700 34.158802 4.435648 2.009938
174 0 1 0.589700 33.553406 4.913610 0.708319
175 0 2 -1.179400 36.281528 5.633779 0.386122
176 0 1 0.589700 37.007111 5.868500 0.964134
177 0 1 0.589700 36.365116 6.229832 22.914240
178 0 2 -1.179400 33.307709 25.025148 4.742243
179 0 1 0.589700 32.496895 24.606794 4.453317
180 0 1 0.589700 33.494282 24.625807 5.591205
181 0 2 -1.179400 42.752338 1.317570 4.040665
182 0 1 0.589700 42.783092 0.506758 4.547514
183 0 1 0.589700 42.070587 1.165733 3.386664
184 0 2 -1.179400 40.947258 1.231919 1.926842
185 0 1 0.589700 41.403221 1.861397 1.368936
186 0 1 0.589700 41.274467 0.378794 1.643004
187 0 2 -1.179400 44.243958 4.220154 3.410645
188 0 1 0.589700 44.646355 4.986561 3.818254
189 0 1 0.589700 44.587814 3.476991 3.905454
190 0 2 -1.179400 41.335918 4.392037 3.323162
191 0 1 0.589700 42.284595 4.286900 3.394725
192 0 1 0.589700 40.975159 3.626380 3.769285
193 0 2 -1.179400 39.828518 2.576201 4.655456
194 0 1 0.589700 39.628746 1.646055 4.757207
195 0 1 0.589700 39.679821 2.949855 5.523361
196 0 2 -1.179400 38.207512 1.206862 2.162199
197 0 1 0.589700 37.812435 1.869852 1.596767
198 0 1 0.589700 39.143391 1.250846 1.966427
199 0 2 -1.179400 42.707676 2.790828 0.394943
200 0 1 0.589700 42.884853 3.722700 0.520031
201 0 1 0.589700 43.467678 2.349323 0.773472
202 0 2 -1.179400 39.458412 4.470854 1.431548
203 0 1 0.589700 40.152763 4.519106 2.088140
204 0 1 0.589700 39.527832 5.293706 0.948463
205 0 2 -1.179400 42.752060 5.625768 0.602097
206 0 1 0.589700 42.025181 5.850453 1.182460
207 0 1 0.589700 43.521534 6.012201 1.019701
208 0 2 -1.179400 39.412975 24.843836 4.866991
209 0 1 0.589700 40.151749 24.364613 4.492364
210 0 1 0.589700 39.324123 24.493252 5.752518
211 0 2 -1.179400 48.858799 1.067143 4.136083
212 0 1 0.589700 49.597904 1.238450 3.552944
213 0 1 0.589700 49.222126 0.513898 4.826848
214 0 2 -1.179400 47.263023 0.955688 1.767935
215 0 1 0.589700 47.614204 1.011099 2.655998
216 0 1 0.589700 46.321995 1.095972 1.872494
217 0 2 -1.179400 50.748856 4.287140 3.561848
218 0 1 0.589700 49.864502 4.370440 3.205513
219 0 1 0.589700 -1.471291 4.274986 2.792753
220 0 2 -1.179400 47.667152 3.966147 3.690667
221 0 1 0.589700 47.375961 4.689494 4.244993
222 0 1 0.589700 47.129967 4.037358 2.902218
223 0 2 -1.179400 45.802429 2.370369 5.059472
224 0 1 0.589700 45.794815 1.413819 5.078445
225 0 1 0.589700 46.609295 2.594692 4.596344
226 0 2 -1.179400 44.436966 0.954448 1.938933
227 0 1 0.589700 43.917015 0.354015 1.405448
228 0 1 0.589700 43.908001 1.097097 2.723240
229 0 2 -1.179400 48.964256 2.848917 0.688428
230 0 1 0.589700 48.960281 2.479711 23.077667
231 0 1 0.589700 48.274807 2.372741 1.150597
232 0 2 -1.179400 46.171078 4.369749 1.542217
233 0 1 0.589700 45.451305 4.404774 2.171755
234 0 1 0.589700 45.956684 3.630391 0.974199
235 0 2 -1.179400 49.250107 5.539971 0.690945
236 0 1 0.589700 49.009590 4.615942 0.629497
237 0 1 0.589700 49.111893 5.882995 23.080425
238 0 2 -1.179400 45.884201 24.737736 4.903699
239 0 1 0.589700 45.904884 24.344549 5.775447
240 0 1 0.589700 45.166145 24.290756 4.456107
241 0 2 -1.179400 17.938450 4.983184 11.206999
242 0 1 0.589700 17.521563 5.776838 11.541376
243 0 1 0.589700 18.037481 5.141447 10.268888
244 0 2 -1.179400 12.949292 2.554003 3.230447
245 0 1 0.589700 13.841816 2.669317 2.904677
246 0 1 0.589700 12.846887 3.234388 3.895089
247 0 2 -1.179400 1.709731 5.970863 21.969145
248 0 1 0.589700 0.762311 5.912551 22.092255
249 0 1 0.589700 2.042568 6.281128 22.810596
250 0 2 -1.179400 12.949442 24.522007 4.562691
251 0 1 0.589700 12.163658 24.571081 4.018727
252 0 1 0.589700 13.576279 -0.050073 4.132559
253 0 2 -1.179400 3.099281 7.314031 16.526674
254 0 1 0.589700 2.551309 8.096114 16.465567
255 0 1 0.589700 3.681663 7.486077 17.266005
256 0 2 -1.179400 50.901855 7.261411 2.213264
257 0 1 0.589700 50.436188 6.520557 1.826231
258 0 1 0.589700 50.482681 7.390021 3.063494
259 0 2 -1.179400 2.561905 1.458722 0.692312
260 0 1 0.589700 3.456479 1.798650 0.675784
261 0 1 0.589700 2.566853 0.739836 0.061158
262 0 2 -1.179400 1.384426 18.025221 3.665811
263 0 1 0.589700 2.077205 18.684420 3.702228
264 0 1 0.589700 0.729541 18.330032 4.293315
265 0 2 -1.179400 6.285728 0.455869 2.447492
266 0 1 0.589700 5.429097 0.289750 2.840594
267 0 1 0.589700 6.847907 24.917160 2.795099
268 0 2 -1.179400 -0.759170 6.050022 5.526409
269 0 1 0.589700 -0.858616 6.996202 5.425108
270 0 1 0.589700 -1.299189 5.676219 4.830688
271 0 2 -1.179400 4.909126 15.232308 18.347008
272 0 1 0.589700 4.135798 15.609025 17.927649
273 0 1 0.589700 5.530367 15.958124 18.401634
274 0 2 -1.179400 3.257674 16.984741 7.674761
275 0 1 0.589700 3.952054 17.462309 7.221480
276 0 1 0.589700 2.735138 16.597105 6.973300
277 0 2 -1.179400 12.552656 24.328093 18.019054
278 0 1 0.589700 11.750301 23.940588 17.669840
279 0 1 0.589700 13.163808 24.319754 17.282959
280 0 2 -1.179400 2.263993 24.677122 5.894719
281 0 1 0.589700 1.341640 24.479130 5.732931
282 0 1 0.589700 2.678737 23.821093 5.998387
283 0 2 -1.179400 1.416795 12.335805 22.156067
284 0 1 0.589700 1.751770 13.104231 22.617254
285 0 1 0.589700 0.471070 12.361859 22.301254
286 0 2 -1.179400 3.928726 19.059250 3.707535
287 0 1 0.589700 4.209806 18.356270 3.122650
288 0 1 0.589700 4.327091 19.848841 3.342409
289 0 2 -1.179400 11.473886 10.016729 17.280067
290 0 1 0.589700 10.861137 10.216833 16.573009
291 0 1 0.589700 11.568595 9.065030 17.253334
292 0 2 -1.179400 7.618383 16.784771 21.884287
293 0 1 0.589700 6.674938 16.922724 21.800381
294 0 1 0.589700 7.739789 15.850206 21.719196
295 0 2 -1.179400 21.704765 7.873159 13.523749
296 0 1 0.589700 20.866144 8.184659 13.863777
297 0 1 0.589700 21.477125 7.123022 12.975341
298 0 2 -1.179400 2.612071 3.486945 6.511216
299 0 1 0.589700 3.286435 3.527472 7.188796
300 0 1 0.589700 1.906330 2.974286 6.904727
301 0 2 -1.179400 8.429284 18.853176 3.750400
302 0 1 0.589700 8.424071 18.758102 4.702144
303 0 1 0.589700 9.270332 18.486990 3.477435
304 0 2 -1.179400 -1.474209 14.919697 10.869819
305 0 1 0.589700 -1.509846 13.974246 10.727523
306 0 1 0.589700 51.071648 15.298699 10.025873
307 0 2 -1.179400 7.514835 15.544077 14.625546
308 0 1 0.589700 6.589929 15.514663 14.870050
309 0 1 0.589700 7.875764 14.720186 14.951721
310 0 2 -1.179400 21.536467 12.379908 1.684272
311 0 1 0.589700 21.637278 13.298949 1.930397
312 0 1 0.589700 22.331367 12.174845 1.192457
313 0 2 -1.179400 2.454272 8.021438 0.697808
314 0 1 0.589700 1.962278 7.691751 1.449163
315 0 1 0.589700 3.364071 8.037712 0.994557
316 0 2 -1.179400 1.996897 9.740664 7.493737
317 0 1 0.589700 2.152583 10.259773 8.281996
318 0 1 0.589700 1.810426 8.860394 7.818892
319 0 2 -1.179400 22.155474 12.421964 7.798589
320 0 1 0.589700 22.782993 12.214798 7.106660
321 0 1 0.589700 22.042599 11.599444 8.273993
322 0 2 -1.179400 18.712557 1.288049 4.075864
323 0 1 0.589700 18.337845 1.097055 3.216671
324 0 1 0.589700 19.630753 1.028481 4.000627
325 0 2 -1.179400 15.333675 20.226152 1.256629
326 0 1 0.589700 14.609394 19.695471 0.925599
327 0 1 0.589700 15.346045 20.054512 2.197523
328 0 2 -1.179400 9.361855 17.852955 19.917809
329 0 1 0.589700 10.209855 17.606201 20.286514
330 0 1 0.589700 8.740431 17.718140 20.632717
331 0 2 -1.179400 19.152601 14.948566 -0.046383
332 0 1 0.589700 19.490259 15.500050 22.520224
333 0 1 0.589700 18.256128 15.254964 0.089756
334 0 2 -1.179400 23.051247 5.796818 6.769534
335 0 1 0.589700 23.316227 5.855347 5.852288
336 0 1 0.589700 23.688314 6.335832 7.237756
337 0 2 -1.179400 24.949900 10.498219 3.405081
338 0 1 0.589700 25.320791 11.247462 3.870348
339 0 1 0.589700 25.171274 9.743756 3.950109
340 0 2 -1.179400 1.170656 21.905560 8.975992
341 0 1 0.589700 0.783126 21.413803 9.699336
342 0 1 0.589700 1.949444 21.404293 8.734941
343 0 2 -1.179400 16.027697 22.923502 10.241525
344 0 1 0.589700 15.808152 22.944309 9.310765
345 0 1 0.589700 16.722088 23.574759 10.338959
346 0 2 -1.179400 9.398191 9.586908 5.461463
347 0 1 0.589700 10.096996 10.005878 4.959654
348 0 1 0.589700 9.019027 8.948266 4.858397
349 0 2 -1.179400 20.646051 7.178021 7.316144
350 0 1 0.589700 21.422073 6.675429 7.069011
351 0 1 0.589700 20.559383 7.838681 6.629735
352 0 2 -1.179400 15.810380 13.407711 4.653154
353 0 1 0.589700 16.287565 12.582546 4.736778
354 0 1 0.589700 15.767756 13.751624 5.544701
355 0 2 -1.179400 18.653381 1.990958 9.498682
356 0 1 0.589700 19.356981 2.416122 9.988448
357 0 1 0.589700 17.849623 2.366732 9.857356
358 0 2 -1.179400 15.971843 10.970160 7.506496
359 0 1 0.589700 15.874929 10.632661 8.396247
360 0 1 0.589700 15.758958 11.900209 7.578126
361 0 2 -1.179400 30.146755 7.315958 4.177822
362 0 1 0.589700 29.923035 7.989254 4.819564
363 0 1 0.589700 29.473160 7.395128 3.502890
364 0 2 -1.179400 28.587896 7.388236 1.839153
365 0 1 0.589700 28.923532 6.746321 1.214196
366 0 1 0.589700 27.651783 7.443511 1.647413
367 0 2 -1.179400 31.498199 10.368644 3.324409
368 0 1 0.589700 32.033012 9.673924 3.707694
369 0 1 0.589700 31.791777 10.423156 2.415651
370 0 2 -1.179400 28.610096 10.499222 3.443020
371 0 1 0.589700 29.562126 10.408072 3.481797
372 0 1 0.589700 28.431446 10.769708 2.543083
373 0 2 -1.179400 26.796206 8.935214 5.038509
374 0 1 0.589700 26.846025 7.991618 4.888372
375 0 1 0.589700 27.513533 9.298841 4.519947
376 0 2 -1.179400 25.447725 7.560478 1.823901
377 0 1 0.589700 25.105736 7.554088 2.717234
378 0 1 0.589700 24.867275 8.155104 1.349494
379 0 2 -1.179400 30.125978 9.119006 0.485922
380 0 1 0.589700 29.425314 8.629683 0.916442
381 0 1 0.589700 30.924965 8.836082 0.930232
382 0 2 -1.179400 26.954212 10.558001 1.206556
383 0 1 0.589700 26.163322 10.484909 1.740338
384 0 1 0.589700 26.883839 9.843019 0.574868
385 0 2 -1.179400 29.997738 11.969312 0.255081
386 0 1 0.589700 29.279270 12.366696 0.746605
387 0 1 0.589700 29.876453 11.027531 0.372352
388 0 2 -1.179400 26.978096 6.165665 4.742699
389 0 1 0.589700 27.679651 5.598066 4.424234
390 0 1 0.589700 26.849642 5.900501 5.652715
391 0 2 -1.179400 36.215889 7.704025 4.066389
392 0 1 0.589700 36.222458 6.882265 4.556222
393 0 1 0.589700 36.059837 8.376848 4.728303
394 0 2 -1.179400 34.736759 7.670547 1.725670
395 0 1 0.589700 35.220486 7.568090 2.544649
396 0 1 0.589700 34.941120 6.880517 1.226283
397 0 2 -1.179400 37.582153 10.441211 3.512820
398 0 1 0.589700 37.961720 11.235053 3.888577
399 0 1 0.589700 36.647861 10.634615 3.436443
400 0 2 -1.179400 34.774933 10.432341 3.239175
401 0 1 0.589700 34.413750 9.714881 3.758943
402 0 1 0.589700 34.551708 11.221558 3.731736
403 0 2 -1.179400 33.222801 8.677341 4.755211
404 0 1 0.589700 32.952465 9.043192 5.596716
405 0 1 0.589700 33.123764 7.731692 4.861753
406 0 2 -1.179400 31.719952 7.301109 1.847711
407 0 1 0.589700 32.655304 7.502886 1.871258
408 0 1 0.589700 31.429018 7.405469 2.752957
409 0 2 -1.179400 36.690708 9.238621 0.589510
410 0 1 0.589700 36.014809 8.887977 1.168999
411 0 1 0.589700 36.557762 10.185857 0.611676
412 0 2 -1.179400 33.246536 10.608726 1.015116
413 0 1 0.589700 33.837524 10.578537 1.766911
414 0 1 0.589700 33.456730 9.821690 0.513426
415 0 2 -1.179400 36.615360 12.009891 0.433069
416 0 1 0.589700 35.727932 12.353021 0.537012
417 0 1 0.589700 37.181667 12.699992 0.777545
418 0 2 -1.179400 33.045162 5.928409 4.965673
419 0 1 0.589700 32.962547 5.347339 5.721063
420 0 1 0.589700 32.565395 5.483565 4.267633
421 0 2 -1.179400 42.798252 7.386120 4.014442
422 0 1 0.589700 42.612011 8.046940 4.680633
423 0 1 0.589700 42.087952 7.478744 3.380018
424 0 2 -1.179400 41.127628 7.324311 1.991497
425 0 1 0.589700 40.179253 7.407537 2.090579
426 0 1 0.589700 41.344414 7.903893 1.261957
427 0 2 -1.179400 44.114071 10.598125 3.456406
428 0 1 0.589700 44.522804 11.325060 3.925365
429 0 1 0.589700 44.483902 10.643343 2.575355
430 0 2 -1.179400 41.188511 10.731357 3.391498
431 0 1 0.589700 40.847485 10.038650 3.956457
432 0 1 0.589700 42.128120 10.556898 3.338074
433 0 2 -1.179400 39.357422 8.865815 4.994532
434 0 1 0.589700 39.317112 7.922610 4.839182
435 0 1 0.589700 38.642654 9.226084 4.470129
436 0 2 -1.179400 38.277496 7.270290 2.105558
437 0 1 0.589700 37.759048 7.444772 2.890444
438 0 1 0.589700 38.050713 7.980423 1.505957
439 0 2 -1.179400 42.665222 9.322149 0.281146
440 0 1 0.589700 42.387028 9.045359 22.680418
441 0 1 0.589700 42.623596 10.277637 0.254349
442 0 2 -1.179400 39.370808 10.918557 1.336091
443 0 1 0.589700 38.518406 10.795848 1.753553
444 0 1 0.589700 39.998020 10.893717 2.058192
445 0 2 -1.179400 42.550659 12.016697 0.758103
446 0 1 0.589700 42.623051 12.599896 0.003306
447 0 1 0.589700 43.252552 12.296430 1.345230
448 0 2 -1.179400 39.362286 6.039472 4.755783
449 0 1 0.589700 40.115189 5.780282 4.225046
450 0 1 0.589700 38.601677 5.812521 4.221276
451 0 2 -1.179400 49.369446 7.281779 4.471615
452 0 1 0.589700 48.982166 7.972477 5.008570
453 0 1 0.589700 48.736439 7.142311 3.767831
454 0 2 -1.179400 47.419048 7.252580 2.490201
455 0 1 0.589700 46.471752 7.364563 2.569304
456 0 1 0.589700 47.523975 6.507864 1.898931
457 0 2 -1.179400 50.581081 10.525049 3.659310
458 0 1 0.589700 50.957039 9.778705 4.125178
459 0 1 0.589700 51.017719 10.520714 2.808146
460 0 2 -1.179400 47.607285 10.519576 3.295571
461 0 1 0.589700 47.350227 11.102823 4.008952
462 0 1 0.589700 48.560337 10.462584 3.363538
463 0 2 -1.179400 45.776627 8.853499 4.893487
464 0 1 0.589700 45.102661 9.331804 4.411145
465 0 1 0.589700 46.603527 9.185408 4.544218
466 0 2 -1.179400 44.654530 7.549711 1.805015
467 0 1 0.589700 44.266808 8.089110 1.116553
468 0 1 0.589700 44.002956 7.551074 2.505681
469 0 2 -1.179400 48.919346 9.017480 0.652623
470 0 1 0.589700 48.103920 8.754520 1.079006
471 0 1 0.589700 49.607300 8.604008 1.173595
472 0 2 -1.179400 45.651611 10.774088 1.073877
473 0 1 0.589700 45.611435 9.945136 0.597957
474 0 1 0.589700 46.286556 10.618826 1.772593
475 0 2 -1.179400 48.806061 11.691760 0.622442
476 0 1 0.589700 49.017200 10.758565 0.618854
477 0 1 0.589700 48.191185 11.795906 1.348049
478 0 2 -1.179400 45.801979 5.900774 4.794940
479 0 1 0.589700 45.407246 5.550656 5.592920
480 0 1 0.589700 45.547314 6.823016 4.786103
481 0 2 -1.179400 -0.639826 10.498989 18.854832
482 0 1 0.589700 0.311404 10.601508 18.826071
483 0 1 0.589700 -0.845854 9.956782 18.094126
484 0 2 -1.179400 6.497723 14.409626 7.942062
485 0 1 0.589700 6.880516 13.664493 8.404292
486 0 1 0.589700 6.536924 14.164415 7.018347
487 0 2 -1.179400 14.946247 20.657698 16.283716
488 0 1 0.589700 15.317959 20.264114 15.494992
489 0 1 0.589700 14.002681 20.671515 16.123594
490 0 2 -1.179400 3.922188 9.105653 5.683128
491 0 1 0.589700 4.499382 9.858588 5.558162
492 0 1 0.589700 3.345716 9.361835 6.402462
493 0 2 -1.179400 -0.825829 15.046986 4.806546
494 0 1 0.589700 -0.809987 15.641057 5.556153
495 0 1 0.589700 -0.952533 14.179727 5.190137
496 0 2 -1.179400 50.393166 13.791123 2.010089
497 0 1 0.589700 50.005402 14.625858 1.748648
498 0 1 0.589700 50.014740 13.151667 1.407422
499 0 2 -1.179400 0.564580 13.604646 2.228696
500 0 1 0.589700 -0.381753 13.709722 2.326531
501 0 1 0.589700 0.874991 13.393900 3.108624
502 0 2 -1.179400 2.176503 24.302441 18.447155
503 0 1 0.589700 3.011251 24.770458 18.434736
504 0 1 0.589700 1.535991 24.960627 18.715944
505 0 2 -1.179400 1.740657 12.403182 4.492232
506 0 1 0.589700 1.620839 11.535049 4.108405
507 0 1 0.589700 2.425166 12.282266 5.149788
508 0 2 -1.179400 -0.794560 12.232606 5.301805
509 0 1 0.589700 -1.289571 11.711353 4.670423
510 0 1 0.589700 0.101690 12.229461 4.966024
511 0 2 -1.179400 10.294704 13.357045 6.373524
512 0 1 0.589700 10.375409 12.744108 7.103525
513 0 1 0.589700 11.174352 13.718431 6.265459
514 0 2 -1.179400 18.842363 0.536330 13.328208
515 0 1 0.589700 19.398060 0.040169 12.727804
516 0 1 0.589700 17.952234 0.249755 13.124257
517 0 2 -1.179400 9.065014 2.490947 18.403719
518 0 1 0.589700 9.765735 2.866710 18.936119
519 0 1 0.589700 8.790689 1.710331 18.884056
520 0 2 -1.179400 21.925858 14.576056 14.062506
521 0 1 0.589700 21.857635 15.349567 14.621302
522 0 1 0.589700 22.407936 13.940204 14.590461
523 0 2 -1.179400 5.359755 18.240961 15.618775
524 0 1 0.589700 5.599673 18.472574 16.515318
525 0 1 0.589700 4.829383 18.977018 15.314612
526 0 2 -1.179400 16.377104 18.735287 18.453665
527 0 1 0.589700 16.008390 18.940321 17.595116
528 0 1 0.589700 15.614453 18.603594 19.016459
529 0 2 -1.179400 19.449205 9.003789 14.812599
530 0 1 0.589700 18.613258 9.469036 14.785473
531 0 1 0.589700 19.622290 8.875584 15.744551
532 0 2 -1.179400 9.789721 24.599487 5.313215
533 0 1 0.589700 9.379400 24.402348 4.471840
534 0 1 0.589700 10.303947 23.819000 5.518187
535 0 2 -1.179400 5.571605 24.663664 13.317564
536 0 1 0.589700 6.124760 24.597679 14.095369
537 0 1 0.589700 6.068553 24.218273 12.631988
538 0 2 -1.179400 11.166162 1.432289 16.833435
539 0 1 0.589700 11.573059 0.663810 17.232595
540 0 1 0.589700 10.397548 1.606429 17.376247
541 0 2 -1.179400 17.766747 8.312606 18.562901
542 0 1 0.589700 17.307358 8.340850 17.724247
543 0 1 0.589700 18.689787 8.217399 18.328312
544 0 2 -1.179400 13.871297 15.965666 22.943674
545 0 1 0.589700 14.738945 15.739934 22.608698
546 0 1 0.589700 13.988948 16.027817 0.619237
547 0 2 -1.179400 18.224661 24.756910 10.467763
548 0 1 0.589700 18.353191 0.469728 10.081966
549 0 1 0.589700 19.081848 24.336067 10.403351
550 0 2 -1.179400 16.244049 16.187078 8.888437
551 0 1 0.589700 16.914558 16.122726 9.567995
552 0 1 0.589700 15.797557 17.013866 9.069068
553 0 2 -1.179400 12.770337 7.289879 8.548135
554 0 1 0.589700 13.197475 7.864318 7.913389
555 0 1 0.589700 12.209599 6.722623 8.019642
556 0 2 -1.179400 6.872063 16.419594 4.206496
557 0 1 0.589700 7.103446 16.255863 3.292919
558 0 1 0.589700 7.670162 16.776846 4.595428
559 0 2 -1.179400 20.779266 8.592668 2.339120
560 0 1 0.589700 19.881496 8.921327 2.384728
561 0 1 0.589700 21.270788 9.152493 2.939457
562 0 2 -1.179400 14.712044 11.895210 21.321766
563 0 1 0.589700 14.936429 11.136471 20.783945
564 0 1 0.589700 15.546540 12.340306 21.468363
565 0 2 -1.179400 13.334169 13.173419 9.278264
566 0 1 0.589700 14.075873 13.484788 9.796571
567 0 1 0.589700 13.230187 12.257430 9.534255
568 0 2 -1.179400 2.871041 21.968393 5.920120
569 0 1 0.589700 2.446907 21.912582 5.064474
570 0 1 0.589700 3.807868 21.936411 5.726566
571 0 2 -1.179400 23.726366 15.854090 6.470097
572 0 1 0.589700 24.059160 16.736109 6.306467
573 0 1 0.589700 23.274197 15.920349 7.310527
574 0 2 -1.179400 22.180050 22.587074 20.270168
575 0 1 0.589700 23.111931 22.795610 20.335381
576 0 1 0.589700 21.861086 22.628765 21.171028
577 0 2 -1.179400 24.915110 17.006720 3.200099
578 0 1 0.589700 25.110023 16.368465 3.885523
579 0 1 0.589700 23.965221 17.118023 3.238766
580 0 2 -1.179400 13.553259 17.634672 11.058882
581 0 1 0.589700 12.954196 18.380342 11.087331
582 0 1 0.589700 13.021990 16.913258 10.722881
583 0 2 -1.179400 3.819963 12.365756 2.235594
584 0 1 0.589700 3.109549 11.740417 2.093866
585 0 1 0.589700 3.526665 12.898172 2.974292
586 0 2 -1.179400 8.927767 8.303412 10.628162
587 0 1 0.589700 8.013384 8.453283 10.388316
588 0 1 0.589700 9.419668 8.491860 9.829561
589 0 2 -1.179400 23.708199 15.869150 0.190157
590 0 1 0.589700 23.598070 15.328742 22.680199
591 0 1 0.589700 24.079454 15.275196 0.841823
592 0 2 -1.179400 21.177752 22.154068 23.008171
593 0 1 0.589700 20.919827 23.060495 -0.098197
594 0 1 0.589700 22.068846 22.091532 0.080120
595 0 2 -1.179400 8.691958 19.380035 23.054600
596 0 1 0.589700 8.905150 18.452312 22.958061
597 0 1 0.589700 7.913162 19.390720 0.338933
598 0 2 -1.179400 5.682257 25.046827 6.106276
599 0 1 0.589700 6.134576 0.656882 5.747994
600 0 1 0.589700 5.076494 0.255207 6.752643
601 0 2 -1.179400 30.029409 13.490927 3.876806
602 0 1 0.589700 29.989290 14.296269 4.391655
603 0 1 0.589700 29.978052 12.788955 4.524698
604 0 2 -1.179400 28.339586 13.572659 1.774823
605 0 1 0.589700 28.613937 14.321981 1.247036
606 0 1 0.589700 28.959969 13.552567 2.502936
607 0 2 -1.179400 31.490129 16.639038 3.321547
608 0 1 0.589700 31.972235 15.987861 3.830465
609 0 1 0.589700 31.923147 16.644772 2.468548
610 0 2 -1.179400 28.524466 16.498363 3.692503
611 0 1 0.589700 29.447800 16.669334 3.507214
612 0 1 0.589700 28.142124 17.365080 3.827173
613 0 2 -1.179400 26.514530 14.870174 4.641414
614 0 1 0.589700 26.657207 13.924582 4.671790
615 0 1 0.589700 27.343334 15.227612 4.323207
616 0 2 -1.179400 24.572340 14.045959 2.392407
617 0 1 0.589700 23.984648 14.018975 3.146901
618 0 1 0.589700 25.439695 14.195324 2.768371
619 0 2 -1.179400 29.842342 15.610818 0.451211
620 0 1 0.589700 29.998352 16.549286 0.349410
621 0 1 0.589700 30.692944 15.252443 0.704249
622 0 2 -1.179400 26.944887 16.663088 1.133792
623 0 1 0.589700 26.190306 16.987095 1.625092
624 0 1 0.589700 27.613045 16.500181 1.799041
625 0 2 -1.179400 30.093109 18.330664 0.467738
626 0 1 0.589700 30.893059 18.742062 0.794423
627 0 1 0.589700 29.408104 18.628416 1.065827
628 0 2 -1.179400 26.941582 12.250172 4.836248
629 0 1 0.589700 27.035730 11.808424 5.679456
630 0 1 0.589700 27.519173 11.766355 4.246502
631 0 2 -1.179400 36.450352 13.396206 3.877708
632 0 1 0.589700 36.280552 14.081963 4.522764
633 0 1 0.589700 35.779915 13.526391 3.207565
634 0 2 -1.179400 34.684402 13.718891 1.802971
635 0 1 0.589700 34.886044 14.435460 1.202053
636 0 1 0.589700 33.771648 13.863995 2.051768
637 0 2 -1.179400 37.676125 16.972839 3.324123
638 0 1 0.589700 37.989811 16.234020 3.844779
639 0 1 0.589700 38.209396 17.713114 3.612592
640 0 2 -1.179400 34.886688 17.080322 3.468019
641 0 1 0.589700 35.840424 17.114639 3.394625
642 0 1 0.589700 34.701836 16.195303 3.780994
643 0 2 -1.179400 33.354088 14.861487 4.546606
644 0 1 0.589700 33.443970 13.950171 4.823719
645 0 1 0.589700 33.499817 15.370159 5.343522
646 0 2 -1.179400 31.855047 13.586469 1.626164
647 0 1 0.589700 31.319729 12.900515 1.228097