LAMMPS data file via write_data, version 30 Jul 2021, timestep = 12000000

1920 atoms
2 atom types
1280 bonds
1 bond types
640 angles
1 angle types

-0.02578205600481276 24.755783056006273 xlo xhi
-0.15076394599143583 24.88076494598417 ylo yhi
-0.024352041655085088 22.834352041661546 zlo zhi

Masses

1 1.008
2 15.999

Pair Coeffs # lj/cut/tip4p/long/omp

1 0 0
2 0.21084 3.1668

Bond Coeffs # harmonic/omp

1 450 0.9572

Angle Coeffs # harmonic/omp

1 55 104.52

Atoms # full

1 1 2 -1.1794 4.376103694435127 1.2067422961978127 4.213585990868187 0 0 0
2 1 1 0.5897 4.516392100274547 1.9278395999201416 4.827141049092161 0 0 0
3 1 1 0.5897 5.081040371490922 1.296691866195533 3.5724232186603033 0 0 0
4 2 2 -1.1794 2.62751854528148 1.3091931410992508 1.9710141401777586 0 0 0
5 2 1 0.5897 2.980993432184256 1.2895092954683076 2.8602368641297473 0 0 0
6 2 1 0.5897 1.684221261893884 1.1935668376902504 2.0850786368456053 0 0 0
10 4 2 -1.1794 2.881307082760249 4.578298554419792 3.7193720205489775 0 0 0
11 4 1 0.5897 2.387076354573513 5.291293059928366 4.123750448938916 0 0 0
12 4 1 0.5897 2.510206340868371 4.497227974621065 2.8408668549934717 0 0 0
13 5 2 -1.1794 1.2674396401863262 2.854055880515532 5.098894481959608 0 0 0
14 5 1 0.5897 1.9549093736702319 3.423322782259629 4.7532305413383895 0 0 0
15 5 1 0.5897 1.6334751606098574 1.9717187073783484 5.038268141451415 0 0 0
22 8 2 -1.1794 1.3661430898741571 4.313500838335354 1.4108942261563306 0 0 0
24 8 1 0.5897 1.2559655414237132 5.040735829343954 0.7984419759066395 0 0 0
23 8 1 0.5897 0.5152303888124906 4.231374198187556 1.8414293740654484 0 0 0
20 7 1 0.5897 3.7526571262017914 2.9834263230121256 1.2114355498285998 0 0 0
9 3 1 0.5897 4.792712083398382 4.533923457161277 3.6089529432376786 0 0 0
21 7 1 0.5897 5.249757463458954 2.761739469845664 1.174802489155066 0 0 0
19 7 2 -1.1794 4.554864188593003 3.3004670694919582 0.7965781402802472 0 0 0
27 9 1 0.5897 4.555765021265806 5.099925888849279 0.7332265600956949 0 0 0
47 16 1 0.5897 6.050519088054477 0.6726805729427007 1.780097315738524 0 0 0
7 3 2 -1.1794 5.749444281642141 4.562296086698897 3.617278223228289 0 0 0
8 3 1 0.5897 5.964536400730234 5.208287276050593 4.289982588026112 0 0 0
387 129 1 0.5897 3.817320407537339 0.008314473182579052 1.2698768581262838 0 1 0
28 10 2 -1.1794 1.5735120973070977 0.03360362049572124 4.827810867494966 0 0 0
867 289 1 0.5897 4.48687887009772 -0.03649758131390489 5.508245177132046 0 1 0
25 9 2 -1.1794 4.565621901897946 6.05345089942621 0.6504173473620537 0 0 0
386 129 1 0.5897 4.607188418893474 0.1691929704194427 -0.011422897949163513 0 1 0
1619 540 1 0.5897 7.67091093737163 5.764108751406473 -0.004605821491660358 0 0 1
416 139 1 0.5897 10.033430943015203 0.12597274028299443 1.130105793291648 0 1 0
180 60 1 0.5897 8.039762332318682 6.093532384743604 4.685166835391953 0 0 0
78 26 1 0.5897 11.995885546522144 1.1485425633723687 3.132818170061397 0 0 0
77 26 1 0.5897 12.04987109658605 0.5183660478086989 1.7575326895298047 0 0 0
37 13 2 -1.1794 12.073195079999673 4.427100114576414 3.9268238212181643 0 0 0
46 16 2 -1.1794 6.283072439082582 1.5243716191378263 2.1498219856402225 0 0 0
31 11 2 -1.1794 10.651004564629307 1.5069817061994857 4.517267189093231 0 0 0
32 11 1 0.5897 10.817638734385893 2.3187758442877455 4.996179515511803 0 0 0
34 12 2 -1.1794 9.141632815621204 1.4316510329303795 2.054129922745979 0 0 0
36 12 1 0.5897 9.459886598383033 2.132776160180097 1.485562015670841 0 0 0
39 13 1 0.5897 11.179451004240379 4.738207627801596 4.070453825810523 0 0 0
40 14 2 -1.1794 9.22572612731214 4.947970886692829 3.9706333774526428 0 0 0
41 14 1 0.5897 8.965922926663627 5.144565663441673 3.070692094224094 0 0 0
42 14 1 0.5897 8.926809094363188 4.050382619154853 4.116059525976651 0 0 0
43 15 2 -1.1794 7.568908212290448 2.8620552703861435 4.831694880289968 0 0 0
45 15 1 0.5897 6.8003556044510365 3.282325997840413 4.445859662774856 0 0 0
48 16 1 0.5897 7.238917737145518 1.5515619789212147 2.1072539752151194 0 0 0
49 17 2 -1.1794 10.838218276550412 3.1473780138161294 0.8954882384230893 0 0 0
52 18 2 -1.1794 7.707144521040668 4.772215146342088 1.5369537983389563 0 0 0
53 18 1 0.5897 7.552106073172853 4.063197980993775 0.9129591042800099 0 0 0
54 18 1 0.5897 7.0114778043433335 4.67588459225093 2.1872567963950886 0 0 0
35 12 1 0.5897 9.531137227450136 1.6197298803168654 2.907933209375084 0 0 0
33 11 1 0.5897 10.644734898960403 0.827560136368158 5.191397159844273 0 0 0
59 20 1 0.5897 7.466674099706206 1.0037234521451162 5.003164385510141 0 0 0
50 17 1 0.5897 11.433008648979696 2.561105385761514 1.3630989103572047 0 0 0
56 19 1 0.5897 10.651618718937074 4.930578242278367 0.8592319546955005 0 0 0
51 17 1 0.5897 10.791690704398624 2.7859591304931524 0.010465999630600818 0 0 0
55 19 2 -1.1794 10.664015134933 5.882469287691818 0.7596551568124686 0 0 0
58 20 2 -1.1794 7.615482199252197 0.10376160142144603 5.293173655528618 0 0 0
1347 449 1 0.5897 4.370922903863528 0.3817107121331397 11.358398959548435 0 1 0
496 166 2 -1.1794 0.31758088233550397 1.8493775104725452 7.8859313396552135 0 0 0
578 193 1 0.5897 0.17094342017862907 3.707967803903126 9.551107746114385 1 0 0
579 193 1 0.5897 0.3538017105292448 5.140988838379784 10.003567895885404 1 0 0
494 165 1 0.5897 1.4025127186439297 1.7968194039007976 10.892847366061224 0 0 0
504 168 1 0.5897 1.5015271318829582 3.948375895257887 6.555938880756416 0 0 0
501 167 1 0.5897 4.463514787497039 3.9903489871998525 6.342966953131055 0 0 0
499 167 2 -1.1794 4.69026231195896 3.067904809029641 6.225294917113754 0 0 0
483 161 1 0.5897 4.461490977318179 2.3703123055923685 10.580254821960512 0 0 0
492 164 1 0.5897 2.6402320418175127 3.8354805422372484 9.77646931072623 0 0 0
493 165 2 -1.1794 1.5037300785597676 2.7442579708311134 10.801828887200465 0 0 0
491 164 1 0.5897 2.781477332153696 4.49898497270366 8.423228357450679 0 0 0
485 162 1 0.5897 3.262325340953994 1.5500426980475384 8.642378241604066 0 0 0
481 161 2 -1.1794 4.373153238142075 1.6900839459101937 9.912736535772131 0 0 0
482 161 1 0.5897 5.24350941436338 1.6250516382113194 9.519781915573612 0 0 0
502 168 2 -1.1794 1.5738726186924112 4.748240649352152 7.076616951221945 0 0 0
500 167 1 0.5897 4.107853165872545 2.5994525320818744 6.823182846526453 0 0 0
490 164 2 -1.1794 3.172771765596568 4.469417459243888 9.296191840404417 0 0 0
503 168 1 0.5897 0.9895224046746511 4.603777428897122 7.8207680588054425 0 0 0
498 166 1 0.5897 1.2523561856960375 1.6659593552359506 7.79243079874012 0 0 0
484 162 2 -1.1794 2.8889506162665795 1.3941765102606025 7.774994971592448 0 0 0
489 163 1 0.5897 4.9959959154363585 4.530809103524466 9.407992102432756 0 0 0
486 162 1 0.5897 3.3858027230230063 0.6525469717641502 7.4296311731272215 0 0 0
487 163 2 -1.1794 5.951897734339814 4.577576470867975 9.392015887957744 0 0 0
527 176 1 0.5897 5.959098448433106 0.5743226196210195 7.481471891334622 0 0 0
528 176 1 0.5897 6.061280602503143 2.081183054128241 7.378247222163207 0 0 0
505 169 2 -1.1794 4.438785503942952 5.846156874180758 6.265032641455162 0 0 0
508 170 2 -1.1794 1.4417755720319452 -0.09907217242621918 10.588320125038928 0 0 0
506 169 1 0.5897 3.6089563860387983 5.927808898106073 6.734996491997321 0 0 0
512 171 1 0.5897 10.012545313902617 1.5652844225981537 9.640861715685197 0 0 0
524 175 1 0.5897 8.33498323792033 3.1797178569530646 10.220613136433217 0 0 0
519 173 1 0.5897 11.038150317919765 4.785465657374236 9.169267305472676 0 0 0
896 299 1 0.5897 11.345010445260831 -0.10464386071502668 7.18592227985839 0 1 0
525 175 1 0.5897 7.8923702137378795 1.8481970209422196 10.788802885704934 0 0 0
522 174 1 0.5897 8.676242712103306 4.3574432948043045 8.4584670786334 0 0 0
520 174 2 -1.1794 9.1719381552454 4.598312259902805 9.240992385849037 0 0 0
558 186 1 0.5897 12.13075839919914 2.120689989103044 7.46078367110002 0 0 0
518 173 1 0.5897 12.142938883210753 3.875850964983199 9.662999983895054 0 0 0
515 172 1 0.5897 8.143452830373903 1.567478818626247 8.014031212932956 0 0 0
538 180 2 -1.1794 7.713467740949568 0.051751899566615384 10.70545324272846 0 0 0
659 220 1 0.5897 6.960216524261721 6.034242246856349 10.356830631984934 0 0 0
534 178 1 0.5897 6.831680869732061 4.536832953682442 7.610620490320777 0 0 0
511 171 2 -1.1794 10.724354857885693 1.5001698705588757 10.27741759040278 0 0 0
529 177 2 -1.1794 10.977938789875013 3.308265466752041 6.716427073034915 0 0 0
44 15 1 0.5897 7.641966600641699 3.2497834583921628 5.703693478040777 0 0 0
513 171 1 0.5897 11.52190565153245 1.5874153147320311 9.755455848737192 0 0 0
516 172 1 0.5897 9.436138758053673 0.8541162426856665 7.6796059520555175 0 0 0
532 178 2 -1.1794 7.564523636236802 4.519147167810832 6.995193665218585 0 0 0
531 177 1 0.5897 10.838854348313525 4.245202848297478 6.578707897873544 0 0 0
523 175 2 -1.1794 7.846576717880886 2.7912100348850943 10.946293841846494 0 0 0
521 174 1 0.5897 8.844033862634168 5.466592524066001 9.474932995217365 0 0 0
526 176 2 -1.1794 6.345992893464241 1.3378648878796415 7.909793189770104 0 0 0
533 178 1 0.5897 7.33351413888409 5.165773081228298 6.3284004070898865 0 0 0
514 172 2 -1.1794 9.094137228189721 1.6781182457737542 8.026314817526007 0 0 0
530 177 1 0.5897 10.213692689800107 3.0232924293659567 7.217286925006853 0 0 0
488 163 1 0.5897 6.23287777237165 3.9840866538568234 10.08837252551292 0 0 0
517 173 2 -1.1794 11.979434183821644 4.762423678046943 9.34143363796772 0 0 0
1377 459 1 0.5897 11.01143046503694 0.08390599936947984 11.351074196666179 0 1 0
961 321 2 -1.1794 4.514935576272895 1.5022151750918968 15.696039331357696 0 0 0
962 321 1 0.5897 5.174285647996488 1.4809005127056092 15.002564809252126 0 0 0
963 321 1 0.5897 4.776280619935442 0.8046882832622814 16.297093956664522 0 0 0
964 322 2 -1.1794 2.8681976318767104 1.5738175664486103 13.65763874174895 0 0 0
965 322 1 0.5897 3.235170546081913 1.6389652778295405 14.539191397378016 0 0 0
966 322 1 0.5897 1.9533557453390107 1.328638405627945 13.795993859630306 0 0 0
970 324 2 -1.1794 3.3350180111862318 4.757183976477993 14.953309359259004 0 0 0
971 324 1 0.5897 4.291688411704207 4.755533855521304 14.922140473542298 0 0 0
972 324 1 0.5897 3.1132442970630003 4.045490105015571 15.553657500869155 0 0 0
973 325 2 -1.1794 1.7102775077662737 2.9444077352434914 16.540772924743774 0 0 0
975 325 1 0.5897 1.005579936605577 2.9980544893415377 15.895292577976688 0 0 0
982 328 2 -1.1794 1.3307790955265402 4.459371547689587 13.053956947920948 0 0 0
983 328 1 0.5897 1.5347973734904787 5.101204013856636 12.37386504856318 0 0 0
984 328 1 0.5897 2.0288407758758646 4.564588920491108 13.700298411782748 0 0 0
980 327 1 0.5897 3.9167088510419235 2.9704950021336973 12.776114055495233 0 0 0
981 327 1 0.5897 5.399069516888814 2.8367507848711715 12.499521105477239 0 0 0
979 327 2 -1.1794 4.599454404108265 3.2402550736828815 12.161932643136755 0 0 0
990 330 1 0.5897 1.7652679207485835 1.058689544921014 16.49408711170421 0 0 0
986 329 1 0.5897 4.285260984510775 5.015500915796117 12.206037893421037 0 0 0
967 323 2 -1.1794 5.8828789684202345 4.701668657014129 14.987392497421533 0 0 0
1008 336 1 0.5897 6.080833349501958 0.778314928366814 13.102003661509467 0 0 0
495 165 1 0.5897 1.2710197200013569 3.094184096151349 11.661741575642278 0 0 0
988 330 2 -1.1794 1.6454110723902593 0.1490418340370382 16.22145364814068 0 0 0
1058 353 1 0.5897 0.002274637104308412 4.312653371008797 14.331838445072158 1 0 0
1346 449 1 0.5897 3.875344997350702 0.3200402567604205 12.787394617281889 0 1 0
1345 449 2 -1.1794 4.446213817577189 -0.1292492285690976 12.16420867218212 0 1 0
976 326 2 -1.1794 0.11452980875216956 1.3383345548275778 13.535528775100994 0 0 0
985 329 2 -1.1794 4.402718634879935 5.965187289378777 12.184332431848517 0 0 0
1110 370 1 0.5897 2.1298988796133673 5.970021864594484 15.548805799110557 0 0 0
1109 370 1 0.5897 0.6571391962916353 5.793392253840498 15.851391795295509 0 0 0
1010 337 1 0.5897 10.758581902039072 2.60218049207543 11.66549927048678 0 0 0
1139 380 1 0.5897 8.505887687815827 5.788489884538804 16.087160305194757 0 0 0
1006 336 2 -1.1794 6.340082807791915 1.4559204031474748 13.726300047603358 0 0 0
968 323 1 0.5897 6.326248620084996 5.335419741988174 15.551224072747004 0 0 0
969 323 1 0.5897 6.189116557863641 3.8493613624790317 15.297147449927857 0 0 0
1017 339 1 0.5897 10.899912694523405 5.088322504696067 12.068205565076418 0 0 0
991 331 2 -1.1794 10.748670016998416 1.4444956874892148 15.763340752645615 0 0 0
992 331 1 0.5897 11.36034984141952 1.4366000838643527 15.027216943991537 0 0 0
993 331 1 0.5897 11.016313731656117 0.7026063923869869 16.30564619419285 0 0 0
994 332 2 -1.1794 9.06186535745924 1.073120547042704 13.589317775567658 0 0 0
995 332 1 0.5897 9.226564569968705 1.9161137392995693 13.166974909066306 0 0 0
998 333 1 0.5897 11.345866152825746 4.296697028763079 14.859023066821308 0 0 0
1000 334 2 -1.1794 9.706466098044244 4.611870130130741 14.997175445059275 0 0 0
1001 334 1 0.5897 9.250603292047877 3.8500474821951123 15.354902760171477 0 0 0
1002 334 1 0.5897 9.309050582033992 4.747236440301537 14.137050110462154 0 0 0
1003 335 2 -1.1794 7.794571813602001 2.7566955170314897 16.3782345946172 0 0 0
1004 335 1 0.5897 7.916383618505404 1.8127021029614472 16.479291821506564 0 0 0
1007 336 1 0.5897 7.270924909955025 1.2957885198585308 13.881477921103762 0 0 0
1012 338 2 -1.1794 7.8818944368905 4.588172785106075 13.01593787946726 0 0 0
1014 338 1 0.5897 7.781217988039239 3.819742034766587 12.454240597943604 0 0 0
1011 337 1 0.5897 11.611461753811753 3.0658116006282468 12.827041891289781 0 0 0
1009 337 2 -1.1794 10.797013180323958 3.2573855489464156 12.362150105394083 0 0 0
996 332 1 0.5897 9.464047371486489 1.1553078874749738 14.453927786337356 0 0 0
1013 338 1 0.5897 7.0858309522839695 4.603018138552381 13.54716343569955 0 0 0
997 333 2 -1.1794 12.284900898612966 4.260954579250491 15.041023527245576 0 0 0
1490 497 1 0.5897 10.971044541113452 2.5930406901107603 17.094046041261088 0 0 0
1376 459 1 0.5897 10.052809738458148 0.1525732610442742 12.52063508625139 0 1 0
1015 339 2 -1.1794 11.026188251636345 6.037025207088845 12.081764065196678 0 0 0
1038 346 1 0.5897 12.094273820412853 0.8130602320579854 13.026232703067608 0 0 0
1138 380 2 -1.1794 7.726714820600456 6.097995256479308 16.548949069076585 0 0 0
660 220 1 0.5897 7.930171649827671 5.88305362760285 11.509170818134873 0 0 0
1497 499 1 0.5897 10.710401550584258 5.941333147444914 17.0268773376514 0 0 0
974 325 1 0.5897 1.4566265155345524 3.5638366730983995 17.22492687168877 0 0 0
1468 490 2 -1.1794 1.4147865948797598 -0.13308781207523504 21.976137230348318 0 0 0
1456 486 2 -1.1794 0.254299361169043 1.2381018702462203 19.31525846634401 0 0 0
1590 530 1 0.5897 2.0785600249998715 5.65053221912438 21.626043709951812 0 0 0
1460 487 1 0.5897 4.542701699637164 2.7595998668280526 17.121637908604512 0 0 0
1825 609 2 -1.1794 5.00716045282409 -0.15041235363883843 17.935553587065453 0 1 0
1454 485 1 0.5897 2.1167282820861435 3.1184481546537395 21.51780267517503 0 0 0
1464 488 1 0.5897 0.5752075848412188 4.7921980968284785 18.919907173898878 0 0 0
1443 481 1 0.5897 4.698766895875503 2.1539950544903537 22.173472306261232 0 0 0
1450 484 2 -1.1794 3.2711619627058113 4.527145374627807 20.661335410482945 0 0 0
1469 490 1 0.5897 1.4596274493072419 0.817689383482905 22.07702131578923 0 0 0
1442 481 1 0.5897 4.102934720069522 1.4852282666069863 20.95312643411816 0 0 0
1453 485 2 -1.1794 1.3407270413820207 2.7578552672219026 21.946697336040366 0 0 0
1444 482 2 -1.1794 3.01617450026295 1.3422652124500625 19.319331518122105 0 0 0
1463 488 1 0.5897 1.3963615534926046 5.739274290287641 18.071146012444768 0 0 0
1452 484 1 0.5897 2.8563522677411926 4.6390807645095204 19.806074873571212 0 0 0
1441 481 2 -1.1794 4.8375967706742 1.4291104565503 21.564063870077486 0 0 0
1451 484 1 0.5897 4.209801640288191 4.5808257639303465 20.481719154234067 0 0 0
1445 482 1 0.5897 2.0600998620234203 1.3853178619600965 19.33544753628999 0 0 0
1446 482 1 0.5897 3.2877479425571234 2.1789361857225216 18.94200533523637 0 0 0
1461 487 1 0.5897 5.262540249652362 2.6726574658229847 18.450452241090204 0 0 0
1459 487 2 -1.1794 4.558139018449342 3.1388191811143624 18.000275004788083 0 0 0
1462 488 2 -1.1794 1.387136399196443 4.846425869652454 18.415946159633602 0 0 0
1466 489 1 0.5897 4.398630352724619 4.90010771970055 17.96550106838035 0 0 0
1447 483 2 -1.1794 5.988989286289498 4.688530660907991 20.50469069106738 0 0 0
1488 496 1 0.5897 6.13199160971822 0.8744320418667111 18.790355000073212 0 0 0
1487 496 1 0.5897 6.087757386991996 1.4235818285189121 20.200284795153166 0 0 0
1465 489 2 -1.1794 4.328303487945507 5.854273986114085 17.993526788523685 0 0 0
1826 609 1 0.5897 4.248774468534992 0.16549994494519005 18.426668103589567 0 1 0
1588 530 2 -1.1794 1.3271168489112002 6.048153576427212 22.065795548655046 0 0 0
1455 485 1 0.5897 1.3675375258439433 3.117701153181685 22.83317074440187 0 0 0
1495 499 2 -1.1794 10.71165936751188 5.654284650791037 17.93991518129086 0 0 0
1620 540 1 0.5897 8.424314375550265 5.798367699349049 21.54158730824023 0 0 0
1518 506 1 0.5897 12.253768882725428 1.3165510262353932 19.95459631427639 0 0 0
1493 498 1 0.5897 7.779071411811336 5.013879084157953 17.965059924893744 0 0 0
1482 494 1 0.5897 9.208727614534569 4.27633658707926 20.08324365914376 0 0 0
1449 483 1 0.5897 6.394885414262033 3.9640993251947547 20.9807051410221 0 0 0
1494 498 1 0.5897 7.174321141134766 4.159424278472665 19.05856123647976 0 0 0
1496 499 1 0.5897 10.722390377454706 4.698432140878406 17.8909755129173 0 0 0
1473 491 1 0.5897 10.304463996704113 1.6576835722900278 20.736281315315416 0 0 0
1005 335 1 0.5897 7.920242811458108 3.1104972880831334 17.258620189737282 0 0 0
1472 491 1 0.5897 10.861267041286633 0.7064318003477114 21.773905520090405 0 0 0
1484 495 1 0.5897 8.57298698863129 3.247195815350404 21.709937933448145 0 0 0
1491 497 1 0.5897 10.37997426688157 2.5936288360383775 18.48763237418358 0 0 0
1481 494 1 0.5897 10.522435512309423 4.5019255365034185 20.800874608049217 0 0 0
1448 483 1 0.5897 6.350493805927802 5.47572909735081 20.91184564166392 0 0 0
1475 492 1 0.5897 8.338062851720592 1.2225067488078991 19.252490692694842 0 0 0
1480 494 2 -1.1794 9.578442992209744 4.447083531410697 20.94939431435921 0 0 0
1474 492 2 -1.1794 9.27962754873381 1.3321663166307114 19.11970469311987 0 0 0
1492 498 2 -1.1794 7.9892882651812105 4.311286750147675 18.580105102944877 0 0 0
1489 497 2 -1.1794 11.023859314177987 3.040683289378139 17.93837032203406 0 0 0
1471 491 2 -1.1794 11.070465512924345 1.5050172577129302 21.289516716505318 0 0 0
1483 495 2 -1.1794 7.74239803017006 2.8485767654082217 21.969558094728644 0 0 0
1485 495 1 0.5897 7.900293402292612 1.9062429111330266 21.912593241422798 0 0 0
1498 500 2 -1.1794 7.819371794982561 0.12159872443473196 22.33412939427013 0 0 0
1476 492 1 0.5897 9.582117285735329 0.4731017389912797 18.825315042173674 0 0 0
1486 496 2 -1.1794 6.47102424284815 1.5825866339511407 19.33780116327382 0 0 0
121 41 2 -1.1794 4.330733021097603 7.586295626539974 4.15330197361702 0 0 0
122 41 1 0.5897 3.6365320279433706 7.568575069329889 3.4945999872644817 0 0 0
123 41 1 0.5897 5.142377197333453 7.603555272033001 3.6462719064591305 0 0 0
124 42 2 -1.1794 2.7644313355909906 7.731789445530857 1.8131597156852703 0 0 0
125 42 1 0.5897 3.2066120162407277 6.950653147939686 1.4808014819893018 0 0 0
126 42 1 0.5897 3.365563531031714 8.450056242646976 1.6159241575555592 0 0 0
129 43 1 0.5897 5.026766278691901 10.83614571661926 3.5596495327011572 0 0 0
130 44 2 -1.1794 3.1300597852260186 10.967438287760515 3.4343930650810486 0 0 0
132 44 1 0.5897 2.836245860054356 10.145172540142996 3.8264339380281593 0 0 0
133 45 2 -1.1794 1.496787661137171 8.995049375817922 4.563984001634114 0 0 0
135 45 1 0.5897 0.9232730048822113 9.490162901652509 3.9791205746797713 0 0 0
137 46 1 0.5897 0.9800641020289387 7.69147697179818 1.9193600199311625 0 0 0
139 47 2 -1.1794 4.611722540098743 9.626680217840581 0.8376108776470994 0 0 0
142 48 2 -1.1794 1.6288724176678009 10.734739103815302 1.1882470066549466 0 0 0
143 48 1 0.5897 2.3139379108554 10.927722205915535 1.8282148955986517 0 0 0
144 48 1 0.5897 1.7778843133996245 11.361947020870858 0.4807902319849491 0 0 0
149 50 1 0.5897 1.250026440002037 7.314100967409327 4.710437799327588 0 0 0
131 44 1 0.5897 2.6847053755941594 11.647112633588927 3.9401942008121935 0 0 0
140 47 1 0.5897 4.343999885692518 10.534988250743732 0.6980774296957069 0 0 0
127 43 2 -1.1794 5.956974465762147 11.019542822698742 3.4282512791379776 0 0 0
621 207 1 0.5897 4.329015767453339 8.798807290994507 5.6000824612080455 0 0 0
148 50 2 -1.1794 1.0695779857506749 6.3788113204702 4.8044390730484485 0 0 0
507 169 1 0.5897 4.435416893627764 6.574368765669272 5.643903645854254 0 0 0
168 56 1 0.5897 5.949924296131381 8.558743776243254 1.575949147245527 0 0 0
128 43 1 0.5897 6.14580472015367 11.742707153465082 4.0261605334292465 0 0 0
134 45 1 0.5897 1.5021623611789574 9.498805116714108 5.377779472652041 0 0 0
136 46 2 -1.1794 0.035759692356035655 7.765734716837432 1.7815975997278335 0 0 0
218 73 1 0.5897 0.3672905465070949 10.956466540341028 2.4552155676073197 1 0 0
26 9 1 0.5897 5.302648396896123 6.333846877110861 1.1929160580501186 0 0 0
145 49 2 -1.1794 4.345728272210497 12.351475866792972 0.5562427030927012 0 0 0
270 90 1 0.5897 0.7340425119122896 12.07623446003301 4.421248585016701 0 0 0
57 19 1 0.5897 11.477423862356124 6.157439297948483 1.1826361824773168 0 0 0
198 66 1 0.5897 12.217801495524792 7.5118554449959305 2.992004494178012 0 0 0
166 56 2 -1.1794 6.306613309962304 7.769522690887093 1.9834370124526792 0 0 0
151 51 2 -1.1794 11.018872227207744 7.715328599717394 4.2559070383920075 0 0 0
152 51 1 0.5897 10.328514081477541 7.659097613065352 3.5953303665209324 0 0 0
153 51 1 0.5897 10.844495286261825 6.983832700139252 4.848038544942447 0 0 0
154 52 2 -1.1794 9.214082260420257 7.784247993374982 2.1602017464818144 0 0 0
155 52 1 0.5897 9.4039479286857 8.599431792726076 1.695918891608506 0 0 0
156 52 1 0.5897 9.78069072219285 7.1340378227992645 1.7450754368593795 0 0 0
158 53 1 0.5897 11.134608867417066 11.03839447308807 3.3422863509085117 0 0 0
160 54 2 -1.1794 9.307122202886601 10.743826471127116 3.519787385807143 0 0 0
161 54 1 0.5897 8.675642812416418 10.682417668795624 2.80315428688361 0 0 0
162 54 1 0.5897 9.062711680025243 10.03626222675441 4.1162169488325615 0 0 0
163 55 2 -1.1794 7.459210202919135 9.096165962188866 4.970758375332075 0 0 0
164 55 1 0.5897 6.8481258702317325 9.489862834913115 4.348101299478985 0 0 0
167 56 1 0.5897 7.195242708269056 7.699957420335649 1.6346163536787217 0 0 0
169 57 2 -1.1794 10.97984072315813 9.2947419848969 0.6373023544637428 0 0 0
172 58 2 -1.1794 7.794887362531103 11.167133016183687 1.172362823065935 0 0 0
173 58 1 0.5897 7.693960963461842 10.413115929360702 0.5915150288982615 0 0 0
174 58 1 0.5897 6.953857134695739 11.236315066146846 1.6240720606372223 0 0 0
179 60 1 0.5897 7.349477216019257 7.331571915253448 5.216642374011205 0 0 0
171 57 1 0.5897 10.894189154904527 10.247809579625695 0.6595147447223452 0 0 0
178 60 2 -1.1794 7.2191905286125175 6.393823318319244 5.07587126899357 0 0 0
650 217 1 0.5897 10.891643599775113 9.079593802327834 5.595271579723221 0 0 0
175 59 2 -1.1794 10.778206048209185 12.122007341924325 0.7783870714386723 0 0 0
157 53 2 -1.1794 12.082037140205083 11.07576383684613 3.4733838052129236 0 0 0
197 66 1 0.5897 12.067913236810677 8.147918390123781 1.626575012780815 0 0 0
616 206 2 -1.1794 0.013608630487816242 7.6366659212906844 7.630976378014226 0 0 0
699 233 1 0.5897 0.09189294766757346 10.720854055251428 8.194382762595533 1 0 0
1101 367 1 0.5897 4.483747320383411 9.133656812682926 11.215183932515485 0 0 0
750 250 1 0.5897 1.5932845273908796 12.1841761117285 11.37744115442697 0 0 0
150 50 1 0.5897 1.2957401217770905 6.180929784732943 5.713139538201295 0 0 0
630 210 1 0.5897 1.5037091945117784 7.389957683735324 10.771254495668844 0 0 0
614 205 1 0.5897 2.100936838661563 9.533051065628015 10.179949517261079 0 0 0
605 202 1 0.5897 3.150316122804651 8.13204283654899 7.447028898196027 0 0 0
623 208 1 0.5897 2.118162224548975 10.53057957782301 7.4863037284084015 0 0 0
601 201 2 -1.1794 4.502943691543956 7.675041858878925 10.017746236083525 0 0 0
619 207 2 -1.1794 4.209438237072778 9.199805375043804 6.46086998439574 0 0 0
613 205 2 -1.1794 1.4215351290176959 9.144095081109242 10.730639687583405 0 0 0
622 208 2 -1.1794 1.427592383766452 10.505115093195844 6.824048255898255 0 0 0
603 201 1 0.5897 3.72975343014721 7.528944571913193 9.47279861003098 0 0 0
606 202 1 0.5897 1.7737087141010675 7.620077598440846 7.813921326043679 0 0 0
626 209 1 0.5897 4.4144366020858765 11.25251831563602 6.272577828383958 0 0 0
611 204 1 0.5897 4.130311591829642 10.776331278647604 9.237534398907613 0 0 0
624 208 1 0.5897 1.5366946457758301 11.318956379095068 6.332227304094841 0 0 0
604 202 2 -1.1794 2.7054711964363696 7.460673821779262 7.964240479475513 0 0 0
602 201 1 0.5897 4.404756476285598 7.058959828983981 10.743616501898854 0 0 0
610 204 2 -1.1794 3.211916321331777 10.758372423765788 8.968433329784329 0 0 0
615 205 1 0.5897 0.5991916337329798 9.390448778333527 10.30729992571817 0 0 0
612 204 1 0.5897 2.777579923292555 11.376831801767727 9.555781548432686 0 0 0
620 207 1 0.5897 4.967817581634927 8.910148481246573 6.9679268199026385 0 0 0
607 203 2 -1.1794 5.929834461804093 10.878627675245376 9.497207795609345 0 0 0
648 216 1 0.5897 5.845150778056275 6.89408353240551 7.457690616369838 0 0 0
647 216 1 0.5897 5.69978733910297 7.512141649877501 8.831849316658008 0 0 0
646 216 2 -1.1794 6.151975581039613 7.623816845658407 7.995716369792786 0 0 0
628 210 2 -1.1794 1.5260183084848467 6.433986178759117 10.813508674990786 0 0 0
629 210 1 0.5897 2.126000986111842 6.176766324993037 10.113539284296197 0 0 0
698 233 1 0.5897 0.26743067153284883 11.554239964942774 9.445838581360535 1 0 0
625 209 2 -1.1794 4.394204808090794 12.202668014178828 6.158696710351401 0 0 0
609 203 1 0.5897 6.371186265790368 10.061008359165314 9.72714151674235 0 0 0
655 219 2 -1.1794 10.432706096087013 12.207382055029615 6.127960291977246 0 0 0
678 226 1 0.5897 12.300487867866243 8.800926053632574 7.8251213415508944 0 0 0
633 211 1 0.5897 10.696331688547168 7.076715343710536 10.616837802799678 0 0 0
643 215 2 -1.1794 7.971304059621828 9.127315388325501 10.643939553760022 0 0 0
642 214 1 0.5897 9.298557741892935 10.244438760519174 9.921860780392073 0 0 0
632 211 1 0.5897 11.33929192789741 7.884958245994314 9.510079821754035 0 0 0
535 179 2 -1.1794 10.821790837086265 6.2261341961932475 6.642896580982351 0 0 0
779 260 1 0.5897 8.29884547989264 12.161770231643864 10.02044823847815 0 0 0
635 212 1 0.5897 9.042889843767083 8.019629289718544 8.76369281213047 0 0 0
645 215 1 0.5897 7.981148388804137 8.185534650562369 10.814563365256157 0 0 0
652 218 2 -1.1794 7.6883901013863225 10.78430505616564 7.115405513314687 0 0 0
536 179 1 0.5897 11.542834276816455 6.680845299466954 7.07820846177633 0 0 0
651 217 1 0.5897 9.957390183497342 8.976373651685854 6.781885305062704 0 0 0
608 203 1 0.5897 6.442975084235944 11.5590894372063 9.932873221377125 0 0 0
654 218 1 0.5897 8.477439685005923 10.755485581052966 7.65643195761674 0 0 0
657 219 1 0.5897 10.475534525673817 11.257001066755468 6.233365389946931 0 0 0
653 218 1 0.5897 7.005785721937034 11.107365048319737 7.703461459269773 0 0 0
640 214 2 -1.1794 9.569213036836388 10.90422008507487 9.28346876442346 0 0 0
165 55 1 0.5897 7.379102993519232 9.634141973892028 5.758306997332007 0 0 0
636 212 1 0.5897 7.85501409624613 7.890655566571429 7.834197426733427 0 0 0
649 217 2 -1.1794 10.722210128388632 9.453401265314 6.459919528543765 0 0 0
299 100 1 0.5897 7.859958061440818 12.117972373854377 5.7294055154650385 0 0 0
641 214 1 0.5897 10.508428447734929 10.75802930615843 9.170755556374987 0 0 0
631 211 2 -1.1794 10.523808355744402 7.789767978192946 10.002086925894405 0 0 0
658 220 2 -1.1794 7.714358658206814 6.453274417000137 10.771361469517908 0 0 0
634 212 2 -1.1794 8.806169083046262 7.78815443944387 7.865680122028394 0 0 0
537 179 1 0.5897 10.035452975139092 6.541090160422527 7.088583645308849 0 0 0
1130 377 1 0.5897 10.693090347156883 9.330572250364874 11.327451628304681 0 0 0
1081 361 2 -1.1794 4.623166838207877 7.662950071221867 15.724774345413508 0 0 0
1082 361 1 0.5897 4.473540565581211 8.459299559904037 16.23424998776694 0 0 0
1083 361 1 0.5897 4.545228621974165 6.952508799696208 16.36140865565153 0 0 0
1084 362 2 -1.1794 2.7699260433303596 7.848491638358579 13.484565833315525 0 0 0
1085 362 1 0.5897 3.3107404138367116 7.684345971932532 14.25700558339599 0 0 0
1086 362 1 0.5897 3.2318996162035067 8.540060817198725 13.010802729313083 0 0 0
1089 363 1 0.5897 5.070559264223608 10.846599516685432 15.17305519814297 0 0 0
1090 364 2 -1.1794 3.1485465869702773 10.730411269390531 15.019062714063645 0 0 0
1091 364 1 0.5897 2.678733424945008 11.50314629174306 15.332617869355946 0 0 0
1092 364 1 0.5897 2.6648138991589287 9.990290334364882 15.385641355398892 0 0 0
1095 365 1 0.5897 0.6646410699520504 9.56953178079089 16.060200398422733 0 0 0
1097 366 1 0.5897 0.9424987193540777 7.645314705841082 13.380497546465039 0 0 0
1099 367 2 -1.1794 4.6236958386323055 9.614438132271777 12.030858878190609 0 0 0
1102 368 2 -1.1794 1.4727734997717083 10.985143998802137 12.700590100856186 0 0 0
1104 368 1 0.5897 2.2141642067213394 10.768051631585582 13.265697512069005 0 0 0
1093 365 2 -1.1794 1.378510034261249 9.326458446698775 16.649643935234973 0 0 0
1103 368 1 0.5897 1.386956549351386 10.231240305593197 12.117168267833458 0 0 0
1100 367 1 0.5897 5.237458752731656 9.07246474603122 12.526541548047991 0 0 0
1094 365 1 0.5897 1.490199057665234 8.385278826085242 16.515957404433177 0 0 0
1107 369 1 0.5897 4.380992008045932 11.476638092490292 12.196083175118815 0 0 0
1087 363 2 -1.1794 5.976594138399159 10.900280778990693 14.869091355540421 0 0 0
1128 376 1 0.5897 5.870163234959215 6.977236145153276 12.83927048201362 0 0 0