LAMMPS (30 Jul 2021)
  using 1 OpenMP thread(s) per MPI task
package omp 0
using multi-threaded neighbor list subroutines
echo both

include		in.partitions
variable        pid world 0
include		in.temp
variable        temperature equal 275.62
variable	tempDamp equal 100.0
include		in.pressure
variable        pressure equal 10125.0
variable        pressureDamp equal 1000.0 # This is 1 ps
include		in.seed
variable        seed world 745823

units		real
atom_style	full
read_restart	restart.lmp.${pid}
read_restart	restart.lmp.0
Reading restart file ...
  restart file = 30 Jul 2021, LAMMPS = 30 Jul 2021
  restoring atom style full from restart
  orthogonal box = (-0.092105574 -0.088628146 -0.14267229) to (24.822107 24.818629 22.952672)
  4 by 4 by 4 MPI processor grid
  restoring pair style lj/cut/tip4p/long/omp from restart
  restoring bond style harmonic/omp from restart
  restoring angle style harmonic/omp from restart
  1920 atoms
  1280 bonds
  640 angles
Finding 1-2 1-3 1-4 neighbors ...
  special bond factors lj:    0        0        0       
  special bond factors coul:  0        0        0       
     2 = max # of 1-2 neighbors
     1 = max # of 1-3 neighbors
     1 = max # of 1-4 neighbors
     2 = max # of special neighbors
  special bonds CPU = 0.503 seconds
  read_restart CPU = 0.747 seconds
include 	in.setup
variable	out_freq equal 1000
variable	out_freq2 equal 10000
variable	out_freq3 equal 1000

timestep	2.0

neigh_modify    delay 7 every 1

include		in.tip4p
# This is TIP4P/Ice

# create groups ###
group ox type 2
640 atoms in group ox
group hy type 1
1280 atoms in group hy

# set charges - beside manually ###
set group ox charge -1.1794
Setting atom values ...
  640 settings made for charge
set group hy charge 0.5897
Setting atom values ...
  1280 settings made for charge

# ### TIP3P Potential Parameters ###
pair_style lj/cut/tip4p/long/omp 2 1 1 1 0.1577 8.5
pair_coeff 1 1*2 0.000 0.000
pair_coeff 2 2 0.21084 3.1668
bond_style  harmonic
bond_coeff  1 450 0.9572
angle_style harmonic
angle_coeff 1 55 104.52
kspace_style pppm/tip4p/omp 1.0e-5
pair_modify tail yes

thermo          ${out_freq}
thermo          1000
thermo_style    custom step temp pe etotal epair emol press lx ly lz vol pxx pyy pzz pxy pxz pyz enthalpy

restart 	${out_freq3} restart.lmp.${pid} restart2.lmp.${pid}
restart 	1000 restart.lmp.${pid} restart2.lmp.${pid}
restart 	1000 restart.lmp.0 restart2.lmp.${pid}
restart 	1000 restart.lmp.0 restart2.lmp.0


include         in.dump
dump            myDump all atom ${out_freq2} dump.water.${pid}
dump            myDump all atom 10000 dump.water.${pid}
dump            myDump all atom 10000 dump.water.0
dump            myDump2 all dcd ${out_freq2} dump.dcd
dump            myDump2 all dcd 10000 dump.dcd
dump_modify     myDump append yes
dump_modify     myDump2 append yes


variable natoms 	equal  "count(all)"                        # NUMBER ATOMS
variable H      	equal  "enthalpy/v_natoms"                 # ENTHALPY-per-atom
variable Vol      	equal  "vol/v_natoms"                 # volume-per-atom
fix AVG all 		ave/time ${out_freq} 1 ${out_freq} v_Vol v_H file vol_enthalpy.dat
fix AVG all 		ave/time 1000 1 ${out_freq} v_Vol v_H file vol_enthalpy.dat
fix AVG all 		ave/time 1000 1 1000 v_Vol v_H file vol_enthalpy.dat




fix 		1 all shake 1e-6 200 0 b 1 a 1
       0 = # of size 2 clusters
       0 = # of size 3 clusters
       0 = # of size 4 clusters
     640 = # of frozen angles
  find clusters CPU = 0.194 seconds
fix             2 all nph aniso ${pressure} ${pressure} ${pressureDamp}
fix             2 all nph aniso 10125 ${pressure} ${pressureDamp}
fix             2 all nph aniso 10125 10125 ${pressureDamp}
fix             2 all nph aniso 10125 10125 1000
fix             3 all temp/csvr ${temperature} ${temperature} ${tempDamp} ${seed}
fix             3 all temp/csvr 275.62 ${temperature} ${tempDamp} ${seed}
fix             3 all temp/csvr 275.62 275.62 ${tempDamp} ${seed}
fix             3 all temp/csvr 275.62 275.62 100 ${seed}
fix             3 all temp/csvr 275.62 275.62 100 745823


run             250000
PPPM initialization ...
  extracting TIP4P info from pair style
  using 12-bit tables for long-range coulomb (../kspace.cpp:340)
  G vector (1/distance) = 0.37441979
  grid = 30 30 30
  stencil order = 5
  estimated absolute RMS force accuracy = 0.0032724464
  estimated relative force accuracy = 9.854875e-06
  using double precision FFTW3
  3d grid and FFT values/proc = 3600 512
Last active /omp style is kspace_style pppm/tip4p/omp
Neighbor list info ...
  update every 1 steps, delay 7 steps, check yes
  max neighbors/atom: 2000, page size: 100000
  master list distance cutoff = 10.8154
  ghost atom cutoff = 10.8154
  binsize = 5.4077, bins = 5 5 5
  1 neighbor lists, perpetual/occasional/extra = 1 0 0
  (1) pair lj/cut/tip4p/long/omp, perpetual
      attributes: half, newton on, omp
      pair build: half/bin/newton/omp
      stencil: half/bin/3d
      bin: standard
Per MPI rank memory allocation (min/avg/max) = 9.332 | 9.340 | 9.345 Mbytes
Step Temp PotEng TotEng E_pair E_mol Press Lx Ly Lz Volume Pxx Pyy Pzz Pxy Pxz Pyz Enthalpy 
  500000     276.6697   -9027.4334   -7972.6424   -9027.4334            0    10268.973    24.914212    24.907257    23.095345    14331.693    9293.9767    10617.082    10895.859    624.71023   -108.90349   -369.99509   -5826.2931 
  501000    273.38578   -9043.4814   -8001.2102   -9043.4814            0    9992.5607    25.107699    25.004745      22.7602    14289.118    8672.8219    10675.093    10629.768   -256.77468   -514.17232    1100.5633   -5918.8392 
  502000    279.98876   -9053.3431   -7985.8982   -9053.3431            0     9935.572    24.913781    25.029572    22.921319    14293.306    9631.6001    9819.2079    10355.908    90.371907    620.87593    608.37465   -5914.7965 
  503000    276.42758   -9044.3976   -7990.5296   -9044.3976            0    10075.097     24.95954    24.886455    23.036118    14308.988      8945.46    11676.246    9603.5859    -362.2035    324.78712    495.11279   -5888.0391 
  504000    276.35301   -9086.5598   -8032.9761   -9086.5598            0    9719.2168    24.934299    24.975006    23.001113    14323.581     10319.81    9084.4352    9753.4054   -325.53339   -391.05009   -805.95001   -6002.6829 
  505000    271.76437   -9022.3661   -7986.2764   -9022.3661            0    8759.1389    24.952469    25.053558    23.010348    14384.876    8675.3379    8161.9997     9440.079   -1025.7425    1025.1377   -97.201861   -6148.7084 
  506000    278.19318   -9012.6226   -7952.0233   -9012.6226            0    9988.3681    24.894616    24.929946    23.073162    14319.699    10907.858    9818.9249    9238.3212    645.21546   -724.35619    159.02918   -5866.0712 
  507000    273.38849   -9059.6725   -8017.3909   -9059.6725            0    10111.876    24.899069    25.013433    22.920895     14275.39    9694.9566    10034.466    10606.204   -1607.4759    -597.9534   -815.71182   -5912.1801 
  508000    267.23396   -9039.9699   -8021.1521   -9039.9699            0    9057.0817     24.93796    25.047176    22.919478     14316.09    8740.1367    9213.9923    9217.1161    289.83029    231.87064    215.18286    -6130.165 
  509000    279.12597   -9001.3766   -7937.2211   -9001.3766            0    9773.6821    24.814587    24.950067    23.162945    14340.772    10693.193    9280.0982    9347.7551    788.11166   -629.40472   -576.33844   -5893.0999 
  510000    279.68206   -9026.4529   -7960.1773   -9026.4529            0    10445.592     24.90355    25.037894     22.85674    14251.919    11803.023    9984.6873    9549.0665   -938.12205   -1836.5201   -355.23014    -5789.065 
  511000    268.45064   -9026.9268   -8003.4706   -9026.9268            0    9505.0797    24.942603    24.909673    23.046321    14318.958    9574.5835    9947.3896     8993.266   -590.20255   -690.89455    -347.7291   -6018.5503 
  512000      287.007   -9037.1279   -7942.9264   -9037.1279            0    8205.5075    25.054264    25.063792     22.91792     14391.42    7660.5496    8029.9114    8926.0615   -688.51908   -344.59315   -252.84479   -6220.7209 
  513000    281.26025   -9038.4162   -7966.1239   -9038.4162            0    8975.3071    24.882563    25.041128    23.033089    14351.629    9372.0868    9157.5853    8396.2493    15.918119    302.46469   -263.63925   -6087.5582 
  514000    266.52951   -9050.6256   -8034.4936   -9050.6256            0    10461.706    24.860627    24.967488    22.975445    14261.029    11535.622    9203.7829    10645.714   -341.41786   -142.64255    1133.6293   -5858.6419 
  515000    274.11088   -9027.1481   -7982.1124   -9027.1481            0    11219.266    24.928137    25.092184    22.772264    14244.083    10410.859    11266.668    11980.272     639.8727   -977.29498    -205.5914   -5651.4743 
  516000    275.43264   -9026.1475   -7976.0727   -9026.1475            0    11134.738    24.876988    24.875925    23.041587    14259.012    11214.667    11525.704    10663.842   -115.42869   -405.03238   -1575.1103   -5660.5699 
  517000    278.47974   -9031.3649   -7969.6731   -9031.3649            0    12300.868    24.878642    24.972181    22.842111    14191.208    13421.856    11232.798     12247.95    342.34508   -1229.3475    635.00447   -5423.8336 
  518000    274.44594   -9074.9971    -8028.684   -9074.9971            0    9364.0492    24.977527    24.972496    22.945016    14311.981    8428.9666    9345.9331    10317.248    -211.3138   -411.45281    616.65442   -6074.1675 
  519000    278.35371   -9063.1382    -8001.927   -9063.1382            0    9523.2849    24.939351    24.857232    23.135551    14342.265    9492.9943    10165.812    8911.0484     459.3507   -484.31509   -407.23786   -6009.9678 
  520000    285.80341   -9107.9448   -8018.3319   -9107.9448            0    9324.7936    25.038211    25.007862    22.851192    14308.322    9402.7873    8700.4518    9871.1417    911.15497    349.42686    364.33156   -6072.5067 
  521000    279.23257   -9080.1921   -8015.6302   -9080.1921            0    9693.4375    24.952819    24.875264    23.019198    14288.199    10101.751    9480.1942    9498.3677     101.7911   -13.771396    141.84212    -5995.724 
  522000    286.52816    -9056.322    -7963.946    -9056.322            0    9397.3511    25.039114    24.914517    22.984668    14338.696    9435.4492    9588.3652     9168.239    100.30341   -492.92853    343.01317   -5998.8173 
  523000    281.62655   -9117.8902   -8044.2014   -9117.8902            0    9692.5131    25.019504    24.909743    22.871059    14253.916    8665.8851    10319.548    10092.106   -525.07374   -1843.8224     237.7171   -6029.3339 
  524000    283.82185   -9006.6611   -7924.6028   -9006.6611            0    10714.373    25.024912    24.808042    23.034884    14300.495    10810.713    10944.543    10387.862    929.27276    -162.1749    74.291716   -5690.0341 
  525000    277.68627   -9054.5115   -7995.8448   -9054.5115            0    9323.6776    25.180374    24.914032     22.85491    14337.906    6862.0312     11032.66    10076.342   -821.31562   -994.91856   -627.80611   -6046.2298 
  526000    284.91377   -9044.8528   -7958.6316   -9044.8528            0    8931.6258    24.997905    25.004122    22.991659    14370.952    10088.226    8096.6578    8609.9932   -81.753186   -258.31336    698.53941   -6086.6915 
  527000    270.47089   -9022.0359   -7990.8775   -9022.0359            0    8528.4555    24.911944    25.028599    23.054866    14374.963    9921.5595    6961.6309    8702.1761    305.98339   -813.91036   -431.46138   -6202.9372 
  528000    275.24762   -9071.0623   -8021.6929   -9071.0623            0    9451.4214    24.880895    25.061643    22.957594    14315.348    10243.858     9779.239    8331.1667   -721.81711    6.4354948    621.86541   -6048.4756 
  529000    273.23168   -9050.8929   -8009.2091   -9050.8929            0    9423.1731    24.845757    25.060609    23.014102    14329.726    10577.493    9107.9096    8584.1167    130.78803   -963.03013   -419.76615   -6039.9133 
  530000    275.89322   -9010.1399   -7958.3092   -9010.1399            0    10069.005    24.857167     25.08843    22.987798    14335.818    10059.177    9951.8209    10196.018    1566.3942   -1061.8228    1152.3731     -5853.15 
  531000    279.86577    -8999.859   -7932.8831    -8999.859            0    10399.629    24.862508    25.078822    22.926902    14295.438    11129.162    9369.0984    10700.626    295.97618   -1172.6391     201.5284   -5764.7238 
  532000    277.73831   -9020.5971    -7961.732   -9020.5971            0    10410.355    24.968858    24.982258    22.906623    14288.658    10126.614    9778.4451    11326.006    100.49208   -722.87439    93.834395   -5792.3658 
  533000    283.31261   -9061.4979   -7981.3811   -9061.4979            0    8827.7587    25.094158    24.940662    22.937195    14355.586    7401.5794    9174.9002    9906.7965    92.979674   -450.13335    1064.7251   -6133.1883 
  534000    263.55966   -9046.7415   -8041.9319   -9046.7415            0    9300.8764    25.022346    24.921477    22.991684    14337.472     9551.105    9834.4378    8517.0863    849.53885    4.1487467    185.09932   -6097.1435 
  535000     268.1776   -9074.8914   -8052.4761   -9074.8914            0    10275.481    24.967526    24.776531    23.085241    14280.731    9684.2668    10711.268    10430.907   -1286.7828   -1649.7635    2139.2294   -5912.4036 
  536000     275.4193   -9050.8796   -8000.8557   -9050.8796            0    10047.583    25.061198     24.86778    22.937027     14294.73    9298.1459    10495.965    10348.637   -508.39805    620.37719   -1543.5811   -5906.1961 
  537000    281.27146   -9046.3432   -7974.0082   -9046.3432            0    10895.217    24.990521     24.99036    22.814069     14247.89    10023.374    10246.687     12415.59    726.69468    646.36042    738.68338   -5710.0816 
  538000    277.62153   -9021.7677   -7963.3478   -9021.7677            0    10729.111    24.815485    24.956038    23.025684    14259.718    11917.404    10726.042    9543.8875   -650.43524    688.77076    -565.6348   -5732.0859 
  539000    267.05982   -9044.6593   -8026.5054   -9044.6593            0     9958.805     24.88129    25.055226    22.935933    14298.406    10452.629    9830.5465    9593.2396   -899.84527    204.82525   -393.49922   -5949.8198 
  540000     278.1313   -9058.5143   -7998.1509   -9058.5143            0    11673.012    24.778583    24.984092    22.884786    14167.294    12673.285    11170.998    11174.752    417.90346    294.28963   -1330.9544   -5586.3264 
  541000    268.89508   -9076.8838   -8051.7331   -9076.8838            0    11244.487    24.851018    24.981579    22.927052    14233.519    11269.074    9852.5455    12611.841    104.52166   -983.67902    731.12408   -5717.5882 
  542000    276.84193   -9057.3537    -8001.906   -9057.3537            0    10616.563    24.845573    24.949637    22.990416    14251.484    10530.008    11069.869    10249.812    614.75981   -1365.6289    1586.0098   -5795.3248 
  543000    274.13764   -9020.3488   -7975.2111   -9020.3488            0    9630.1284    24.947693    25.009868    22.961765    14326.729    10343.533    8599.8241    9947.0282    754.52109   -208.76842   -611.54391   -5963.0858 
  544000     270.0015   -9026.4345   -7997.0657   -9026.4345            0    11100.198    24.868503    25.062847    22.890749    14267.243    12874.421    9363.5925     11062.58     878.2446   -602.48425   -876.35683    -5687.413 
  545000    261.37742    -9047.737   -8051.2471    -9047.737            0    10712.418    24.797019    24.958634    22.981273    14223.104    11725.511    9483.1846    10928.557   -1113.6821   -66.531741    1155.9565    -5829.177 
  546000    280.98882   -9007.6638   -7936.4063   -9007.6638            0    10897.305     24.80641    25.061739    22.966292    14277.954    11628.362     9975.502     11088.05    417.45473    1030.6491   -92.495625   -5667.2679 
  547000    274.74387   -9048.4636   -8001.0147   -9048.4636            0    11701.363    24.888057    24.978888    22.858582    14210.631    11076.368    12165.484    11862.237    554.14241   -473.39303    425.21821   -5575.9367 
  548000    271.29804   -9029.1593   -7994.8474   -9029.1593            0    10653.259    24.803108    24.913699    23.076754    14259.984    11026.101    11053.332    9880.3432   -493.97413   -305.98992   -1370.5745   -5779.3187 
  549000    278.31294   -9033.1087   -7972.0529   -9033.1087            0    9402.8172    24.897905    25.069573    22.983326    14345.729    9212.7691    10501.837    8493.8454   -251.20298    156.92268   -22.531953   -6004.8166 
  550000    284.39687   -9045.2851   -7961.0346   -9045.2851            0    9713.3166    24.930488    25.008414    22.927464    14294.631    9213.0215    9721.8242    10205.104    176.46599   -920.12419   -751.28693   -5936.0749 
  551000    279.08132   -9052.1757   -7988.1905   -9052.1757            0    9021.5693    25.009983    24.934493    23.019699    14355.343    9562.5286    9075.4563     8426.723   -996.15962    -1472.749   -21.848606   -6099.4532 
  552000    281.29262   -9067.5772   -7995.1615   -9067.5772            0    10218.365    25.089858    24.793696    22.952874    14278.301    8779.7398    11432.407    10442.948   -889.62077   -1466.3291    150.03341   -5867.3465 
  553000    276.00267   -9058.5148   -8006.2667   -9058.5148            0    10622.223    24.969609    24.864687    22.980302    14267.585    9754.3413    10346.885    11765.444    287.94854   -780.27493   -361.10098   -5796.0147 
  554000    274.60293    -9021.665   -7974.7534    -9021.665            0    9075.9967    25.080958    24.924345    22.974033    14361.676    7758.9184    10325.115    9143.9569    387.64072    677.34983    411.85888   -6073.7831 
  555000    281.78591   -9038.2082   -7963.9118   -9038.2082            0    10266.264    25.100994     24.82662    22.976195    14318.141    8023.3729    11509.535    11265.885    226.22262   -944.53059    394.49687   -5820.1578 
  556000    282.02709   -9031.5498    -7956.334   -9031.5498            0    9933.9026    25.004473    24.976575    22.950087    14332.928    9931.9005    10114.749    9755.0588    858.92229    400.49817    891.49923   -5879.8398 
  557000    273.28857   -9037.1067   -7995.2061   -9037.1067            0    10516.699    24.932959    24.767564    23.129832    14283.333    9918.3881    11223.233    10408.476   -431.10302   -906.51749    893.34412    -5804.496 
  558000    277.65867     -9069.07   -8010.5085     -9069.07            0    10374.534     25.04256    24.893268    22.879972    14263.172    8917.3237    11904.354    10301.924    209.02986    673.75165   -135.80779    -5852.463 
  559000    281.63124    -9060.735   -7987.0283    -9060.735            0    10264.759    24.846146    24.881852    23.048613     14249.07    10932.628    9780.8156    10080.832    530.44154   -232.96758   -926.79087   -5853.9285 
  560000    268.92999   -9062.4717   -8037.1879   -9062.4717            0    10459.061    25.109141    24.928175    22.779986    14258.564    9191.2849    10758.971    11426.928   -227.71158    117.23115    395.63418   -5862.2624 
  561000    272.83786   -9054.2794    -8014.097   -9054.2794            0    9393.9223    25.003204    24.969327    22.926245    14313.157    8978.4266    9406.6217    9796.7184     280.9149     28.84869   -262.24625   -6053.1843 
  562000    275.79372   -9045.4863   -7994.0349   -9045.4863            0    9566.6966     24.83156    24.927889    23.147206    14328.083    9880.6982     10528.35    8291.0411   -815.25098    319.08891      553.292   -5994.9742 
  563000    286.29163   -9016.7484   -7925.2742   -9016.7484            0    11059.821    24.979298    25.018871    22.834102    14270.259    11763.373    9892.3755    11523.715     189.9392     109.3721    787.32016   -5623.5363 
  564000    278.53514   -9033.5521   -7971.6491   -9033.5521            0    10414.776    24.817053    24.890437    23.103294    14271.073      11211.5    9946.3307    10086.497   -849.35374   -991.65025   -219.60723   -5804.0325 
  565000    262.49981   -9037.9281   -8037.1591   -9037.9281            0     10122.16    24.867621    25.073262    22.882168    14267.315    10441.718    9241.1059    10683.655    39.182147    126.83893    455.36667   -5930.9993 
  566000    285.18735   -8996.7501   -7909.4859   -8996.7501            0    9869.9069    24.891938     25.10046    22.961402    14346.264    11496.665    8535.1978    9577.8574   -198.44292    625.93976    837.80935   -5844.4492 
  567000    273.07237   -9088.4523   -8047.3759   -9088.4523            0    7694.5983    24.774024     25.13378    23.162412     14422.42    9936.2228     6432.318     6715.254    464.56044    53.040608    700.53568   -6428.9233 
  568000    271.44277   -9063.2375   -8028.3739   -9063.2375            0    9679.3129     24.85159    25.053744     22.94963    14289.022    11007.123    8796.1803     9234.635   -345.52945    556.12574   -531.88442   -6011.2948 
  569000    275.88913   -9082.5329   -8030.7178   -9082.5329            0    10185.709    24.743571    25.019625    23.067704    14280.636    11628.379    9399.1442    9529.6052   -1466.8417   -593.74558    -862.5946   -5909.3561 
  570000    275.89323   -9074.5384   -8022.7076   -9074.5384            0    8734.5367    24.918744    25.050257    22.933895    14315.817    9433.9497     8948.843    7820.8172   -516.81321    901.70586   -130.94389   -6199.0978 
  571000    269.63479   -9010.1044   -7982.1337   -9010.1044            0    10194.484    24.971572    25.024588    22.907597    14315.033    9995.5038     9102.649    11485.299    398.79344   -570.24926   -70.569475   -5853.8305 
  572000    275.93324   -8994.9041   -7942.9207   -8994.9041            0    10396.609    24.828536    25.008368    23.075839    14328.276    10679.743    11070.633    9439.4502   -321.36983   -413.13023    93.116938    -5770.412 
  573000    255.21133   -9044.1038   -8071.1218   -9044.1038            0    10784.296     24.91593    24.860076    23.023892    14261.273    10602.444    10941.467    10808.975   -203.49935   -433.83382   -570.80787   -5828.1389 
  574000    280.81474   -9044.8297   -7974.2359   -9044.8297            0    10161.771    25.041646    24.948709    22.883469    14296.601    10222.868    9297.3692    10965.075    266.52141    451.42171    108.93584   -5855.4938 
  575000    281.92255    -9019.836   -7945.0187    -9019.836            0    10926.869    25.015299    24.772337    23.018879    14264.509    9663.6046     13465.11    9651.8914   -490.11622    471.20458   -1100.2652   -5671.8668 
  576000    276.21501   -9033.2668   -7980.2092   -9033.2668            0    10934.681    25.010261     24.79142    22.942804    14225.454    11624.774    10771.272    10407.997    117.11724    862.27471   -900.62323   -5711.6603 
  577000    271.05939   -9073.7343   -8040.3323   -9073.7343            0    10677.708     24.91478    24.860032    22.980968    14234.002    10601.959    10845.751    10585.414   -190.81978    678.46188    960.20517   -5823.7647 
  578000    276.01714   -8993.8212    -7941.518   -8993.8212            0    12072.122    25.038828    24.828708    22.873205    14219.854    11773.443    12803.243    11639.681    -1256.198    520.57764    -785.3136   -5437.9772 
  579000    278.23035    -9072.964    -8012.223    -9072.964            0    10417.185     24.97296    24.909702     22.91254     14253.18    10083.716    11120.891    10046.948   -614.91184   -335.98257   -280.93767   -5846.8235 
  580000    281.33105   -9072.1162    -7999.554   -9072.1162            0    9982.4975    24.918501    24.902332    23.045036    14300.108    10092.542    10592.371    9262.5789   -319.27902   -507.31933    13.918635   -5917.6801 
  581000    287.23031   -9055.8382   -7960.7853   -9055.8382            0    9118.5909    25.025875    24.977111    22.918317    14325.645    8523.6104    9770.8692    9061.2931    125.87862   -438.34659   -266.04746   -6055.6851 
  582000    271.12473   -9022.0364   -7988.3852   -9022.0364            0     10925.93    24.870492    24.903315    23.006892    14249.495    10839.954    11045.824    10892.013   -241.43246    633.97469    -1138.462    -5717.821 
  583000    276.03739    -9096.235   -8043.8545    -9096.235            0    9954.5311    24.871482    25.022094    22.893852    14247.681    11828.166    8708.1234    9327.3039   -225.35291    762.58896   -10.802179   -5975.4243 
  584000    281.89098   -9012.6892   -7937.9923   -9012.6892            0    10227.866    24.913278      24.9673    22.962036    14282.784    9790.4991    10670.892    10222.208   -263.93048   -817.54433   -1115.5157   -5807.5303 
  585000    278.44545   -9060.7626   -7999.2016   -9060.7626            0    11529.392    24.786845    24.897462    22.993276     14189.83    11788.624    11970.802    10828.751   -244.57227    242.03306    431.99101   -5613.2618 
  586000    275.41994   -9023.2082   -7973.1818   -9023.2082            0    11339.647    25.027505    24.985354    22.797809     14255.95     11795.89    9983.7392    12239.312   -1376.6055    1433.7296   -569.19455   -5615.5738 
  587000    281.98746   -9065.8666   -7990.8018   -9065.8666            0    10387.592    24.896196    24.863789    23.033563    14258.093    10859.426    10278.956    10024.393    973.72267   -366.61293    580.12515   -5830.8096 
  588000    289.95157   -9044.8039   -7939.3763   -9044.8039            0    10781.409    24.919969    24.958946    22.929282    14261.467    11470.045    10672.582      10201.6   -186.31562    -306.0862    666.14411   -5696.9633 
  589000    269.14812   -9074.1196   -8048.0042   -9074.1196            0    11640.216    24.837084    24.920511     22.92938    14192.204    11148.694    12525.329    11246.623   -161.71649    110.30363    810.03155   -5638.7271 
  590000     278.2035   -9041.7376   -7981.0989   -9041.7376            0    9736.8478    24.977065    25.025149    22.905248    14317.035    9321.9458    9440.6457    10447.952    63.718123    517.12986     1113.663   -5948.0522 
  591000     273.9594   -9074.9431    -8030.485   -9074.9431            0    11078.758    24.881365     24.91031    22.999534    14255.169    11501.383    10013.646    11721.243    46.551566    -61.38286    751.53758   -5727.2442 
  592000    275.68027   -9030.4878   -7979.4689   -9030.4878            0    10958.233    24.769594    24.893589    23.071077    14225.721    10608.526    12349.627    9916.5464    765.54023   -1173.4796    877.30444   -5705.9911 
  593000    278.62348   -9039.8654   -7977.6256   -9039.8654            0    10694.272    24.975533    24.972542    22.846261    14249.271    12010.825    9499.1789    10572.811    165.58196   -976.07059     202.9541   -5755.2383 
  594000    277.30636   -9062.1665   -8004.9482   -9062.1665            0    9789.7847    25.030615    24.882857    22.942326    14289.242    9011.0386    9912.7037    10445.612    399.24143   -1448.3652    571.71275   -5964.8163 
  595000    267.77162    -9074.556   -8053.6885    -9074.556            0    11074.322    24.882256     24.82201    23.035153    14227.147    10273.239    12324.163    10625.565   -144.89956   -509.51762     1079.217   -5755.8958 
  596000    279.68555   -9061.9933   -7995.7044   -9061.9933            0    9345.4953    24.913497    25.040367    22.933635     14306.99    11266.537    8213.0372    8556.9116   -18.955839   -946.42391    104.42981   -6045.7409 
  597000    274.56633   -9022.1931    -7975.421   -9022.1931            0    9786.3739    24.833611     24.98389    23.057929    14306.066    10633.485    9754.2981    8971.3387   -82.146583    557.91386    237.53589   -5933.5988 
  598000    273.47473   -9097.5788   -8054.9684   -9097.5788            0    9073.3503    24.699692    25.015833    23.138965    14297.182     10525.51    8958.0789    7736.4623   -257.68722    1161.4871   -346.45597   -6163.0866 
  599000    276.32638   -9020.1872   -7966.7051   -9020.1872            0     9655.998    24.906348     25.04859    22.945044      14314.7    10189.173    9015.0349    9763.7856   -224.64764   -308.98218   -621.76466   -5950.8686 
  600000    267.83733   -9053.6441    -8032.526   -9053.6441            0    11088.037     24.80018    25.041414    22.927659      14238.8    11617.782    10950.033    10696.297   -240.64789    -408.1922    894.05766   -5730.0031 
  601000    287.32292   -9090.9958   -7995.5898   -9090.9958            0    10945.879    24.900257    24.868035    22.933289    14200.762    11130.749    11201.967    10504.921    -520.8279    126.16417    226.67551   -5728.6594 
  602000    278.87822   -9016.7333   -7953.5224   -9016.7333            0    10083.263    24.938194      24.9649    22.981651    14307.905    10097.941     10478.12    9673.7287   -342.02311    433.77548    230.84327    -5849.487 
  603000    274.30227   -9038.5446   -7992.7793   -9038.5446            0    8729.2702    24.923669    24.982411    23.097394     14381.67    9599.2863    9424.5271    7163.9972   -50.026419    255.65377    1562.1354   -6161.8855 
  604000    283.42413   -9073.6343   -7993.0923   -9073.6343            0    9940.3331     24.89865    24.890989    23.039344     14278.68    9943.1757    11308.038     8569.785   -584.96128   -1582.1263    1325.0078   -5923.1183 
  605000    287.39019   -9048.0601   -7952.3976   -9048.0601            0    9991.7504      25.0857     24.96051    22.788339    14268.961    9326.6595    9856.1883    10792.403   -399.17005    369.18682    832.93991   -5873.1327 
  606000    280.23501   -9082.8566   -8014.4729   -9082.8566            0    9965.0365    24.925192    24.834542    23.036271    14259.583    10119.218    10437.957    9337.9344    404.13305   -630.22153    339.08066     -5942.13 
  607000    280.75538   -9062.3339   -7991.9664   -9062.3339            0     9472.213    24.987418    24.940624    22.953636    14304.747    9995.6382    8144.2012      10276.8    29.130598    679.87787    327.53209   -6015.8726 
  608000    277.40926   -9050.6051   -7992.9945   -9050.6051            0    10086.418    24.970803    25.005212    22.840952    14261.896     10151.21      9901.18    10206.864    20.238855    71.169789    -21.60862   -5895.0687 
  609000    270.26984   -9038.5824   -8008.1905   -9038.5824            0     8888.307    24.833865    24.964782    23.150413    14352.608    9675.0781    9473.0632    7516.7797    113.97641    272.30133   -576.71501   -6147.7073 
  610000     272.5744   -9060.9765   -8021.7985   -9060.9765            0    9704.9204    25.026214    24.979216    22.945575    14344.087    10059.474    10024.834     9030.453    35.760673   -360.91609   -959.17179   -5991.5895 
  611000    276.79264   -9039.5732   -7984.3134   -9039.5732            0    9179.4062    24.996688     24.89006    23.012976    14317.961     8141.341    10920.457    8476.4206    912.57376   -949.14159     126.0219    -6067.536 
  612000    283.41825   -9068.4243   -7987.9047   -9068.4243            0    8605.7753    25.058555    24.852828    23.061236    14361.983    8050.4928    10370.192    7396.6411    504.45949     1045.137    450.44444   -6185.3838 
  613000    271.25726   -9029.3365   -7995.1801   -9029.3365            0    8973.1263    25.110379    24.916581    22.930302    14346.683    7869.2283    9359.7786    9690.3719    -686.3881    471.21681    433.73703    -6117.718 
  614000    287.66387   -9031.2382   -7934.5323   -9031.2382            0    9816.9926    25.004147    24.838463    23.072663    14329.613    9108.4584     10884.25    9458.2694    317.80729    847.47549     540.7171   -5882.9506 
  615000    278.23614   -9007.7395   -7946.9764   -9007.7395            0    10354.873    25.032839    24.914105    22.958662    14318.647    10267.345    11309.811    9487.4624   -898.17797   -901.15257   -2125.4701   -5784.6432 
  616000    273.56152   -9067.8103   -8024.8691   -9067.8103            0    9603.6779    24.932554    24.937184    22.984271    14290.417    9418.0087    11016.679    8376.3458   -207.60137   -316.78258    488.72972   -6023.3562 
  617000    269.32432   -9090.6012   -8063.8141   -9090.6012            0    10018.898    24.859311    24.914217    23.065538    14285.647    10307.149    9773.1366    9976.4078   -510.57068   -469.65475   -440.36267   -5976.4618 
  618000    275.37208   -9096.2397   -8046.3957   -9096.2397            0    11249.054    25.057965    24.921263    22.736284    14198.267    10418.493    10829.354    12499.314   -202.16591    168.98958    210.47721   -5717.0861 
  619000    272.43005   -9028.4805   -7989.8529   -9028.4805            0    9903.0847    24.953394     24.92851     22.98888    14300.254    10167.954    10032.263    9509.0374   -864.34871    734.44384   -931.47899   -5924.5196 
  620000    279.52435   -9076.9506   -8011.2763   -9076.9506            0    9176.0399    24.972223     24.90872    23.010679    14313.243    7555.2397    11056.661    8916.2186    772.90633   -191.12593   -686.20166   -6095.8333 
  621000    272.43452   -9032.7528   -7994.1082   -9032.7528            0    11395.448    24.971537    24.893777    22.893412    14231.366    11593.969    12072.075      10520.3   -322.64182    -207.7638     346.2188   -5628.9844 
  622000    275.67193   -9012.7481    -7961.761   -9012.7481            0    9491.2271    25.032372    25.006713    22.854453     14306.37    10307.494    7999.6565    10166.531   -543.89945     -549.029   -85.441524    -5981.476 
  623000    272.54674   -9067.5979   -8028.5254   -9067.5979            0    9183.7734    24.879309    24.976674    23.088488    14347.242    9843.6255    8808.3532    8899.3414    356.05368   -157.43543   -190.88913   -6106.9145 
  624000    279.25843   -9025.6591   -7960.9987   -9025.6591            0    10004.817    24.937141    24.950322      23.0344    14331.767    9876.7148     10274.38    9863.3544   -421.05314   -203.80265   -358.17905   -5869.8508 
  625000    288.34043   -9037.8647   -7938.5795   -9037.8647            0    9953.0417    25.023819      25.0808    22.760122    14284.649     8553.561     9872.769    11432.795   -924.81475   -1124.8789     596.8378   -5865.0927 
  626000    274.29973   -9053.6759   -8007.9203   -9053.6759            0    9804.5479    24.815192     25.09555    22.982972    14312.666    11679.501    8479.1657    9254.9769    1054.2204    827.24423   -147.25866   -5961.3625 
  627000    276.12672   -9027.9534   -7975.2324   -9027.9534            0    10537.042    24.794601    25.022377    22.996995    14267.792    11021.252     9722.844     10867.03    699.80807   -1400.2525   -1057.5133    -5782.673 
  628000    270.50463   -9031.3624   -8000.0754   -9031.3624            0    10892.459    24.846923    24.988266    22.949591    14248.977    11480.775    10641.869    10554.731   -138.13937    156.96623    821.88052   -5736.5494 
  629000    272.63758   -9009.8241   -7970.4053   -9009.8241            0    10000.157    24.897085    25.075297    22.951489    14328.656    10623.723    10213.754    9162.9945   -195.52162   -220.33978   -182.84646    -5880.685 
  630000    267.86081   -9073.6242   -8052.4167   -9073.6242            0     9321.854    24.862092    24.875378    23.161223     14324.15    8789.3227    10797.157    8379.0821    293.36675   -263.13266   -59.856682   -6105.0531 
  631000    261.66293   -9016.9851   -8019.4067   -9016.9851            0    11837.155    24.981593     24.96737      22.7919     14215.87    12027.718    10812.127     12671.62   -163.94481    1346.1553     1349.706   -5565.2818 
  632000    259.55936   -8987.9045   -7998.3458   -8987.9045            0    9264.1584    25.028186    24.880967    23.062378    14361.531    7730.9208    10725.635    9335.9194   -291.89891    618.85561    614.04577   -6057.9846 
  633000    268.73898   -9034.5202   -8009.9647   -9034.5202            0    8574.4081    24.945641    24.981324    23.045093     14361.13     8565.767    8640.4939    8516.9633     682.0158   -823.84905    92.146225   -6214.1205 
  634000    269.25017   -9070.4083   -8043.9038   -9070.4083            0     8472.806    25.019126    25.053609    22.924841    14369.735    9542.1965     7344.204    8532.0175   -296.57643   -437.73922   -467.09392   -6268.2761 
  635000     269.8112   -9093.6175   -8064.9742   -9093.6175            0    9970.3331    24.854941    24.837315    23.165127    14300.528    10321.729    9503.1098    10086.161    6.9385897   -296.51628    284.45396   -5985.5762 
  636000    265.01827   -9000.8694   -7990.4989   -9000.8694            0     9796.953    25.016548     25.03371    22.883737    14331.101    9732.2688     8878.546    10780.044   -209.28956    339.18831    615.37041   -5942.8926 
  637000    281.19216    -9092.265   -8020.2322    -9092.265            0    9467.3961    24.933031    24.732605    23.168077    14286.799    9087.5768    11436.825    7877.7867    286.09117    -1129.579    261.64026   -6047.6216 
  638000    278.52147   -9058.9976   -7997.1468   -9058.9976            0    9814.4183    24.991943    24.894052    22.976849    14295.064    9369.7567    10472.173    9601.3256   -556.12439    370.62653   -310.50078   -5951.0482 
  639000    265.38891   -9048.1478   -8036.3643   -9048.1478            0    10505.497    24.977178    24.901662    22.899762    14243.039    10405.455     10284.29    10826.745    658.72861    763.27226    1111.9648   -5854.1613 
  640000     278.9955   -9053.6636   -7990.0055   -9053.6636            0    9455.2904    24.870652    24.865374    23.156694    14320.518    9434.2309    10419.227    8512.4134    -956.7622     530.6573   -1002.9929   -6015.2674 
  641000    282.73308   -9120.5675     -8042.66   -9120.5675            0    8587.7181    25.070296    25.000499    22.839639    14315.199    8207.8378    7548.4891    10006.828    6.3194563   -118.86121   -87.713515   -6249.7807 
  642000    269.54339   -9062.0167   -8034.3944   -9062.0167            0    9544.7988    24.994396    24.951633    22.928045    14299.098    9126.7421    9139.0992    10368.555    120.64188   -1411.1185    82.800162   -6043.9442 
  643000    277.89042   -9046.7361   -7987.2911   -9046.7361            0    10346.671    24.922834    24.922644    23.014128    14295.063    10574.485    10339.297    10126.231    675.90145    455.97498   -680.75617   -5830.2293 
  644000    276.89119   -9042.5051   -7986.8696   -9042.5051            0    11457.212    24.796397    25.069674    22.895921    14232.965    13345.669    10232.262    10793.705    186.30751    855.49993    1627.1551   -5608.6595 
  645000    286.50582   -9020.5139   -7928.2231   -9020.5139            0    11283.379    24.874207     24.99957    22.974067    14286.297    11444.992    10429.228    11975.918    269.26769    416.39457    289.24496   -5577.3198 
  646000    272.90958   -9053.2129   -8012.7572   -9053.2129            0    9566.2029    24.745194    24.940992    23.210898    14325.063    10881.179    9591.7964    8225.6332    296.80161    -322.2248   -584.95061    -6014.221 
  647000    277.76589   -9066.0741   -8007.1038   -9066.0741            0    9527.8956     24.87969    25.019966    22.924032    14269.958    8426.2882    9987.6777    10169.721    501.60854    1094.0479    -615.4654   -6024.2278 
  648000    269.80641   -9069.4977   -8040.8726   -9069.4977            0    10161.012    24.857742    24.979799    22.945312    14247.694    11213.976    9092.3639    10176.697    858.30385   -875.57368    871.11865   -5929.5362 
  649000    275.20787   -9027.6303   -7978.4124   -9027.6303            0    9987.5618    24.916489    24.972576    22.981463     14299.73    10065.744    10180.951    9715.9903    934.36587   -721.72538   -107.73781   -5895.5374 
  650000    264.34228   -9018.3092   -8010.5159   -9018.3092            0    10167.327    24.935461    24.891919    23.035826    14298.141      10478.6     10322.82    9700.5611   -1297.6421    421.94122    897.29645   -5890.3871 
  651000    279.49037   -9043.0284   -7977.4837   -9043.0284            0    10238.367    25.020017     24.87114    22.970789    14294.178    9814.4911    9932.8775    10967.732    367.76059    1242.3301   -22.117952    -5843.133 
  652000    266.76874   -9046.5871    -8029.543   -9046.5871            0    8693.4001    25.022129    24.920752    23.016474    14352.389    9106.7334    8298.7003    8674.7666    414.96462    490.16451   -197.52279   -6209.8851 
  653000    275.14001    -9038.158   -7989.1988    -9038.158            0    8731.4962    25.056196    24.919998    23.027802    14378.568    8504.3457    9699.6304    7990.5125    102.30022   -328.85277    73.310902   -6158.2331 
  654000    262.45375   -9038.2108   -8037.6174   -9038.2108            0    9408.5181    25.089369     24.89104    22.971052    14345.433    8150.3956    11060.101    9015.0574   -415.32705    21.917049    157.80832   -6069.2291 
  655000    275.75007   -9061.0511    -8009.766   -9061.0511            0    9072.6294    24.994892    24.911262    23.063961    14360.875    8596.9405    10869.209    7751.7382     400.7465    280.76643   -141.00567    -6109.607 
  656000    262.03212    -9096.259   -8097.2731    -9096.259            0    9818.2903    24.962102    25.000958    22.847206    14258.403    9337.5661    9490.5054    10626.799    75.071307   -601.65419    1424.6954   -6055.6167 
  657000    281.29034   -9083.5543   -8011.1472   -9083.5543            0    9507.5196    24.951461    24.916399    23.053802    14332.561    9695.1573    9489.1694    9338.2321    339.42241    969.14759   -20.635832   -6023.8312 
  658000    272.90957   -9034.7135   -7994.2577   -9034.7135            0    10304.706    24.889574    24.995673     22.96352    14286.333    11237.475    9672.3112    10004.331   -153.99765   -709.86813   -1550.6103   -5847.2567 
  659000    288.53342   -9060.8026   -7960.7816   -9060.8026            0    11195.997    24.803962    24.929762    23.009781    14228.256    11379.598     11216.59    10991.802   -503.16118   -134.17555   -103.05734   -5637.5617 
  660000    264.90785   -9009.3262   -7999.3767   -9009.3262            0    11158.339    24.908159     24.99228    22.863616    14232.868    12257.179    9834.8834    11382.955   -417.82846   -316.44815    213.34272   -5683.2204 
  661000    276.21997   -9098.4183   -8045.3418   -9098.4183            0     11089.15    24.880278       24.962    22.897384    14220.683    10544.183    11403.186    11320.081   -140.90996   -195.26968   -269.11124   -5745.5177 
  662000    275.20705   -9050.3689   -8001.1541   -9050.3689            0    10267.001    24.885715    24.928772    23.034516    14289.929    10723.658    10622.825      9454.52   -908.87224   -90.960384    1220.8244   -5861.4704 
  663000    289.67701   -9081.7891   -7977.4082   -9081.7891            0    9523.1675    25.069723    25.063455     22.73287    14283.833    10436.909    8486.1255    9646.4676   -140.25311   -248.17879   -916.15802   -5993.5891 
  664000    280.08381    -9084.325   -8016.5178    -9084.325            0    10156.381    24.847126     24.85433    23.103902    14268.015    10137.068    10476.159    9855.9172    9.6334354   -114.67614   -210.08189   -5903.1337 
  665000    267.96168   -9001.9684   -7980.3763   -9001.9684            0    10940.552    24.911811    24.941528    22.979409    14277.994    10189.849    11313.354    11318.452   -445.62231   -1333.8624    269.56366   -5702.2262 
  666000     281.7652   -9040.1309   -7965.9135   -9040.1309            0    10066.559     25.04398    24.942514    22.912157    14312.304    8220.2601    10663.114    11316.302     239.6646   -680.93285    406.89312   -5864.7179 
  667000    259.90782   -9054.8347   -8063.9475   -9054.8347            0    9108.1812    24.974203    24.864836    23.067932    14324.712    9381.4805    9825.7047    8117.3584    434.98478    123.48551   -172.82462   -6161.1462 
  668000    275.98222   -8997.9565   -7945.7864   -8997.9565            0     8666.724    25.085068    24.922408    23.006961    14383.499    8625.6667    8873.4794    8501.0261    -104.3006    -329.7422    573.35013     -6127.78 
  669000     274.7353   -9046.6534   -7999.2371   -9046.6534            0    9498.9275    25.023264    24.901653     22.98098    14319.923    9521.4428    9849.6471    9125.6926   -60.315453    267.22758   -160.56404    -6015.468 
  670000    274.01483    -9040.556   -7995.8865    -9040.556            0    11768.653    24.998117      24.7222    23.001708     14215.25    10791.908    14294.712    10219.338    649.83126   -356.56178   -1028.8173   -5556.0701 
  671000    268.63575   -9035.8695   -8011.7075   -9035.8695            0    10716.344    24.927431    24.966955    22.908682    14257.494    10334.531    10948.646    10865.855    17.666143   -261.65521    59.206441   -5783.4482 
  672000    267.32092   -9042.5979   -8023.4487   -9042.5979            0    9353.6161    24.995242     25.02031     22.94342    14348.556    9914.2245    8130.7925    10015.831   -303.72062   -494.78577    534.08937   -6066.1206 
  673000    277.70305   -9052.9258   -7994.1952   -9052.9258            0    11755.761    24.831914     24.91343    22.977669    14215.093    12624.968    11009.206     11633.11   -886.53882   -500.14566   -178.79035   -5557.0783 
  674000    272.23583   -9062.9086   -8025.0215   -9062.9086            0    9839.3631      24.8383    24.983851    23.014781     14281.97    10416.585    9961.8848     9139.619      924.892    -952.4683   -727.41482   -5975.6014 
  675000    277.09065   -9062.3389    -8005.943   -9062.3389            0    10536.734     24.92844    25.015706    22.867065    14259.959    10484.639    10330.391    10795.172   -466.38003    111.29226    1272.7502   -5814.6514 
  676000    269.63274   -9047.9398   -8019.9768   -9047.9398            0    11747.503      24.7801    24.831967    23.074413    14198.578    13670.133    11413.443    10158.933   -568.84828   -407.54504     372.9973   -5587.4015 
  677000    286.24239   -9081.9091   -7990.6226   -9081.9091            0    10133.544    24.949828    24.959427    22.904543    14263.424    9366.7384    10698.033     10335.86      545.501   -165.74635   -539.95206    -5882.669 
  678000    276.95421   -9060.1254   -8004.2496   -9060.1254            0    9267.5939    24.881471    25.059723    22.980968    14329.157    8999.4511    8935.4848    9867.8459   -643.59268   -386.93123   -6.5029712   -6067.5444 
  679000    275.06881   -9064.9802   -8016.2924   -9064.9802            0    8521.3945    24.942737    25.052198    22.989609    14365.526    7852.1498    8066.9654    9645.0682   -674.38756    831.62583   -372.72316   -6231.0053 
  680000    272.62539   -9073.6773   -8034.3049   -9073.6773            0    8368.1606    24.997191     25.14499     22.85015    14362.556    7811.6592     7320.064    9972.7587    173.86413   -827.01242    636.87231   -6281.4837 
  681000    278.49803   -9063.1801   -8001.4186   -9063.1801            0    10628.063    24.814048    24.991281    23.010531    14269.632    11268.945    10227.571    10387.674    51.962999   -118.24438   -809.75129   -5789.6342 
  682000    279.75177   -9025.8842   -7959.3429   -9025.8842            0    10934.131    24.798153    24.925781    23.053095    14249.425    12341.379    10089.534    10371.479    202.76851    -957.0286    1106.0587   -5687.0857 
  683000     277.7091   -9056.5614   -7997.8077   -9056.5614            0    10606.694     24.95219    24.976768    22.897394     14270.23    10192.554    10145.955    11481.573    458.51768    288.64889   -654.93936    -5790.378 
  684000    282.05314   -9057.1956   -7981.8805   -9057.1956            0     10834.04    24.870537    24.896706     23.00884    14246.946    10905.827    11466.108    10130.185     106.7819   -1521.9501    205.81618   -5730.8151 
  685000    290.63477   -9032.7873    -7924.755   -9032.7873            0    11873.825    24.804968    24.961925    22.941719    14205.048    13567.982    11420.989    10632.503   -290.70505    -1768.222     -405.374   -5464.9016 
  686000    280.60398   -9016.0895   -7946.2991   -9016.0895            0    10488.988    24.923543    24.948885    22.924419    14254.739    9908.0902    10589.434     10969.44    790.03355    713.45131   -289.97386   -5765.7356 
  687000    265.56618   -9070.2057   -8057.7463   -9070.2057            0    9688.0767    25.070764    25.064073    22.755284    14298.863    8228.6805    8845.3195     11990.23    404.02681   -499.51061     287.3962   -6037.4506 
  688000    281.15011   -9026.8654    -7954.993   -9026.8654            0    10323.045    24.860119    24.945061    23.049778    14294.025    11444.301    9590.1249    9934.7093   -795.49547   -777.22614   -62.528712   -5803.0129 
  689000    263.07435   -9066.4988   -8063.5393   -9066.4988            0    9947.4645    24.897375    24.926832     23.02328    14288.539    9145.2646    10721.446    9975.6826   -313.11522    958.75629    422.50916     -5990.65 
  690000     275.3359   -8999.1457   -7949.4397   -8999.1457            0    9797.6905    24.998663    25.080153    22.851511    14327.219     9933.673    9853.8837    9605.5149     621.6303   -8.2549777     542.1577   -5902.2339 
  691000    284.84725    -9084.079   -7998.1114    -9084.079            0    9381.2303    24.991055    24.941681     22.95288    14306.964    9152.3072    9401.8971    9589.4866    342.98976   -331.03314    1835.1237   -6040.6952 
  692000    277.41729   -9027.8094   -7970.1681   -9027.8094            0      10638.6    24.941514    24.928998    22.953539    14271.752    11779.104    10431.279    9705.4185    -225.2481   -261.12582   -1248.6982    -5755.862 
  693000    279.80774   -9077.3588   -8010.6041   -9077.3588            0    9127.8405    25.006296    24.902799    22.966833    14302.062    9644.7378    9129.6903    8609.0932    365.16361   -334.96694   -462.55464   -6106.7109 
  694000    276.91521   -9081.5786   -8025.8515   -9081.5786            0    9018.2301    25.123859     24.87268    22.955397    14344.775    7261.4517     10021.88    9771.3587    -73.39038   -69.002749   -16.110878   -6139.2033 
  695000    277.32765   -9057.5744   -8000.2749   -9057.5744            0    9796.0026    25.060672    25.001653    22.849827    14316.747    9566.4861    9093.8951    10727.627   -87.697777       165.32    13.859621   -5954.9178 
  696000    276.42992   -9032.3077   -7978.4308   -9032.3077            0    9704.2688    24.914081      24.9456    23.052515    14327.062    9286.9312    10399.858    9426.0174   -538.27751   -82.164849     447.8385   -5950.7675 
  697000    270.65672   -9029.9465   -7998.0796   -9029.9465            0    10261.745    24.897581    25.041907    22.937472    14301.122    10811.864    9521.8214    10451.549    -63.06902   -408.73473    365.61917   -5857.8163 
  698000    285.95158   -9075.0352   -7984.8574   -9075.0352            0    10197.878    24.942028    24.979745    22.931964    14287.656    10880.574    8614.2916    11098.768    -31.63815    455.53712   -132.93007   -5859.9173 
  699000    286.50322   -9053.1244   -7960.8435   -9053.1244            0    10889.658    24.918731    24.851229    23.040664    14268.187    10722.101    11528.764    10418.108    63.821695    1452.1328    131.31778   -5694.8488 
  700000    277.75555   -9051.5353   -7992.6045   -9051.5353            0    12192.301    24.952207    24.921854    22.829717     14196.78    11930.469    11219.646    13426.789   -148.26212   -1319.7921    299.20431   -5468.2437 
  701000    278.15253   -9007.5138   -7947.0695   -9007.5138            0    11351.732    24.877651    24.925609    22.946433    14228.867     11786.72    12135.255     10133.22    -785.0565    238.48599   -812.56325   -5591.4327 
  702000    270.75002   -9025.6003   -7993.3777   -9025.6003            0    12292.473     24.76459    25.025337    22.878036    14178.485    12202.963     12073.55    12600.906   -156.05541    193.28732   -879.80477   -5451.5567 
  703000    268.48174   -9084.8785   -8061.3037   -9084.8785            0    9668.0069    24.912278    25.031201    22.905532    14283.528    10159.869    9646.2276    9197.9243     1326.481    12.211124    534.46706   -6047.3552 
  704000    277.34571   -9041.5652   -7984.1969   -9041.5652            0    9269.2169    24.803203    24.962765    23.130852    14321.617    10312.447    9408.4107    8086.7933    919.44049    968.02232   -787.13905   -6048.1717 
  705000    269.24611   -9063.1465   -8036.6576   -9063.1465            0    9238.6421    24.953646    25.088812     22.81712    14284.826    9511.3037    8218.9331    9985.6894    576.95071    290.03594   -173.68986   -6111.9756 
  706000     264.8681   -9094.0016   -8084.2036   -9094.0016            0    11160.236    24.894574    24.904878    22.963526    14237.302     10898.73    12284.098    10297.881    471.57542    634.64975    -264.3225   -5766.9319 
  707000    275.12475   -9037.6859   -7988.7848   -9037.6859            0    12594.434    24.953694    24.844462    22.889949    14190.878    11835.006     13839.33    12108.965   -447.58378      60.8657   -883.71417   -5382.2485 
  708000    275.84084    -9049.395   -7997.7639    -9049.395            0    9850.9155     24.98009    25.000973    22.890036    14295.436    9462.7726    8898.1098    11191.864    375.42102    585.64948   -412.30759    -5944.003 
  709000    280.15131   -9033.2577   -7965.1932   -9033.2577            0    8550.6195    24.894986    25.005307    23.119327    14391.938    9095.7536    9095.1236    7460.9813    757.05609    106.29752     -1063.96   -6170.4896 
  710000    281.47949   -9057.4839   -7984.3557   -9057.4839            0    9610.4732    24.821362    25.002755    23.042213    14300.053    10814.313     9586.693    8430.4135   -35.441757   -1193.9147   -44.890779   -5980.0761 
  711000    281.05486   -9033.8885   -7962.3793   -9033.8885            0    10956.669    24.928398    25.011759    22.915273    14287.743    10416.334    10243.284    12210.389    284.87399   -117.34613    176.69111   -5679.3153 
  712000     271.5084    -9041.566   -8006.4522    -9041.566            0    10172.348    24.933013    24.939585    22.989952    14295.589    10866.395    9021.5138    10629.134   -1122.9178    -836.8734    956.27854    -5885.655 
  713000    277.48048   -9074.9191   -8017.0369   -9074.9191            0    9413.8675    24.872628    24.937452    23.065988    14306.909    9707.2174    9679.5538    8854.8314   -199.62989   -1144.7005    814.66055   -6052.8185 
  714000    272.10941   -9006.8568   -7969.4517   -9006.8568            0    11228.707    24.999252    25.035794    22.776665    14255.371    11020.524    10839.235    11826.362     689.9275    242.94641    720.87847   -5635.0039 
  715000    272.34674   -9056.4326   -8018.1226   -9056.4326            0    10133.917    24.852522    24.928717    23.054483    14283.209    9669.5336    10638.406    10093.811    18.048232    400.97034   -300.79202   -5907.1675 
  716000    271.90566   -9073.1307   -8036.5023   -9073.1307            0    9190.4982    24.972225    24.950769    22.999367    14330.359    9366.9331    8726.9213    9477.6403   -198.21838   -689.94207     1270.255   -6115.7472 
  717000    279.18624   -9045.1786   -7980.7933   -9045.1786            0    9211.8628    25.026126    24.973935    22.945267    14340.812    8650.1708    9696.2559    9289.1618    317.97723    -456.8641    32.141443   -6054.1688 
  718000    271.84056   -9040.6444   -8004.2642   -9040.6444            0    9474.5467    24.979575    24.829465    23.101042    14327.948    9115.7857    10561.919    8745.9357   -904.81786   -345.06269   -197.32411   -6024.4779 
  719000    268.93951   -9064.2409   -8038.9208   -9064.2409            0    10286.541    24.990633    24.977989     22.89095    14288.892    9721.1256    10326.373    10812.126   -190.51741   -1546.4664    1010.3694   -5895.3205 
  720000    278.76022   -9067.8097   -8005.0486   -9067.8097            0    9723.9898    24.980445    24.884249    23.024111    14312.239    8176.3583    11468.075    9527.5364    1235.1165   -31.481649    1783.4041   -5975.3667 
  721000    275.83901   -9053.5122    -8001.888   -9053.5122            0    9726.5822    25.070645    24.995787    22.844131    14315.515    8799.7025    10175.295     10204.75   -907.20188    418.80781    1068.0719   -5971.2004 
  722000    271.14069   -9041.6126   -8007.9006   -9041.6126            0    12146.883    24.943883    24.850341    22.884777    14185.449    11029.923    12568.935     12841.79   -955.76056   -49.579576    17.262513   -5494.9506 
  723000     271.5707   -9037.2576   -8001.9062   -9037.2576            0     11304.39    24.862008    24.922169    22.984093    14241.292    11522.267    11387.163     11003.74   -941.40271    1132.2428   -282.46352   -5654.0451 
  724000    285.88549   -9006.2577   -7916.3319   -9006.2577            0    11960.586    24.831606    24.997179    22.889019    14207.674    13124.391    10308.933    12448.434   -29.075764    -136.6637    122.38589   -5438.0463 
  725000    276.66452   -9059.8451   -8005.0738   -9059.8451            0    10282.242    24.925472    25.014773    22.857082    14251.506    9920.7313    10125.291    10800.705   -722.54786    405.06635    775.25223   -5867.9756 
  726000    271.37495   -9021.2656   -7986.6605   -9021.2656            0    11025.937    24.876639    24.912065    23.018084    14264.962    11251.013    11614.001    10212.797    1022.4909    529.37923    602.11365   -5692.8263 
  727000    278.52146   -9022.7957   -7960.9449   -9022.7957            0    9659.3144    24.876633    25.058632    22.987318    14329.706    10632.094    9168.4062    9177.4432   -299.52498    137.98149   -833.56576   -5942.3022 
  728000    271.92758   -8997.8042   -7961.0922   -8997.8042            0    10232.765    24.926449    25.093954    22.880812    14312.021     11368.95     8175.804    11153.541   -129.76319    924.27285     923.4431   -5825.2467 
  729000    265.33512   -9024.3062   -8012.7278   -9024.3062            0    10638.093    24.837325    24.890608    23.092216     14275.98    9732.1412    12121.189    10060.949    1056.0123    342.82887    23.990055   -5797.8712 
  730000    272.41743   -9023.0883   -7984.5088   -9023.0883            0    10173.142    24.982957    24.938924    22.944049    14295.245    10283.356    10204.931    10031.138   -953.45328   -925.96261    1325.0332    -5863.597 
  731000    285.25876   -9054.7562   -7967.2197   -9054.7562            0    9875.7365    25.004355    24.920237    22.973942    14315.396    8176.0959    10596.559    10854.555     353.6477   -158.17137    157.86359   -5905.4092 
  732000    271.48446   -9016.8948   -7981.8722   -9016.8948            0    10467.065    24.979659    24.885222    23.017795    14308.422    9514.2952    10812.674    11074.225   -117.56721    1066.3671   -1420.1265   -5797.6716 
  733000      274.821   -9007.7952   -7960.0522   -9007.7952            0    10187.707    24.959648    24.983355    22.947084    14309.245    9579.3156    11873.554     9110.252    1203.2034   -624.52253    128.29255   -5834.0238 
  734000     280.7651   -9049.6622   -7979.2576   -9049.6622            0    9539.7637    24.833341     24.88993    23.217894    14350.983     9807.775    10356.267    8455.2488    126.42579    1553.4078    603.46284   -5982.6387 
  735000    271.21112   -9071.9359   -8037.9555   -9071.9359            0     9706.054    24.948869    24.932295     22.95678    14279.865     8757.182    9731.6731    10629.307    466.36314    1111.8636    167.34823   -6016.6001 
  736000    281.13977   -9041.2829   -7969.4499   -9041.2829            0    10974.775     24.97982    24.856214     22.91869      14230.3    9991.5311    11857.873    11074.921   -829.99778   -574.59544    778.43556   -5691.8073 
  737000    275.89158     -9069.62   -8017.7955     -9069.62            0    9619.8431    24.904883    24.884397    23.068757      14296.7    10387.941    10452.131    8019.4577    164.33803   -513.52656   -522.73891   -6012.0321 
  738000    292.44164   -9051.5148   -7936.5939   -9051.5148            0    9446.1686    24.956503    25.018412    22.938557    14322.195    9626.3883    8689.7669    10022.351    872.75931   -104.20408    366.94447   -5963.5299 
  739000    269.98957   -9015.1702   -7985.8468   -9015.1702            0    10079.592    25.071264    24.922986    22.918653    14320.738    8795.4775    9992.8934    11450.404   -779.97959     395.9652    1193.9093   -5880.6911 
  740000    280.62073   -9014.6667   -7944.8125   -9014.6667            0    10270.165    24.965785    24.832457    23.050818    14290.626    10763.837    10837.174    9209.4827    269.91399    243.52886    499.58732   -5804.3651 
  741000    281.53682   -9042.7867     -7969.44   -9042.7867            0    9965.2085    25.068562    24.872945    22.889757    14272.427    8388.9452    10822.065    10684.616    434.99061    753.13309   -236.12011   -5895.1947 
  742000    279.42859   -9015.6385   -7950.3293   -9015.6385            0    10669.001     25.00295    24.936752    22.927714    14295.255    10926.355    10359.204    10721.445   -160.00531    1190.0102    179.65909   -5726.0386 
  743000    268.25023   -9019.8508   -7997.1586   -9019.8508            0    10880.812    24.920255    24.940158    22.966066    14273.757    10351.929    11233.857     11056.65    1546.8832   -162.23657    620.00528   -5732.1206 
  744000     273.7292   -9065.4476   -8021.8671   -9065.4476            0    9931.0821    24.943204    24.929582    22.991661    14296.758    8902.9834     11056.96     9833.303    328.96677   -826.89894     1478.598   -5951.2012 
  745000    279.67493   -9044.9753    -7978.727   -9044.9753            0    10202.222    24.928601    24.938963    22.973714    14282.608    10152.228    11040.886    9413.5506   -152.26465    14.826205   -78.231312   -5853.6329 
  746000     273.3928   -9045.1526   -8002.8546   -9045.1526            0    11078.808    24.915183    24.863646    22.939826    14210.817    10255.795    12922.748    10057.881   -515.88289    57.877797   -685.38364   -5706.7695 
  747000    275.94369   -8985.6313   -7933.6081   -8985.6313            0    11077.909    24.980324    24.910764    22.919169    14262.117     10440.72    11445.319    11347.687    83.387182   -588.07099    507.21604   -5629.4214 
  748000    276.79725   -9089.9047   -8034.6274   -9089.9047            0    8848.8335    25.041417    24.971478     22.89085    14314.133     7871.161    9383.0804    9292.2592   -707.06303   -1026.0358    354.26176   -6187.3719 
  749000    275.07714   -9099.0596   -8050.3401   -9099.0596            0    10668.732    24.905178    24.865685    22.947922    14211.288    9642.0284    11604.107    10760.062   -570.56871   -149.81918     191.1226     -5839.17 
  750000    285.60175   -9039.9318   -7951.0877   -9039.9318            0    9731.9424    24.942102    24.959218    22.964915    14296.472     10325.54    10952.622    7917.6655    644.51578    39.283924   -124.54097   -5921.9838 
Loop time of 524.45 on 64 procs for 250000 steps with 1920 atoms

Performance: 82.372 ns/day, 0.291 hours/ns, 476.690 timesteps/s
99.2% CPU use with 64 MPI tasks x 1 OpenMP threads

MPI task timing breakdown:
Section |  min time  |  avg time  |  max time  |%varavg| %total
---------------------------------------------------------------
Pair    | 62.805     | 64.866     | 66.771     |  13.4 | 12.37
Bond    | 0.27737    | 0.28554    | 0.2978     |   0.9 |  0.05
Kspace  | 223.02     | 230.35     | 238.63     |  17.3 | 43.92
Neigh   | 6.6587     | 7.3651     | 8.1777     |  11.2 |  1.40
Comm    | 94.317     | 102.12     | 110.12     |  36.4 | 19.47
Output  | 1.6804     | 1.6822     | 1.7198     |   0.5 |  0.32
Modify  | 102.55     | 110.41     | 115.55     |  35.9 | 21.05
Other   |            | 7.37       |            |       |  1.41

Nlocal:        30.0000 ave          34 max          26 min
Histogram: 2 1 9 15 0 10 14 10 2 1
Nghost:        2817.45 ave        2841 max        2788 min
Histogram: 2 1 6 8 6 10 17 6 4 4
Neighs:        10625.8 ave       12061 max        9206 min
Histogram: 2 1 9 10 11 10 10 8 1 2

Total # of neighbors = 680049
Ave neighs/atom = 354.19219
Ave special neighs/atom = 2.0000000
Neighbor list builds = 12797
Dangerous builds = 1

unfix		3
unfix		2
unfix		1

write_data	data.final.${pid}
write_data	data.final.0
System init for write_data ...
PPPM initialization ...
  extracting TIP4P info from pair style
  using 12-bit tables for long-range coulomb (../kspace.cpp:340)
  G vector (1/distance) = 0.37442661
  grid = 30 30 30
  stencil order = 5
  estimated absolute RMS force accuracy = 0.0032752785
  estimated relative force accuracy = 9.863404e-06
  using double precision FFTW3
  3d grid and FFT values/proc = 3600 512
Last active /omp style is kspace_style pppm/tip4p/omp
WARNING: Not all mixed pair coeffs generated from mixing. Use write_data with 'pair ij' option to store all pair coeffs. (../write_data.cpp:312)

write_restart   restart.lmp.${pid}
write_restart   restart.lmp.0
System init for write_restart ...
PPPM initialization ...
  extracting TIP4P info from pair style
  using 12-bit tables for long-range coulomb (../kspace.cpp:340)
  G vector (1/distance) = 0.37442661
  grid = 30 30 30
  stencil order = 5
  estimated absolute RMS force accuracy = 0.0032752785
  estimated relative force accuracy = 9.863404e-06
  using double precision FFTW3
  3d grid and FFT values/proc = 3600 512
Last active /omp style is kspace_style pppm/tip4p/omp
Total wall time: 0:08:46
