LAMMPS data file via write_data, version 30 Jul 2021, timestep = 27000000

972 atoms
2 atom types
648 bonds
1 bond types
324 angles
1 angle types

0.014408983591234659 19.985592016414273 xlo xhi
0.11649051160833324 19.88351048840338 ylo yhi
0.1577576281943891 20.54224037180107 zlo zhi

Masses

1 1.008
2 15.999

Pair Coeffs # lj/cut/tip4p/long/omp

1 0 0
2 0.21084 3.1668

Bond Coeffs # harmonic/omp

1 450 0.9572

Angle Coeffs # harmonic/omp

1 55 104.52

Atoms # full

33 11 1 0.5897 1.7262513355044995 1.7098858489894626 1.465580266254706 0 0 0
11 4 1 0.5897 1.2808722348370711 2.852629438051767 3.210550339858731 0 0 0
10 4 2 -1.1794 1.2591303305305483 3.6532692570380667 3.734590393588308 0 0 0
12 4 1 0.5897 2.1781848727578983 3.9039914652894185 3.827946406867567 0 0 0
114 38 1 0.5897 4.560223072712496 8.01361854186894 3.606826185387508 0 0 0
140 47 1 0.5897 0.7945874230670001 9.019693378690581 2.9821661261070096 0 0 0
24 8 1 0.5897 2.9988861479765934 0.7547063158558422 4.441852311793935 0 0 0
17 6 1 0.5897 4.092619453349684 4.960609122065158 2.557578184170585 0 0 0
139 47 2 -1.1794 0.82632785582733 8.573242536296807 2.1360438840148084 0 0 0
31 11 2 -1.1794 1.043007527837173 1.4590278443502507 2.0872912733774296 0 0 0
14 5 1 0.5897 3.845196050144301 5.778628076968814 0.7317630517043506 0 0 0
22 8 2 -1.1794 2.2378583512665933 0.7509018400613777 5.022448533028916 0 0 0
15 5 1 0.5897 4.293880087199558 6.805455836197965 1.7496428657165641 0 0 0
126 42 1 0.5897 4.06846667251824 9.82119361663233 3.390708866045543 0 0 0
20 7 1 0.5897 0.7519300113160018 5.102942652012249 2.8007796003949266 0 0 0
18 6 1 0.5897 4.058521650767039 3.5108798450805634 2.9918014730734677 0 0 0
32 11 1 0.5897 0.25155908799624516 1.885910291219412 1.7592677812448785 0 0 0
111 37 1 0.5897 2.1447632214844483 9.124214050105433 0.9648589934882349 0 0 0
5 2 1 0.5897 4.162891563794707 0.7754722660053851 2.596352204225886 0 0 0
16 6 2 -1.1794 3.879615279861111 4.398345717413225 3.3023650044239328 0 0 0
19 7 2 -1.1794 0.521629303839424 5.941428502577103 2.4007823720058297 0 0 0
113 38 1 0.5897 3.07098730152977 7.767351529389444 3.7227735553307246 0 0 0
141 47 1 0.5897 0.8928538392847107 7.644447187198893 2.357272155718429 0 0 0
13 5 2 -1.1794 4.59723520995917 6.038566652706271 1.2638581159658135 0 0 0
4 2 2 -1.1794 4.270092649960533 1.506541353802514 3.2047934857303346 0 0 0
112 38 2 -1.1794 3.7628822917697033 7.935350064441794 3.082991964907522 0 0 0
132 44 1 0.5897 1.1428620586406617 7.391991236071459 5.171902982667363 0 0 0
130 44 2 -1.1794 2.091327780962043 7.358356049657321 5.047315749313411 0 0 0
674 225 1 0.5897 1.5151531160824956 5.4817430697064005 0.7241347098952713 0 0 1
110 37 1 0.5897 3.6224102621825995 8.926728639948994 0.7013026269864683 0 0 0
109 37 2 -1.1794 2.8187621692875418 9.254635502658715 0.2977715264144133 0 0 0
102 34 1 0.5897 0.36540500695034694 0.7425379254124443 5.111381376145259 1 0 0
9 3 1 0.5897 4.88301898994895 4.546762561421793 4.979940742886959 0 0 0
1 1 2 -1.1794 2.929655011019941 2.6055042102601504 0.3081701423121085 0 0 0
6 2 1 0.5897 4.844024928420319 1.1657562790714606 3.8908783221815084 0 0 0
3 1 1 0.5897 3.885661364981201 2.6174130054909965 0.261629892853953 0 0 0
325 109 2 -1.1794 2.3929331370333924 2.464165788795053 7.18563115720288 0 0 0
326 109 1 0.5897 2.2585304270092106 1.8341446044328835 6.477670693183115 0 0 0
327 109 1 0.5897 3.304998756493595 2.3394492051702467 7.4479990289409805 0 0 0
356 119 1 0.5897 1.4166444640169151 2.0453369613997943 8.617459491457344 0 0 0
355 119 2 -1.1794 0.7049897743141833 1.8491622568184307 9.226798061425637 0 0 0
344 115 1 0.5897 0.992357298165937 5.306787916610193 9.229793094229754 0 0 0
25 9 2 -1.1794 2.5339214259003917 5.210336285843261 6.463707440627959 0 0 0
27 9 1 0.5897 2.5030998551430654 4.26312622972353 6.330368145305913 0 0 0
433 145 2 -1.1794 2.9107008051934833 9.224049226447766 6.882890527079124 0 0 0
468 156 1 0.5897 4.590892858924777 9.294383449941446 7.478847261502593 0 0 0
463 155 2 -1.1794 0.9534092637196178 8.75694685417583 8.80391012429156 0 0 0
343 115 2 -1.1794 0.8441334288344252 5.942970366847484 8.530154493492272 0 0 0
554 185 1 0.5897 4.4587796103924795 0.5687477995197299 8.566978349821637 0 1 0
438 146 1 0.5897 3.9033588278172564 8.806367470718245 10.02642617022202 0 0 0
345 115 1 0.5897 1.1192050873316344 6.7797342109958345 8.904631385861496 0 0 0
443 148 1 0.5897 1.210862381192013 9.776905778024918 10.137014637963484 0 0 0
437 146 1 0.5897 4.136567637426772 7.521660243282806 9.260477552257797 0 0 0
328 110 2 -1.1794 3.711112528394155 1.6760643847834646 10.061488717020602 0 0 0
464 155 1 0.5897 1.6329774103432528 8.834245239680142 8.134223477946124 0 0 0
435 145 1 0.5897 2.730805740353045 8.730691624908564 6.082583923678254 0 0 0
339 113 1 0.5897 4.086657512905794 5.5670492227345925 7.421013276049142 0 0 0
26 9 1 0.5897 2.016463633003215 5.358295255824556 7.255297477517356 0 0 0
337 113 2 -1.1794 4.411322639420741 5.805582986501724 8.289348260085564 0 0 0
342 114 1 0.5897 3.825382742474755 4.940187483353274 9.740418362955452 0 0 0
465 155 1 0.5897 0.1317088615392649 8.756100878216353 8.312946602959043 0 0 0
436 146 2 -1.1794 4.025554173157475 7.864830390540499 10.147156999344384 0 0 0
131 44 1 0.5897 2.368457006107955 6.576318313459743 5.5245298910171945 0 0 0
341 114 1 0.5897 3.7656759791827765 3.4952551189932897 10.187645876545115 0 0 0
335 112 1 0.5897 0.9168854706134218 3.3252291282720865 10.289304667681327 0 0 0
649 217 2 -1.1794 2.825150704142568 2.126220428478168 13.402352483339913 0 0 0
650 217 1 0.5897 2.5104770085608594 1.4653775953243637 12.785566077412462 0 0 0
651 217 1 0.5897 2.3217045939864795 1.9682224417557128 14.201012532257629 0 0 0
347 116 1 0.5897 0.9601584258573921 0.6172822504879345 11.492004699795775 0 0 0
351 117 1 0.5897 2.597634735794983 4.040017308236516 13.270616248139305 0 0 0
340 114 2 -1.1794 3.676662422754507 4.391784563506972 10.510712792536452 0 0 0
759 253 1 0.5897 2.581713961290906 9.668868833889109 13.506170251834183 0 0 0
346 116 2 -1.1794 1.8816103108707896 0.36617634064677196 11.428061349629603 0 0 0
350 117 1 0.5897 3.1797701393291726 5.18369589296786 14.073603238241807 0 0 0
757 253 2 -1.1794 2.730522888761229 8.785852338180819 13.844069117839007 0 0 0
683 228 1 0.5897 4.341640401321795 2.6137251998866837 13.878420536778767 0 0 0
349 117 2 -1.1794 2.3843630787431627 4.905328000352951 13.619640807767865 0 0 0
668 223 1 0.5897 0.9523865324098266 5.2882380432754115 14.741980484063344 0 0 0
336 112 1 0.5897 1.8616684216084893 4.300228306541005 10.95891689443581 0 0 0
456 152 1 0.5897 2.0728003888378557 6.230521018238665 12.31522602360362 0 0 0
454 152 2 -1.1794 1.8506083365960875 6.977931903630747 11.760123519383983 0 0 0
758 253 1 0.5897 2.7159212315363455 8.22628367083146 13.067621714176221 0 0 0
680 227 1 0.5897 0.25517612893808006 2.4897770820529646 15.270150776054528 0 0 0
455 152 1 0.5897 2.6231742658912895 7.106158940697572 11.20974105950755 0 0 0
334 112 2 -1.1794 0.9324554375765933 4.135067168840988 10.799194702735416 0 0 0
533 178 1 0.5897 0.1654495933258698 7.522199442368525 11.627342262300516 1 0 0
330 110 1 0.5897 4.443881760337885 1.4740760906135857 10.643320249905084 0 0 0
789 263 1 0.5897 1.4466351508326742 8.424098274460995 15.047970911737098 0 0 0
329 110 1 0.5897 2.965532821526252 1.21467419163129 10.445476697405244 0 0 0
792 264 1 0.5897 4.490014479056049 9.06435593927933 14.209560441025811 0 0 0
661 221 2 -1.1794 4.214321244411473 5.888608734049392 15.374975955032136 0 0 0
667 223 2 -1.1794 0.29707552662944825 5.4453741705413075 15.421810638963072 0 0 0
885 295 1 0.5897 0.9420135366426992 0.32805357225230036 15.318877124743535 0 1 0
671 224 1 0.5897 2.60779785111746 1.4771817791966488 19.323814875981068 0 0 0
653 218 1 0.5897 3.4989669736570996 1.2612341280753863 17.415725441780094 0 0 0
652 218 2 -1.1794 4.195614134758261 1.4925069700159501 16.80135893652813 0 0 0
664 222 2 -1.1794 3.9824831628276147 4.015130457820315 17.428722168154867 0 0 0
670 224 2 -1.1794 2.30158473171488 0.9235518407099422 18.605514041635196 0 0 0
787 263 2 -1.1794 0.7363353048935509 8.240598007387312 15.662833403907335 0 0 0
681 227 1 0.5897 1.295662750197818 2.411213871897498 16.367073736083007 0 0 0
672 224 1 0.5897 1.351347476578056 0.8907272259415445 18.716105245943016 0 0 0
660 220 1 0.5897 0.8542002964123905 4.564794817107242 16.885904018176195 0 0 0
663 221 1 0.5897 4.128827187096558 6.807625772759741 15.628193498517536 0 0 0
658 220 2 -1.1794 1.0920382058051694 3.9891630513041823 17.612748086335785 0 0 0
761 254 1 0.5897 3.984559346771865 9.159120035062868 16.927848726488183 0 0 0
665 222 1 0.5897 3.0351320736738776 3.9141736429537493 17.521384617423234 0 0 0
666 222 1 0.5897 4.2642214828977085 3.2246125783777044 16.968482972949904 0 0 0
762 254 1 0.5897 4.618680261581178 7.9509579524761556 17.583468354601216 0 0 0
788 263 1 0.5897 0.8638519732823126 8.870766419608358 16.371913477469416 0 0 0
760 254 2 -1.1794 3.991961391137596 8.202339216408957 16.905009762117405 0 0 0
654 218 1 0.5897 4.32860988114868 0.7008444872848624 16.28010315384693 0 0 0
780 260 1 0.5897 2.3099679398287587 8.12685998419096 19.473237203611436 0 0 0
779 260 1 0.5897 2.8941700537387267 7.565035839526376 18.1945353537597 0 0 0
778 260 2 -1.1794 2.4151783663221194 7.311265608157314 18.983499416121756 0 0 0
675 225 1 0.5897 2.248154024594351 5.753976956691083 19.81222246760424 0 0 0
659 220 1 0.5897 0.44767859417112527 4.183276346203596 18.293469831592336 0 0 0
662 221 1 0.5897 4.20959264771657 5.409963736152932 16.203910570205572 0 0 0
679 227 2 -1.1794 1.08312068586937 2.067627809484825 15.49929014756602 0 0 0
669 223 1 0.5897 0.4115624644939674 6.365969795852667 15.657254802145813 0 0 0
858 286 1 0.5897 0.6390066996240885 7.315035947544369 18.46202990963807 1 0 0
673 225 2 -1.1794 2.200258985511749 5.132494064352295 20.53861762374338 0 0 0
2 1 1 0.5897 2.668101592689816 3.502571484602378 20.485491208478976 0 0 -1
120 40 1 0.5897 0.8264054379778412 11.074909146188176 3.522953141294244 0 0 0
230 77 1 0.5897 3.622091652118633 18.84406451385085 0.7614391274997715 0 0 0
228 76 1 0.5897 0.6187018897540913 17.35807859653659 4.661052922340744 0 0 0
231 77 1 0.5897 4.979449266707665 19.1250446599376 1.3702087975174324 0 0 0
247 83 2 -1.1794 0.870130863947754 14.91943102680203 2.502649355239315 0 0 0
248 83 1 0.5897 1.6285116205832417 14.984025683664054 1.9221603665053866 0 0 0
236 79 1 0.5897 0.6795835052495903 19.514096396384968 1.8556790583601137 0 0 0
125 42 1 0.5897 4.596085713462795 10.77744204020386 4.4390579652366196 0 0 0
240 80 1 0.5897 2.5890659285705877 14.445107306877706 4.808394534424017 0 0 0
234 78 1 0.5897 3.8459917004095834 18.040471725062595 2.8947401092711753 0 0 0
222 74 1 0.5897 4.199632968903524 14.306741497269876 3.019317953473818 0 0 0
118 40 2 -1.1794 0.9567170610883424 10.41180322761914 4.200816872256147 0 0 0
221 74 1 0.5897 4.259640156287011 15.732758455118653 3.5236352696761895 0 0 0
220 74 2 -1.1794 4.157584441608753 14.828640848714805 3.820631144815001 0 0 0
119 40 1 0.5897 1.9060827539842213 10.369009412089495 4.315345485149558 0 0 0
127 43 2 -1.1794 0.655696483876993 12.178234930038144 2.219755730065457 0 0 0
235 79 2 -1.1794 0.5851436966921014 18.567015810034945 1.7550975248274376 0 0 0
124 42 2 -1.1794 3.840351040511875 10.614935282371405 3.874491736388288 0 0 0
226 76 2 -1.1794 1.308947061061362 17.15007510021844 4.0313166859756 0 0 0
123 41 1 0.5897 3.9851208222428567 11.978004664252776 2.7896702511057576 0 0 0
233 78 1 0.5897 3.010580150262063 17.353714135316004 3.9541629746195035 0 0 0
129 43 1 0.5897 0.7600180230654189 13.09925403752398 2.4582189369375196 0 0 0
227 76 1 0.5897 1.1563607415239177 17.749744277905815 3.3010881277249826 0 0 0
232 78 2 -1.1794 3.9158822948696104 17.55313217660647 3.715637925227896 0 0 0
249 83 1 0.5897 1.050141867625569 15.54614295881539 3.203375775356212 0 0 0
783 261 1 0.5897 1.8547138367363107 11.973162207558753 0.8446926598397687 0 0 1
122 41 1 0.5897 3.688220632274191 12.468847317537174 1.388594496193997 0 0 0
229 77 2 -1.1794 4.049230170010697 19.067428219542872 1.5884619126560293 0 0 0
219 73 1 0.5897 3.790746410116043 15.138043950024905 0.8415068080301841 0 0 0
121 41 2 -1.1794 4.304474578585877 12.575286920108773 2.1133029973633586 0 0 0
217 73 2 -1.1794 2.8823650375114407 15.420849503217832 0.7362471199092102 0 0 0
218 73 1 0.5897 2.9449600037806336 16.274967429014552 0.3089059138759677 0 0 0
782 261 1 0.5897 2.91732806406993 11.100273442242186 0.21166532561192258 0 0 1
781 261 2 -1.1794 2.53769321772305 11.978057309097045 0.17402337405639898 0 0 1
238 80 2 -1.1794 1.865358997411583 14.000195965465801 5.249403682628149 0 0 0
890 297 1 0.5897 1.6299415876404504 18.19438111394518 0.22955221178023066 0 0 1
133 45 2 -1.1794 2.3841665464156145 11.783461509824841 6.4605964342376 0 0 0
134 45 1 0.5897 1.773773261627562 11.886593217984657 7.190718534258564 0 0 0
135 45 1 0.5897 3.2121191624812155 12.134256939043304 6.788646991486828 0 0 0
450 150 1 0.5897 4.09283357163319 11.370440910016946 10.049103953363657 0 0 0
243 81 1 0.5897 2.9992409330131977 18.81739406459412 7.168868176622079 0 0 0
553 185 2 -1.1794 4.661693037306656 19.492955093786374 8.161322236372191 0 0 0
573 191 1 0.5897 1.1679640136869647 14.090910905640067 9.45053534220105 0 0 0
559 187 2 -1.1794 0.2936411107570254 18.892939093396656 8.727262226166042 0 0 0
446 149 1 0.5897 4.3928412233050365 13.344221993761382 8.715093361326334 0 0 0
453 151 1 0.5897 1.241139954340949 11.680220999063495 9.604713487416609 0 0 0
239 80 1 0.5897 2.2222947922733964 13.146717713536766 5.494767566770267 0 0 0
572 191 1 0.5897 1.6271184297896342 15.160474214274014 8.482585172283462 0 0 0
544 182 2 -1.1794 4.18524586457707 14.641574992580264 10.048421488505669 0 0 0
558 186 1 0.5897 4.183979157885325 17.83012077886731 9.316189343659111 0 0 0
571 191 2 -1.1794 1.0301843444412382 15.008352956267954 9.215258679931454 0 0 0
541 181 2 -1.1794 2.9156625974280876 15.89844001002469 7.292333745049486 0 0 0
576 192 1 0.5897 4.609894370889124 15.852466437186973 7.3263754318948715 0 0 0
561 187 1 0.5897 0.6644284712877919 18.42798329912714 9.477321551668776 0 0 0
242 81 1 0.5897 1.5179858718249537 18.69200287066725 7.45529107408409 0 0 0
241 81 2 -1.1794 2.186942864612811 18.45851128804726 6.811673647321021 0 0 0
543 181 1 0.5897 2.4791217014262203 15.327764361302282 6.6598989987805 0 0 0
542 181 1 0.5897 2.707102505208346 16.785310067131505 6.9990364917014976 0 0 0
451 151 2 -1.1794 0.9657248866564013 12.213774284782106 8.859263247071242 0 0 0
445 149 2 -1.1794 4.433639985535822 12.411441003044684 8.504644651461724 0 0 0
560 187 1 0.5897 0.49818285256867983 19.813520294753577 8.890688063798676 0 0 0
434 145 1 0.5897 2.662042071051159 10.12368578779915 6.671072381270046 0 0 0
552 184 1 0.5897 1.228390782266941 16.390200095351137 10.246906360234577 0 0 0
556 186 2 -1.1794 4.063410366452843 17.339684334598466 10.129326844638573 0 0 0
452 151 1 0.5897 0.027963199293517788 12.349520586932027 8.99476030514274 0 0 0
557 186 1 0.5897 4.107404707968863 16.421098914650635 9.864162286168842 0 0 0
23 8 1 0.5897 2.278296539121742 19.670539137920798 5.465583255644941 0 -1 0
457 153 2 -1.1794 2.554124432215123 11.5622782806299 13.486675794146686 0 0 0
458 153 1 0.5897 2.040036951456601 11.83651581948634 14.2461467319762 0 0 0
459 153 1 0.5897 3.4640865827575698 11.696063769789708 13.751862594966834 0 0 0
563 188 1 0.5897 2.304796509573934 12.84925620965941 12.197791462953322 0 0 0
562 188 2 -1.1794 2.2860658741802142 13.748750120166756 11.871285834915549 0 0 0
879 293 1 0.5897 4.117740493334213 18.947422885848685 14.233279512737958 0 0 0
550 184 2 -1.1794 1.3603077743345429 17.205255240842366 10.730973159469068 0 0 0
545 182 1 0.5897 3.4520703595200115 14.361941314649833 10.596622193571232 0 0 0
865 289 2 -1.1794 2.6261262490207637 15.625138760063026 13.878244946833389 0 0 0
566 189 1 0.5897 2.586133239840962 17.337754475314565 13.564650763465549 0 0 0
866 289 1 0.5897 3.5351301492895257 15.589889628139796 14.176038234077959 0 0 0
867 289 1 0.5897 2.1240949649096867 15.233429951659161 14.592908754435424 0 0 0
565 189 2 -1.1794 2.590211917223735 18.257819757698364 13.301004074167906 0 0 0
564 188 1 0.5897 2.6747566884829075 14.267670256870995 12.575450568106334 0 0 0
883 295 2 -1.1794 0.7708703950860704 19.175370636639432 15.116747427628312 0 0 0
567 189 1 0.5897 1.9547130677139855 18.676556815971548 13.881551951353849 0 0 0
551 184 1 0.5897 2.310248528210894 17.321153528729692 10.751395674511611 0 0 0
641 214 1 0.5897 0.7077067870236324 14.10248086492499 11.942353856864639 1 0 0
449 150 1 0.5897 4.825870607759138 10.77816721988232 11.233954427285466 0 0 0
444 148 1 0.5897 2.331953085278449 10.441435837681635 10.90736199517067 0 0 0
442 148 2 -1.1794 1.377781299594159 10.382217424923162 10.859466094638453 0 0 0
546 182 1 0.5897 4.940246989923565 14.636948652636018 10.636808428686402 0 0 0
621 207 1 0.5897 0.03492003688505782 17.76149326081704 11.864548639479544 1 0 0
877 293 2 -1.1794 4.568298312686115 19.10410581423009 15.063198199142578 0 0 0
348 116 1 0.5897 1.9294286186177416 19.282818202730354 11.864705164375883 0 -1 0
769 257 2 -1.1794 4.752059921254419 12.501060695882122 14.903262665110326 0 0 0
548 183 1 0.5897 4.702663851988874 18.016503580366855 11.896421419796047 0 0 0
448 150 2 -1.1794 4.065818063941658 10.641157928804363 10.668434918642646 0 0 0
888 296 1 0.5897 2.5190571219034568 13.191629478024975 19.508680077510245 0 0 0
776 259 1 0.5897 0.3750893103830529 12.414381904492267 15.592561839116652 0 0 0
766 256 2 -1.1794 1.0812917420091583 10.297768263060863 17.58473516049641 0 0 0
768 256 1 0.5897 1.2319504009547833 10.961110623425984 16.91133573468116 0 0 0
965 322 1 0.5897 0.5254530816608798 13.988689355094177 18.96126136130925 1 0 0
886 296 2 -1.1794 2.449960720295536 13.950633368425503 18.92977262815653 0 0 0
882 294 1 0.5897 4.237444192198758 16.098726233101797 16.953901552539975 0 0 0
773 258 1 0.5897 3.0227215418538957 10.93209471395084 18.05349928603418 0 0 0
880 294 2 -1.1794 4.109994304097369 17.046988598531392 16.9297959488041 0 0 0
772 258 2 -1.1794 3.8659239741173197 10.941592518778469 17.600554684523168 0 0 0
869 290 1 0.5897 3.5971864991337816 14.042145245995231 17.437925217100492 0 0 0
875 292 1 0.5897 0.42842514526558395 17.762821465199305 17.73655686394803 0 0 0
868 290 2 -1.1794 4.372889319939581 14.159938515969934 16.889611407965457 0 0 0
878 293 1 0.5897 4.460244124795382 18.28872938963801 15.552682736185385 0 0 0
887 296 1 0.5897 2.5497083605574 14.705006958044764 19.51038935354369 0 0 0
767 256 1 0.5897 0.3749079659853955 10.656850103211065 18.121686259442523 0 0 0
874 292 2 -1.1794 1.1913652826583607 17.45462698016597 17.247488935887144 0 0 0
775 259 2 -1.1794 1.313753137772306 12.283524587059354 15.72682722358728 0 0 0
881 294 1 0.5897 3.199874972225315 17.1736929000352 17.19786752528081 0 0 0
876 292 1 0.5897 1.195827535588179 17.98475388557814 16.45050461793972 0 0 0
897 299 1 0.5897 1.0783700307737754 15.888620343965911 16.57242758299911 0 0 0
889 297 2 -1.1794 2.2783305051281766 17.91132056991091 19.96925615269037 0 0 0
891 297 1 0.5897 2.2170490105596055 18.558795530462856 19.266964790111047 0 0 0
774 258 1 0.5897 3.6480940867343827 11.15041275209596 16.692115891168175 0 0 0
895 299 2 -1.1794 0.9642570880533701 15.073772955393279 16.083452966915374 0 0 0
777 259 1 0.5897 1.6236273289804 13.116082675315006 16.083059637050006 0 0 0
771 257 1 0.5897 4.5223917006192 13.139094393171662 15.578801760546414 0 0 0
896 299 1 0.5897 0.14479613000811137 15.194458726944466 15.603681358045515 0 0 0
149 50 1 0.5897 9.806196171811752 7.786536985216666 3.9930195118109144 0 0 0
711 237 1 0.5897 8.632286392346641 5.5349827144065715 0.542079776723047 0 0 1
57 19 1 0.5897 7.482370376048959 5.322717010354306 2.7654979715174854 0 0 0
67 23 2 -1.1794 7.585431056171526 2.354447891109423 2.4002181621398795 0 0 0
138 46 1 0.5897 6.734747412686455 7.3743633082923425 4.892975383939283 0 0 0
68 23 1 0.5897 8.328034506945507 2.3178446131487385 1.7973487620408952 0 0 0
46 16 2 -1.1794 7.728015460364352 4.366468531201289 4.19737068463857 0 0 0
47 16 1 0.5897 7.538511316758552 3.6034937194525707 3.6513978109116776 0 0 0
69 23 1 0.5897 6.8286465449675635 2.522838679759458 1.838789665412673 0 0 0
29 10 1 0.5897 6.898724314698103 1.003896660546521 4.9892969459871885 0 0 0
155 52 1 0.5897 7.5931272851730345 9.760315775592375 3.43304125493499 0 0 0
48 16 1 0.5897 6.898182286406599 4.562330133582052 4.632422560133751 0 0 0
142 48 2 -1.1794 5.519040232634471 8.943228631778133 0.792406214931288 0 0 0
177 59 1 0.5897 8.645593590426445 8.574202387213788 1.4241695859427108 0 0 0
55 19 2 -1.1794 7.421527320950951 5.847177193135189 1.9670794946431074 0 0 0
175 59 2 -1.1794 7.94292164819884 8.48280064584271 2.0676711106600703 0 0 0
176 59 1 0.5897 7.8452332036235655 7.537811871276964 2.1837694177151237 0 0 0
56 19 1 0.5897 6.498441132374292 5.799413199359932 1.7183052029611796 0 0 0
37 13 2 -1.1794 9.611662394052775 2.587151311387437 0.5621236832967911 0 0 0
144 48 1 0.5897 6.3639282159335275 8.943491241732099 1.2423239782187347 0 0 0
53 18 1 0.5897 9.520681973610762 4.497339643596146 3.8298696444210605 0 0 0
34 12 2 -1.1794 5.662774850700244 2.7019280411322573 0.2921856815734061 0 0 0
273 91 1 0.5897 7.292589705272353 0.5713764428283667 2.1739693069849553 0 1 0
58 20 2 -1.1794 8.625242839454843 0.61218893243668 4.693023003500842 0 0 0
136 46 2 -1.1794 5.793390909158697 7.401885772208775 5.064282490465666 0 0 0
166 56 2 -1.1794 8.51795751632963 7.43560453579081 5.0388348286506615 0 0 0
359 120 1 0.5897 5.9872188741559125 2.430871709515695 7.782948640039956 0 0 0
338 113 1 0.5897 5.360957954808949 5.7030735138409865 8.22701833399114 0 0 0
501 167 1 0.5897 6.777534653118802 8.876413540112916 8.604049701457594 0 0 0
393 131 1 0.5897 7.330391078831417 1.1904777112821736 8.822406329442122 0 0 0
137 46 1 0.5897 5.589519792498692 6.538580008175242 5.423752708602982 0 0 0
467 156 1 0.5897 5.704118636597627 8.628688875983554 6.698162117937701 0 0 0
362 121 1 0.5897 9.204293802712224 3.472589785222741 6.412677021495394 0 0 0
391 131 2 -1.1794 7.289735853141207 2.145745050775635 8.864821395740925 0 0 0
392 131 1 0.5897 7.94475776593521 2.442102669483155 8.232859006632076 0 0 0
466 156 2 -1.1794 5.5367301665438555 9.323588808639913 7.3347206341265245 0 0 0
500 167 1 0.5897 7.702753083908679 9.258585783782445 9.739787484016752 0 0 0
358 120 2 -1.1794 5.151801041853156 2.5191244737304777 7.324101696163972 0 0 0
8 3 1 0.5897 5.4034933020772575 4.035444839172582 6.306481117110124 0 0 0
381 127 1 0.5897 7.091224709012662 5.194788747961111 9.572424481629232 0 0 0
469 157 2 -1.1794 9.222659718726709 9.123575806166562 7.0208272303210535 0 0 0
62 21 1 0.5897 8.244838712590875 5.44096876560654 7.194018366962959 0 0 0
63 21 1 0.5897 9.6924000471536 5.789632990340326 6.920296746322708 0 0 0
470 157 1 0.5897 8.678665202961406 8.906356300291455 7.777873372255648 0 0 0
360 120 1 0.5897 5.266826074737074 2.0169434508946535 6.517360146596377 0 0 0
361 121 2 -1.1794 9.42393275640151 2.5804862482704047 6.680923142774368 0 0 0
379 127 2 -1.1794 7.062366762523464 5.744613210607291 8.789438347102324 0 0 0
499 167 2 -1.1794 7.543006753418178 8.572465847481437 9.091813116529993 0 0 0
380 127 1 0.5897 7.299747032769394 6.6179765593762045 9.100788149987189 0 0 0
7 3 2 -1.1794 5.531963807218022 4.729118631623658 5.659580091473657 0 0 0
61 21 2 -1.1794 8.967041157253862 5.2576703625533 6.593097613320663 0 0 0
168 56 1 0.5897 8.875049561475867 8.091368031279407 5.63765871549411 0 0 0
167 56 1 0.5897 8.590403910654718 6.609589551705662 5.516893892157624 0 0 0
371 124 1 0.5897 7.71485546101516 3.3738663735200225 10.317025513357626 0 0 0
59 20 1 0.5897 8.824726376737308 1.1977243161806181 5.423466947271197 0 0 0
28 10 2 -1.1794 6.005247767974512 0.9801887350087752 5.331884904416003 0 0 0
682 228 2 -1.1794 5.284479494024596 2.7685352758652453 13.935903888350373 0 0 0
791 264 1 0.5897 5.909800948623178 9.014247787637848 14.732682087325696 0 0 0
332 111 1 0.5897 5.067743084744243 4.970814435229574 11.534642559190392 0 0 0
462 154 1 0.5897 5.522695869307773 7.85245893141863 11.34720232150749 0 0 0
793 265 2 -1.1794 9.01228639685651 9.0819808780848 13.719235203338442 0 0 0
382 128 2 -1.1794 8.606779797424428 1.1262676966166323 12.03256975479707 0 0 0
460 154 2 -1.1794 6.221175718174158 7.651356752343959 11.97000101804581 0 0 0
705 235 1 0.5897 7.426623042902216 5.904392731889186 14.78732975485225 0 0 0
331 111 2 -1.1794 5.679101834372877 4.99202832697276 12.270900616740537 0 0 0
352 118 2 -1.1794 5.750094177891255 1.1474516340999301 11.875587419585388 0 0 0
686 229 1 0.5897 8.719625418532535 2.6534776951616306 14.850954823246166 0 0 0
383 128 1 0.5897 8.674829554174412 1.871171929384779 12.629729120632316 0 0 0
353 118 1 0.5897 6.697667024009901 1.0140656593220188 11.898582973026087 0 0 0
377 126 1 0.5897 9.605856567644596 4.439820659622448 10.393006271960623 0 0 0
384 128 1 0.5897 9.17221858885122 1.3570285020486759 11.29546625102017 0 0 0
372 124 1 0.5897 7.361634357242772 4.3350187087152605 11.431985011403215 0 0 0
386 129 1 0.5897 9.075764146569009 4.905386355174351 13.441835792651013 0 0 0
333 111 1 0.5897 5.947078626386542 5.908679410391631 12.33397010419678 0 0 0
492 164 1 0.5897 8.145821655749893 7.634103068937684 11.179175057911111 0 0 0
354 118 1 0.5897 5.57252400678365 1.7346111295958513 12.610365383167514 0 0 0
385 129 2 -1.1794 8.85219667283599 5.802530380476249 13.689163241346575 0 0 0
387 129 1 0.5897 8.959020467504354 6.307327559812543 12.882927246634926 0 0 0
794 265 1 0.5897 9.426953960077922 8.712790252935406 12.939474447625086 0 0 0
461 154 1 0.5897 6.145578573108814 8.328343248794914 12.642386832950997 0 0 0
685 229 2 -1.1794 9.11377815951683 2.954478078296533 14.032211191379368 0 0 0
490 164 2 -1.1794 8.944785910944582 7.2230007100081535 11.509123238832903 0 0 0
370 124 2 -1.1794 8.05247469666555 4.1259529285697605 10.80325220593786 0 0 0
684 228 1 0.5897 5.408782381935741 3.6370252226350996 13.553373953337667 0 0 0
790 264 2 -1.1794 5.356565426187671 9.451502073895712 14.085391197322929 0 0 0
704 235 1 0.5897 6.005235903462879 5.99371685956233 15.300773985691626 0 0 0
491 164 1 0.5897 9.61269971148507 7.440321358387128 10.858781187483812 0 0 0
824 275 1 0.5897 7.903270880212624 8.927249060028645 15.227325743573697 0 0 0
717 239 1 0.5897 6.446765417805563 2.2079611717005925 15.350409886366812 0 0 0
825 275 1 0.5897 7.09804581485083 8.00310207403123 16.115767845980155 0 0 0
677 226 1 0.5897 5.47359881747081 0.8813399116060945 18.061198125765 0 0 0
657 219 1 0.5897 6.74360878724717 4.597203488417864 18.575822538363852 0 0 0
38 13 1 0.5897 9.265544277257344 2.126493013946862 20.1822610824363 0 0 -1
703 235 2 -1.1794 6.9171155322580695 6.083735276938411 15.577600283900555 0 0 0
655 219 2 -1.1794 5.98414272134452 4.852359364739764 19.099620014033245 0 0 0
786 262 1 0.5897 6.863138354207735 7.6109066488394665 18.506341361478526 0 0 0
145 49 2 -1.1794 9.689726907866943 9.418653718329267 20.50258947502067 0 0 -1
694 232 2 -1.1794 7.980441423466598 4.430908860362479 17.380116601051615 0 0 0
710 237 1 0.5897 9.131598650868446 4.54677384249575 19.89418787571749 0 0 0
695 232 1 0.5897 7.865566227401075 3.561239591906393 16.997316431161128 0 0 0
715 239 2 -1.1794 7.207430096221187 2.147172185600519 15.928244816376248 0 0 0
708 236 1 0.5897 7.693478956517061 1.1738222721971534 18.83114236324031 0 0 0
784 262 2 -1.1794 5.919223149499217 7.553637637997549 18.6546571407765 0 0 0
814 272 2 -1.1794 8.58919197598403 7.759305612281393 18.496782558245105 0 0 0
696 232 1 0.5897 7.633212236125377 5.031173632314207 16.72033509321614 0 0 0
702 234 1 0.5897 9.660996442895362 4.724639074363947 17.434583512104727 0 0 0
785 262 1 0.5897 5.759447092691412 6.626110158389409 18.82844170362721 0 0 0
706 236 2 -1.1794 8.648177465354474 1.21596644588965 18.88619399653115 0 0 0
815 272 1 0.5897 8.837146832330575 6.984243332374313 19.00068839372869 0 0 0
676 226 2 -1.1794 5.901435332784264 0.7786188780221286 18.91131172283635 0 0 0
816 272 1 0.5897 8.990762243895412 8.489783758130459 18.967177218060158 0 0 0
823 275 2 -1.1794 7.361537135623066 8.917834268745938 16.016462048302145 0 0 0
716 239 1 0.5897 7.350251431237904 1.2073105555900427 16.038815029478016 0 0 0
656 219 1 0.5897 5.232861629107445 4.684124255642313 18.530804833679937 0 0 0
143 48 1 0.5897 5.658461307650521 8.395010090186423 20.4047165371586 0 0 -1
36 12 1 0.5897 5.776672831121473 3.559878474246956 20.268039537613816 0 0 -1
35 12 1 0.5897 5.737308609012929 2.0798116607289856 19.953060814511062 0 0 -1
707 236 1 0.5897 8.893641709217896 0.44282522596760626 19.39425632070684 0 0 0
709 237 2 -1.1794 9.162852926405156 5.4732503151492455 20.132231788315096 0 0 0
285 95 1 0.5897 7.6020682106268165 14.240116782901328 2.2958177903292074 0 0 0
251 84 1 0.5897 6.425451270894134 15.652760998729157 1.0469754638687776 0 0 0
275 92 1 0.5897 9.78643700855089 14.056715427587887 4.230906284228225 0 0 0
164 55 1 0.5897 7.42306849357208 11.670558584798574 2.7001618344658245 0 0 0
165 55 1 0.5897 6.217558013564049 12.375126543612147 2.115206254529574 0 0 0
163 55 2 -1.1794 7.173637503852557 12.3513228177546 2.075255202042233 0 0 0
819 273 1 0.5897 8.384837444290934 12.043281910041783 0.802468029910534 0 0 1
283 95 2 -1.1794 7.896128804114149 15.082381530975267 1.949156737232399 0 0 0
264 88 1 0.5897 8.723003054001794 17.61401876906832 3.681219079568504 0 0 0
156 52 1 0.5897 8.644964962529793 10.658474526523332 4.048459891241497 0 0 0
154 52 2 -1.1794 7.697926886396727 10.556288722419056 3.9541402294755996 0 0 0
284 95 1 0.5897 7.85637425203964 15.677075849994992 2.698138349419172 0 0 0
262 88 2 -1.1794 7.792010371282304 17.560639137314876 3.4652060001666802 0 0 0
927 309 1 0.5897 8.539458093480157 19.255056735189584 0.7195064625933122 0 0 1