LAMMPS data file via write_data, version 30 Jul 2021, timestep = 4250000

1920 atoms
2 atom types
1280 bonds
1 bond types
640 angles
1 angle types

-0.1336051471027826 24.863606147102026 xlo xhi
-0.14619287518078572 24.876193875178284 ylo yhi
-0.06029497454731292 22.870294974549324 zlo zhi

Masses

1 1.008
2 15.999

Pair Coeffs # lj/cut/tip4p/long/omp

1 0 0
2 0.21084 3.1668

Bond Coeffs # harmonic/omp

1 450 0.9572

Angle Coeffs # harmonic/omp

1 55 104.52

Atoms # full

1 1 2 -1.1794 4.36146887645403 1.2363700505377084 4.060549631291156 0 0 0
2 1 1 0.5897 4.403631862391139 1.8418537699509183 4.800702164178076 0 0 0
3 1 1 0.5897 5.215923747260837 1.3156868518390608 3.636587121620456 0 0 0
4 2 2 -1.1794 2.859419546928356 1.0376338686991875 1.8874301605354027 0 0 0
5 2 1 0.5897 3.3732927086523516 1.0997191340553507 2.6926147820373507 0 0 0
6 2 1 0.5897 1.9627749340037437 0.8862949204855615 2.1861503323465747 0 0 0
9 3 1 0.5897 4.9143982486106506 4.267051841349875 3.4032595023182948 0 0 0
10 4 2 -1.1794 3.2376897910694975 4.864428334155766 3.741040769981321 0 0 0
11 4 1 0.5897 2.7139359183711473 5.4106854375292475 4.327084508770784 0 0 0
12 4 1 0.5897 2.6096565812585033 4.526701146233024 3.1025091629227015 0 0 0
13 5 2 -1.1794 1.450164150191404 2.816655505339204 5.159215897757668 0 0 0
14 5 1 0.5897 2.3510530920679305 3.1096121945045283 5.022550028128037 0 0 0
22 8 2 -1.1794 1.799510937887901 4.188078497589858 1.534171218388108 0 0 0
24 8 1 0.5897 1.6764166703710126 5.029775152660901 1.0953801607207592 0 0 0
20 7 1 0.5897 3.811728451565748 2.330687130082406 0.8977496101940838 0 0 0
23 8 1 0.5897 1.0016920730543555 4.066788151066103 2.0488906752060645 0 0 0
15 5 1 0.5897 1.4283518509282669 1.9308822650941422 4.797207554102941 0 0 0
21 7 1 0.5897 5.306429242968005 2.5621342855152913 0.8356753584978108 0 0 0
19 7 2 -1.1794 4.482960158284825 2.818355159230894 0.42049368349473926 0 0 0
98 33 1 0.5897 -0.04657815594412745 5.112724240960521 3.7974315343134233 1 0 0
28 10 2 -1.1794 1.2521593092583827 -0.028492173903067144 4.794243281500756 0 0 0
1455 485 1 0.5897 1.6871430738406776 3.0091375565083673 0.03971174617257542 0 0 1
25 9 2 -1.1794 4.4362092737125804 5.565326009682441 0.2399561115533828 0 0 0
7 3 2 -1.1794 5.8533363156852625 4.119328332382405 3.2907112227969813 0 0 0
47 16 1 0.5897 6.041789450401589 0.3963202246046983 1.631130224745995 0 0 0
16 6 2 -1.1794 -0.07315911617396363 1.0387066243065914 1.8866386162028033 0 0 0
26 9 1 0.5897 5.037577206818555 5.911702837487661 0.8991696170929642 0 0 0
99 33 1 0.5897 0.24761913816299358 3.678588263768792 4.182529083931901 1 0 0
27 9 1 0.5897 4.1984451376918805 4.696956406194402 0.564787662622507 0 0 0
505 169 2 -1.1794 4.385362235139717 5.879348133059162 6.575992407422679 0 0 0
497 166 1 0.5897 -0.00018389285211384276 0.9824075496562905 7.328063085739666 0 0 0
508 170 2 -1.1794 1.2453879928500489 0.12795180307544102 10.745159453677543 0 0 0
487 163 2 -1.1794 5.930260857781798 4.700293915801455 9.108042657029527 0 0 0
488 163 1 0.5897 6.095125438566822 3.9338153262391637 9.657120446181441 0 0 0
527 176 1 0.5897 5.582610078562084 0.7968530688490798 7.60065934095457 0 0 0
484 162 2 -1.1794 2.677981482304111 1.7106070995070572 7.84572850435175 0 0 0
496 166 2 -1.1794 0.08817111382678636 1.7889623199975087 7.835813029762522 0 0 0
629 210 1 0.5897 1.955413230742793 5.731678679907012 10.418381470326585 0 0 0
483 161 1 0.5897 4.580252032765104 2.1842225476857124 10.573925306544888 0 0 0
502 168 2 -1.1794 1.3892052355932045 4.7755573790107775 7.249773750658283 0 0 0
498 166 1 0.5897 1.0326684464917684 1.9072165038211772 7.9359849336526915 0 0 0
150 50 1 0.5897 1.2755636633010856 5.984308347355274 5.929824791645498 0 0 0
489 163 1 0.5897 4.97946755306594 4.717673497472394 8.999467646044145 0 0 0
482 161 1 0.5897 5.365766562936244 1.3218681246945727 9.608996891254407 0 0 0
485 162 1 0.5897 3.1067194184807314 1.7234351172174638 8.701455282407123 0 0 0
486 162 1 0.5897 2.8570327869599947 0.8359748760881295 7.500656381214173 0 0 0
504 168 1 0.5897 1.290298237129252 3.992258877836183 6.708649242473652 0 0 0
500 167 1 0.5897 3.774255938791083 2.7165591108825162 6.721261646780553 0 0 0
493 165 2 -1.1794 1.2287690186922062 2.8495960534654805 10.645897884304691 0 0 0
499 167 2 -1.1794 4.5200815462924 3.059335982597232 6.228928360464201 0 0 0
579 193 1 0.5897 -0.07716331064605375 5.238976849442736 9.771573747371649 1 0 0
481 161 2 -1.1794 4.528379489509512 1.3721972820185622 10.06985128135928 0 0 0
501 167 1 0.5897 4.451649691756569 4.009633665621434 6.320410727150628 0 0 0
494 165 1 0.5897 1.0245851697210735 1.9145617191649875 10.656389446177984 0 0 0
490 164 2 -1.1794 3.2705431894764407 4.567935655583729 9.362044276404077 0 0 0
503 168 1 0.5897 0.6030587337624574 4.7910804290396465 7.7955622435340315 0 0 0
492 164 1 0.5897 2.8132647646517794 4.051632170850544 10.025766667908561 0 0 0
491 164 1 0.5897 2.670311199857245 4.586410405295042 8.616666335256529 0 0 0
528 176 1 0.5897 5.758819963438495 2.300348639175297 7.604783247785593 0 0 0
961 321 2 -1.1794 4.382769957314824 1.3209231709808673 15.693872054273983 0 0 0
962 321 1 0.5897 5.048642733502626 1.1252372010993967 15.034701531346835 0 0 0
963 321 1 0.5897 4.492682404777847 0.6385581083709171 16.35605402503755 0 0 0
964 322 2 -1.1794 2.668287309856749 1.504700270074763 13.586965690130594 0 0 0
965 322 1 0.5897 3.039928889502409 1.2978525886728427 14.444488441592378 0 0 0
966 322 1 0.5897 1.7223414494996405 1.5177452264243576 13.732266422699416 0 0 0
970 324 2 -1.1794 3.0761794026738336 4.465287738892007 15.141444709485622 0 0 0
971 324 1 0.5897 4.001032023291519 4.471881441567028 14.895044927779105 0 0 0
972 324 1 0.5897 2.968784587109138 3.6609640893411814 15.649062258903836 0 0 0
973 325 2 -1.1794 1.1779197430500068 2.6225238842681717 16.583091126598227 0 0 0
975 325 1 0.5897 0.5850359318637496 3.1240196809676157 16.02349395598805 0 0 0
982 328 2 -1.1794 1.2826261303807729 4.467719332698226 13.136808939157696 0 0 0
983 328 1 0.5897 1.2834571889273538 5.184919797038712 12.50293120725471 0 0 0
984 328 1 0.5897 1.9253713882243764 4.729288969115558 13.796092233600797 0 0 0
990 330 1 0.5897 1.6888104501148495 0.9198456266007262 16.49591512664974 0 0 0
980 327 1 0.5897 3.5813768253418745 2.7919025370706363 12.558833383340446 0 0 0
987 329 1 0.5897 4.40403443768747 4.906403640499269 11.987592239162359 0 0 0
981 327 1 0.5897 5.092091068344476 2.8047254181140038 12.46333880976253 0 0 0
979 327 2 -1.1794 4.304627246777374 3.160493662626253 12.051689728655415 0 0 0
1008 336 1 0.5897 5.569217656863284 0.8813789182471881 13.116008954662464 0 0 0
1346 449 1 0.5897 3.6122376215788785 0.2554485450282417 12.723028571517627 0 1 0
1110 370 1 0.5897 2.083191057507886 5.961294585748085 16.068560496652765 0 0 0
985 329 2 -1.1794 4.508060641720906 5.854135782489001 12.071739801504927 0 0 0
976 326 2 -1.1794 -0.02883828346915633 1.4490594406389832 13.50127285676621 0 0 0
967 323 2 -1.1794 5.74911621193245 4.507030964034045 15.069103703188564 0 0 0
1109 370 1 0.5897 0.5717321816953778 5.885246753567754 16.033134928893055 0 0 0
495 165 1 0.5897 1.1051086578871292 3.132400271157185 11.55199164408241 0 0 0
969 323 1 0.5897 6.098013982502961 3.6991157352354884 15.445499263571026 0 0 0
988 330 2 -1.1794 1.6337607343187543 -0.03243261820531232 16.574836878331915 0 0 0
1345 449 2 -1.1794 4.410735058330478 -0.11441907098568294 12.346559029646068 0 1 0
1347 449 1 0.5897 4.426194390661133 0.21312296064459768 11.447258146736251 0 1 0
1539 513 1 0.5897 0.29823220341299717 5.041553092939506 21.365439256057655 1 0 0
1590 530 1 0.5897 2.201644760080331 5.53023006184643 21.89593403561537 0 0 0
386 129 1 0.5897 5.050660446536904 -0.0505294968842378 22.85095195329035 0 1 -1
1462 488 2 -1.1794 1.505396669071282 4.3117284963931555 18.630235698836984 0 0 0
1465 489 2 -1.1794 4.383659748022869 5.984464812380178 17.596185002378185 0 0 0
1442 481 1 0.5897 4.3509563054278635 0.9562796770251927 20.662425206368447 0 0 0
1487 496 1 0.5897 6.04697806413026 1.3792737621371736 19.945492489082113 0 0 0
1469 490 1 0.5897 1.5819095166581494 0.7831180075511669 22.245172144880804 0 0 0
1444 482 2 -1.1794 2.982513212316499 0.8479205953567134 19.361666134772534 0 0 0
1450 484 2 -1.1794 3.3400277854144966 3.9127697277667712 20.49571236729676 0 0 0
1445 482 1 0.5897 2.0303078604585254 0.7753474087452508 19.425932621216567 0 0 0
1460 487 1 0.5897 4.679524435994582 2.3130146670554224 17.30025973835663 0 0 0
1452 484 1 0.5897 2.873792053495246 3.8747096783884727 19.660595239578193 0 0 0
1588 530 2 -1.1794 1.4735974074529659 5.974304281813251 22.3305329027039 0 0 0
1466 489 1 0.5897 4.35445712709049 5.037192932324412 17.462329380017103 0 0 0
1463 488 1 0.5897 1.4685832397904652 5.102651368638971 18.092426067531413 0 0 0
1488 496 1 0.5897 5.97515330990536 0.7043098637594961 18.592274419468545 0 0 0
1441 481 2 -1.1794 5.013717325213365 1.1649736269787183 21.32073874291408 0 0 0
974 325 1 0.5897 1.3277380691872263 3.1873895585362173 17.341180504851444 0 0 0
1443 481 1 0.5897 4.702658309810764 1.974205082271712 21.726340599095842 0 0 0
1459 487 2 -1.1794 4.682743590829203 3.1020582624625077 17.842086772591344 0 0 0
1454 485 1 0.5897 2.0155128646738363 2.9246505599513077 21.494816698190554 0 0 0
1461 487 1 0.5897 5.482502993912196 3.032067592389955 18.36327149984946 0 0 0
1446 482 1 0.5897 3.144540529971694 1.7840645469244936 19.245578077094024 0 0 0
1464 488 1 0.5897 0.8895246603202149 4.477835007284697 19.34389420190581 0 0 0
1453 485 2 -1.1794 1.5394722294960577 2.472666117272775 22.191444153431966 0 0 0
1451 484 1 0.5897 4.240120338708174 4.13514362221367 20.258040426317116 0 0 0
1456 486 2 -1.1794 0.2908557212731688 0.7154869534799789 19.32797820316086 0 0 0
121 41 2 -1.1794 4.56214504805054 7.52361982228168 4.409498427409957 0 0 0
122 41 1 0.5897 3.8826399106970015 7.750372663819563 3.774651368093806 0 0 0
123 41 1 0.5897 5.375710612720535 7.5377098551028965 3.9054176396597504 0 0 0
124 42 2 -1.1794 2.9277716685686994 7.803451128500713 2.1258057527297027 0 0 0
126 42 1 0.5897 3.1689119161700163 8.287198865415457 1.3358292764969177 0 0 0
129 43 1 0.5897 5.154486894346296 10.572248977938205 3.5583330669429833 0 0 0
130 44 2 -1.1794 3.2929187504736768 10.702056344199784 3.170665823819033 0 0 0
132 44 1 0.5897 2.7539328452458944 10.00635779060444 3.5469868848260715 0 0 0
133 45 2 -1.1794 1.3100650876286934 9.11348582937261 4.76387604557985 0 0 0
137 46 1 0.5897 0.8098699210470873 7.728096503693109 2.076949391227908 0 0 0
139 47 2 -1.1794 5.096073517109952 9.423362749096196 0.6099417712763284 0 0 0
142 48 2 -1.1794 1.4417702328854485 10.686258662939991 1.069506954145603 0 0 0
143 48 1 0.5897 2.1510788090086423 10.70477976643575 1.711936241419042 0 0 0
144 48 1 0.5897 1.678085676280091 11.35955134910823 0.43152485725752426 0 0 0
149 50 1 0.5897 1.31331475902988 7.212341935763917 5.0453940365979655 0 0 0
125 42 1 0.5897 3.395134256482972 6.971650370154213 2.0498340045825105 0 0 0
135 45 1 0.5897 0.6320209331224695 9.670790098510073 4.382039641385725 0 0 0
131 44 1 0.5897 2.8967969218740928 11.512350213653658 3.491038963427079 0 0 0
140 47 1 0.5897 4.86902167026516 10.352092603871533 0.5652184124795736 0 0 0
218 73 1 0.5897 -0.0418224662050352 10.900664876552382 2.3735465318001276 1 0 0
270 90 1 0.5897 0.7379850780721655 12.090594152481524 4.386127527253656 0 0 0
168 56 1 0.5897 5.888464253760345 7.952458593768608 1.3845404154985512 0 0 0
148 50 2 -1.1794 1.2937435147271443 6.255993623236778 5.012147171018488 0 0 0
145 49 2 -1.1794 4.7637272499998256 12.233913169355148 0.5733503730676487 0 0 0
134 45 1 0.5897 1.4588431451519508 9.479577014780988 5.635710560197338 0 0 0
136 46 2 -1.1794 -0.1279406052403899 7.8744337266583955 2.200195291481385 0 0 0
127 43 2 -1.1794 6.022046306804921 10.404475239950534 3.926179992259109 0 0 0
698 233 1 0.5897 0.21994773898168324 11.308349661474082 9.572531712993849 1 0 0
628 210 2 -1.1794 1.2740917065016355 6.209828058055839 10.890939041980046 0 0 0
507 169 1 0.5897 4.633419471742558 6.445002632993379 5.844755431979558 0 0 0
1101 367 1 0.5897 4.762692973887992 8.652921295684838 11.21426108375084 0 0 0
607 203 2 -1.1794 5.916038232559339 10.86882764348204 9.281692534549016 0 0 0
621 207 1 0.5897 4.518029795229711 9.106981534371231 5.768874776356645 0 0 0
648 216 1 0.5897 5.6161513324898005 7.032041670950009 7.337240453026662 0 0 0
614 205 1 0.5897 2.1497617781526794 9.493229990926558 10.137914776713792 0 0 0
506 169 1 0.5897 3.627622051291311 6.312846066190833 6.968463016560173 0 0 0
620 207 1 0.5897 5.314461134481929 8.763753760032369 7.009754574165891 0 0 0
612 204 1 0.5897 2.7556841053326933 11.33750737010495 9.670331173896331 0 0 0
630 210 1 0.5897 1.4191096480141159 7.126826137518346 10.658160572783128 0 0 0
748 250 2 -1.1794 1.4558827057120716 12.315468804351989 10.499075672132792 0 0 0
625 209 2 -1.1794 4.768468332203073 12.244825649907824 6.466852463603963 0 0 0
622 208 2 -1.1794 1.4692054013236349 10.604137177839883 6.985300933753428 0 0 0
606 202 1 0.5897 1.7985017463837225 7.68906784470633 7.663233611830993 0 0 0
615 205 1 0.5897 0.6897647335695314 9.09992836377852 10.065074987473498 0 0 0
602 201 1 0.5897 4.464975804219092 6.750325818646776 10.519964345283396 0 0 0
624 208 1 0.5897 1.6698450017732072 11.276852275910223 6.334620619945201 0 0 0
610 204 2 -1.1794 3.0865248860624885 10.72939859614306 9.00932183550978 0 0 0
613 205 2 -1.1794 1.5099446254679518 8.886182863126114 10.50977113530608 0 0 0
605 202 1 0.5897 3.049726937663463 8.506304323830044 7.422163938452174 0 0 0
626 209 1 0.5897 4.825714858820829 11.318286715059623 6.699986494275132 0 0 0
601 201 2 -1.1794 4.560816553361352 7.477679583252679 9.905183984136858 0 0 0
611 204 1 0.5897 4.038551731077543 10.773874593408257 9.097461371827507 0 0 0
619 207 2 -1.1794 4.775113823355733 9.453596299582133 6.623282907560984 0 0 0
603 201 1 0.5897 3.8371385587042397 7.36765202487858 9.288449679820864 0 0 0
623 208 1 0.5897 2.1285203357563556 10.726564873345751 7.668317038786396 0 0 0
604 202 2 -1.1794 2.7286012278800196 7.7324247490159665 7.884899826424388 0 0 0
699 233 1 0.5897 0.023922757798687494 10.48143554303433 8.31966515333441 1 0 0
647 216 1 0.5897 5.999452529001519 7.853756406392904 8.549562523516288 0 0 0
750 250 1 0.5897 1.5462725179521486 11.87798469561426 11.345648032945464 0 0 0
1081 361 2 -1.1794 4.526642199532199 7.903118758471319 15.58832040761921 0 0 0
1082 361 1 0.5897 4.535767680478184 8.649119350106446 16.18796235934437 0 0 0
1083 361 1 0.5897 4.6055206912835045 7.137259327055662 16.157000857885997 0 0 0
1084 362 2 -1.1794 2.8689082829316535 7.6132996673830915 13.480278748620522 0 0 0
1086 362 1 0.5897 3.2296771544879834 8.045050801962377 12.70590317841676 0 0 0
1089 363 1 0.5897 4.8968542826312556 10.576034746869086 15.342170255054747 0 0 0
1090 364 2 -1.1794 3.109327467275386 10.632564603561676 15.179184207048545 0 0 0
1092 364 1 0.5897 2.4804604908155676 10.063397556323396 15.622704990560637 0 0 0
1097 366 1 0.5897 1.1318458445296136 7.647822597119752 13.54965705772331 0 0 0
1099 367 2 -1.1794 4.78921576760417 9.220848126376941 11.98431487209291 0 0 0
1102 368 2 -1.1794 1.503262014795146 10.779861606251231 12.73475825943317 0 0 0
1103 368 1 0.5897 1.374771668268855 9.9365709842387 12.300615021070943 0 0 0
1104 368 1 0.5897 2.1608192411110254 10.605454475530689 13.408102471471691 0 0 0
1085 362 1 0.5897 3.47464612063981 7.840293245143658 14.185794191721712 0 0 0
1100 367 1 0.5897 5.323614137081501 8.741779801452967 12.617630813488738 0 0 0
1093 365 2 -1.1794 1.1746286679208497 9.223960534809004 16.43326800665104 0 0 0
1094 365 1 0.5897 1.1736721795015936 8.277755122497657 16.57746604561318 0 0 0
1107 369 1 0.5897 4.720688058627036 11.217814200253926 12.011840365428807 0 0 0
1091 364 1 0.5897 2.774616989033384 11.517707547690804 15.322665352966332 0 0 0
1095 365 1 0.5897 0.38842640821052765 9.388167988952521 15.912619096295918 0 0 0
1105 369 2 -1.1794 4.6371453442103086 12.152517210974398 12.20011755213232 0 0 0
1127 376 1 0.5897 6.097359394753688 7.140462660371124 14.19482667055024 0 0 0
1108 370 2 -1.1794 1.2962125275069805 6.3665282121219215 16.432661599805407 0 0 0
1098 366 1 0.5897 -0.10035555676352459 7.630228270337394 14.428908108274689 0 0 0
1179 393 1 0.5897 0.18788303869616685 11.1830943290084 14.057401364957636 1 0 0
1096 366 2 -1.1794 0.1837595868004504 7.777036468997783 13.526686866991541 0 0 0
986 329 1 0.5897 3.815689403679169 6.118723926559793 12.6773709708559 0 0 0
1178 393 1 0.5897 0.1301955160010712 11.623818540679233 15.504614637539547 1 0 0
1087 363 2 -1.1794 5.832559488938935 10.541425598344341 15.143784436295507 0 0 0
1658 553 1 0.5897 0.24267490590366947 9.49690512430162 21.299940564972403 1 0 0
1657 553 2 -1.1794 -0.13154513456651376 10.347383618158855 21.070269893275302 1 0 0
1710 570 1 0.5897 2.3006437482648034 11.974696799787194 21.39290035929063 0 0 0
1467 489 1 0.5897 5.1671866280301595 6.127789171860085 18.12694099718896 0 0 0
1581 527 1 0.5897 5.168422316553633 9.120982859819067 18.30318684106581 0 0 0
1580 527 1 0.5897 3.6749458491372176 9.10427807046316 18.549767876525138 0 0 0
1584 528 1 0.5897 1.3375779796229896 10.339057796375862 17.85942136012992 0 0 0
1709 570 1 0.5897 0.8031430981151206 12.088343650497329 21.582984203350442 0 0 0
1575 525 1 0.5897 2.3440080426444214 9.122334729710916 21.59036065527689 0 0 0
1561 521 2 -1.1794 4.706293015695215 7.657913433681277 21.417874423324072 0 0 0
1563 521 1 0.5897 3.84042285757897 7.688681897114306 21.011117681754335 0 0 0
1566 522 1 0.5897 3.3214462276208647 7.046697528353029 18.817374934651113 0 0 0
1572 524 1 0.5897 4.27669071175104 10.897954129810495 20.581774092779582 0 0 0
1571 524 1 0.5897 2.9871440429573273 10.848367707645696 19.790391341182392 0 0 0
1570 524 2 -1.1794 3.346786695316533 10.686162988455091 20.662516974119804 0 0 0
1573 525 2 -1.1794 1.8230353197951443 8.620225096109033 22.216977085249397 0 0 0
1587 529 1 0.5897 4.368648310713557 11.430014920408631 17.97490446313548 0 0 0
1564 522 2 -1.1794 2.827787289170898 7.659868118102976 19.361872392107415 0 0 0
1582 528 2 -1.1794 1.521185565917508 10.973132464279056 18.552555636680495 0 0 0
1589 530 1 0.5897 1.6559694594251453 6.9064014875004265 22.21209134283741 0 0 0
1579 527 2 -1.1794 4.34960914599472 9.526265597633177 18.017879465894758 0 0 0
1583 528 1 0.5897 0.8628761062207823 10.79264585543414 19.22355394634868 0 0 0
1565 522 1 0.5897 1.9109142755174795 7.430735375593146 19.21042420326689 0 0 0
1562 521 1 0.5897 4.706347926931808 6.843621120519078 21.92094736612726 0 0 0
1576 526 2 -1.1794 0.15827344967570134 7.44950440706167 19.140243479910545 0 0 0
1608 536 1 0.5897 5.980890415004147 7.741489989737548 19.98850167384669 0 0 0
141 47 1 0.5897 4.838800614534012 9.072120374856762 22.68807129505184 0 0 -1
1574 525 1 0.5897 1.528810062572832 9.26755434878049 22.85773813647788 0 0 0
241 81 2 -1.1794 4.616780751859826 13.766415520287158 4.299707864186104 0 0 0
242 81 1 0.5897 4.498270548518797 13.024925063912875 4.893275919682066 0 0 0
243 81 1 0.5897 3.8799376702740043 13.70729014981761 3.6916483989151136 0 0 0
244 82 2 -1.1794 2.802907574507467 13.388622391349916 2.1348054279628705 0 0 0
245 82 1 0.5897 1.8509201314889148 13.475076553366135 2.1831416336319722 0 0 0
246 82 1 0.5897 3.099372637187436 14.212524211248908 1.7482567196229493 0 0 0
250 84 2 -1.1794 3.383577687265946 16.997495703630193 3.7262161833573173 0 0 0
251 84 1 0.5897 3.087225384830429 16.841163817338703 2.8295539746335012 0 0 0
252 84 1 0.5897 4.337775613827075 17.03366596003211 3.660668816466785 0 0 0
253 85 2 -1.1794 1.2693229954712626 15.232718660170146 4.956582113037851 0 0 0
255 85 1 0.5897 2.1631164744491036 15.545918872625947 4.818202097304129 0 0 0
259 87 2 -1.1794 4.9261531034222 15.535777744235915 0.9097521080686479 0 0 0
262 88 2 -1.1794 1.5557579955599965 16.718578203416392 1.698021682697283 0 0 0
263 88 1 0.5897 1.5404408598030646 15.955363515402583 1.1205844833898115 0 0 0
264 88 1 0.5897 1.48793412299317 17.4681728097056 1.1066912020591746 0 0 0
254 85 1 0.5897 0.7551005629387735 15.665908058694173 4.27532470600269 0 0 0
269 90 1 0.5897 1.2825177983442761 13.33390555750428 5.056424542084164 0 0 0
260 87 1 0.5897 4.938034045306062 16.48944336244422 0.8293034456962249 0 0 0
265 89 2 -1.1794 4.797504761697735 18.20610530364491 0.7554207948294931 0 0 0
389 130 1 0.5897 2.223906682399554 18.581007097474696 4.364283098951265 0 0 0
288 96 1 0.5897 6.006626559320337 14.466986267258637 1.7852418977287243 0 0 0
740 247 1 0.5897 4.825162057121992 15.245565428731759 5.599474341451155 0 0 0
256 86 2 -1.1794 0.07966671994399269 13.804477708346019 1.9833497700730667 0 0 0
339 113 1 0.5897 0.22734057072082536 17.347487978013632 4.392802546799422 1 0 0
146 49 1 0.5897 5.4875859875111 12.581997721902539 1.0939427518049092 0 0 0
258 86 1 0.5897 0.07453031627595408 13.046922628039772 1.3983310411479268 0 0 0
287 96 1 0.5897 6.028308039183075 13.745590039092662 3.1160468667424945 0 0 0
338 113 1 0.5897 0.16165291738505155 17.063988699153427 2.9070914793611373 1 0 0
267 89 1 0.5897 4.0102595127487 18.585215265164123 1.1461160450027361 0 0 0
268 90 2 -1.1794 1.5050836473097946 12.42621784741124 4.84986388547728 0 0 0
147 49 1 0.5897 3.976416248916985 12.562695208696924 1.0071404570409372 0 0 0
261 87 1 0.5897 4.904581802010099 15.219044860061032 0.006711762305862123 0 0 0
1221 407 1 0.5897 4.660268493940062 15.183461796413026 11.28404432841808 0 0 0
627 209 1 0.5897 5.4375325224105735 12.669161806259755 7.003920653568254 0 0 0
869 290 1 0.5897 0.677265326779119 18.191385786306974 10.349206813503413 0 0 0
818 273 1 0.5897 0.3112503637794637 17.135339571052967 8.561339863547781 1 0 0
738 246 1 0.5897 0.038880999093101415 13.934876690535818 8.619145257719468 0 0 0
870 290 1 0.5897 2.186609186386377 18.291405916312492 10.407684539912765 0 0 0
741 247 1 0.5897 4.719411711677665 16.656756424262497 6.1370347070693585 0 0 0
721 241 2 -1.1794 4.659608305893708 13.955299731232563 10.104752723963484 0 0 0
736 246 2 -1.1794 0.41004873184157853 13.983374151349288 7.738155400614944 0 0 0
768 256 1 0.5897 6.07811383462784 14.54613902514009 7.517576050684056 0 0 0
731 244 1 0.5897 2.703805925934989 16.83553508992898 8.668215780245497 0 0 0
727 243 2 -1.1794 5.940985693843224 16.768580794812323 9.62142251551412 0 0 0
725 242 1 0.5897 3.34011688019248 13.216304030245313 7.699822841395873 0 0 0
724 242 2 -1.1794 3.141542108534721 14.12992227362337 7.904687407210671 0 0 0
742 248 2 -1.1794 1.7363641553548343 16.877693145484415 7.138154757586188 0 0 0
737 246 1 0.5897 1.3489836542439744 14.103657909500052 7.87967749704775 0 0 0
749 250 1 0.5897 1.3325258147498757 13.238970860925932 10.718226545030083 0 0 0
726 242 1 0.5897 3.783937105504645 14.633106597609231 7.404396112055932 0 0 0
739 247 2 -1.1794 4.973843957464614 15.768624097196392 6.387212808833408 0 0 0
730 244 2 -1.1794 3.0600598946059843 16.85511921885859 9.556451426762708 0 0 0
728 243 1 0.5897 4.995748969611227 16.69542659114179 9.752843736391458 0 0 0
735 245 1 0.5897 0.8307388636552361 15.471705201984188 10.133610359657316 0 0 0
743 248 1 0.5897 1.6661358968571718 17.5057090092796 6.419219164496461 0 0 0
744 248 1 0.5897 1.5135405228286642 16.0348508598439 6.743056242882774 0 0 0
722 241 1 0.5897 3.901087853922208 14.12088740884992 9.544945122612067 0 0 0
723 241 1 0.5897 5.34697241104322 13.674797147325513 9.500573272822965 0 0 0
732 244 1 0.5897 2.566294013160953 16.184292113285757 10.027962404351005 0 0 0
733 245 2 -1.1794 1.3988573396730897 15.015874756509515 10.754603680266028 0 0 0
1106 369 1 0.5897 4.496172054929921 12.557946585143505 11.344543708082902 0 0 0
1201 401 2 -1.1794 4.395995387498421 13.752994502639083 15.689553155561594 0 0 0
1203 401 1 0.5897 4.377686580926751 13.226295020741475 16.48860703861603 0 0 0
1204 402 2 -1.1794 2.75620771212092 13.751679275264364 13.461420084614721 0 0 0
1205 402 1 0.5897 3.334164263578886 13.809232910634538 14.222256032268303 0 0 0
1206 402 1 0.5897 3.0786358895800325 12.995105883776755 12.971744378465043 0 0 0
1210 404 2 -1.1794 3.1262969616471312 16.78790691372152 14.869670880243529 0 0 0
1212 404 1 0.5897 4.077571839259109 16.88551781428614 14.910158568822588 0 0 0
1213 405 2 -1.1794 1.4276580104924614 15.231193104098963 16.199610307089657 0 0 0
1214 405 1 0.5897 0.6316708768628401 15.611327107165367 15.828098244319547 0 0 0
1215 405 1 0.5897 2.127309345894771 15.823898968594346 15.925198249110053 0 0 0
1218 406 1 0.5897 0.887897588050103 13.868681163488274 13.55204849751817 0 0 0
1222 408 2 -1.1794 1.2608245960508562 16.81553738902533 12.788358393544744 0 0 0
1223 408 1 0.5897 1.355484042114396 17.56292728184895 12.197921709352098 0 0 0
1224 408 1 0.5897 2.0245850587668466 16.865449512427737 13.363108624552913 0 0 0
1211 404 1 0.5897 2.785658499521877 17.592551571778507 15.260369506385485 0 0 0
1202 401 1 0.5897 5.286626691120703 13.649904287634499 15.354493333035244 0 0 0
1219 407 2 -1.1794 4.497405053103728 15.639286228205059 12.109838851724597 0 0 0
1220 407 1 0.5897 3.933895876816835 15.044846729779758 12.605062482847874 0 0 0
1229 410 1 0.5897 1.4369885999092817 13.473070648947914 16.142208305303193 0 0 0
1227 409 1 0.5897 4.391115711598928 17.44100052022982 12.254923508193082 0 0 0
1700 567 1 0.5897 4.6681069118051015 15.162778915396588 16.764068834192884 0 0 0
1350 450 1 0.5897 0.7024448854905079 18.49131433073667 15.706801568370594 0 0 0
734 245 1 0.5897 1.1980269505171184 15.414821592344005 11.6012175575032 0 0 0
1225 409 2 -1.1794 4.300482244020956 18.393303479195744 12.286566914219454 0 0 0
1248 416 1 0.5897 5.725665874393069 13.119714079331477 13.197918919772091 0 0 0
1228 410 2 -1.1794 1.3905550051522633 12.535143286982295 16.327234548669274 0 0 0
1247 416 1 0.5897 5.925628014199514 14.591242912158977 12.904341382979554 0 0 0
1216 406 2 -1.1794 -0.06404657313469533 13.843759868979019 13.455729520336702 0 0 0
1207 403 2 -1.1794 5.838187588038918 16.829980614626187 14.851340116036864 0 0 0
1586 529 1 0.5897 5.238141584577098 12.575319522973922 18.448037971367306 0 0 0
1705 569 2 -1.1794 4.448530801729898 18.42511753025053 17.715014575110686 0 0 0
1699 567 2 -1.1794 4.748133333514042 15.654338521090995 17.58150274307291 0 0 0
1779 593 1 0.5897 0.4839767143062076 17.695312111951907 21.246342588245234 1 0 0
1828 610 2 -1.1794 1.549739979922056 18.458490013838876 22.516898526870662 0 0 0
1692 564 1 0.5897 2.6638318867195134 16.906321586924165 19.879637636647473 0 0 0
1778 593 1 0.5897 0.21915449659139052 17.120147809648202 19.871195094913396 1 0 0
1690 564 2 -1.1794 3.196076022389295 16.863983487681438 20.674090325164705 0 0 0
1703 568 1 0.5897 1.4437818847307036 16.31814996253312 17.643227117483846 0 0 0
1702 568 2 -1.1794 1.663653982169405 17.02915898831604 18.245135218475603 0 0 0
1704 568 1 0.5897 1.7963072059642133 17.78986943520769 17.679545675857014 0 0 0
1694 565 1 0.5897 0.7617341671042583 15.405062766941992 21.662827282957984 0 0 0
1686 562 1 0.5897 3.3103390611315926 14.269082700174925 19.986634734355334 0 0 0
1697 566 1 0.5897 0.7761650879587831 14.056172379755148 19.197021088428663 0 0 0
1777 593 2 -1.1794 -0.05952793837625976 17.05680936905626 20.784764080782082 1 0 0
1230 410 1 0.5897 1.4772484764092164 12.47359420870391 17.278539939323387 0 0 0
1684 562 2 -1.1794 2.792240447687116 14.216719736312584 19.1834788173041 0 0 0
1693 565 2 -1.1794 1.3352139206787774 15.11026914909248 22.370227058477525 0 0 0
1682 561 1 0.5897 5.227287136925773 14.161538523659962 20.519997784577868 0 0 0
1681 561 2 -1.1794 4.566031361592322 14.15246354683311 21.21198840623233 0 0 0
1691 564 1 0.5897 2.7173456358878347 16.270230422869332 21.252402627846685 0 0 0
1683 561 1 0.5897 4.6035495382658755 13.264863434064456 21.568190322462158 0 0 0
1695 565 1 0.5897 1.530489910506983 14.197997155793157 22.15638380170075 0 0 0
1701 567 1 0.5897 3.944493300282348 15.454460564777166 18.06145802242426 0 0 0
1689 563 1 0.5897 5.336104430125066 17.019392726771052 20.580708416093408 0 0 0
1707 569 1 0.5897 4.580354195613166 17.490638763636873 17.555418760398666 0 0 0
1685 562 1 0.5897 3.194885368883039 13.506427279602878 18.68396765579695 0 0 0
1708 570 2 -1.1794 1.6302010585608968 12.507597921290435 21.820277603708092 0 0 0
1830 610 1 0.5897 2.231366075096516 18.338076922771634 21.855783197624746 0 0 0
266 89 1 0.5897 4.8077827524026455 18.54423192965993 22.790560488683496 0 0 -1
1585 529 2 -1.1794 4.375225314389458 12.381083118926304 18.082289254332828 0 0 0
361 121 2 -1.1794 4.666900331942567 20.337065647607446 4.0670998682460935 0 0 0
362 121 1 0.5897 3.837289511049958 20.08618892757812 3.660968822697351 0 0 0
364 122 2 -1.1794 2.725372698553232 19.99330406107476 2.0491918028667824 0 0 0
365 122 1 0.5897 2.9233776731848016 20.61132166002882 1.3455971801426825 0 0 0
366 122 1 0.5897 1.7696267068973865 19.94384438180343 2.0632222012415204 0 0 0
370 124 2 -1.1794 3.1536270258207213 23.219626629781523 3.727655230986314 0 0 0
371 124 1 0.5897 4.015313182630922 22.84414239400636 3.5470853820942163 0 0 0
372 124 1 0.5897 2.646593745409268 22.493343234497644 4.090414998248707 0 0 0
373 125 2 -1.1794 1.4933180951972262 21.422868277235082 4.894416878092034 0 0 0
375 125 1 0.5897 0.7419933513925624 21.934105557491883 4.593983567827897 0 0 0
381 127 1 0.5897 5.084763507888777 21.308171051097688 0.9265788649120345 0 0 0
382 128 2 -1.1794 1.3290266518790044 23.202690734513794 1.5002691533897825 0 0 0
383 128 1 0.5897 2.1910856478469865 23.050716502921176 1.8874109361490963 0 0 0
390 130 1 0.5897 1.3322457839641015 19.67207279257962 4.917576637316881 0 0 0
384 128 1 0.5897 1.2586470789387965 22.547234790270814 0.8062633306684613 0 0 0
363 121 1 0.5897 4.803925205441545 19.685891254575026 4.755133595212607 0 0 0
379 127 2 -1.1794 4.317943910454093 21.730220711042577 0.539301532017065 0 0 0
380 127 1 0.5897 4.546574585275153 22.6590337980165 0.5057431961433432 0 0 0