LAMMPS data file via write_data, version 30 Jul 2021, timestep = 10750000

864 atoms
2 atom types
576 bonds
1 bond types
288 angles
1 angle types

0.4173639916724774 17.790208408330418 xlo xhi
1.5831309229774586 22.046046877027955 ylo yhi
0.5091830949895204 21.704012705004317 zlo zhi

Masses

1 1.00794
2 15.9994

Pair Coeffs # lj/cut/tip4p/long/omp

1 0 0
2 0.21084 3.1668

Bond Coeffs # harmonic/omp

1 450 0.9572

Angle Coeffs # harmonic/omp

1 55 104.52

Atoms # full

587 1 1 0.5897 2.350238673081278 2.6390384640462576 4.354305920655815 0 3 6
187 1 2 -1.1794 8.729692986980353 6.276338713624519 4.606792160372086 -2 4 4
162 1 1 0.5897 7.934570420567726 2.901037538056836 4.7140685542339575 3 4 1
154 1 2 -1.1794 3.2916148080926915 5.160824690767203 0.8856103830142243 3 4 -4
590 1 1 0.5897 4.797125440620282 2.135147206179682 0.7657676212706188 7 3 4
790 1 2 -1.1794 6.435937097169518 2.2437961915919464 3.521368248006117 5 4 3
330 1 1 0.5897 3.2425643253507435 6.470433108959821 3.9531377217576398 3 5 1
189 1 1 0.5897 8.897969072921063 5.345108663869265 4.462922536397924 -2 4 4
553 1 2 -1.1794 5.8998536756195445 4.763308519874018 1.8124312684738917 -5 -8 4
439 1 2 -1.1794 5.998633710478608 5.467634936932733 4.885682475126806 0 2 0
155 1 1 0.5897 4.21814321858413 4.930665704131773 0.8166751787399635 3 4 -4
554 1 1 0.5897 6.7681764434965554 5.039926016236798 1.5197310814553529 -5 -8 4
555 1 1 0.5897 6.071102084042821 4.1646839605610655 2.5394342612273983 -5 -8 4
156 1 1 0.5897 3.1554070869424296 5.331425018641168 1.817557403017163 3 4 -4
161 1 1 0.5897 8.982544735639234 3.055712437581361 5.795534300812249 3 4 1
441 1 1 0.5897 6.933063575368999 5.561274969026187 4.700600850538496 0 2 0
586 1 2 -1.1794 2.1311049329938916 3.157610190356361 3.5802015426293177 0 3 6
66 1 1 0.5897 0.4793740230535338 3.9552027335609816 3.404445278839592 5 3 -2
10 1 2 -1.1794 8.526134076975667 5.807620139559136 1.0105808931133322 -4 -1 3
588 1 1 0.5897 2.6529532329741268 3.95499019724102 3.6699017554521745 0 3 6
160 1 2 -1.1794 8.76622741643177 3.3343723807674976 4.905744904089646 3 4 1
11 1 1 0.5897 8.711201679206752 4.908145883950233 1.2805553887190473 -4 -1 3
329 1 1 0.5897 4.413107261826335 5.517374185341886 3.837983019551635 3 5 1
328 1 2 -1.1794 3.550244063522655 5.704592665973302 3.4683611371094116 3 5 1
563 1 1 0.5897 7.359680944369776 1.6230601228642065 1.5028757104232557 2 -3 3
791 1 1 0.5897 5.508944850317601 2.0113676530205105 3.4680126074592663 5 4 3
440 1 1 0.5897 5.717487397165346 6.34345160264533 5.15042960652806 0 2 0
88 1 2 -1.1794 1.0132898432798059 3.605934006178485 10.14433707849778 5 -4 3
248 1 1 0.5897 8.121760351900967 5.645459575918377 9.230927885351951 -3 1 -3
290 1 1 0.5897 1.4795808639961971 5.868969099710651 6.917326487673175 -10 -4 -3
379 1 2 -1.1794 2.485734020158506 2.1546702216528857 6.481726868599028 4 1 2
506 1 1 0.5897 9.034781878654337 3.634782716738252 8.074751682804706 3 -1 0
249 1 1 0.5897 7.9202272223323416 4.621697924015849 10.327773941534824 -3 1 -3
86 1 1 0.5897 1.9715436343646788 1.989646226977521 9.593555069201644 3 7 3
289 1 2 -1.1794 2.1250222571822546 6.572845625743304 6.853031551073619 -10 -4 -3
215 1 1 0.5897 1.1563759823411415 3.3912102504623025 6.9030343721444165 2 -2 5
75 1 1 0.5897 3.5940075561244416 6.363680620103151 8.2229669420963 5 -1 1
90 1 1 0.5897 1.5702576038507183 4.0912902039988595 10.752983059940016 5 -4 3
247 1 2 -1.1794 8.52300124980121 4.872336705578068 9.627754548892343 -3 1 -3
74 1 1 0.5897 4.139842237753371 5.924138116092529 9.564852497303203 5 -1 1
292 1 2 -1.1794 4.411503214679793 4.162699756254598 10.456920310172931 -2 -4 3
293 1 1 0.5897 4.591978856436879 3.4015484010242174 9.905329243195858 -2 -4 3
216 1 1 0.5897 1.0973399157620438 3.8955645370715137 8.329180542967705 2 -2 5
214 1 2 -1.1794 0.8138895763384584 4.106105083967583 7.43950470822359 2 -2 5
294 1 1 0.5897 5.114639612523898 4.160562404061295 11.106358855988882 -2 -4 3
381 1 1 0.5897 3.205455041092842 2.7709132526838625 6.617475772423761 4 1 2
270 1 1 0.5897 5.597257990045516 2.997486320390786 6.746136489390941 1 2 5
269 1 1 0.5897 5.1613874106117725 4.27541243175402 6.061533098822154 1 2 5
380 1 1 0.5897 2.4668626987289626 1.6279601548941562 7.280722127939459 4 1 2
268 1 2 -1.1794 4.8311318771375715 3.550108235714255 6.591665746684464 1 2 5
347 1 1 0.5897 3.129991724613909 3.516772902131045 15.846130803965801 -4 2 -5
43 1 2 -1.1794 2.0997917117911533 4.84833109354523 14.798875120969281 -3 7 -1
244 1 2 -1.1794 6.860743689023499 4.096815109375136 11.843520375567788 -7 4 2
356 1 1 0.5897 1.9891926490679561 6.181075074016099 11.925157324896542 6 3 4
461 1 1 0.5897 8.353169243458197 5.574145810063657 13.566257712576604 -2 2 -5
210 1 1 0.5897 6.9685055650906405 4.266307860956825 16.137351089789313 -3 -4 6
45 1 1 0.5897 2.3493652921838195 4.945157883932618 13.879902589756863 -3 7 -1
743 1 1 0.5897 7.7670351160387066 2.8729305789396844 14.60178537870856 0 0 3
7 1 2 -1.1794 4.469623425060456 3.284648423593003 13.740754926556184 5 3 1
184 1 2 -1.1794 5.302064075235488 6.014556431049065 14.460363499860598 1 4 0
460 1 2 -1.1794 7.7363199440793355 6.261347088366859 13.31441973959264 -2 2 -5
9 1 1 0.5897 4.782915484282353 4.148043276206469 14.010272356239032 5 3 1
246 1 1 0.5897 6.933586303947091 4.894231483866751 12.367923762987953 -7 4 2
355 1 2 -1.1794 2.149478534884526 5.239654783826243 11.990199806796982 6 3 4
449 1 1 0.5897 0.6406615367464851 3.8585053415855803 15.365819019206981 7 -3 -7
462 1 1 0.5897 6.959350417132276 6.093589184044168 13.847680530200375 -2 2 -5
44 1 1 0.5897 1.8727401581257006 5.734511819378508 15.080540753922941 -3 7 -1
245 1 1 0.5897 7.2847764639729835 3.4216789000673486 12.373217109547653 -7 4 2
742 1 2 -1.1794 7.723575730141717 2.1187508794493164 14.013985457129097 0 0 3
186 1 1 0.5897 5.010279784195544 6.537475959809024 15.207122084397577 1 4 0
8 1 1 0.5897 4.870539247376693 2.6785928509881547 14.36378534612279 5 3 1
357 1 1 0.5897 3.020924319526223 5.118002966504221 11.613407014693362 6 3 4
468 1 1 0.5897 5.545792158938869 2.181500613208938 12.37000872192404 1 0 6
208 1 2 -1.1794 7.752852968217611 4.167106414269007 15.59778249423184 -3 -4 6
822 1 1 0.5897 2.727497191966832 2.6867588333824983 12.846107022875582 2 1 5
117 1 1 0.5897 8.139617825677334 6.379349003772242 15.90532074482162 -6 2 5
820 1 2 -1.1794 2.129854770897621 1.9539282838140388 12.697872769296119 2 1 5
209 1 1 0.5897 8.470348083431288 4.098631785420485 16.22762913557407 -3 -4 6
260 1 1 0.5897 8.165509468332935 1.6975145656171788 12.199637994220833 1 -1 8
821 1 1 0.5897 1.812466202634241 1.7227219049720857 13.570812581185443 2 1 5
185 1 1 0.5897 5.00205801909652 6.502792191217383 13.693662065954936 1 4 0
812 1 1 0.5897 2.329539382447264 4.084238004028278 17.615370046048017 -2 6 1
342 1 1 0.5897 5.631740659663439 3.81366148754103 20.574083456774737 5 5 -1
710 1 1 0.5897 7.092850878226732 1.6969884342652664 18.282034609183274 -1 -1 -2
813 1 1 0.5897 1.492668321711193 4.254071716231355 18.865458457302715 -2 6 1
274 1 2 -1.1794 8.63520928076118 2.7296697927977385 20.091605088693015 -4 3 1
277 1 2 -1.1794 1.3715280357066635 3.794025427676185 20.580173487734605 4 0 1
775 1 2 -1.1794 5.688968881292534 4.353040009505717 17.461999725998172 0 -6 -2
341 1 1 0.5897 6.17347809686553 5.207476126570944 20.338407577463276 5 5 -1
589 1 2 -1.1794 4.674888634784059 2.396080062436188 21.047815684189874 7 3 3
281 1 1 0.5897 8.310273287548103 6.337972012092088 18.525324563438737 -4 -1 0
279 1 1 0.5897 0.6483303387281661 4.111098704526608 21.121120478378728 4 0 1
776 1 1 0.5897 5.848450765062041 4.206633110856595 18.39437095169434 0 -6 -2
340 1 2 -1.1794 6.314950438256737 4.290564586063673 20.10295458287995 5 5 -1
346 1 2 -1.1794 3.5001034217784235 3.1884603645298712 16.665528915203055 -4 2 -5
777 1 1 0.5897 4.938287017616681 3.7958674821594527 17.256557180173683 0 -6 -2
680 1 1 0.5897 2.1355947111281237 6.122854366949379 18.19640971468294 2 -5 -4
348 1 1 0.5897 3.205283587312365 2.279153562599362 16.71468173094561 -4 2 -5
811 1 2 -1.1794 1.5823604128190354 4.568992455520265 17.966017819513606 -2 6 1
12 1 1 0.5897 8.330966313851226 5.742271497978838 21.27063010298647 -4 -1 2
275 1 1 0.5897 7.828533448161499 3.242549486897788 20.042255786623578 -4 3 1
280 1 2 -1.1794 8.680414083420928 6.078359624248231 19.36902247113965 -4 -1 0
278 1 1 0.5897 2.153743182647174 4.178134696539904 20.976161379326538 4 0 1
617 1 1 0.5897 1.42778326864042 2.097945150301577 21.21626149979134 -3 3 1
804 1 1 0.5897 5.017898651546897 6.440505521206806 17.554063850673902 3 3 -1
564 1 1 0.5897 7.934805582524188 1.7061756825255072 21.299827136447004 2 -3 2
3 1 1 0.5897 2.2519903379221278 6.68557645238359 21.555780970146458 4 -9 4
591 1 1 0.5897 4.770901740251012 1.5835686799326751 20.55104772098771 7 3 3
224 1 1 0.5897 6.901744738888827 10.295799061704695 5.120554566676768 6 -1 -7
847 1 2 -1.1794 7.7187776509959365 8.101729674444428 2.4499750335202792 5 0 3
570 1 1 0.5897 7.739020578812803 9.999596757729355 1.9876062416622358 3 3 2
657 1 1 0.5897 1.000591617069899 7.297066393126798 5.268742387638775 -5 3 2
569 1 1 0.5897 8.593386708138217 11.218582965496847 2.2630836432535766 3 3 2
372 1 1 0.5897 6.021064505723285 7.582523693660504 2.247882378283525 6 3 -2
217 1 2 -1.1794 4.207468366644534 10.062369470120084 3.03158042095902 3 1 2
390 1 1 0.5897 2.519290741053406 9.929463478332721 1.9877534405800084 4 6 6
370 1 2 -1.1794 5.088206204706046 7.711234587685899 2.07647771698463 6 3 -2
568 1 2 -1.1794 7.791092713633443 10.940747012986634 1.8211543418289757 3 3 2
225 1 1 0.5897 8.23294301783941 9.623074396769363 5.379587322993889 6 -1 -7
198 1 1 0.5897 3.2132514667552856 9.783217514201624 4.530063472966955 1 -2 -2
848 1 1 0.5897 8.29910507456053 7.450520303877221 2.0558479432748284 5 0 3
140 1 1 0.5897 5.349966230477464 11.142385066587659 4.053322903864532 0 2 3
371 1 1 0.5897 4.727613523656011 6.82561269816573 2.0338492141897886 6 3 -2
223 1 2 -1.1794 7.294588579703527 9.445173833573538 5.316238666800255 6 -1 -7
672 1 1 0.5897 5.831173822292913 8.297651447141092 5.6500824209223 7 -3 2
849 1 1 0.5897 7.826623153300817 7.979712962325872 3.393198620869583 5 0 3
218 1 1 0.5897 4.554982783580557 9.308909700977498 2.5543808014667087 3 1 2
219 1 1 0.5897 4.358766557136727 10.80626671905456 2.44856614643333 3 1 2
388 1 2 -1.1794 1.8028064591362327 9.627550644272121 1.4294798639041653 4 6 6
389 1 1 0.5897 1.525742501540076 10.408910881457581 0.9510588945322083 4 6 5
196 1 2 -1.1794 3.086212281921465 9.560712179897326 5.452301701833019 1 -2 -2
655 1 2 -1.1794 0.4177217835245828 6.973888378264735 4.58172344560057 -6 3 2
139 1 2 -1.1794 5.92722783736718 11.785264634813025 4.465234762242424 0 2 3
738 1 1 0.5897 5.673521924435664 11.75368263369281 1.0636566895197412 -2 0 0
736 1 2 -1.1794 4.724037036854107 11.701186855499202 1.1727274591289376 -2 0 0
683 1 1 0.5897 1.527815091903853 7.473767697140066 9.902784895795222 1 0 -5
632 1 1 0.5897 4.8056662845650955 8.332942122719954 9.65723210245742 9 9 3
682 1 2 -1.1794 0.8471273434630635 7.585037795584121 9.239088195611528 1 0 -5
60 1 1 0.5897 3.568900045258201 10.13533532002444 10.80473231226599 6 2 -3
671 1 1 0.5897 4.383905806773216 8.129760683118796 6.061141261026756 7 -3 2
291 1 1 0.5897 1.8966530529134928 7.173398347572523 7.562507023523225 -10 -4 -3
631 1 2 -1.1794 5.130662215769916 9.133432276961877 10.069271313723052 9 9 3
633 1 1 0.5897 5.591213463870052 9.594323526910959 9.368091793778945 9 9 3
767 1 1 0.5897 6.898972954387524 9.62435886684491 7.266507879176406 0 0 5
721 1 2 -1.1794 4.39630071635244 11.4427299397257 7.198012105718891 4 1 -4
786 1 1 0.5897 6.994470932777323 7.375821805039099 9.163739440363662 3 7 3
768 1 1 0.5897 7.524117261035748 10.407769203376134 8.40106410349107 0 0 5
338 1 1 0.5897 6.069325509858255 11.624482913140941 10.657898397272723 -4 -2 -1
723 1 1 0.5897 5.187637735741475 11.16648502408543 7.660232846542409 4 1 -4
670 1 2 -1.1794 5.248493038542285 7.729769808258591 6.154232397683897 7 -3 2
766 1 2 -1.1794 6.681661258398751 10.095923008211683 8.070608871412908 0 0 5
165 1 1 0.5897 1.3041824216025322 9.50794886270095 6.426770255136866 -6 2 -3
197 1 1 0.5897 3.471236370262217 10.294446536490707 5.931434419794481 1 -2 -2
604 1 2 -1.1794 8.990112571437399 11.008611401806915 8.943263337392308 -10 1 0
673 1 2 -1.1794 7.886479642564377 7.770436500414719 10.991988915427648 0 -2 -3
785 1 1 0.5897 6.157702315400533 7.116729151563151 7.929060595726813 3 7 3
784 1 2 -1.1794 7.052042751449892 7.053665495561069 8.264252105022331 3 7 3
353 1 1 0.5897 2.102800031099822 11.773610037362312 10.652443354026799 10 3 -1
73 1 2 -1.1794 3.9771215967429754 6.7024948000949305 9.032040029590272 5 -1 1
31 1 2 -1.1794 1.537968684248344 11.157629979748673 16.02908164494951 1 6 1
579 1 1 0.5897 2.2949099923417835 7.979118777068798 15.386836424005619 4 -1 -2
442 1 2 -1.1794 3.6774614235611573 8.980093952177137 14.898622366977422 3 4 -3
443 1 1 0.5897 3.556797575468721 9.802908823147844 14.424712244221325 3 4 -3
805 1 2 -1.1794 4.477429232946529 7.70856097984768 12.539833414501583 2 -1 -6
614 1 1 0.5897 7.96371549115155 11.114985618199801 12.265509199879421 -6 4 6
613 1 2 -1.1794 7.122805887191738 10.711458706088488 12.480468412562983 -6 4 7
664 1 2 -1.1794 1.5052886139628245 8.051665495210955 11.960813781746992 -1 1 4
675 1 1 0.5897 8.014998401661314 7.151363216023556 11.710610384081175 0 -2 -3
760 1 2 -1.1794 8.749426166547607 9.240486541976416 14.173424745818071 3 -1 1
58 1 2 -1.1794 2.818697800288605 10.417112123925767 11.328161728964318 6 2 -3
761 1 1 0.5897 8.164566696710281 9.577379458800511 13.494740056403767 3 -1 1
125 1 1 0.5897 7.170815571920807 8.936327418867336 15.302017410338319 2 0 4
577 1 2 -1.1794 1.4926964561045486 7.509821754291673 15.615746522340663 4 -1 -2
674 1 1 0.5897 7.31753485107694 8.447804628382052 11.357608196691515 0 -2 -3
835 1 2 -1.1794 3.4982286098876174 11.3684723774424 13.73304739755508 0 2 -2
124 1 2 -1.1794 6.359502187974927 9.239680392650012 15.70934709079905 2 0 4
665 1 1 0.5897 2.0743403554827617 8.815193926060196 11.863920112846802 -1 1 4
444 1 1 0.5897 4.606294346280234 8.970224559884631 15.12967520501428 3 4 -3
806 1 1 0.5897 4.732630887851161 8.3800540079285 11.907264868119082 2 -1 -6
807 1 1 0.5897 4.054295028118329 8.194241043591372 13.247823770974511 2 -1 -6
666 1 1 0.5897 0.8599368003060766 8.315043055626473 12.616815535481392 -1 1 4
33 1 1 0.5897 1.5530919244420693 10.30166041870074 15.600992159207198 1 6 1
59 1 1 0.5897 3.2053715328441066 10.871881394975555 12.076396486429047 6 2 -3
615 1 1 0.5897 6.60632197167342 11.421526077023167 12.861554079270453 -6 4 7
258 1 1 0.5897 5.975728797264206 11.018805892825624 16.344493502130895 3 -1 1
833 1 1 0.5897 8.152557674298322 7.9561568290672815 19.09148212824996 4 -2 -2
97 1 2 -1.1794 1.1729416586317005 9.747746513515844 18.7878949261115 1 -5 0
257 1 1 0.5897 4.9353660316863595 10.982564071532256 17.44364475610078 3 -1 1
98 1 1 0.5897 1.1849203905347019 10.267177389038068 19.591777632183817 1 -5 0
679 1 2 -1.1794 2.336460953186684 7.038142734333935 18.39155008593427 2 -5 -4
471 1 1 0.5897 8.511995456672956 9.50942535799274 17.67938775015992 3 0 3
349 1 2 -1.1794 5.856084610795911 7.007392115833428 20.638415594862675 -10 1 -1
634 1 2 -1.1794 3.9136737104053623 9.625834968256516 18.4587461841394 -7 0 2
351 1 1 0.5897 6.380873228709691 7.729165277610536 20.292258566990537 -10 1 -1
578 1 1 0.5897 1.575836114481992 7.335509662801417 16.553230749940866 4 -1 -2
99 1 1 0.5897 0.46664239937707735 9.115632863178377 18.921131990065586 1 -5 0
635 1 1 0.5897 3.024132488495645 9.343478094059323 18.671301247184857 -7 0 2
802 1 2 -1.1794 4.929725953866233 7.215531089626658 16.999295692548195 3 3 -1
636 1 1 0.5897 4.478786268305633 9.016879499283082 18.934132576802256 -7 0 2
255 1 1 0.5897 8.485172424105402 10.588553688257646 21.36129973582853 -1 4 -5
737 1 1 0.5897 4.376631977556018 11.760126344512596 21.477596449652193 -2 0 -1
681 1 1 0.5897 2.083485565643038 7.149220088735354 19.307986072172586 2 -5 -4
834 1 1 0.5897 8.010339191831108 9.408892975459995 19.492825773536133 4 -2 -2
832 1 2 -1.1794 7.587840729206564 8.720751424445663 18.97889122443732 4 -2 -2
115 1 2 -1.1794 8.605424398279169 6.949710160784824 16.516790302257046 -6 2 5
1 1 2 -1.1794 1.8374952354600635 7.387904379160112 21.054671472459187 4 -9 4
256 1 2 -1.1794 5.6413197434015165 11.521717246279142 17.087104748434797 3 -1 1
803 1 1 0.5897 4.160116820492869 7.669762136773893 17.3421486551125 3 3 -1
32 1 1 0.5897 1.344854559031022 10.963833489154124 16.946321091373022 1 6 1
82 1 2 -1.1794 0.9219646266295931 11.599803901726677 20.988216547578283 -2 -1 -10
321 1 1 0.5897 4.115919820766034 11.277724267335696 19.383758353998704 7 -1 3
2 1 1 0.5897 1.947366754256002 8.167855311294637 21.598564570656276 4 -9 4
350 1 1 0.5897 5.462036965122365 7.3586063590397215 21.4368837964394 -10 1 -1
253 1 2 -1.1794 8.986072006372844 10.419208405084161 20.56343184736331 -1 4 -5
126 1 1 0.5897 6.191452679818495 8.60822727666524 16.408800710513457 2 0 4
437 1 1 0.5897 5.12501323377125 13.446313943560371 2.2167986563385185 -3 4 2
687 1 1 0.5897 2.481450410444031 12.661313437919958 3.5591045263787975 7 -8 -7
782 1 1 0.5897 8.195461811852018 13.613022832330419 4.50997493494475 -6 2 -1
170 1 1 0.5897 7.852115151198373 13.444852279234887 1.4728522512747277 -1 2 -4
576 1 1 0.5897 1.2958150752692112 16.609380816190825 3.4168174900619386 3 5 -2
316 1 2 -1.1794 3.391817873266337 13.086174433205697 5.054081696808597 0 -1 0
438 1 1 0.5897 5.17786753033254 14.76092765775041 2.965688123969271 -3 4 2
141 1 1 0.5897 5.898310692910362 12.542888332442079 3.8809887402671226 0 2 3
783 1 1 0.5897 7.2952929411960525 14.216003263191757 3.4526593457883346 -6 2 -1
685 1 2 -1.1794 2.023088749598638 12.486648192248596 2.7371696205012137 7 -8 -7
575 1 1 0.5897 1.338698049628126 16.681508393835646 1.9052925627738573 3 5 -2
169 1 2 -1.1794 8.105755011531407 13.88024033949533 0.6590424579155464 -1 2 -4
317 1 1 0.5897 3.630509492203891 13.982269209641634 5.291202551730866 0 -1 -1
774 1 1 0.5897 2.0150203806730773 13.54369754476069 1.3100909117501167 2 -1 5
436 1 2 -1.1794 5.664111675143425 13.947971873461233 2.828282768273688 -3 4 2
130 1 2 -1.1794 4.303818569944141 16.34976913827977 3.0647730565467914 -6 3 -1
697 1 2 -1.1794 6.860912570418099 16.634412636400956 1.4900448370819281 -2 4 -3
699 1 1 0.5897 7.064531417641493 15.70781994492292 1.3630027216018195 -2 4 -3
772 1 2 -1.1794 1.8064912851371273 14.167893019357757 0.6150491181337134 2 -1 5
686 1 1 0.5897 1.0999468216969428 12.63716917492084 2.94054241945906 7 -8 -7
318 1 1 0.5897 4.101191139086399 12.547959391139978 5.405215443581409 0 -1 0
132 1 1 0.5897 3.386652954098588 16.49674181110411 2.8337399867526734 -6 3 -1
624 1 1 0.5897 0.5249224007048611 14.867402140051766 5.066421878916352 4 4 4
101 1 1 0.5897 4.630279501765582 16.114845972996648 0.8593711515395295 3 -4 0
858 1 1 0.5897 4.442194245380103 16.05625687788566 4.908243327831699 -2 -1 -3
781 1 2 -1.1794 8.213678463217818 14.140948181458898 3.711750863128617 -6 2 -1
856 1 2 -1.1794 4.34123876436371 15.74208908071763 5.806732604448807 -2 -1 -3
171 1 1 0.5897 9.062838142487156 13.873099703370885 0.6712904285138706 -1 2 -4
119 1 1 0.5897 6.386685272207214 13.206747350916944 6.282386492199335 5 -5 -1
128 1 1 0.5897 4.208692996731469 16.850724577621847 9.893435979188263 -2 0 -7
120 1 1 0.5897 7.859315746250751 13.032589582996525 6.5869708729792125 5 -5 -1
524 1 1 0.5897 7.975194363995864 13.610649315617273 8.826012743579346 -1 -1 5
525 1 1 0.5897 8.222188214972997 14.836009493986124 9.680086209138242 -1 -1 5
118 1 2 -1.1794 7.044772949547154 13.372410659515774 6.957408250079665 5 -5 -1
717 1 1 0.5897 5.811329351504043 16.210936990564896 6.617937523945399 1 -8 -1
857 1 1 0.5897 3.548375408551066 16.17414468122831 6.124383175008601 -2 -1 -3
748 1 2 -1.1794 3.733200673907602 13.501519388738494 8.827667186247593 -1 5 -1
816 1 1 0.5897 1.4263308609127234 16.73233768171975 6.021043259377203 -4 7 -5
231 1 1 0.5897 0.555739728891659 16.307749703612007 8.261528824654587 -1 1 1
284 1 1 0.5897 0.5693044240895049 12.16709397407274 8.790389514431954 5 -2 -2
354 1 1 0.5897 2.174445200960644 12.887529772617155 9.62968962336672 10 3 -1
337 1 2 -1.1794 5.545564636774403 12.404812696291849 10.476427302983879 -4 -2 -1
750 1 1 0.5897 4.443705069216561 13.254884188337849 9.419726405243077 -1 5 -1
127 1 2 -1.1794 4.106933630041025 16.417386360900977 9.046058776202843 -2 0 -7
749 1 1 0.5897 3.808157064663744 14.45223396515405 8.745787125750518 -1 5 -1
490 1 2 -1.1794 0.7714990067797136 13.483808221961073 5.95334350016041 3 -1 3
716 1 1 0.5897 6.987874289488648 15.41123403414894 7.135682442645998 1 -8 -1
129 1 1 0.5897 4.9941694767594615 16.151835070267836 8.804234313727257 -2 0 -7
722 1 1 0.5897 4.026344102442752 12.133715823926218 7.747417943997117 4 1 -4
715 1 2 -1.1794 6.6281970100923076 16.297922552320323 7.109191911944583 1 -8 -1
523 1 2 -1.1794 8.650531940523404 14.048794783856275 9.343911956775239 -1 -1 5
151 1 2 -1.1794 7.712040181366106 16.0979832962755 11.046016702277377 1 1 -4
352 1 2 -1.1794 1.5789448777027046 12.465860508562896 10.249204862210227 10 3 -1
339 1 1 0.5897 5.969186779139508 13.100445172539116 10.979276067697617 -4 -2 -1
491 1 1 0.5897 1.599103163337693 13.004437030099837 5.915028793558994 3 -1 3
213 1 1 0.5897 1.2645537688117878 15.848907994330949 12.302344980346685 1 0 3
837 1 1 0.5897 2.7926253805393535 11.860317453169992 14.153028431382333 0 2 -2
795 1 1 0.5897 0.4257699368539677 13.579730043512848 14.337578000425804 -3 2 3
108 1 1 0.5897 0.6684372275733104 16.682372283839427 15.693378629334754 -4 -3 6
200 1 1 0.5897 7.13697885052091 14.084868283921839 16.10926671157263 2 -7 2
508 1 2 -1.1794 3.687707050655877 15.058159276952804 12.950372701655194 1 -2 5
836 1 1 0.5897 4.282727580885764 11.894479862397555 13.888124076654364 0 2 -2
504 1 1 0.5897 2.0560456723281746 14.335971978348438 12.798931637102259 -1 0 3
327 1 1 0.5897 8.60345516629967 16.302813549357353 14.278435871694242 -3 -2 0
194 1 1 0.5897 6.489734377399823 13.395476523532185 14.176333821789342 1 -5 -1
503 1 1 0.5897 1.2576371853768336 13.497061931198218 11.823953175779753 -1 0 3
199 1 2 -1.1794 7.702672205939523 13.74549596940774 15.41571946246328 2 -7 2
211 1 2 -1.1794 1.3254304963210215 16.76853990862471 12.043937002825185 1 0 3
193 1 2 -1.1794 5.80704670494112 13.167204233381952 13.54544831915246 1 -5 -1
509 1 1 0.5897 3.9827351641087354 15.77973647547668 12.394959227968661 1 -2 5
754 1 2 -1.1794 3.4842823541081787 16.045241329256747 15.413776915097484 -4 -5 -6
510 1 1 0.5897 3.652876372108192 15.43181623435935 13.830912230359166 1 -2 5
195 1 1 0.5897 5.309984950030258 13.976485170078565 13.426423667989289 1 -5 -1
502 1 2 -1.1794 1.170059669438728 14.02086257516898 12.62030534363713 -1 0 3
756 1 1 0.5897 3.2297220633414616 15.216450274443993 15.819343029350492 -4 -5 -6
201 1 1 0.5897 8.43868132090789 13.346796745061127 15.879958052448455 2 -7 2
755 1 1 0.5897 2.7454501991032356 16.630642091090117 15.579960985262538 -4 -5 -6
794 1 1 0.5897 0.5401947826353275 12.630479667996173 15.511303403949867 -3 2 3
153 1 1 0.5897 8.279640449726196 16.195972680355467 11.810482956316386 1 1 -4
232 1 2 -1.1794 3.493039589477906 13.433271794410325 16.390613692144612 -2 -1 0
234 1 1 0.5897 4.175721363999619 12.781803926331143 16.230226149117307 -2 -1 0
319 1 2 -1.1794 3.873765044687521 12.052451314111192 19.89104129117383 7 -1 3
102 1 1 0.5897 3.402987123080862 16.514793519781705 21.263283088210933 3 -4 -1
651 1 1 0.5897 6.987710563786027 12.556024304523003 17.82938651078516 0 -2 1
100 1 2 -1.1794 4.0013332839599265 15.782957762110847 21.413525302974072 3 -4 -1
299 1 1 0.5897 8.338699344337392 14.94983461610401 20.482396423950213 -5 -2 -2
702 1 1 0.5897 2.425276277144197 16.853179766311293 17.838432614654806 6 0 0
809 1 1 0.5897 0.735524875150522 13.337243978693216 18.97230849442848 4 0 -1
487 1 2 -1.1794 5.9058559159130555 15.411118731137956 16.827567728184803 4 -6 0
83 1 1 0.5897 1.280359999478627 12.484604422955298 20.918339245884564 -2 -1 -10
298 1 2 -1.1794 8.550804230658093 15.7638554132676 20.02565416908297 -5 -2 -2
18 1 1 0.5897 5.180816258862901 13.61582119789186 19.82198390145061 -3 5 4
810 1 1 0.5897 1.82752579349689 14.24665108719032 18.450372713536208 4 0 -1
17 1 1 0.5897 5.230998000098214 15.078311960084141 20.209732736201136 -3 5 4
808 1 2 -1.1794 1.6487856976930633 13.33620568636109 18.685675624781645 4 0 -1
649 1 2 -1.1794 7.553140146482147 13.183374149117927 18.279828753226464 0 -2 1
489 1 1 0.5897 5.752306374887822 15.25040295029767 17.758578646925912 4 -6 0
233 1 1 0.5897 2.7875314943215415 12.942741651458896 16.81228962968976 -2 -1 0
701 1 1 0.5897 1.0193900444223893 16.580498579531977 18.329387033320568 6 0 0
320 1 1 0.5897 3.063108853206492 12.360718972193375 19.486090423540432 7 -1 3
16 1 2 -1.1794 5.610787294278038 14.44255143161612 19.60331786189776 -3 5 4
650 1 1 0.5897 6.951299778161534 13.72677959182883 18.788426622344023 0 -2 1
700 1 2 -1.1794 1.896957104199869 16.199616035885903 18.296621164045842 6 0 0
725 1 1 0.5897 7.155469916365711 16.80452387939351 19.619913438196413 5 -7 3
773 1 1 0.5897 2.6385775746647258 14.600548832159859 21.61835036327431 2 -1 4
300 1 1 0.5897 8.97017027374747 15.480851910974923 19.213085999209685 -5 -2 -2
149 1 1 0.5897 7.164861088586976 16.458120924748126 16.469073706185032 -3 2 2
488 1 1 0.5897 5.036510981015038 15.365371999884278 16.429563826736608 4 -6 0
574 1 2 -1.1794 1.6064614585635366 17.15391521256413 2.6935229745639253 3 5 -2
626 1 1 0.5897 5.277407929705399 19.20584324094881 3.875223651357319 -5 -5 3
93 1 1 0.5897 1.7349017768713415 19.86602018209252 4.387802991320812 1 -6 -2
698 1 1 0.5897 7.616962597529436 17.09785259620677 1.1297641814461836 -2 4 -3
627 1 1 0.5897 3.8190235018144585 19.179111638935005 3.470074975427521 -5 -5 3
515 1 1 0.5897 4.165210151932365 20.913525899837673 2.5250978851582175 -4 -7 1
131 1 1 0.5897 4.703762751056003 17.21841503375671 3.023876835184335 -6 3 -1
562 1 2 -1.1794 7.664783993438898 21.542582368011814 0.7763736593945608 2 -4 3
91 1 2 -1.1794 2.023822128009707 19.788326705911267 3.4785828043356575 1 -6 -2
92 1 1 0.5897 1.7659293239490848 18.903676100504406 3.219596873303043 1 -6 -2
602 1 1 0.5897 7.819804676478095 19.859856798599388 4.387095349478393 7 5 -2
707 1 1 0.5897 5.882174983981917 19.283226153144703 1.3216487683857205 -1 1 -6
625 1 2 -1.1794 4.704378545767166 19.090654225001472 3.1172319748285564 -5 -5 3
601 1 2 -1.1794 8.20700630071902 20.70643562825144 4.164490383169609 7 5 -1
543 1 1 0.5897 7.261158086637913 17.113878508574924 3.522266577066774 -11 5 4
541 1 2 -1.1794 7.572937501863809 17.652374151731756 4.249603948952155 -11 5 4
181 1 2 -1.1794 5.801655755759409 19.377180603216644 5.5721009554335135 -5 2 -3
182 1 1 0.5897 6.449929113884407 18.672987111550917 5.577622484303533 -4 2 -3
842 1 1 0.5897 0.5887808049849704 21.51900378735491 2.07535161589397 -10 2 -1
603 1 1 0.5897 8.77613349279477 20.52105239301384 3.4175606410646644 7 5 -1
792 1 1 0.5897 6.857499203209447 21.929453772583216 3.8878959098952737 5 3 3
514 1 2 -1.1794 4.066917294509048 21.8568944649901 2.3962996445770925 -4 -7 1
542 1 1 0.5897 8.253823449981436 17.123376577171204 4.665226070669796 -11 5 4
516 1 1 0.5897 3.12732895363016 21.984677592577988 2.2658134669676855 -4 -7 1
757 1 2 -1.1794 6.568547746800781 19.064086660024728 9.849272460269335 -2 2 2
23 1 1 0.5897 5.319581167687392 21.876526229706677 8.30724194324699 -5 0 1
24 1 1 0.5897 3.951895720360552 21.897705930883674 8.955884298629691 -5 0 1
452 1 1 0.5897 0.9031183286295469 18.901501983880785 9.95961920634923 -1 -3 2
429 1 1 0.5897 1.6888184817622125 20.71973281042569 6.528556978824142 0 -2 -2
778 1 2 -1.1794 4.3359843143854135 19.1838343030392 7.833463043016702 -2 0 0
414 1 1 0.5897 8.738551068923536 18.779418876834995 7.964182937837596 2 -2 3
780 1 1 0.5897 3.5387863897635343 18.654400169880468 7.8147747242797925 -2 0 0
336 1 1 0.5897 1.6259579620327542 17.244705053676633 10.37318675897632 4 -2 5
85 1 2 -1.1794 2.217024469619947 21.65562630381332 9.12364415323961 3 6 3
472 1 2 -1.1794 6.602382461621583 21.86210319327654 6.955746751561336 5 -1 -5
474 1 1 0.5897 6.515472982856398 21.179515741807577 6.2903871252933 5 -1 -5
142 1 2 -1.1794 8.587556672899384 21.12209954506838 8.695047397199223 5 7 4
413 1 1 0.5897 7.779835948141174 17.765987668772013 7.376327155090285 2 -2 3
779 1 1 0.5897 4.872125997235767 18.78618033096081 8.519462799430361 -2 0 0
183 1 1 0.5897 5.355746585689559 19.299487197107737 6.415487321826119 -5 2 -3
759 1 1 0.5897 6.162247599999797 19.876555248850806 10.150933560019066 -2 2 2
758 1 1 0.5897 7.354866137665204 19.3477158504693 9.382971078976842 -2 2 2
451 1 2 -1.1794 0.7786487454676725 19.693803358927433 10.482066597932588 -1 -3 2
814 1 2 -1.1794 2.088843095618751 17.23471848298383 6.495242854459972 -4 7 -5
412 1 2 -1.1794 8.392070139928592 18.459706735981612 7.131172886587037 2 -2 3
143 1 1 0.5897 8.569411073737983 21.39024382356741 9.613716328233728 5 7 4
87 1 1 0.5897 1.7728253862447667 20.951807928583797 9.596404648225425 3 6 3
473 1 1 0.5897 7.32524602262743 21.566914834893204 7.50937528853208 5 -1 -5
815 1 1 0.5897 1.805100283245351 18.14503681295688 6.411651892126058 -4 7 -5
427 1 2 -1.1794 1.2624772601911443 19.933585583844057 6.187409069607491 0 -2 -2
334 1 2 -1.1794 1.5448173604784137 17.32225966551608 9.422586947442134 4 -2 5
467 1 1 0.5897 5.399070975499741 21.931971678506677 11.042364629198751 1 -1 6
335 1 1 0.5897 2.34824177494842 16.93036141530731 9.080359035013062 4 -2 5
144 1 1 0.5897 8.84499045980905 21.911947042925668 8.219576484514256 5 7 4
22 1 2 -1.1794 4.879691990329741 22.04320067940487 9.140844676961615 -5 0 1
152 1 1 0.5897 7.549451403057924 16.99405871851903 10.751402499307032 1 1 -5
585 1 1 0.5897 5.878171713377648 20.148253524250798 12.639278720990914 0 -7 4