LAMMPS data file via write_data, version 30 Jul 2021, timestep = 5750000

972 atoms
2 atom types
648 bonds
1 bond types
324 angles
1 angle types

-0.05233068684209208 20.052331686844575 xlo xhi
0.06705444099262436 19.9329465590107 ylo yhi
0.09896783259886455 20.601030167410016 zlo zhi

Masses

1 1.008
2 15.999

Pair Coeffs # lj/cut/tip4p/long/omp

1 0 0
2 0.21084 3.1668

Bond Coeffs # harmonic/omp

1 450 0.9572

Angle Coeffs # harmonic/omp

1 55 104.52

Atoms # full

4 2 2 -1.1794 4.281171905095292 1.3310707191902278 3.309394292754299 0 0 0
17 6 1 0.5897 4.100281143574108 4.6865097902382855 2.780151535132173 0 0 0
5 2 1 0.5897 4.239016322340813 0.5699763174954119 2.730464494148924 0 0 0
10 4 2 -1.1794 0.8941351992924556 3.9088496665676544 3.916175340563491 0 0 0
11 4 1 0.5897 0.7142352197517221 3.1473137844705827 3.364906312702066 0 0 0
12 4 1 0.5897 1.8489145866130163 3.9747216037343103 3.9302690854965214 0 0 0
16 6 2 -1.1794 3.7272519981463748 4.170198682535077 3.4946233990675832 0 0 0
18 6 1 0.5897 4.03042286226685 3.2774860962219714 3.32929517769121 0 0 0
23 8 1 0.5897 2.817902666459429 0.9621588170782767 4.3819854676769205 0 0 0
31 11 2 -1.1794 0.7037431920947943 1.9676145821230113 2.028414336109372 0 0 0
33 11 1 0.5897 1.4268678863521527 2.152429035232107 1.4291571579582258 0 0 0
236 79 1 0.5897 0.6308042805052694 0.230985680408042 2.1375968963754834 0 1 0
102 34 1 0.5897 0.30376670719985716 0.9818664031457892 5.059784085096258 1 0 0
22 8 2 -1.1794 2.027026999196037 0.8560172986287321 4.910587520116409 0 0 0
3 1 1 0.5897 3.4698754619758096 2.634812553370237 0.44655361181512 0 0 0
1 1 2 -1.1794 2.5411983998636742 2.6374854238767282 0.21481531983841404 0 0 0
561 187 1 0.5897 0.6895210685360433 0.10878680596302104 8.709429492695904 0 1 0
27 9 1 0.5897 2.427861926667335 4.210607010958334 6.570780797013259 0 0 0
325 109 2 -1.1794 2.655489770977757 2.5019156418829387 7.0096425413403125 0 0 0
326 109 1 0.5897 2.4110555459615073 2.036434284055124 6.209784694038978 0 0 0
327 109 1 0.5897 3.6056774370030724 2.4009048442378624 7.065217513472773 0 0 0
330 110 1 0.5897 4.076529879970074 0.7846976510033365 9.231393805190324 0 0 0
355 119 2 -1.1794 0.6414875740170181 2.0339209630231094 8.889444920748709 0 0 0
356 119 1 0.5897 1.3654706305197142 2.216608144425459 8.290568449741835 0 0 0
335 112 1 0.5897 1.051304290026459 3.217541233165271 10.17552051601398 0 0 0
342 114 1 0.5897 4.100193404746321 4.699544531959633 9.76351593829778 0 0 0
341 114 1 0.5897 4.158140888728967 3.2551248948712783 10.213047169086122 0 0 0
328 110 2 -1.1794 4.0526259769306 1.4420162297287196 9.926768162946795 0 0 0
329 110 1 0.5897 4.660448374866132 1.1130596638178134 10.588979226348853 0 0 0
683 228 1 0.5897 4.419528316998895 2.5594377185710115 14.025999588991754 0 0 0
346 116 2 -1.1794 1.9503082997020322 0.5255697114255082 11.610689798585716 0 0 0
347 116 1 0.5897 1.0582910890591237 0.8238247627795247 11.433190326966653 0 0 0
348 116 1 0.5897 2.479492668512268 0.9285310375918779 10.922372693192116 0 0 0
350 117 1 0.5897 2.4377012156796196 4.205923358681456 13.638526635913733 0 0 0
649 217 2 -1.1794 2.5497431668933683 2.312451766531126 13.723704550790824 0 0 0
650 217 1 0.5897 2.2653784415184655 1.7024403460517612 13.043113064984253 0 0 0
651 217 1 0.5897 1.9020270230721343 2.21265922625786 14.421335319712032 0 0 0
336 112 1 0.5897 2.2387599939951057 3.967373700407449 10.74070159897914 0 0 0
334 112 2 -1.1794 1.2848339805296085 3.9098265185198535 10.793906324438918 0 0 0
405 135 1 0.5897 0.005556113449948441 4.545611040972583 12.084491164314041 1 0 0
340 114 2 -1.1794 3.9687633495150196 4.138892006884507 10.528110358003163 0 0 0
652 218 2 -1.1794 4.145308140965522 1.3379034727459842 17.21018837471628 0 0 0
653 218 1 0.5897 3.2749395231208434 1.2105091884494952 17.587527214371853 0 0 0
654 218 1 0.5897 4.183784666807631 0.7188294620261222 16.481165127397716 0 0 0
658 220 2 -1.1794 1.0774864774216801 4.008743812709763 17.41255626723502 0 0 0
659 220 1 0.5897 0.41205943026473274 4.201761252241284 18.072960998116024 0 0 0
664 222 2 -1.1794 3.851564479114115 4.070758651813363 17.53525475632734 0 0 0
665 222 1 0.5897 2.9044332753174475 4.119282624880546 17.664636405205655 0 0 0
666 222 1 0.5897 4.017815531229747 3.1527506075245455 17.321216658401653 0 0 0
670 224 2 -1.1794 1.8402006798529011 0.9230696986258545 18.595075998486195 0 0 0
671 224 1 0.5897 1.962610916855176 1.5934718766551699 19.267217733524625 0 0 0
672 224 1 0.5897 0.8911160456646966 0.8619093768229624 18.487168843948524 0 0 0
681 227 1 0.5897 0.7899797840331244 2.5624541922875417 16.435432763666455 0 0 0
660 220 1 0.5897 0.9852297217684876 4.7093800008669495 16.7669634848312 0 0 0
679 227 2 -1.1794 0.6806971714488554 1.9670866514124703 15.693953745547239 0 0 0
884 295 1 0.5897 0.43454316801576454 0.19051392005894338 15.519117579868087 0 1 0
2 1 1 0.5897 2.364715257090966 3.5375951405767956 20.443300929830677 0 0 -1
674 225 1 0.5897 1.6933061768815538 5.66863928784763 0.6200227093378481 0 0 1
141 47 1 0.5897 0.9394838935486055 7.684467161980003 2.145491105572968 0 0 0
139 47 2 -1.1794 0.8208057628197395 8.616318814424503 1.9618854833695984 0 0 0
114 38 1 0.5897 3.3431444085953985 7.840767270882066 3.7620294169263575 0 0 0
111 37 1 0.5897 3.5920892799908044 9.4016019032009 0.46087105381767396 0 0 0
14 5 1 0.5897 4.089681674545052 5.8662861154964965 0.9887473339013244 0 0 0
20 7 1 0.5897 0.6019585192887413 5.243361340775464 2.6081035477254995 0 0 0
19 7 2 -1.1794 0.525924471250825 5.930503062928147 1.9460959856437234 0 0 0
140 47 1 0.5897 1.0050885463087933 9.050408312382437 2.7948415601950036 0 0 0
112 38 2 -1.1794 4.05665848732058 8.094674189876885 3.176702087303777 0 0 0
13 5 2 -1.1794 4.822520881771078 6.007639263705008 1.5880294325623614 0 0 0
110 37 1 0.5897 2.118413078832319 9.484248533648124 0.7972273122693992 0 0 0
15 5 1 0.5897 4.572147094227638 6.779685518387627 2.0954262267840376 0 0 0
132 44 1 0.5897 1.0870851850776375 7.489033043918616 5.062827901306746 0 0 0
126 42 1 0.5897 4.09020268837456 9.941537760470178 3.3407911614664716 0 0 0
130 44 2 -1.1794 2.0365677662997164 7.375573003359663 5.020890728599888 0 0 0
113 38 1 0.5897 4.851641811237963 7.824293697617983 3.6361179649178426 0 0 0
109 37 2 -1.1794 2.7484453483652813 9.67824133005082 0.10325085789035364 0 0 0
339 113 1 0.5897 3.8438928924343228 5.572057649431635 7.737039835040784 0 0 0
464 155 1 0.5897 1.4548574683294087 8.562671710226152 8.63743243060275 0 0 0
25 9 2 -1.1794 2.440637202245951 5.162120363737949 6.673955448832477 0 0 0
437 146 1 0.5897 4.415663476180204 7.52936120594159 9.624917094505605 0 0 0
468 156 1 0.5897 4.499590992531534 9.075838252582733 7.351104934752362 0 0 0
435 145 1 0.5897 2.5122305574283508 8.608483930963846 6.6588319882274165 0 0 0
433 145 2 -1.1794 2.7284595072154056 9.05602667471738 7.476845187384289 0 0 0
463 155 2 -1.1794 0.7525418568077106 8.36383820741354 9.256604219400188 0 0 0
345 115 1 0.5897 0.6770230853730075 6.486018802416476 9.074458526620369 0 0 0
337 113 2 -1.1794 4.44750332410668 5.831404167582982 8.433158451832542 0 0 0
343 115 2 -1.1794 0.6352263866794409 5.590161532319223 8.73996387917099 0 0 0
26 9 1 0.5897 1.8032544050585972 5.3370198832620925 7.366297286961161 0 0 0
438 146 1 0.5897 4.226825494837224 8.854087965502064 10.332880613339752 0 0 0
344 115 1 0.5897 0.9017451520671113 5.04495041907845 9.480174764937495 0 0 0
465 155 1 0.5897 -0.042802200731629624 8.677144261531689 8.825989428031596 0 0 0
131 44 1 0.5897 2.1993357960024182 6.546769157335557 5.471207892091737 0 0 0
434 145 1 0.5897 2.5643500063804363 9.981290741551055 7.294806594942876 0 0 0
757 253 2 -1.1794 2.8034378832721116 9.411191430854545 14.00587352351075 0 0 0
668 223 1 0.5897 1.1385950335927195 5.8052973921772235 14.881472101534426 0 0 0
533 178 1 0.5897 0.3257054799971349 7.723050851090309 12.133162376861371 1 0 0
792 264 1 0.5897 4.775321113572804 9.286189393487737 14.446619964788923 0 0 0
351 117 1 0.5897 3.2834910334345433 5.3154175146940315 14.22625646663236 0 0 0
454 152 2 -1.1794 2.2012787590028093 7.381968973763769 12.07716077267868 0 0 0
455 152 1 0.5897 2.959745088429542 7.519715209320261 11.509771873067917 0 0 0
456 152 1 0.5897 2.421194354524484 6.60208483618056 12.586682217109972 0 0 0
759 253 1 0.5897 2.529652071619358 8.829272835198937 13.29692273824186 0 0 0
349 117 2 -1.1794 2.4628237871589396 5.154959974497434 13.760519636431452 0 0 0
443 148 1 0.5897 1.0946709054464123 9.400748710358629 10.615012137339484 0 0 0
789 263 1 0.5897 1.725992936237331 8.986764310776682 15.4327722538578 0 0 0
436 146 2 -1.1794 4.357051902116833 7.920087137905758 10.496748902610312 0 0 0
669 223 1 0.5897 0.7584062988292735 6.917767999865925 15.835212807233901 0 0 0
788 263 1 0.5897 1.0607467523973604 9.435484348427508 16.716483120422403 0 0 0
858 286 1 0.5897 0.49705486571004065 7.498605929445164 18.628829276192363 1 0 0
779 260 1 0.5897 2.5874291532806235 8.312824551785827 19.47032183201189 0 0 0
780 260 1 0.5897 2.8292042312026044 7.728039737172525 18.095066406845355 0 0 0
675 225 1 0.5897 2.415246154681568 6.109149551010871 19.866492307717536 0 0 0
760 254 2 -1.1794 4.267724360229955 8.179273986670989 17.137225219448688 0 0 0
761 254 1 0.5897 4.143100019275312 9.126442019365395 17.077803570409884 0 0 0
778 260 2 -1.1794 2.343509700769143 7.578995060379027 18.90627532623897 0 0 0
787 263 2 -1.1794 1.1751612779441423 8.67263500079205 16.149772623461836 0 0 0
662 221 1 0.5897 4.199669380832365 5.153542911250907 16.11348688216934 0 0 0
663 221 1 0.5897 4.398816089706161 6.648645610557869 15.983924078363367 0 0 0
673 225 2 -1.1794 2.429056229004446 5.442465726873992 20.55317785365095 0 0 0
661 221 2 -1.1794 4.510301709821892 5.826068966074123 15.507340984530137 0 0 0
667 223 2 -1.1794 0.5886174335762495 5.995966776970472 15.64131627395257 0 0 0
783 261 1 0.5897 1.7913750597806406 12.49729525920273 0.712493136872225 0 0 1
118 40 2 -1.1794 1.3171985545364708 10.501393974880004 3.9661566826581574 0 0 0
119 40 1 0.5897 2.2653362210687007 10.576762541084765 4.073352703999801 0 0 0
120 40 1 0.5897 1.1097645525427842 11.0924960849093 3.2424367198094375 0 0 0
222 74 1 0.5897 4.269563830207758 14.045463145451334 2.5916100326146263 0 0 0
123 41 1 0.5897 4.255253881964057 12.578547181933224 0.9108805384080925 0 0 0
124 42 2 -1.1794 4.115429244387716 10.876212580884387 3.545567819071727 0 0 0
240 80 1 0.5897 2.817606981019326 13.907462325949053 4.5763907417975105 0 0 0
127 43 2 -1.1794 0.59095560296204 12.368787785866598 2.0767386318171015 0 0 0
129 43 1 0.5897 0.6964017791477997 13.297120397279944 2.284755831857384 0 0 0
220 74 2 -1.1794 4.06914198372966 14.494642051255695 3.4127497849579878 0 0 0
125 42 1 0.5897 4.733162824258387 10.945840113323122 4.273402234365812 0 0 0
122 41 1 0.5897 4.5830798291407975 12.167690576588539 2.3305900835539495 0 0 0
121 41 2 -1.1794 4.947650442766185 12.62089490958133 1.5704016916768375 0 0 0
317 106 1 0.5897 0.28593239508031454 14.26416397467095 5.119594499063889 1 0 0
188 63 1 0.5897 0.1559101980312647 11.092071602465058 5.164288526750078 1 0 0
133 45 2 -1.1794 2.4848097141561323 11.630151315156315 6.957942871932561 0 0 0
134 45 1 0.5897 1.8170970169692648 11.78039990036496 7.627084888342064 0 0 0
135 45 1 0.5897 3.3010074352788488 11.922572643077999 7.3635004666679595 0 0 0
445 149 2 -1.1794 4.673073398540676 12.524894488232034 8.364227840573108 0 0 0
573 191 1 0.5897 0.8820522257753094 14.1242353550581 9.21248615108289 0 0 0
446 149 1 0.5897 4.596564704271518 13.291182650306292 8.932687701344998 0 0 0
450 150 1 0.5897 4.177214785725703 11.237433427399376 9.677364160478822 0 0 0
451 151 2 -1.1794 0.7354071181918641 12.221342593865174 9.03341514459809 0 0 0
453 151 1 0.5897 0.8421096735430784 11.53157627473073 9.68841918288152 0 0 0
239 80 1 0.5897 2.2873321706982637 13.067717926465344 5.71895405658129 0 0 0
544 182 2 -1.1794 4.250386404519502 14.548641752466555 10.106823927033549 0 0 0
448 150 2 -1.1794 3.8676540561778188 10.625501268021548 10.345114392111737 0 0 0
238 80 2 -1.1794 2.129615227015803 13.882112889872177 5.241373792919692 0 0 0
642 214 1 0.5897 0.20194037240939627 13.963566531523004 11.874313844418447 1 0 0
442 148 2 -1.1794 1.2631701482226452 10.22235436407111 11.076279400035578 0 0 0
457 153 2 -1.1794 2.4974566858162843 12.163354626633605 13.319197798172693 0 0 0
458 153 1 0.5897 1.7938145558987169 12.167788681137603 13.968076888892222 0 0 0
459 153 1 0.5897 3.279619807426362 12.411962126802504 13.811725607614083 0 0 0
444 148 1 0.5897 2.189207281324906 10.402688159650378 10.914759352734785 0 0 0
449 150 1 0.5897 4.452624303675578 10.766444237908015 11.089492287259093 0 0 0
562 188 2 -1.1794 1.977336473629363 14.26886300382746 11.693065945620976 0 0 0
563 188 1 0.5897 2.2714055913846565 13.508081204207341 12.193989777262814 0 0 0
758 253 1 0.5897 2.6978284542821704 10.29238498603842 13.647355870172264 0 0 0
545 182 1 0.5897 3.4571169698179185 14.46180713176699 10.635332727564489 0 0 0
546 182 1 0.5897 4.95833338803566 14.274808610359766 10.689911755128042 0 0 0
769 257 2 -1.1794 4.4639689047065385 12.755740806771378 15.19260052969372 0 0 0
775 259 2 -1.1794 0.7177629883165614 12.528903885125366 15.303229101720982 0 0 0
766 256 2 -1.1794 1.1122884917172091 10.97882486457616 17.47126166716511 0 0 0
767 256 1 0.5897 0.48692093774731515 11.204593600863422 18.159807445948665 0 0 0
768 256 1 0.5897 0.8813383593694254 11.551694752043984 16.740044615584758 0 0 0
772 258 2 -1.1794 3.8835694438380224 10.95934975568594 17.22111148907068 0 0 0
773 258 1 0.5897 2.95444129749604 11.091137620359088 17.409535528583383 0 0 0
774 258 1 0.5897 4.093270608385267 11.627615750824068 16.56869464053615 0 0 0
771 257 1 0.5897 4.316825015587064 13.576065912276288 15.663328093514227 0 0 0
781 261 2 -1.1794 2.475517792290392 12.342223714554533 20.56333772352812 0 0 0
869 290 1 0.5897 3.330121616622302 14.44843531969054 17.485556435103504 0 0 0
886 296 2 -1.1794 1.962619234220679 14.131603833326169 18.592170528181057 0 0 0
888 296 1 0.5897 2.1365449853358456 13.350162723486243 19.116849968316146 0 0 0
870 290 1 0.5897 4.835708873185646 14.58725564866543 17.41063699065154 0 0 0
868 290 2 -1.1794 4.032198805709756 14.788953848314302 16.931203521572208 0 0 0
965 322 1 0.5897 0.214240945261653 14.168024389034514 18.618841529036366 1 0 0
782 261 1 0.5897 2.5212087851718854 11.389311345343849 20.485520150979454 0 0 0
887 296 1 0.5897 2.0821298596154807 14.860725458157676 19.2006758382961 0 0 0
777 259 1 0.5897 0.8557158874923131 13.446038703282658 15.539924597589014 0 0 0
249 83 1 0.5897 1.5873864551072643 15.376867948806789 1.4888134342318533 0 0 0
248 83 1 0.5897 0.9048880962351474 15.809819094404444 2.768861624286135 0 0 0
221 74 1 0.5897 4.108329700222324 15.425406632659941 3.1929045994903094 0 0 0
247 83 2 -1.1794 0.9797654684954895 15.072649679699314 2.1629229985818172 0 0 0
226 76 2 -1.1794 1.0870100386401422 17.326908607290292 3.899505758794963 0 0 0
227 76 1 0.5897 0.9543857878888382 17.98761486890057 3.2197450713747933 0 0 0
228 76 1 0.5897 0.46452270290174336 17.562119885948857 4.58752458391281 0 0 0
890 297 1 0.5897 1.710592933713819 18.893991786905797 0.6295612801127927 0 0 1
230 77 1 0.5897 3.8147130657883164 18.85486487748348 0.9437645932029284 0 0 0
232 78 2 -1.1794 3.9537473313177003 17.242481664745824 3.7251315676483125 0 0 0
233 78 1 0.5897 4.089401241192456 17.82739894216638 2.9796952426855325 0 0 0
234 78 1 0.5897 3.017303674557564 17.306007072046985 3.9127156334241904 0 0 0
235 79 2 -1.1794 0.4753066260434835 19.17180886961541 1.9471916355214176 0 0 0
229 77 2 -1.1794 4.344656670027479 18.905873969319636 1.7392229949087807 0 0 0
224 75 1 0.5897 4.8820011667296 17.757175853107228 5.179120139088741 0 0 0
219 73 1 0.5897 3.393182810558872 15.777478309501987 0.17864749712565764 0 0 0
553 185 2 -1.1794 4.40883986921218 18.91619738022917 8.69139677639396 0 0 0
576 192 1 0.5897 4.602016894087317 15.774420864436676 7.375799191206238 0 0 0
559 187 2 -1.1794 0.5918419074779212 19.054196946028263 8.465795338530459 0 0 0
241 81 2 -1.1794 2.59534161699487 18.534938989206132 6.650357151149212 0 0 0
242 81 1 0.5897 2.7368533722085013 17.59460784724546 6.759603527886949 0 0 0
243 81 1 0.5897 1.8145716043470683 18.72223684097738 7.171392244935124 0 0 0
541 181 2 -1.1794 2.7971477141450363 15.737960378175163 7.154397725341279 0 0 0
542 181 1 0.5897 2.17439947148978 15.456202979993732 7.824458462830731 0 0 0
572 191 1 0.5897 0.8604288952596133 15.545815918434966 9.73251755504761 0 0 0
551 184 1 0.5897 0.9327497117264891 17.893796284662958 9.845736989106621 0 0 0
555 185 1 0.5897 3.8925304734050052 18.84176382616264 7.888851149559945 0 0 0
558 186 1 0.5897 4.062704602892203 17.7674163590466 9.995733890835302 0 0 0
571 191 2 -1.1794 0.8367407841780752 15.035476718244837 8.923071154056839 0 0 0
543 181 1 0.5897 2.588067835867686 15.199795295043705 6.390939076002422 0 0 0
24 8 1 0.5897 2.182203341030241 19.924809109883924 5.41728798861375 0 -1 0
885 295 1 0.5897 1.0171905572364233 18.890825151586604 14.748579452985867 0 0 0
866 289 1 0.5897 3.468734737608736 15.69125755048463 13.918038836952428 0 0 0
879 293 1 0.5897 3.9088479977991484 19.052280752965668 14.685335296746295 0 0 0
867 289 1 0.5897 2.1286884330398053 15.737121292459614 14.620814365314567 0 0 0
550 184 2 -1.1794 1.0274845403439627 17.28953065304867 10.58200636623289 0 0 0
552 184 1 0.5897 1.9677731528960605 17.27393966455701 10.760215439847727 0 0 0
565 189 2 -1.1794 2.3540271229316008 18.629166765607728 13.714905940205934 0 0 0
566 189 1 0.5897 2.4653708613218215 17.74905242766828 13.355501273593587 0 0 0
567 189 1 0.5897 2.2117643270892935 19.185013453623192 12.94874718829176 0 0 0
865 289 2 -1.1794 2.5364340212418774 15.840571647346083 13.761019606554756 0 0 0
556 186 2 -1.1794 3.7685341666440966 17.215615784907428 10.72042979263573 0 0 0
877 293 2 -1.1794 4.49927668223202 19.209605596297678 15.4221054857265 0 0 0
896 299 1 0.5897 -0.001953608426755009 15.589059554249577 15.217851950568656 0 0 0
548 183 1 0.5897 4.887942502660497 17.769551509070595 12.01773781876327 0 0 0
883 295 2 -1.1794 0.3537430164558005 19.109759590059397 15.402860506823256 0 0 0
564 188 1 0.5897 1.954924703850415 14.982144565502134 12.330965916644008 0 0 0
557 186 1 0.5897 3.9827511450583337 16.324132909801303 10.445550613810944 0 0 0
881 294 1 0.5897 2.979912180374603 17.57986836955651 17.557795782617553 0 0 0
897 299 1 0.5897 0.7795873256784404 16.023477498274808 16.43944319891048 0 0 0
891 297 1 0.5897 2.2061439527804496 19.30121542390964 19.760338879119914 0 0 0
882 294 1 0.5897 3.913293794683241 16.476861392614776 17.106229293370447 0 0 0
880 294 2 -1.1794 3.8894749680848677 17.411365314587698 17.311929516471224 0 0 0
874 292 2 -1.1794 1.1435524295933241 17.636778059605017 17.56252744029952 0 0 0
875 292 1 0.5897 0.4692047257438219 17.721742730915903 18.236487157453006 0 0 0
876 292 1 0.5897 0.8653020581094096 18.23376514350964 16.86799395451945 0 0 0
878 293 1 0.5897 4.225687178316487 18.578664574394065 16.08788681309125 0 0 0
889 297 2 -1.1794 2.378745104083014 18.690726322880487 20.477075595026456 0 0 0
218 73 1 0.5897 2.374156831156032 16.859969288809154 20.39517450623258 0 0 -1
217 73 2 -1.1794 2.4572850680352 15.916954329620772 20.536524544022008 0 0 -1
895 299 2 -1.1794 0.7405458468319541 15.34156592615203 15.768866949301753 0 0 0
69 23 1 0.5897 6.655561435630272 2.217117763512072 1.616360105063561 0 0 0
29 10 1 0.5897 7.00342255442205 0.7039366566868904 4.902465588625342 0 0 0
68 23 1 0.5897 8.141710446057647 1.993073578741398 1.4351913128101144 0 0 0
67 23 2 -1.1794 7.4455859815979295 1.959271078750166 2.091270293846114 0 0 0
46 16 2 -1.1794 7.902092669794981 4.0609959645582165 3.729995240402328 0 0 0
47 16 1 0.5897 7.762875610124519 3.244656387979094 3.250086635227976 0 0 0
48 16 1 0.5897 7.123606653491261 4.152159493667871 4.279372102945311 0 0 0
34 12 2 -1.1794 5.289802309889997 2.652635466148256 0.5186899623175096 0 0 0
53 18 1 0.5897 9.834840423194507 4.133053329218515 3.8796431088793373 0 0 0
6 2 1 0.5897 5.0067276906559846 1.1405154696123707 3.9038788323316855 0 0 0
9 3 1 0.5897 5.005915265749317 4.441903687467469 4.818980148884996 0 0 0
273 91 1 0.5897 7.29965206428763 0.135336089318268 2.039545918396813 0 1 0
58 20 2 -1.1794 8.868826119142208 0.7156598673175887 4.774168028038803 0 0 0
36 12 1 0.5897 5.53929953618458 3.5050939880262377 0.1620107121791321 0 0 0
8 3 1 0.5897 5.51804055365935 4.02449164225826 6.181083054627682 0 0 0
391 131 2 -1.1794 7.538245586608713 2.0393058335109853 8.87814935627461 0 0 0
393 131 1 0.5897 7.492649508292421 1.0858501615876752 8.807261601535396 0 0 0
59 20 1 0.5897 9.020244306084674 1.419532728763483 5.404897714347275 0 0 0
361 121 2 -1.1794 9.079630646470159 2.5168496337527233 6.777073454018903 0 0 0
392 131 1 0.5897 8.139589033894767 2.3032308098988956 8.181798087291211 0 0 0
362 121 1 0.5897 9.128735030728034 3.443465792323469 6.542281408015757 0 0 0
358 120 2 -1.1794 5.504198829789794 2.4284720263770074 7.13998455156793 0 0 0
359 120 1 0.5897 6.076929720459119 2.314884417545972 7.898439332627572 0 0 0
360 120 1 0.5897 5.825691405722893 1.794128926445091 6.499323644105482 0 0 0
7 3 2 -1.1794 5.6857137149997525 4.636180083712262 5.464197762410628 0 0 0
371 124 1 0.5897 7.492468407421036 3.4417122230934862 10.19290214061639 0 0 0
363 121 1 0.5897 9.959954033054837 2.300063415670618 7.0839810885660635 0 0 0
28 10 2 -1.1794 6.1029735446629765 0.697401818270109 5.226971910779729 0 0 0
352 118 2 -1.1794 5.846532726903876 0.8264775252743006 11.94029494217237 0 0 0
353 118 1 0.5897 6.794604500593167 0.7523736700474462 11.831577341152489 0 0 0
354 118 1 0.5897 5.7324110161899045 1.5319089115060682 12.577117295969458 0 0 0
684 228 1 0.5897 5.486343855627172 3.4271487255640345 13.392998830500625 0 0 0
372 124 1 0.5897 7.180866765671629 4.479291824073658 11.25032163453908 0 0 0
685 229 2 -1.1794 9.094874888899882 2.5989200783752735 13.615543261619363 0 0 0
382 128 2 -1.1794 8.625183757115057 0.8225829064177 11.769357398986777 0 0 0
383 128 1 0.5897 8.759730963607016 1.453603957897951 12.476396692587354 0 0 0
384 128 1 0.5897 9.392490910946897 0.9255589534424525 11.206518141134936 0 0 0
682 228 2 -1.1794 5.367303988033986 2.633615975392278 13.914846837671847 0 0 0
686 229 1 0.5897 8.55203434997704 2.482231654727197 14.395216347011823 0 0 0
331 111 2 -1.1794 5.794192091998563 4.784542533899417 12.396768475487958 0 0 0
370 124 2 -1.1794 7.809140575378435 4.266954927715145 10.560123398485265 0 0 0
386 129 1 0.5897 8.927266895753903 4.527803074104307 13.644759776823232 0 0 0
332 111 1 0.5897 5.100376151372228 4.738862766559633 11.738958408740448 0 0 0
717 239 1 0.5897 6.593983219078128 2.183637183600571 15.02824233906886 0 0 0
377 126 1 0.5897 9.795782325712215 4.17178713626689 10.3840501272606 0 0 0
687 229 1 0.5897 9.992368738138262 2.612768889593136 13.947914788936965 0 0 0
715 239 2 -1.1794 7.285498090583638 2.001739938359039 15.664560685636284 0 0 0
38 13 1 0.5897 9.04906987699392 1.9467511665756665 19.79061749693497 0 0 -1
656 219 1 0.5897 5.26770333081701 4.420864190703682 18.6501425360119 0 0 0
657 219 1 0.5897 6.75616555892094 4.325402330117121 18.909084146102536 0 0 0
676 226 2 -1.1794 6.1506255594677715 0.7857082694445132 19.043623686699824 0 0 0
677 226 1 0.5897 5.490969737415936 0.9988569589022953 18.38361829583654 0 0 0
694 232 2 -1.1794 7.902341883917298 3.9627432271403547 17.532236233180278 0 0 0
695 232 1 0.5897 7.695680115590188 3.269022331997199 16.905948564787174 0 0 0
716 239 1 0.5897 7.174402866253473 1.0761672579784232 15.881706874856024 0 0 0
706 236 2 -1.1794 8.799904456349106 0.7749849882867746 18.417289611289455 0 0 0
708 236 1 0.5897 7.8535259284386445 0.9175101378368687 18.43143281506645 0 0 0
655 219 2 -1.1794 5.938619343494312 4.636046795434843 19.298025786361492 0 0 0
35 12 1 0.5897 5.566682646225857 2.023469937546565 20.35467093556477 0 0 -1
702 234 1 0.5897 9.783707909294748 4.140720688241353 17.760102664747627 0 0 0
696 232 1 0.5897 7.619816634501353 4.768517303312009 17.099691080958465 0 0 0
710 237 1 0.5897 9.159521052717881 4.3758047011382235 20.226238312241094 0 0 0
37 13 2 -1.1794 9.208528507364992 2.4683608068262597 20.577196034011674 0 0 -1
143 48 1 0.5897 6.1098726331807205 9.125120187270934 1.264318944984475 0 0 0
176 59 1 0.5897 7.850922462581456 7.932401337361062 2.2678197300967224 0 0 0
142 48 2 -1.1794 5.481046990038481 9.130911970573036 0.54269953332553 0 0 0
711 237 1 0.5897 8.810538116857934 5.563292756307204 0.5958958172832417 0 0 1
175 59 2 -1.1794 7.6905630728936 8.873287769223206 2.195694212539873 0 0 0
55 19 2 -1.1794 7.594173169584264 6.082186206779195 1.783794663812957 0 0 0
56 19 1 0.5897 6.648511912186953 6.068452354609258 1.636532938705172 0 0 0
177 59 1 0.5897 8.37605051129271 9.189135620188557 1.6070284765147826 0 0 0
57 19 1 0.5897 7.730509087345576 5.490049092088743 2.5233794420052917 0 0 0
149 50 1 0.5897 9.9535176822236 8.022885117153855 3.7535800569224342 0 0 0
138 46 1 0.5897 6.92400762680312 7.235299426043189 5.067633942049916 0 0 0
145 49 2 -1.1794 9.482619176457218 9.460889837793 0.18026094022286976 0 0 0
166 56 2 -1.1794 8.701511656770336 7.213124637001408 4.878405695527379 0 0 0
167 56 1 0.5897 8.93363331277765 6.338018352677181 5.18904654592356 0 0 0
136 46 2 -1.1794 5.974539342171895 7.356282646916851 5.0655230542542125 0 0 0
137 46 1 0.5897 5.624655062410501 6.5140258344124105 5.355988420628203 0 0 0
501 167 1 0.5897 6.733519732389717 8.562771873367648 8.541960082203254 0 0 0
380 127 1 0.5897 7.465638628821364 6.634978174617944 8.510277469371355 0 0 0
467 156 1 0.5897 5.6024147461392815 8.51543564497337 6.47847258488616 0 0 0
499 167 2 -1.1794 7.632587354034594 8.366679336236558 8.805338330401655 0 0 0
338 113 1 0.5897 5.285899526211077 5.445188738165793 8.180005433351809 0 0 0
168 56 1 0.5897 8.885420515603746 7.7880772286402875 5.6212452279868375 0 0 0
469 157 2 -1.1794 9.398492074220291 9.00965006467422 6.776538715997016 0 0 0
500 167 1 0.5897 7.832716815598169 9.017023599405787 9.478537032256018 0 0 0
470 157 1 0.5897 8.833679179957029 8.87037746900022 7.53666063949821 0 0 0
466 156 2 -1.1794 5.436964718863596 9.152582622827978 7.1733642609055375 0 0 0
62 21 1 0.5897 8.555759634999667 5.352986693552069 7.11583785165213 0 0 0
379 127 2 -1.1794 7.220113564872384 5.736172272934349 8.291120190377402 0 0 0
61 21 2 -1.1794 9.291119291061781 5.147714149325674 6.53852866861658 0 0 0
381 127 1 0.5897 7.392082224951142 5.238693528677611 9.090579795261451 0 0 0
791 264 1 0.5897 6.209254037124719 9.192415500890194 14.922796383306718 0 0 0
794 265 1 0.5897 9.34767560768169 8.847808376425771 13.356956621564159 0 0 0
491 164 1 0.5897 9.759100863242868 7.617085814460609 11.351218609312927 0 0 0
462 154 1 0.5897 5.7587566894944615 7.534438854454432 11.426224980572396 0 0 0
333 111 1 0.5897 6.043454137896798 5.708426135037158 12.418887342240728 0 0 0
793 265 2 -1.1794 9.45132787723159 9.303977437147596 14.192048230417702 0 0 0
385 129 2 -1.1794 8.862343478394127 5.395772796060926 14.043008737708963 0 0 0
387 129 1 0.5897 9.073850049856746 6.001962353722784 13.333079702354118 0 0 0
460 154 2 -1.1794 6.449383684017246 7.442970594861349 12.082613442855163 0 0 0
461 154 1 0.5897 6.108255518388673 7.894669731730921 12.854488984906682 0 0 0
492 164 1 0.5897 8.338956851811497 7.50837746965145 11.864125745487504 0 0 0
490 164 2 -1.1794 9.251462325929408 7.410467242849899 12.135955435109377 0 0 0
790 264 2 -1.1794 5.676531402086576 9.2329386473746 14.128594947259636 0 0 0
705 235 1 0.5897 7.747372709423022 5.860894734882403 15.245095884125723 0 0 0
824 275 1 0.5897 8.325953038788388 8.796746073514292 15.41715970210766 0 0 0
814 272 2 -1.1794 8.987411762307639 7.498361920972395 18.725899279352305 0 0 0
786 262 1 0.5897 7.192347850351505 7.547417142474523 18.755468882752517 0 0 0
815 272 1 0.5897 9.178660139849503 6.649333904403875 19.124356912239612 0 0 0
825 275 1 0.5897 7.5009925435653315 7.833711773215884 16.244070133840694 0 0 0
785 262 1 0.5897 6.13899725854253 6.522960560168445 19.119727441560663 0 0 0
703 235 2 -1.1794 7.202524569330515 6.1025125472284545 15.994038928238236 0 0 0
816 272 1 0.5897 9.089833202027318 8.127213637515284 19.440225143625433 0 0 0
823 275 2 -1.1794 7.656022181020515 8.76722126889573 16.10016827834425 0 0 0
784 262 2 -1.1794 6.259469033055415 7.45719156772142 18.949759410559423 0 0 0
762 254 1 0.5897 5.038056013046592 8.073129364609283 17.69534225649636 0 0 0
144 48 1 0.5897 5.791676497270709 8.448081553697849 20.450245111102106 0 0 -1
704 235 1 0.5897 6.308238369162842 5.910324076597328 15.712132090702335 0 0 0
709 237 2 -1.1794 9.353738187925835 5.304379773504469 20.3535860166713 0 0 0
804 268 1 0.5897 7.826301749569892 9.957551941322746 17.29171186247146 0 0 0
154 52 2 -1.1794 8.291061363667598 10.897628629510901 4.089849355602635 0 0 0
819 273 1 0.5897 8.61505512605069 12.380148631871856 0.635197598844791 0 0 1
156 52 1 0.5897 9.198699970470793 11.119318494423892 3.8820298101632638 0 0 0
163 55 2 -1.1794 7.63120834243176 12.75349283327224 2.1112473453708853 0 0 0
164 55 1 0.5897 6.696091511155442 12.631786480425076 1.9472508514021818 0 0 0
165 55 1 0.5897 7.804231985718412 12.244391988539693 2.9031296598776564 0 0 0
276 92 1 0.5897 9.536933968285897 14.129900311265272 4.431266234615597 0 0 0
285 95 1 0.5897 7.642869178007874 14.556824953377138 2.0407077112526313 0 0 0
246 82 1 0.5897 5.323967853473959 14.263182969637857 4.484031576414782 0 0 0
275 92 1 0.5897 8.11167974800506 14.119662937590528 4.941409945343339 0 0 0
116 39 1 0.5897 6.869875027524224 11.083123481306405 5.18463069982972 0 0 0
274 92 2 -1.1794 8.985894104012372 13.779074800968576 5.130885394528763 0 0 0
146 49 1 0.5897 9.29323285685316 10.396470831220627 0.10951520126159413 0 0 0
155 52 1 0.5897 8.07704361383873 10.179494008927978 3.494303825875937 0 0 0
244 82 2 -1.1794 6.1018572925139 14.151072171122639 5.0303709669650765 0 0 0