LAMMPS data file via write_data, version 30 Jul 2021, timestep = 7250000

864 atoms
2 atom types
576 bonds
1 bond types
288 angles
1 angle types

0.4869962829871568 17.720576117008797 xlo xhi
1.6651485644545012 21.964029235538376 ylo yhi
0.5941343277479092 21.619061472246152 zlo zhi

Masses

1 1.00794
2 15.9994

Pair Coeffs # lj/cut/tip4p/long/omp

1 0 0
2 0.21084 3.1668

Bond Coeffs # harmonic/omp

1 450 0.9572

Angle Coeffs # harmonic/omp

1 55 104.52

Atoms # full

837 1 1 0.5897 4.3132263282555865 3.644315430985383 3.6755020374367864 0 3 -2
638 1 1 0.5897 1.018056303160713 4.66897048952727 4.190896196937037 -5 -1 5
749 1 1 0.5897 3.399108980898659 4.614277734443076 2.0321504555829915 1 5 1
835 1 2 -1.1794 4.119684784704016 4.581761594534357 3.674609446448909 0 3 -2
627 1 1 0.5897 3.848818719952377 6.055305437495824 4.891171040671499 0 -3 3
750 1 1 0.5897 2.5130561850051953 4.992933293657924 0.8644585591850951 1 5 1
637 1 2 -1.1794 1.3525202883818699 5.316253345440993 4.811727483775472 -5 -1 5
330 1 1 0.5897 2.0085870093657188 6.463981824881586 3.48379067861282 3 5 0
748 1 2 -1.1794 3.17696299847781 4.359366686957355 1.1366430716442335 1 5 1
499 1 2 -1.1794 0.6296645599951245 3.10257547473093 3.355074982679588 0 0 -3
607 1 2 -1.1794 0.860397822353728 5.644302759243668 0.6940574238669094 7 2 2
329 1 1 0.5897 1.626384644918005 6.727065326137116 2.0427237548680166 3 5 0
462 1 1 0.5897 1.7035270610430624 1.7215382491142452 3.116700118715477 4 2 -1
639 1 1 0.5897 0.5714965083024843 5.767783398501287 5.131720604389507 -5 -1 5
102 1 1 0.5897 2.4784525004871916 4.3409076355046174 5.823324415209286 9 -4 -2
856 1 2 -1.1794 2.1577989062914678 5.725754841585957 8.565062285835943 -1 -1 0
350 1 1 0.5897 3.284988373671712 5.54519522265424 9.9724966299537 -9 1 -3
101 1 1 0.5897 2.7620206660166695 2.9641539877822596 6.385549847021024 9 -4 -2
477 1 1 0.5897 0.5453979075909601 3.181418306279988 10.217220679079995 2 -2 -3
349 1 2 -1.1794 3.7111019360471214 5.625866482775705 10.825830686704592 -9 1 -3
857 1 1 0.5897 2.305541777984751 4.983598529119215 7.978861918618523 -1 -1 0
100 1 2 -1.1794 2.93470532855492 3.893556838221143 6.536047386734629 9 -4 -2
206 1 1 0.5897 3.2947139877811087 2.075710139063404 9.240738397643685 -5 4 -3
351 1 1 0.5897 4.170388705815745 4.794432676061785 10.944292281105731 -9 1 -3
447 1 1 0.5897 2.354347584660956 2.483266159066808 10.805100319450906 2 -1 -3
205 1 2 -1.1794 3.8382789905541506 2.748258083842736 9.651215302147339 -5 4 -3
858 1 1 0.5897 1.314278489948126 5.541091938532908 8.978140681993422 -1 -1 0
207 1 1 0.5897 4.540932549968329 2.260016239305802 10.080354364604165 -5 4 -3
257 1 1 0.5897 4.672730871051792 3.2820498989908913 6.849925472918061 -3 1 -1
692 1 1 0.5897 3.3856955156504838 4.997662015501159 15.753845094325241 0 -2 3
613 1 2 -1.1794 4.127478312338177 6.618979128299701 15.318075243949934 -6 0 4
646 1 2 -1.1794 1.0411294735974164 6.456489105517451 16.188371616266938 -7 0 -2
445 1 2 -1.1794 1.735281209704779 2.1816016325886904 11.4699462818516 1 -1 -3
666 1 1 0.5897 4.276460033934881 2.72260325797924 15.203080617767071 4 1 1
443 1 1 0.5897 2.589429496278037 6.006339643744846 12.213969741239818 4 3 -3
446 1 1 0.5897 1.7793366987027617 2.845763481550051 12.157845585498238 1 -1 -3
343 1 2 -1.1794 1.3447611957367154 3.611141387257332 13.784338028702845 -1 1 -1
691 1 2 -1.1794 3.0515663278253493 4.108226427755224 15.870176538533473 0 -2 3
693 1 1 0.5897 2.388362652921801 4.009737105027629 15.186996628405167 0 -2 3
442 1 2 -1.1794 2.1450329966803894 6.178780587661675 13.044050539298173 4 3 -3
345 1 1 0.5897 1.422782513820974 4.5499396121743 13.614461026594714 -1 1 -1
664 1 2 -1.1794 4.712389101954935 2.1027820803546504 14.618229571490701 4 1 1
635 1 1 0.5897 4.789488560536712 4.94143215268621 12.876431998254574 -6 2 1
246 1 1 0.5897 3.062695649897744 2.7274744107570092 17.54673479159627 -4 3 -2
306 1 1 0.5897 2.096088419784171 2.282260352843518 19.864244263974918 7 -3 -6
114 1 1 0.5897 2.366956412348732 5.1739193252357225 19.126879513444315 -3 -2 1
305 1 1 0.5897 2.514754392326407 2.724703606871581 21.250216661368082 7 -3 -6
113 1 1 0.5897 2.1548207666441117 4.80920941206812 17.672939307315254 -3 -2 1
304 1 2 -1.1794 2.0243452162294324 2.044460473243257 20.78867171113556 7 -3 -6
310 1 2 -1.1794 3.262417270667017 6.418035326941363 19.9994717743741 -3 4 2
112 1 2 -1.1794 1.9816685102664857 4.503043271859868 18.563195336597282 -3 -2 1
244 1 2 -1.1794 3.1682990568320104 1.8284020444747875 17.857854773753907 -4 3 -2
311 1 1 0.5897 3.7892596382394927 6.691919094904058 20.750264449612967 -3 4 2
594 1 1 0.5897 4.740401903706004 4.492879280996924 21.038212832204362 -1 -1 -3
609 1 1 0.5897 0.5204291028074638 5.968496642211201 20.884972373987704 7 2 1
328 1 2 -1.1794 2.2369629117663745 7.002899964249455 2.7263670409021565 3 5 0
469 1 2 -1.1794 4.537326016432038 7.5443364885382875 1.2171688766703777 3 -3 4
124 1 2 -1.1794 4.295848014308286 10.484735354317934 0.8937492312963278 1 2 4
289 1 2 -1.1794 1.1255043011543795 9.421986562861523 3.3226151069349017 -7 -2 -6
625 1 2 -1.1794 4.159887422628842 6.828283760822126 5.3623428024986195 0 -3 3
688 1 2 -1.1794 2.9416032172999036 11.37257418410575 3.697457584542971 3 -1 3
470 1 1 0.5897 4.394616838726274 8.46883864520556 1.014140070452977 3 -3 4
291 1 1 0.5897 1.7926950085042557 10.107875579173372 3.3488259464207775 -7 -2 -6
87 1 1 0.5897 3.3601687327841674 10.300959447007632 5.457924893693332 -2 6 2
290 1 1 0.5897 1.611322169625539 8.622194226394589 3.121135953761509 -7 -2 -6
471 1 1 0.5897 3.767191136168283 7.288439476936975 1.7247872241846154 3 -3 4
126 1 1 0.5897 3.7770763730787955 11.28912309337202 0.9034681882447866 1 2 4
626 1 1 0.5897 3.3802370826900447 7.1746080666681324 5.796462146327824 0 -3 3
690 1 1 0.5897 3.802019609271592 11.53694197504747 3.311537181473463 3 -1 3
86 1 1 0.5897 3.049029591024421 9.666701514690327 6.796913843251466 -2 6 2
85 1 2 -1.1794 3.4002724808295435 10.463946782962495 6.400311390680264 -2 6 2
799 1 2 -1.1794 3.803588515531663 8.269145660430748 8.985203823677162 -2 -2 2
595 1 2 -1.1794 4.624083850903516 11.00163067070984 9.537927203878608 0 -4 2
720 1 1 0.5897 1.8131639570227513 11.43427992899264 6.657428338885191 3 3 1
800 1 1 0.5897 3.9217782242630475 9.167917644237079 9.292645371036793 -2 -2 2
677 1 1 0.5897 0.9548199846991994 8.278790907541758 6.849061374039648 0 2 -2
303 1 1 0.5897 1.7015104346122025 11.431247630445883 11.0871738429856 -3 3 7
596 1 1 0.5897 4.180488642851762 11.577853595536423 8.915439415046162 1 -4 2
801 1 1 0.5897 2.9685372934075094 7.9939191357617565 9.363614407714586 -2 -2 2
676 1 2 -1.1794 1.8652890517894325 8.019943205459173 6.7064899298544125 0 2 -2
864 1 1 0.5897 0.8715875945679625 9.357619834450865 9.860208334361767 2 -4 3
678 1 1 0.5897 2.0386579421310813 7.368197364281786 7.385788265606431 0 2 -2
862 1 2 -1.1794 1.1527740743949075 8.54589126626914 10.282455698692173 2 -4 3
453 1 1 0.5897 3.8393333543054577 10.057706788749764 12.042276414777508 0 -1 4
116 1 1 0.5897 3.357192637223484 9.385225792860476 15.514943696895758 -2 -2 3
241 1 2 -1.1794 0.6491486077575406 8.404584435545143 13.081205717276127 1 -4 2
302 1 1 0.5897 1.3223625123203608 11.319610010555738 12.548599010813264 -3 3 7
103 1 2 -1.1794 0.7232283222663676 11.589968249791045 15.91098124239878 4 0 6
863 1 1 0.5897 0.9410345946587132 8.670761378459085 11.207571233778385 2 -4 3
301 1 2 -1.1794 2.0669489428453547 11.48506992660438 11.970243990615954 -3 3 7
451 1 2 -1.1794 4.051165776407386 9.16898656462808 12.327904441239165 0 -1 4
243 1 1 0.5897 1.4154864527461193 8.56650142012272 13.631449523583973 1 -4 2
115 1 2 -1.1794 2.6906136377190135 9.305045471070843 14.83266218009314 -2 -2 3
117 1 1 0.5897 3.119628205191446 9.62533552874815 14.039176601759102 -2 -2 3
444 1 1 0.5897 1.506733430465357 6.861471209465439 12.837253599943653 4 3 -3
505 1 2 -1.1794 4.621066978081218 10.934344850535554 16.30252478336154 3 3 -2
614 1 1 0.5897 4.080576259398972 6.891135966490071 16.234585583151095 -6 0 3
452 1 1 0.5897 3.5133959084126825 8.603984540446682 11.773065590421588 0 -1 4
615 1 1 0.5897 3.2872303797636175 6.885817310784574 14.945191547384852 -6 0 4
539 1 1 0.5897 2.324229638450263 9.213017986147165 19.991554204246327 1 -4 0
312 1 1 0.5897 2.521113627008177 7.0235781399475625 19.992780776661192 -3 4 2
538 1 2 -1.1794 1.8425873223913558 8.645419593833644 20.593331459481433 1 -4 0
224 1 1 0.5897 2.5787600450147625 8.823194609094973 17.697758314482673 4 -1 -8
667 1 2 -1.1794 4.033711293139447 7.8094554824483975 17.77631864220662 -8 -2 1
668 1 1 0.5897 3.761903640504242 7.334880298253393 18.561913057755394 -8 -2 0
223 1 2 -1.1794 1.8159324941344752 9.385791697767408 17.83133987673937 4 -1 -8
540 1 1 0.5897 1.3412006891579966 9.248265684881083 21.14238140211554 1 -4 0
225 1 1 0.5897 2.1784702364439075 10.20643116546381 18.165122538320762 4 -1 -8
648 1 1 0.5897 0.7179987928296673 7.3367108128659035 16.380901167694233 -7 0 -2
669 1 1 0.5897 4.602651993669313 8.506910340832745 18.10207712150589 -8 -2 1
105 1 1 0.5897 0.9270948214158818 10.867364891991498 16.504734483196493 4 0 6
673 1 2 -1.1794 4.161907679839582 15.460508870715133 3.074033174516998 -4 -1 -4
745 1 2 -1.1794 3.079371762492035 12.934385175161662 0.63960314949195 5 2 -6
812 1 1 0.5897 2.478214981432572 16.433976399346378 5.720778681790875 -4 3 -3
387 1 1 0.5897 2.004227775865765 14.560868502553621 4.790264129989257 -3 -1 1
385 1 2 -1.1794 1.7182966735224625 13.922510287866173 4.136802653924733 -3 -1 1
386 1 1 0.5897 1.7801545685965006 14.388507082461949 3.302966564377971 -3 -1 1
689 1 1 0.5897 2.6389753794386803 12.233997957327004 3.9848983623880345 3 -1 3
118 1 2 -1.1794 1.3583377138694837 14.836631385456977 1.5369440957521288 4 -4 -1
674 1 1 0.5897 4.239585833537561 15.989790780869905 3.8678457624082134 -4 -1 -4
120 1 1 0.5897 1.4334204613361572 15.393334773281701 0.7618955316004479 4 -4 -1
473 1 1 0.5897 4.736547403785529 16.01169404240239 1.3712047163891161 2 1 -1
119 1 1 0.5897 0.6222710668607431 14.25563033155314 1.3447101710877898 4 -4 -1
746 1 1 0.5897 2.606148859993797 13.64334608564017 1.0751462353446393 5 2 -6
719 1 1 0.5897 0.7406910516429561 12.397195681696745 6.194220274711782 3 3 1
755 1 1 0.5897 2.611639232672904 13.02689698234558 8.177389013726494 -6 1 -5
756 1 1 0.5897 3.953576163157325 13.606149621509402 7.782839963507542 -6 1 -5
168 1 1 0.5897 2.206492349851234 16.578307528070802 7.546897728195727 0 1 5
260 1 1 0.5897 4.483882784820816 13.755487067427952 9.826697047020538 1 -2 6
718 1 2 -1.1794 1.2756499987138312 12.168559562769634 6.954364155476312 3 3 1
714 1 1 0.5897 0.9807984863006483 15.903413530416195 9.47713848371709 -4 -1 3
713 1 1 0.5897 0.8592558273063186 15.07283757371637 10.737030790783342 -4 -1 3
754 1 2 -1.1794 3.510111164256089 13.136090400446585 8.488996505165641 -6 1 -5
813 1 1 0.5897 3.667545985433223 15.645200388257845 6.22604238085789 -4 3 -3
811 1 2 -1.1794 2.7121436690982295 15.622635443107844 6.171638727880339 -4 3 -3
591 1 1 0.5897 2.4819475651054406 16.33198380415245 15.574435848491737 1 5 -1
130 1 2 -1.1794 1.6834832174945178 14.195455652775792 12.081010918231309 -3 2 2
809 1 1 0.5897 4.01645382335689 14.278768811983213 14.57349785692527 5 -2 -1
132 1 1 0.5897 1.8672208955572616 13.277358590703386 12.280017189124585 -3 2 2
131 1 1 0.5897 1.0326005906733537 14.456618352734903 12.732471787122224 -3 2 2
271 1 2 -1.1794 3.6322122529176553 16.10238462772577 11.642258905211309 -1 3 2
589 1 2 -1.1794 2.093727984773477 15.562549682854149 15.991007006116229 1 5 -1
99 1 1 0.5897 0.8853801645807124 14.491657693480128 14.918052104765323 6 -7 6
450 1 1 0.5897 4.321786111751424 12.107718472402382 12.34821128444958 4 -3 -5
273 1 1 0.5897 4.294042626072645 15.58922068716622 11.178682816467134 -1 3 2
367 1 2 -1.1794 2.915812428768143 12.846568588641293 15.090405482795639 8 5 -2
810 1 1 0.5897 4.536324684718826 15.68451603789702 14.360035966712067 5 -2 -1
272 1 1 0.5897 2.9490322028645544 15.469365586311389 11.863182782840664 -1 3 2
369 1 1 0.5897 2.120937282144383 12.404172692598507 15.388375091066019 8 5 -3
368 1 1 0.5897 3.631403294637665 12.314349307753382 15.438208857106947 8 5 -2
222 1 1 0.5897 3.535652107886466 16.68936207440432 13.257920611773269 4 -3 4
624 1 1 0.5897 1.41280409862818 12.10743940107661 19.023667067248894 3 -1 0
623 1 1 0.5897 2.8389194654239978 12.564246167643578 18.801216523711208 3 -1 0
397 1 2 -1.1794 2.1869660334200693 16.391109246096605 20.129062242977973 4 4 -5
622 1 2 -1.1794 2.3224966463160004 11.840348249495293 19.155526368031353 3 -1 0
399 1 1 0.5897 2.6066385584351117 15.823679061139192 19.48240892187666 4 4 -5
721 1 2 -1.1794 3.387091546086462 14.303829660995229 18.333114683968514 1 -2 1
407 1 1 0.5897 0.7438755406842272 16.207272368599206 18.98644127135385 -2 -2 2
747 1 1 0.5897 2.5706804094135656 12.756865523323585 20.87332273669487 5 2 -7
590 1 1 0.5897 1.5999355272694458 15.914225219778015 16.73181418910131 1 5 -1
722 1 1 0.5897 3.0774137471542655 14.573630847512032 17.468495643659974 1 -2 1
474 1 1 0.5897 3.8168347366719946 16.376295851171292 21.250187949044108 2 1 -2
723 1 1 0.5897 4.268778246088617 13.965265230293252 18.17736603497805 1 -2 1
138 1 1 0.5897 4.739121443769809 13.203653068406553 21.08581664295186 7 -7 0
472 1 2 -1.1794 4.741980651319701 16.313174409537417 21.487626387092465 2 1 -2
426 1 1 0.5897 3.0032372835280667 19.29019893299547 2.6526983931182544 8 -4 0
460 1 2 -1.1794 2.2653567537229153 21.246414338252702 3.155809434309457 4 1 -1
424 1 2 -1.1794 3.509037044343271 18.480045053877458 2.7166395474284846 8 -3 0
766 1 2 -1.1794 1.6829970076193952 17.600560806696993 4.723164755983843 -1 -2 -1
425 1 1 0.5897 2.9727475772966314 17.82626461363762 2.268056021934782 8 -3 0
767 1 1 0.5897 2.2549543207498846 18.024908080550148 4.083583741596771 -1 -2 -1
768 1 1 0.5897 1.510362227882901 18.277773448838143 5.377259842648709 -1 -2 -1
828 1 1 0.5897 2.5647812501160896 21.350785066336783 5.011238150622708 2 2 2
541 1 2 -1.1794 1.2942238999423124 18.52205527084245 1.1011533738805412 -1 -1 4
461 1 1 0.5897 3.153633556547466 21.589467955458392 3.058031637445394 4 1 -1
543 1 1 0.5897 0.7341895409563746 18.988516427415096 1.7216823093359457 -1 -1 4
491 1 1 0.5897 0.5526776555920033 21.024208239026823 5.316536133285125 1 3 4
838 1 2 -1.1794 0.6904042927308074 19.435853685816532 6.880431052808211 -2 -3 -3
228 1 1 0.5897 4.3224036350674115 19.128574307475937 6.955970375988955 2 -2 3
180 1 1 0.5897 2.029359198281786 18.368539741949164 10.428778729769588 -9 0 0
226 1 2 -1.1794 4.620035396658153 19.50533398930687 6.127867554836271 2 -2 3
827 1 1 0.5897 3.474712984326871 21.04135975851191 6.180992630769664 2 2 2
508 1 2 -1.1794 4.110715340099183 18.761211790366453 8.803110965423267 5 -1 2
510 1 1 0.5897 3.6851373702154984 19.209513551581537 9.533976097868944 5 -1 2
840 1 1 0.5897 0.7559119222248334 18.68016400402957 7.464298902703374 -2 -3 -3
467 1 1 0.5897 1.214215242055555 20.838769352172832 8.947211734630631 4 -2 3
167 1 1 0.5897 2.8295647806058715 17.49846690853058 8.57503595546454 0 1 5
466 1 2 -1.1794 1.9485676964003347 21.40543958465015 8.710828385798619 4 -2 3
468 1 1 0.5897 2.0534484476393073 21.281406928193597 7.767497014645742 4 -2 3
166 1 2 -1.1794 1.990129732961814 17.131710840175586 8.297378100217475 0 1 5
826 1 2 -1.1794 2.67067198241763 21.506476090790976 5.9497634968357 2 2 2
220 1 2 -1.1794 3.693956662505106 17.13513115841674 14.090087229534594 4 -3 4
58 1 2 -1.1794 3.1931233300445063 20.045383182127964 14.90540586459174 4 -1 -2
70 1 2 -1.1794 3.970910490253166 20.885183429519167 11.824118936438095 3 1 -5
71 1 1 0.5897 3.2358301988724927 21.498289575507712 11.828082620028578 3 1 -5
59 1 1 0.5897 2.617858224724973 19.738968968475447 14.204376597196015 4 -1 -2
72 1 1 0.5897 3.574881635567273 20.036970643656705 11.624226529540602 3 1 -5
221 1 1 0.5897 4.249888140878715 17.880041761554313 13.861358654516856 4 -3 4
707 1 1 0.5897 1.4700673048189659 18.9355850041886 12.44504204781064 1 -4 -9
706 1 2 -1.1794 1.2018367372865169 19.315111251067584 13.281866201009962 1 -4 -9
60 1 1 0.5897 3.574632971114688 20.85507295128843 14.566122917934798 4 -1 -2
644 1 1 0.5897 4.366456378943692 19.515613791732676 16.228169981356903 4 -3 -1
708 1 1 0.5897 0.49727845208183297 19.92215502742314 13.055242872933027 1 -4 -9
179 1 1 0.5897 3.153783143991905 17.75238995285481 11.233760733583038 -9 0 0
431 1 1 0.5897 1.9826645624594383 19.829803911876926 16.304086371078487 -5 0 0
178 1 2 -1.1794 2.641051920986971 18.555366574265413 11.140956575965994 -9 0 0
432 1 1 0.5897 1.9332164422506253 19.65929705169393 17.807565892569603 -5 0 0
671 1 1 0.5897 3.2673315598068893 19.18781799614121 19.684887429092438 8 1 0
672 1 1 0.5897 3.836992457023282 18.692125014563036 18.372725079152353 8 1 0
430 1 2 -1.1794 1.374814814332863 19.79994155553391 17.04292818830863 -5 0 0
520 1 2 -1.1794 3.972249836752704 20.491273975840414 20.903490335012783 -2 0 -4
670 1 2 -1.1794 3.0714943243927744 18.61630540929445 18.9423952580535 8 1 0
521 1 1 0.5897 3.2404114625004374 21.108236394740633 20.90926763128401 -2 0 -4
398 1 1 0.5897 2.446377027385001 17.276901105159794 19.875400994051883 4 4 -5
522 1 1 0.5897 4.731228691838659 21.01685099978245 21.156431755889994 -2 0 -4
245 1 1 0.5897 2.8091571769862775 21.58621460426986 17.154602603382028 -4 2 -2
321 1 1 0.5897 0.5972818110892294 20.73081488802094 19.79741054793093 1 -2 0
542 1 1 0.5897 1.0737855283809328 18.898409229471024 21.274012417134227 -1 -1 3
396 1 1 0.5897 7.468980649755889 5.721791724965004 5.674033894959364 3 0 5
336 1 1 0.5897 6.856314819071179 5.4872114656241315 2.1657918964607195 8 0 4
335 1 1 0.5897 5.6189296616286315 6.350487728657865 2.0409350174059275 8 0 4
394 1 2 -1.1794 7.960706007996662 5.609445426540833 4.860495419023915 3 0 6
395 1 1 0.5897 7.354828032338125 5.8873894333028405 4.1735293046144 3 0 6
334 1 2 -1.1794 6.285254326461392 6.068765549652036 2.6677634314052456 8 0 4
194 1 1 0.5897 8.153784119194595 3.776430086532807 0.940804604584051 0 -3 1
836 1 1 0.5897 4.973017373945325 5.00288829715098 3.571020743393765 0 3 -2
193 1 2 -1.1794 7.935531878534738 3.9674107468361766 1.8530286480786362 0 -3 1
544 1 2 -1.1794 6.002029017495158 1.858226165385465 0.8596222028733085 -5 3 2
786 1 1 0.5897 5.455475417540368 1.7894137391470348 2.5847304964219173 4 6 5
94 1 2 -1.1794 8.916162011966458 2.6797578544726877 5.277270545455066 -4 2 -1
545 1 1 0.5897 6.956060709063057 1.7878332651971385 0.8932649105700614 -5 3 2
195 1 1 0.5897 8.545248389558347 4.660794532289403 2.105572605667346 0 -3 1
96 1 1 0.5897 8.42331159296872 2.2771317759962617 4.562255287056093 -4 2 -1
95 1 1 0.5897 8.862025709292542 3.6200426590919297 5.106386729479553 -3 2 -1
782 1 1 0.5897 9.088201728445519 1.6684511271535598 1.9923661884881978 -6 -3 2
784 1 2 -1.1794 4.799016228350293 1.8775986557177147 3.275778347402921 4 6 5
258 1 1 0.5897 5.676619624666253 2.849868476414046 7.8974870705604365 -3 1 -1
601 1 2 -1.1794 6.816498068711257 2.4668150392763746 9.40110288987587 1 4 -1
229 1 2 -1.1794 6.202633584415546 5.76121632033131 6.809787069089239 1 5 1
25 1 2 -1.1794 7.403563330540528 5.184365948355475 9.951001477195874 -2 7 6
231 1 1 0.5897 6.107383858471675 4.814125933609312 6.910793505162787 1 5 1
256 1 2 -1.1794 5.594586481092147 3.051579334493911 6.965371725259665 -3 1 -1
27 1 1 0.5897 7.75646567979333 5.028896369280279 10.827110109334429 -2 7 6
26 1 1 0.5897 7.0274833855012995 6.063441412176735 9.996267598477395 -2 7 6
603 1 1 0.5897 7.641866348185189 2.2784689040009214 8.954375143085226 1 4 -1
602 1 1 0.5897 6.869430149242431 3.3969348065539497 9.620957785383586 1 4 -2
230 1 1 0.5897 5.378275660352765 6.044494069557666 6.414256281354962 1 5 1
833 1 1 0.5897 6.15408498191293 1.7589611612707008 5.975446920116004 5 -2 2
636 1 1 0.5897 6.18808376300477 4.4175900452638 12.628407681507197 -6 2 1
338 1 1 0.5897 8.560968808645455 3.8624322183495963 12.613263891467522 -5 1 3
339 1 1 0.5897 8.367025644143911 5.315874873936162 12.989947653697037 -5 1 3
342 1 1 0.5897 6.2427015038049865 2.515358672060861 15.443642798741926 2 3 3
337 1 2 -1.1794 8.013649095928198 4.625723662019279 12.42861865263087 -5 1 3
236 1 1 0.5897 8.184364232905812 6.299260973426527 15.363491237706603 0 -3 -4
341 1 1 0.5897 7.675073046517148 2.9594861854852623 15.651280388132939 2 3 3
634 1 2 -1.1794 5.266452400812774 4.161468065913845 12.592817331811347 -6 2 1
340 1 2 -1.1794 6.799924005942681 3.022710698730368 16.033887147884126 2 3 3
235 1 2 -1.1794 8.969586970094644 6.284680367117581 14.81624706962519 0 -3 -4
295 1 2 -1.1794 9.103495116064463 2.1381066084116385 12.926076560057075 1 4 -2
665 1 1 0.5897 4.872583598888999 2.6010550027695736 13.816777248561749 4 1 1
188 1 1 0.5897 4.983043125260697 2.2092714725601734 18.274497795701468 -5 5 0
572 1 1 0.5897 6.451207053314826 5.904840185579954 19.955741220935895 3 -3 -3
489 1 1 0.5897 6.794080705870116 5.002726852078024 16.496556158897107 -1 -5 1
571 1 2 -1.1794 6.9196650819846095 6.5385645841478155 19.41236917907034 3 -3 -3
189 1 1 0.5897 6.213221212524115 2.9372268646583795 17.77578714313674 -5 5 0
593 1 1 0.5897 5.411723577878121 3.9594084590992216 19.790463180669988 -1 -1 -3
488 1 1 0.5897 6.809999132149961 5.977010932336754 17.655206698238572 -1 -5 1
487 1 2 -1.1794 6.9079358334353795 5.930192407425341 16.704168654960405 -1 -5 1
592 1 2 -1.1794 5.596292580865874 4.400987544932939 20.619480778005656 -1 -1 -3
187 1 2 -1.1794 5.794743074041658 2.6178614456378635 18.575253617758076 -5 5 0
22 1 2 -1.1794 8.53512620084333 2.9502994884047062 19.836411414055117 -4 2 1
75 1 1 0.5897 8.744509070700355 6.16604847364295 20.083078118646178 1 2 2
23 1 1 0.5897 7.643735212857173 2.7388601704657534 19.55893080674539 -4 2 1
177 1 1 0.5897 9.012122338633786 3.8172185973827015 18.384236546657068 4 -2 5
24 1 1 0.5897 9.02821340721002 2.141920109234983 19.696259339791332 -4 2 1
546 1 1 0.5897 5.837948388822327 2.746362492413348 21.567450574578714 -5 3 1
80 1 1 0.5897 5.199100501698944 8.24690743211011 4.6597660749183945 2 1 -3
125 1 1 0.5897 5.037476749397972 10.670476886478303 1.4697513689734993 1 2 4
56 1 1 0.5897 6.586005530347552 11.460865556011044 2.3900571864232507 -4 -2 3
772 1 2 -1.1794 8.451468225580314 8.623140237129178 3.276877695641616 1 -3 3
774 1 1 0.5897 7.568842784372221 8.464970084831457 3.61190521410922 1 -3 3
57 1 1 0.5897 6.159288255754415 10.566935024135132 3.5349768638881263 -4 -2 3
55 1 2 -1.1794 5.882575279191889 11.328722616237036 3.0256641842858687 -4 -2 3
79 1 2 -1.1794 5.733047605799283 8.693913941313003 4.002998920713221 2 1 -3
81 1 1 0.5897 5.849948285640716 8.046547731495139 3.3076526068190026 2 1 -3
773 1 1 0.5897 8.967881090039228 8.838728041024238 4.053482985040319 1 -3 3
553 1 2 -1.1794 7.854605413303906 7.933222449122365 7.0445528785930644 -5 -5 5
597 1 1 0.5897 5.403958429392985 10.700027298576792 9.071988238382625 0 -4 2
9 1 1 0.5897 6.598396683287594 11.074640600269241 7.402057383164592 3 -2 -1
8 1 1 0.5897 5.442569622917568 10.156322644145726 7.066333928819409 3 -2 -1
554 1 1 0.5897 7.411020767052261 8.777870873720095 7.1227608386929075 -5 -5 5
733 1 2 -1.1794 6.229909929024034 7.621787992409422 10.353669034958076 -1 -2 -5
92 1 1 0.5897 8.612056087600152 9.399220622053367 9.21125283662032 1 -6 3
7 1 2 -1.1794 6.290683516626997 10.174657693867184 7.509759023305053 3 -2 -1
697 1 2 -1.1794 7.311312468749996 10.192234041116954 10.813990049278102 -1 4 -2
734 1 1 0.5897 5.461614272155033 7.695138766041052 9.787438914295114 -1 -2 -5
698 1 1 0.5897 6.870233693238919 9.34532116575233 10.74694802958622 -1 4 -2
555 1 1 0.5897 7.152332918877782 7.286220240258019 7.111393792113858 -5 -5 5
380 1 1 0.5897 8.334631671847426 11.573748409400972 11.103380067865066 7 4 -1
402 1 1 0.5897 6.883668426345747 9.411156104232038 13.997743355923102 -2 -3 1
440 1 1 0.5897 5.021873432930891 7.833380974842206 12.925278147042285 1 1 0
760 1 2 -1.1794 8.473746619835085 8.66281528793985 13.531824058798605 2 -2 -1
429 1 1 0.5897 7.4684482468171165 11.657942527839536 14.212206845261598 2 0 -2
401 1 1 0.5897 5.715128449409672 10.047452920765306 13.275523051538928 -2 -3 1
186 1 1 0.5897 6.182506601558495 9.070838247904232 16.235810929540776 -4 6 3
400 1 2 -1.1794 6.181727081590315 10.051968893783735 14.111299552654687 -2 -3 1
735 1 1 0.5897 5.9055241486194285 7.18903635853436 11.143465821471763 -1 -2 -5
441 1 1 0.5897 5.5270227252387 7.043736704890135 14.114084005968174 1 1 0
237 1 1 0.5897 8.902036037259393 7.073706439113792 14.278530777786278 0 -3 -4
762 1 1 0.5897 8.71275173434694 8.450033849717219 12.629681069734078 2 -2 -1
507 1 1 0.5897 5.130598232150522 10.862977136300726 15.495339157562341 3 3 -2
439 1 2 -1.1794 5.7007582163322805 7.211749252728619 13.187874496702811 1 1 0
449 1 1 0.5897 5.033881185590262 11.545468164161948 11.136250024171524 4 -3 -5
699 1 1 0.5897 6.707494850007829 10.73807473480815 11.317712964036449 -1 4 -2
564 1 1 0.5897 9.025429161772056 9.031069795193623 16.2789396279583 3 -1 4
140 1 1 0.5897 6.608729264547362 9.53129084412171 19.730975714657898 -1 -1 -2
190 1 2 -1.1794 8.099690074261353 10.693397985411215 19.96872981911094 5 4 -5
139 1 2 -1.1794 5.724909656069972 9.181084678661612 19.84269728304238 -1 -1 -2
141 1 1 0.5897 5.287582882205049 9.811418744334278 20.41513595496338 -1 -1 -2
191 1 1 0.5897 8.888995086336484 10.214691286914078 20.22189482725785 5 4 -5
506 1 1 0.5897 5.270651407978682 11.11933408542624 16.980817244501452 3 3 -2
573 1 1 0.5897 6.354313365656379 7.310962192475565 19.403048552823076 3 -3 -3
89 1 1 0.5897 7.9127255639407155 11.595721043362884 21.54312320291634 8 -2 3
192 1 1 0.5897 8.323811123479523 11.100138627418014 19.13166994306651 5 4 -5
185 1 1 0.5897 6.788165319601456 7.762513875864183 16.697819846006922 -4 6 3
184 1 2 -1.1794 6.972829748566002 8.69912250191615 16.62758784766844 -4 6 3
1 1 2 -1.1794 7.734779654037473 16.034169798207785 2.1375381148892685 0 -5 3
88 1 2 -1.1794 7.659462292528272 12.325474720690101 1.0835262326012893 8 -2 4
2 1 1 0.5897 7.167698401810018 16.67218646497083 2.570679156409559 0 -5 3
281 1 1 0.5897 6.153709589018331 14.064745802389854 4.849431658922202 -2 -3 1
282 1 1 0.5897 6.2596453990920065 13.064126707025101 3.718259519195809 -2 -3 1
280 1 2 -1.1794 6.3522779738706445 13.996212946524176 3.915551566988996 -2 -3 1
3 1 1 0.5897 7.6003055802444965 15.22247387686266 2.6267454723304264 0 -5 3
557 1 1 0.5897 6.232295703983907 16.723615024955706 5.7202897012470055 2 0 2
675 1 1 0.5897 4.812563943908783 14.766973629227031 3.1833387090368013 -4 -1 -4
512 1 1 0.5897 8.404208655665343 15.252515419314209 5.908851157862965 -2 2 -4
266 1 1 0.5897 8.250268976216551 13.629881679501377 10.545591705899113 -1 1 -1
776 1 1 0.5897 6.097344039946479 16.16294353754776 9.62341583676965 2 -5 1
265 1 2 -1.1794 7.896213036924261 14.237285000194486 9.895976724026006 -1 1 -1
483 1 1 0.5897 5.714056245580709 13.601530557946138 6.944659261232867 -1 3 -1
267 1 1 0.5897 7.018132524738163 14.44521695811845 10.215367304135771 -1 1 -1
511 1 2 -1.1794 8.035309706741746 16.11739274853815 6.088175869132317 -2 2 -4
513 1 1 0.5897 8.48658178111286 16.411410382705768 6.879487902905577 -2 2 -4
164 1 1 0.5897 8.09815109331053 13.016648702449727 6.782111871519307 -3 1 -1
481 1 2 -1.1794 5.180553385352317 14.375703229335748 6.764795442531311 -1 3 -1
259 1 2 -1.1794 5.113784098641751 14.19303918703248 10.399450440856679 1 -2 6
775 1 2 -1.1794 6.187582599960839 16.44837291022497 8.714216061047571 2 -5 1
854 1 1 0.5897 8.196628327935766 16.30519981366141 8.560385081769597 -2 -1 1
165 1 1 0.5897 7.5347047554547695 13.41534318843546 8.12954875672109 -3 1 -1
482 1 1 0.5897 5.51152119865053 15.040705510500661 7.368579925494169 -1 3 -1
163 1 2 -1.1794 7.388592589190872 12.820505696230857 7.393964469009435 -3 1 -1
463 1 2 -1.1794 8.735662907980613 16.28783571474733 15.212543340720588 8 2 -2
534 1 1 0.5897 7.620114667980874 13.428622759577566 15.930125412619182 -6 -1 -2
560 1 1 0.5897 5.736229761881461 15.962947872683172 15.824601871540144 5 1 2
123 1 1 0.5897 6.270329652996965 14.56228163963729 13.694802345204804 1 -2 1
427 1 2 -1.1794 8.12585204170192 12.34422927668673 14.326717855001423 2 0 -2
464 1 1 0.5897 8.883109361111304 16.440262071951015 14.279108253957922 8 2 -2
121 1 2 -1.1794 7.027532442172298 14.386044583025791 13.136368316302455 1 -2 1
122 1 1 0.5897 7.057770547393907 15.127678744062539 12.531948504540724 1 -2 1
535 1 2 -1.1794 7.257615069481749 16.848862784165085 11.721398673554322 4 6 3
559 1 2 -1.1794 6.102847441922049 16.78113231769728 16.159956545037303 5 1 2
428 1 1 0.5897 7.834328047566469 13.053793300175847 13.754140941530466 2 0 -2
808 1 2 -1.1794 4.816766014317077 14.802910590850686 14.605807522331673 5 -2 -1
379 1 2 -1.1794 8.831970275347263 12.314522354940959 11.450029872605967 7 4 -1
448 1 2 -1.1794 5.186053641134005 11.842830320353505 12.033308701058159 4 -3 -5
533 1 1 0.5897 7.783056523168109 14.917756430788332 16.149117232705553 -6 -1 -2
261 1 1 0.5897 5.226479703259866 13.591921790158219 11.135823744186125 1 -2 6
136 1 2 -1.1794 5.5921704394800305 13.480334110403668 20.751132865275064 7 -7 0
137 1 1 0.5897 5.574240521180479 14.435659370195248 20.808843378120937 7 -7 0
45 1 1 0.5897 6.397071609510274 13.26575562091401 17.73626618818763 1 7 -1
216 1 1 0.5897 6.4203859774604455 16.37222655428729 18.18609892805366 -2 0 2
44 1 1 0.5897 5.64384045031358 12.954745868028436 19.012151704982415 1 7 -1
214 1 2 -1.1794 7.01831341835677 16.606734646716845 18.895853108955095 -2 0 2
43 1 2 -1.1794 5.6084119874471385 12.832996098617663 18.063373383724183 1 7 -1
232 1 2 -1.1794 8.657261896461286 15.09506269472439 20.411710196530795 -2 1 0
234 1 1 0.5897 8.35020846190488 15.578342123591941 21.17879650785415 -2 1 0
233 1 1 0.5897 8.16504729448938 15.467920079845891 19.680298398396943 -2 1 0
532 1 2 -1.1794 7.445957701686222 14.123968732477937 16.564508838679192 -6 -1 -2
90 1 1 0.5897 7.013120877769227 12.812192853842673 21.59696896728283 8 -2 3