LAMMPS data file via write_data, version 30 Jul 2021, timestep = 3000000

864 atoms
2 atom types
576 bonds
1 bond types
288 angles
1 angle types

0.4515185040642624 17.75605389592984 xlo xhi
1.6233604271244513 22.005817372869956 ylo yhi
0.5508515203334969 21.66234427966954 zlo zhi

Masses

1 1.00794
2 15.9994

Pair Coeffs # lj/cut/tip4p/long/omp

1 0 0
2 0.21084 3.1668

Bond Coeffs # harmonic/omp

1 450 0.9572

Angle Coeffs # harmonic/omp

1 55 104.52

Atoms # full

350 1 1 0.5897 0.9080251954172253 6.034924266990334 5.4986149264202675 -9 2 -3
60 1 1 0.5897 4.467348687145269 4.8778931140531085 3.6215351220024665 4 -1 -3
161 1 1 0.5897 3.581421766416921 2.223748596349854 3.3121669740003856 3 7 1
223 1 2 -1.1794 1.2466133580203786 3.308328027243311 2.0096379514182177 2 0 -7
77 1 1 0.5897 2.0463643231753545 6.295715271106312 1.7598459834899405 -6 -5 -3
349 1 2 -1.1794 1.8412342179196874 5.871852111749367 5.361276118867286 -9 2 -3
309 1 1 0.5897 2.6182387484171143 2.6014186938991526 1.0833197349186756 0 5 -1
58 1 2 -1.1794 4.699456414230095 5.8028662646041465 3.5388178238365757 4 -1 -3
162 1 1 0.5897 3.2806616488873996 2.8513350502402313 4.656691109661767 3 7 1
224 1 1 0.5897 1.3033699922949107 4.260840197634554 2.08587144374595 2 0 -7
160 1 2 -1.1794 3.7425690590720615 3.01024273035708 3.83347372539353 3 7 1
351 1 1 0.5897 1.9628692111704238 5.955604301825697 4.4154836856518775 -9 2 -3
76 1 2 -1.1794 1.380923375835558 6.021352954235443 2.390893924917973 -6 -5 -3
78 1 1 0.5897 0.5854440566532058 6.476051525146599 2.113805541902204 -6 -5 -3
225 1 1 0.5897 1.005375601791954 3.0112865569106475 2.8870644454727334 2 0 -7
283 1 2 -1.1794 3.2701305710653967 6.086588461240174 9.176312389446167 6 0 -2
285 1 1 0.5897 3.5311396605241656 6.123806067078491 8.256097056961574 6 0 -2
770 1 1 0.5897 3.503812245146382 3.1400470294648004 6.37559814480174 3 0 0
284 1 1 0.5897 2.8368037857703308 5.238074572985698 9.268733411530278 6 0 -2
706 1 2 -1.1794 2.1628306828181945 3.479630474151633 9.24725427678493 0 -2 -7
708 1 1 0.5897 2.2989778444482356 3.159000258742462 10.138858387115878 0 -2 -7
707 1 1 0.5897 2.5435579989518264 2.802488355669733 8.687948667549655 0 -2 -7
840 1 1 0.5897 1.2401492255561637 2.1453117028755084 6.745750299292654 -3 -2 -2
769 1 2 -1.1794 2.5640011655608883 3.092981699336351 6.200012085767273 3 0 0
650 1 1 0.5897 4.204257793819837 6.506632941685033 10.670121059165057 1 -1 0
724 1 2 -1.1794 4.394941374406915 6.6824289680580025 6.384849698763832 2 -4 2
771 1 1 0.5897 2.3213505426740655 3.984929317269609 5.951335862902824 3 0 0
725 1 1 0.5897 3.5630174770414564 6.602827252889024 5.918098686943027 2 -4 2
812 1 1 0.5897 0.752090040967738 2.5789761042912644 12.932611582843249 -4 5 -3
317 1 1 0.5897 2.0432002980424633 4.722656256657472 13.109121905884548 -5 -4 -1
100 1 2 -1.1794 4.74939794430864 4.014040762201663 13.99360448102799 7 -5 -2
550 1 2 -1.1794 3.6485397722309565 3.1147102556597988 11.6180174072279 -2 8 -4
102 1 1 0.5897 3.9500020353161442 4.190531074095967 14.48970028743124 7 -5 -2
316 1 2 -1.1794 2.0911752182374963 5.66613005114784 12.954681648393768 -5 -4 0
318 1 1 0.5897 2.993302846611451 5.817575753819516 12.672660375243296 -5 -4 0
552 1 1 0.5897 3.4306112482452678 2.1869379174270476 11.707679509880629 -2 8 -4
811 1 2 -1.1794 1.1839331437204992 2.873251587532452 13.73461308908548 -4 5 -3
649 1 2 -1.1794 4.581534029698551 6.653503682482373 11.537521431284476 1 -1 0
237 1 1 0.5897 3.944444986884632 6.659057125465851 14.45467407425478 0 -2 -4
551 1 1 0.5897 4.179860696009843 3.3120583334905302 12.38943079036565 -2 8 -4
813 1 1 0.5897 0.48068996305435935 3.2559253012657776 14.259312209502275 -4 5 -3
61 1 2 -1.1794 3.4191543877005883 5.353579771835021 16.14701252714943 -2 0 4
306 1 1 0.5897 2.2040566929177015 4.143158490280065 19.907385194955665 5 -2 -6
501 1 1 0.5897 1.1165176171172728 5.755795125005249 18.43988395728595 -1 0 -3
63 1 1 0.5897 4.070350753976573 5.930844302052087 16.545810978347994 -2 0 4
787 1 2 -1.1794 4.065333739931291 5.770547956941814 19.88298005727338 2 -1 5
308 1 1 0.5897 3.26139366143078 1.6777235166244158 21.182299975938648 0 5 -2
806 1 1 0.5897 4.403317532866724 4.30114694004879 18.828248488345984 2 0 -4
304 1 2 -1.1794 1.2671622895744248 4.261275273991078 19.75050329522753 5 -2 -6
266 1 1 0.5897 1.1314402637173453 3.075529941475568 18.50770708649638 -3 2 -2
305 1 1 0.5897 0.8567102398932116 4.070761410502193 20.59403391562413 5 -2 -6
499 1 2 -1.1794 1.2697956912025 6.16566829920398 17.58853241751961 -1 0 -3
807 1 1 0.5897 4.051888494846857 4.218902560900737 17.357951716968017 2 0 -4
805 1 2 -1.1794 4.461008231603328 3.723237969192286 18.067338011697643 2 0 -4
62 1 1 0.5897 2.6133392601792447 5.528870737942986 16.633075603318055 -2 0 4
788 1 1 0.5897 4.4905472563781785 6.289842739897259 19.200470326627958 2 -1 5
307 1 2 -1.1794 3.287629892588934 2.576362219975597 21.511013111433265 0 5 -2
765 1 1 0.5897 3.986952529695663 1.826212445964123 18.033262529724503 -3 1 -3
265 1 2 -1.1794 0.9753989617269928 2.639715092027426 17.66981713360375 -3 2 -2
267 1 1 0.5897 1.7950166519176507 2.182835821499326 17.480607034899165 -3 2 -2
789 1 1 0.5897 4.605697093674459 5.9082868136284965 20.661022891068733 2 -1 5
197 1 1 0.5897 4.151810853973293 7.6497986069839925 3.581784732100369 -2 -3 0
198 1 1 0.5897 4.271462281854381 9.034356424704706 4.1824391899916264 -2 -3 0
32 1 1 0.5897 1.6421981648238324 8.71730232147696 3.9476430876420934 5 6 1
296 1 1 0.5897 4.056756710069866 8.9685205433099 2.155714570508551 0 3 1
357 1 1 0.5897 1.9305830120848142 10.417532739056682 4.946189154304433 0 -1 5
295 1 2 -1.1794 4.612207923194799 9.16024045051752 1.4000428959037556 0 3 1
196 1 2 -1.1794 3.6772216770948556 8.475039907230467 3.6821015054257042 -2 -3 0
355 1 2 -1.1794 2.399543953423063 10.75858630262622 5.707799964576007 0 -1 5
445 1 2 -1.1794 0.6989156003038771 11.741806261051885 3.4561955504139115 1 0 -1
356 1 1 0.5897 3.324288815136918 10.69299751639606 5.469393192303901 0 -1 5
31 1 2 -1.1794 0.7933721106979896 8.912449934117697 4.344793677225184 5 6 1
55 1 2 -1.1794 0.724152318354722 11.550896833040822 0.6670488343462138 -2 -1 2
33 1 1 0.5897 0.5739910582467804 9.787422326647615 4.0244670279432615 5 6 1
792 1 1 0.5897 2.344611632749131 9.193108381704555 11.017175997116654 1 5 -2
774 1 1 0.5897 2.820274440213818 9.452016388368055 6.868371585312099 1 -4 4
91 1 2 -1.1794 1.387015473773928 8.093271577319328 9.7790100852912 1 -6 2
92 1 1 0.5897 1.5507845459428822 8.6920178095593 9.050320831281267 1 -6 2
562 1 2 -1.1794 0.9166127125782418 10.906357395968428 8.45790064583827 4 1 4
772 1 2 -1.1794 3.3183790416577694 8.955533024044481 7.517747470353272 1 -4 4
324 1 1 0.5897 3.5875801255076984 11.031895262061584 9.962506440591378 6 -3 -1
564 1 1 0.5897 0.49917495713813453 10.98762075107405 9.315477721521289 4 1 4
93 1 1 0.5897 1.9556666179003588 7.343017527106821 9.605604924034168 1 -6 2
773 1 1 0.5897 3.7799341464896976 8.289458448201641 7.008234168218381 1 -4 4
323 1 1 0.5897 2.775040080255664 11.469771522718771 8.762469477387414 6 -3 -1
563 1 1 0.5897 0.6172575567673142 11.674542498250226 7.971514809049634 4 1 4
322 1 2 -1.1794 3.37147286360842 11.800355237952704 9.434243897725556 6 -3 -1
287 1 1 0.5897 1.188682838794226 6.96698558188149 13.979841836258027 4 1 1
835 1 2 -1.1794 2.0928110914428837 9.973518249455388 14.136443098939345 0 2 -2
791 1 1 0.5897 2.6025815446815166 9.764372720774698 12.395283224420396 1 5 -2
836 1 1 0.5897 2.9035889299762236 9.88064821593667 14.63677834357976 0 2 -2
627 1 1 0.5897 4.3004089206329486 8.82278505518163 15.168273377230955 -3 -3 3
625 1 2 -1.1794 4.252038981218477 9.637508268779705 15.668467400297754 -3 -3 3
479 1 1 0.5897 4.609057497018168 11.426243440401844 15.729344088824718 -3 2 -4
837 1 1 0.5897 1.6023575318412555 9.173042150389039 14.323486446756082 0 2 -2
235 1 2 -1.1794 4.477187324733375 7.393928861538787 14.150624861696405 0 -2 -4
236 1 1 0.5897 4.634473015779168 7.209384148670625 13.224608606625525 0 -2 -4
286 1 2 -1.1794 0.6187011810815464 7.5816604429127175 14.442005747678124 4 1 1
790 1 2 -1.1794 2.8998683310747433 9.815546701005937 11.486816857043285 1 5 -2
359 1 1 0.5897 4.764745615477876 9.430234400415824 11.647621654677687 4 0 -4
440 1 1 0.5897 1.0218089421017753 11.536415513286437 13.463225807788813 1 0 -2
637 1 2 -1.1794 2.0089124002820355 7.3386645018235015 20.794122979304255 -6 1 3
269 1 1 0.5897 1.7454725299234357 9.488622650566782 17.31501847858003 1 5 5
166 1 2 -1.1794 2.8129368281771576 9.932762592282774 20.390048774887987 -1 1 4
270 1 1 0.5897 2.735897258227016 9.522391520666421 18.459564626648806 1 5 5
57 1 1 0.5897 1.327896651536351 11.022042739066396 21.256902216742326 -2 -1 1
168 1 1 0.5897 3.548780717919532 9.691938665866923 20.952931945153175 -1 1 4
268 1 2 -1.1794 2.540087269791846 9.06611183631936 17.641172744787966 1 5 5
167 1 1 0.5897 3.0662493762522605 10.774398683991244 20.010868372185442 -1 1 4
626 1 1 0.5897 3.809128145962204 9.39409333580347 16.48141401545114 -3 -3 3
500 1 1 0.5897 1.6441059079699933 7.021401075284913 17.798064790679597 -1 0 -3
639 1 1 0.5897 2.274699184930612 8.243253287073077 20.628457977643244 -6 1 3
638 1 1 0.5897 2.6194936914182603 6.811033826437289 20.279251934410993 -6 1 3
165 1 1 0.5897 2.2692584819590524 11.992014291578148 2.7183306121418087 -3 2 1
164 1 1 0.5897 3.0244914238981546 12.502726732348826 1.5096499218789734 -3 2 1
227 1 1 0.5897 0.8700211095179249 14.102060288899958 4.914938529385706 4 -2 2
163 1 2 -1.1794 3.153796907547942 12.10212940620151 2.3693857759822747 -3 2 1
178 1 2 -1.1794 4.3768270447517 14.201056927799645 3.9106099419523295 -7 1 0
180 1 1 0.5897 3.955460362547625 15.050882969621059 3.781971954763125 -7 1 0
179 1 1 0.5897 3.9847647558279675 13.635597390122335 3.245135022589414 -7 1 0
222 1 1 0.5897 3.225045677476967 13.772985098572365 5.251585431920548 4 -3 4
561 1 1 0.5897 1.5699595751201798 15.721656624452201 0.802689541000089 4 0 2
559 1 2 -1.1794 1.752650043143501 14.887473923858503 1.235187107946874 4 0 2
619 1 2 -1.1794 2.950192298188714 16.42157462812564 3.0953019446375096 1 -2 4
621 1 1 0.5897 2.680046791178034 15.771812855873804 2.446362661229692 1 -2 4
221 1 1 0.5897 2.425469161589131 12.607006077715658 5.7930753178576335 4 -3 4
220 1 2 -1.1794 2.4025297033886526 13.558591972049623 5.6918189557724315 4 -3 4
447 1 1 0.5897 0.47167813544376713 12.53069273994843 3.9484502260162992 2 0 -1
560 1 1 0.5897 2.4215294206603226 14.47511868818244 0.6884667126180091 4 0 2
382 1 2 -1.1794 1.5473674872241772 13.903588930017072 10.080776708495604 -9 -2 -2
641 1 1 0.5897 0.6656779239199387 13.669653066166452 8.624674390700754 4 1 -4
383 1 1 0.5897 1.8966720768171026 14.595329819409654 9.518841076222143 -9 -2 -2
218 1 1 0.5897 4.470652885465766 16.55300991102001 6.269521787041861 4 -1 -2
820 1 2 -1.1794 2.373096161399154 15.57936199032463 8.176185832504093 2 2 6
384 1 1 0.5897 2.208297441786747 13.211887313187802 10.048954753247498 -9 -2 -2
821 1 1 0.5897 2.6695354062025975 16.465864079305998 8.382441633786705 2 2 6
822 1 1 0.5897 3.1159139731374057 15.176450054233296 7.726536621846101 2 2 6
642 1 1 0.5897 0.7272353853486493 13.914290989498689 7.131884133310537 4 1 -4
854 1 1 0.5897 1.319132314943074 16.508612334371968 7.098786084029975 -2 0 2
399 1 1 0.5897 0.612717214605091 16.466559439459168 12.44752619745993 5 3 -5
743 1 1 0.5897 3.847797690792482 13.495393675735293 13.189119869472519 -2 0 1
744 1 1 0.5897 2.339329675409961 13.376611889224145 13.139239755793248 -2 0 1
742 1 2 -1.1794 3.043727862755364 13.98064402271997 13.374339303149224 -2 0 1
171 1 1 0.5897 3.4761918072229703 15.43572192166828 12.85029417625934 -3 3 -2
111 1 1 0.5897 2.750942110642206 14.64663959922773 15.316462821672834 -1 -1 -7
169 1 2 -1.1794 3.837795882012733 16.306794021563476 12.686674708208407 -3 3 -2
109 1 2 -1.1794 2.9208686690816226 14.45801810251079 16.23941584184784 -1 -1 -7
110 1 1 0.5897 3.5106897814929083 13.704209543223685 16.225675963803866 -1 -1 -7
170 1 1 0.5897 4.532656151481174 16.161456079816105 12.044533738978716 -3 3 -2
439 1 2 -1.1794 0.778222944578339 12.321052304702672 12.972000888758537 1 0 -2
398 1 1 0.5897 2.0565795003649336 16.732275119411398 12.817297269377308 5 3 -5
833 1 1 0.5897 4.082785416141643 12.07314304499279 17.979070371689332 3 -2 -1
272 1 1 0.5897 2.039602028453693 15.840029988370668 18.87470208754346 -2 3 3
138 1 1 0.5897 4.168222185080047 13.219532458093692 20.344414733978674 8 -8 0
834 1 1 0.5897 2.916735858397164 12.863760224757758 18.533415497271513 3 -2 -1
594 1 1 0.5897 3.809496295026784 15.658507026742036 20.240874251913368 -2 0 -3
271 1 2 -1.1794 2.072566488720394 14.952801823462888 19.23252930599012 -2 3 3
832 1 2 -1.1794 3.660224893390602 12.323331557754608 18.80074043833148 3 -2 -1
592 1 2 -1.1794 4.305641815992639 16.47206101864326 20.149803979562797 -2 0 -3
230 1 1 0.5897 3.932574610417855 15.668034928270758 17.316350207582133 3 3 0
136 1 2 -1.1794 4.054722025348891 13.765495654788257 21.12244563158771 8 -8 0
273 1 1 0.5897 1.154711659920868 14.700743808498888 19.33410261120028 -2 3 3
593 1 1 0.5897 4.372033038617209 16.6081643563791 19.204624132981287 -2 0 -3
658 1 2 -1.1794 0.5997911686858793 13.04979066867699 17.089446364674018 2 -1 3
660 1 1 0.5897 1.3595562742005445 13.470987909542233 16.687399998150127 2 -1 3
229 1 2 -1.1794 4.759049882055235 16.119162858320664 17.488776436978604 3 3 0
451 1 2 -1.1794 3.8461631130747094 17.88541659399346 5.305395509169791 -1 0 5
453 1 1 0.5897 4.572091617227114 17.939610905120432 4.683799884503988 -1 0 5
425 1 1 0.5897 3.8888820955865517 20.657375480822843 4.043405202372529 8 -4 0
426 1 1 0.5897 2.4434075376807174 20.608255029395657 3.595802595727356 8 -5 0
633 1 1 0.5897 3.9072446358398665 19.242369602827402 2.1198969416001994 3 2 4
631 1 2 -1.1794 4.144263988513331 18.459288153378452 1.6229929101949065 3 2 4
452 1 1 0.5897 3.093494739258798 17.6269460155615 4.773441915528747 -1 0 5
246 1 1 0.5897 1.169062747461194 18.428738147135157 0.6320807688524981 -4 1 -1
461 1 1 0.5897 0.7213971483759589 17.225932014230175 3.1828864980578033 2 3 -1
424 1 2 -1.1794 3.3401180661957435 20.605465335883515 3.2607804623562937 8 -4 0
667 1 2 -1.1794 0.5042609323195175 20.233694496966947 3.5354626578129174 -7 -3 1
620 1 1 0.5897 3.3797589274627775 17.1073044136699 2.583890260642528 1 -2 4
632 1 1 0.5897 4.62874579395495 18.79203618609793 0.8674255049093705 3 2 4
105 1 1 0.5897 2.463920979849644 20.72401049776196 8.254142010631558 4 -1 6
103 1 2 -1.1794 2.985286134822697 21.346624199466262 8.76091791344644 4 -1 6
191 1 1 0.5897 1.3299389236430277 18.792746172428224 6.926255581442441 4 3 -5
528 1 1 0.5897 4.1929327636594085 18.476962530994676 8.8876466693196 -4 -5 0
527 1 1 0.5897 2.924368943137299 18.32414336183421 9.699710243279432 -4 -5 0
104 1 1 0.5897 2.9036279052789604 21.046980793985767 9.66637379931918 4 -1 6
566 1 1 0.5897 4.52891638976629 20.390428720621728 8.377684716792155 -1 5 -6
190 1 2 -1.1794 1.9238945881820928 19.541687439626685 6.875189982901683 4 3 -5
192 1 1 0.5897 2.7120026370277825 19.19489210942789 6.456951729660744 4 3 -5
526 1 2 -1.1794 3.689770699743034 17.838142269631255 9.392655494300222 -4 -5 0
571 1 2 -1.1794 1.051261814701788 18.896252289199303 9.756368131520883 3 -4 -3
572 1 1 0.5897 0.49315284155780814 19.67366981720314 9.735023882848433 3 -4 -3
853 1 2 -1.1794 0.6809123845456574 17.055341162843376 6.640466873146927 -2 0 2
250 1 2 -1.1794 2.794740722150928 20.783685358834916 11.431623876042849 3 -3 1
850 1 2 -1.1794 2.0860067404639375 20.826886608011925 15.106858325800612 -6 -1 -2
851 1 1 0.5897 3.037916600938765 20.8391311930599 15.006782090678149 -6 -1 -2
852 1 1 0.5897 1.8073860333222838 21.708807753044958 14.86011613132888 -6 -1 -2
541 1 2 -1.1794 4.053198778766339 19.05752246719335 13.138385627537103 -3 0 3
435 1 1 0.5897 3.7897206608495297 18.865447196269493 15.296099930299185 1 4 -2
397 1 2 -1.1794 1.1661830894104672 17.05069513801838 12.965963889758708 5 3 -5
22 1 2 -1.1794 4.773104763388911 21.741383370098028 15.269764021132033 -4 1 2
251 1 1 0.5897 1.8975639655444752 20.496654373549696 11.601912210282103 3 -3 1
252 1 1 0.5897 3.3355541458072695 20.224713306269578 11.989633171090182 3 -3 1
543 1 1 0.5897 3.9393207125846996 18.135003770046076 12.909707982534796 -3 0 3
728 1 1 0.5897 1.0211670115096902 18.82735044411178 12.843754708182624 -1 0 0
729 1 1 0.5897 1.299998985313819 20.057757809372816 13.680661781207322 -1 0 0
510 1 1 0.5897 0.7710105745123503 19.656413771966633 15.974008111813143 5 -2 3
727 1 2 -1.1794 0.693586880194234 19.707726706050174 13.02794038524927 -1 0 0
433 1 2 -1.1794 3.732311479605427 18.773624735846823 16.24720415092024 1 4 -2
122 1 1 0.5897 4.055233219154207 20.136763828603478 20.726404261004 0 -3 0
244 1 2 -1.1794 1.6092550888335189 17.59376341565506 21.58432071152157 -4 1 -2
248 1 1 0.5897 2.477237065171813 18.062335238386012 17.555248371758815 -1 1 -4
764 1 1 0.5897 3.4965068797797625 21.03480658816145 17.212558518593916 -3 0 -3
763 1 2 -1.1794 3.346060286704569 21.497658471848226 18.03683138349507 -3 0 -3
247 1 2 -1.1794 2.0100135915432613 17.528489352918747 18.197916436446206 -1 1 -4
249 1 1 0.5897 2.298687147647275 17.86622086932816 19.045812518474932 -1 1 -4
123 1 1 0.5897 2.9466308697080072 20.539876291836272 19.77743261226078 0 -3 0
121 1 2 -1.1794 3.11197116992578 20.29510411828599 20.687950100240002 0 -3 0
245 1 1 0.5897 2.538057335513887 17.818756598870436 21.52938984126189 -4 1 -2
434 1 1 0.5897 4.626958245884341 18.916059543746535 16.55649854134564 1 4 -2
71 1 1 0.5897 0.8866109819317864 20.546086246007313 21.390606750949672 4 1 -6
781 1 2 -1.1794 7.078681560894005 2.9026320254530154 2.5678074334829173 -4 -1 1
782 1 1 0.5897 7.726088890584752 3.60097450228628 2.665195193629824 -4 -1 1
524 1 1 0.5897 6.443797359376642 3.6506770309249266 4.2861731133287275 2 0 1
59 1 1 0.5897 4.852513177353911 5.9290767503873765 2.6023674888394224 4 -1 -3
783 1 1 0.5897 6.504699198875937 3.2040383188628008 1.8634960785099248 -4 -1 1
352 1 2 -1.1794 5.757602503069675 5.975355251344602 0.8713735254649357 6 4 -2
375 1 1 0.5897 7.098369574761937 5.782770956784815 5.160282490595151 3 6 -1
523 1 2 -1.1794 6.8463693715648075 4.002919174693349 5.079994892798299 2 0 1
525 1 1 0.5897 7.719998548616438 3.6121819168267706 5.099731654634782 2 0 1
42 1 1 0.5897 8.758194545633726 2.0203361109541387 5.743380178733188 -1 0 4
353 1 1 0.5897 6.491576349706052 5.4056703479020864 0.6410590059990894 6 4 -2
394 1 2 -1.1794 6.316145569389085 5.797509679590843 8.436488818000864 2 1 5
396 1 1 0.5897 5.8775367780749015 6.112707573456178 7.646195398446851 2 1 4
114 1 1 0.5897 5.7210522119309 1.6933732904191334 10.985445556582647 -3 -1 1
395 1 1 0.5897 7.1412460092226375 5.4279917799662005 8.12187914867625 2 1 5
37 1 2 -1.1794 5.651090131893345 3.3812485407295183 9.621592430579058 1 2 -2
533 1 1 0.5897 5.975696228471204 3.253554232160086 6.455082402483235 -7 -1 -1
39 1 1 0.5897 5.554932835986936 4.284580712920121 9.319873095316302 1 2 -2
576 1 1 0.5897 7.606792477974582 3.402475516150549 9.839601996867305 3 0 1
534 1 1 0.5897 5.526262613377 2.8730434657395216 7.849832147500617 -7 -1 -1
532 1 2 -1.1794 5.33975011058552 2.713669897227498 6.9245700951688525 -7 -1 -1
38 1 1 0.5897 4.837702435840604 3.1973248841683235 10.091570814680326 1 2 -2
575 1 1 0.5897 8.494113373359593 4.364033807542494 9.077942959145561 3 0 1
574 1 2 -1.1794 8.431464348684049 3.4501999189001733 9.355930098431905 3 0 1
26 1 1 0.5897 9.03803997675509 6.664008084913402 7.980501598259135 -1 6 6
25 1 2 -1.1794 9.083108609486304 5.759101241039519 7.671605992581259 -1 6 6
497 1 1 0.5897 7.2780024368938365 3.5474354716431327 14.910950938949304 1 2 1
496 1 2 -1.1794 7.016152291004759 4.37887544360813 15.306485594279172 1 2 1
498 1 1 0.5897 7.378152201165854 5.046430060929416 14.723692756370603 1 2 0
512 1 1 0.5897 8.323046521476627 2.1691493275912626 13.070137594077423 -2 2 -4
863 1 1 0.5897 7.78019830257268 5.562509796197745 12.0864729853466 -1 -1 3
511 1 2 -1.1794 7.48147388479675 2.0704756804454525 13.515520181148311 -2 2 -4
101 1 1 0.5897 5.459553556898779 4.2268035211901775 14.599163753871967 7 -5 -2
862 1 2 -1.1794 7.416057708351926 5.887280269591538 11.262918706707687 -1 -1 3
864 1 1 0.5897 6.474189048347502 5.734926472110893 11.34034008962376 -1 -1 3
513 1 1 0.5897 6.883338811968971 1.764897622671459 12.833480959998985 -2 2 -4
199 1 2 -1.1794 8.952410240873585 5.486312828653211 13.733005837064596 1 -1 0
201 1 1 0.5897 8.85032251847207 6.375639143211426 14.072078966251524 1 -1 0
23 1 1 0.5897 4.851743002965606 2.1356169704826113 14.715812022126494 -4 2 2
215 1 1 0.5897 7.964034917402382 5.026249683737342 19.620516315844384 -1 2 1
36 1 1 0.5897 6.58543146221722 3.164204868551664 18.322623078953107 -5 2 -2
372 1 1 0.5897 6.020213959088731 2.113052698264572 20.48368136639904 4 6 -2
35 1 1 0.5897 7.977544703988591 2.5715473073176978 18.269473799743224 -5 2 -2
750 1 1 0.5897 8.101986195235334 6.163025808087899 17.817008608206308 1 5 0
370 1 2 -1.1794 5.874882930179928 2.769356805949335 21.165176703949335 4 6 -2
214 1 2 -1.1794 8.009289632799742 4.613693059083413 20.48312190446925 -1 2 1
216 1 1 0.5897 7.291697244624326 3.980127902992347 20.484074930499467 -1 2 1
748 1 2 -1.1794 7.382421303606081 5.5449469023452025 17.945855145233843 1 5 0
749 1 1 0.5897 7.295161478156202 5.099153550399354 17.103267938769022 1 5 0
371 1 1 0.5897 4.928998231566709 2.757801791124903 21.311683730361068 4 6 -2
34 1 2 -1.1794 7.10169263471406 2.4162168782165034 18.623099787234253 -5 2 -2
320 1 1 0.5897 5.984223280313626 6.520438411699235 17.861599456685326 2 -2 1
636 1 1 0.5897 7.380720866717068 1.7828237496085808 16.77575989177374 -7 2 1
606 1 1 0.5897 7.109604179608447 10.880858297944199 1.444957962140462 -6 0 0
381 1 1 0.5897 5.081425840574984 11.461671232490769 2.657807118401965 7 3 1
730 1 2 -1.1794 5.2262874239704304 10.395041482486999 5.162974547606559 2 1 -4
786 1 1 0.5897 7.228380157762275 8.978332225079335 3.514477177411553 4 5 4
604 1 2 -1.1794 7.64445662742949 10.490188883580291 0.7538414162223459 -6 0 0
732 1 1 0.5897 5.705914346819396 10.754265766619152 4.416509581509958 2 1 -4
785 1 1 0.5897 7.489432051624443 7.906851579181284 2.4772587519741363 4 5 4
784 1 2 -1.1794 6.782501778312457 8.34973695543346 2.946717669150181 4 5 4
379 1 2 -1.1794 6.035840141737684 11.501066166248217 2.72006038814998 7 3 1
374 1 1 0.5897 6.946166794958332 7.015939960752707 4.295293706832894 3 6 -1
373 1 2 -1.1794 7.225448574698891 6.731521453595038 5.1655879985597375 3 6 -1
486 1 1 0.5897 8.26665875899269 10.51048395384249 5.299179113536073 0 2 0
485 1 1 0.5897 8.272821788692209 10.610333682168704 3.788532806567505 0 2 0
484 1 2 -1.1794 8.196424849458818 9.980396193951124 4.505221989539011 0 2 0
297 1 1 0.5897 5.50405729439857 9.143828554703385 1.7474044031423104 0 3 1
605 1 1 0.5897 8.54373030846327 10.721034115532525 0.9868815312480086 -6 0 0
726 1 1 0.5897 5.054614750989236 6.731206642366018 5.692938258929925 2 -4 2
459 1 1 0.5897 6.000940655626307 10.342065971735048 8.333593231993646 0 -2 0
360 1 1 0.5897 5.794587139512929 9.31878875783036 10.5435111748799 4 0 -4
457 1 2 -1.1794 5.73691369764906 9.524115297393042 8.754952271635235 0 -2 0
310 1 2 -1.1794 8.09566919782947 8.88055648383023 7.180543480947987 -1 3 3
312 1 1 0.5897 7.387006143955732 8.711085109272233 7.801354804197058 -1 3 3
339 1 1 0.5897 7.975471601073011 7.642435607135293 10.696029273141027 -3 1 2
189 1 1 0.5897 8.523113652720223 10.113634498212654 9.451397571445952 -3 4 1
187 1 2 -1.1794 8.51084306735136 11.069982196556301 9.490826671498748 -3 4 1
337 1 2 -1.1794 8.615818614663318 8.340072071597792 10.556208995621946 -3 1 2
458 1 1 0.5897 4.808454988987092 9.432602546877234 8.540742808120878 0 -2 0
311 1 1 0.5897 7.918146658663112 8.291624475034396 6.447086646652028 -1 3 3
415 1 2 -1.1794 6.217136956098468 11.8055382349396 7.255024568732979 -1 -2 0
731 1 1 0.5897 5.587199026500802 10.852188110330417 5.922642714337254 2 1 -4
796 1 2 -1.1794 7.3643971409836935 9.97289309977497 13.38306441217401 -1 -5 -2
849 1 1 0.5897 7.3062627136059755 8.28151030254957 14.468186908115863 6 -1 4
797 1 1 0.5897 8.292547677721338 9.790901019426146 13.235733506321159 -1 -5 -2
798 1 1 0.5897 6.932356558556889 9.681992027035697 12.579939212400252 -1 -5 -2
848 1 1 0.5897 6.225084455828448 7.294865580472366 14.855010107073078 6 -1 4
651 1 1 0.5897 5.003182737187351 7.510506826277573 11.47386159499359 1 -1 0
847 1 2 -1.1794 7.15347385471718 7.489467284535945 14.983564348410502 6 -1 4
210 1 1 0.5897 7.889456459746999 11.465243413302288 15.928300672800766 0 -2 2
338 1 1 0.5897 8.857050230975801 8.62462650000935 11.437756545624293 -3 1 2
358 1 2 -1.1794 5.642360150856898 9.096124093900823 11.46198040504864 4 0 -4
278 1 1 0.5897 8.566503524356973 7.822267343113604 16.348885512735173 0 1 1
175 1 2 -1.1794 6.885567750406314 8.199305906871093 20.46389188340099 0 -3 5
208 1 2 -1.1794 7.32091835828991 11.207555776564364 16.654013129942705 0 -2 2
176 1 1 0.5897 7.028529293925779 8.905699211906414 21.09386534030758 0 -3 5
173 1 1 0.5897 6.109674921654251 11.42885913967227 19.225414661625628 2 1 -2
455 1 1 0.5897 6.192352929343042 10.000731381856914 17.619017809195697 0 -1 0
177 1 1 0.5897 7.760178203130721 7.8501689321820765 20.292230312275166 0 -3 5
321 1 1 0.5897 5.2538486095106105 7.846407307926471 17.839084106687523 2 -2 1
456 1 1 0.5897 6.317253677350126 9.296500908904891 18.95339821260498 0 -1 0
209 1 1 0.5897 7.921261622430839 11.03255599361283 17.378756879315333 0 -2 2
454 1 2 -1.1794 5.687402409668084 9.749086112116993 18.39234512872632 0 -1 0
354 1 1 0.5897 5.988216733704158 6.826392626750038 21.610237086132734 6 4 -3
319 1 2 -1.1794 5.130642622566231 6.911423120198858 17.674931962814874 2 -2 1
174 1 1 0.5897 6.789090095655156 11.571627344056424 20.570817955978725 2 1 -2
688 1 2 -1.1794 6.720841217106777 14.506271577330473 5.472089879659623 2 -3 4
819 1 1 0.5897 8.041764329500253 14.671697913503277 4.032937046422051 3 -2 0
385 1 2 -1.1794 6.499248495206326 13.83527583123281 1.454826498224803 -4 0 1
690 1 1 0.5897 6.044039249882399 14.142565847085569 4.901160542037307 2 -3 4
482 1 1 0.5897 7.178321884108161 16.30305844957161 1.1903850059784076 -1 2 0
387 1 1 0.5897 7.3990062841245186 13.798714155127854 1.1301681303629953 -4 0 1
386 1 1 0.5897 6.354299187811266 14.759699233346868 1.6566219620486524 -4 0 1
380 1 1 0.5897 6.256264621092442 12.396689973931966 2.464004443294275 7 3 1
483 1 1 0.5897 8.045117821532774 15.968004912154786 2.385598728990119 -1 2 0
481 1 2 -1.1794 7.224674279320984 16.39674247356521 2.1418972135967103 -1 2 0
817 1 2 -1.1794 8.83205763509783 14.620220492438973 3.495272108089265 3 -1 0
450 1 1 0.5897 8.983594168414445 12.661867031887358 3.2866877431982564 4 -2 -4
448 1 2 -1.1794 9.076744331982042 11.853903472067618 2.7818455317086226 4 -2 -4
689 1 1 0.5897 7.205063480290309 13.742862832517023 5.78678554796549 2 -3 4
416 1 1 0.5897 5.986823127570542 12.565468706090284 7.789588355029787 -1 -2 0
211 1 2 -1.1794 8.787489868135165 12.586080334447798 6.458913936368261 3 1 2
217 1 2 -1.1794 5.000721656378354 16.055897264853144 6.892577702536992 4 -1 -2
256 1 2 -1.1794 5.499106338560276 16.026607269065508 10.547171763011901 -2 -1 0
257 1 1 0.5897 5.570475037167752 15.256019227414527 9.9837765087587 -2 -1 0
87 1 1 0.5897 6.273989142471248 16.900862123734562 7.865001925724056 -1 5 1
752 1 1 0.5897 8.25269192657592 15.672355472399227 7.9428941357543765 3 1 -1
219 1 1 0.5897 5.600962507604364 15.548713595466575 6.345978291615084 4 -1 -2
213 1 1 0.5897 8.769291165650337 13.188384049443151 7.202711812808665 3 1 2
522 1 1 0.5897 6.287424377675921 13.329064682148447 9.87313241077126 -3 -1 -3
150 1 1 0.5897 7.860477341325962 12.073067529054228 10.683077058381814 -5 0 1
417 1 1 0.5897 7.156903072096731 11.89824723676956 7.098367222775443 -1 -2 0
520 1 2 -1.1794 5.68725408649581 13.61034503243939 9.182502946504247 -3 -1 -3
751 1 2 -1.1794 8.829480271042561 14.91007841670633 7.892137409035086 3 1 -1
258 1 1 0.5897 4.868289674909533 16.59210447274226 10.1015543777049 -2 -1 0
521 1 1 0.5897 4.894497644059721 13.094100905570022 9.328532028291756 -3 -1 -3
569 1 1 0.5897 7.148130038783482 16.070820239289603 11.295090845368513 2 -1 -1
674 1 1 0.5897 4.994151337183979 16.247600441394606 14.266850629542024 -3 -2 -4
739 1 2 -1.1794 7.318348339920796 14.305532708144993 13.973123753967654 0 0 2
673 1 2 -1.1794 5.686147468078555 16.46785861862213 14.890491473338571 -3 -2 -4
741 1 1 0.5897 6.87871163258508 15.058657454943523 14.367858894083819 0 0 2
568 1 2 -1.1794 7.973527680862972 15.80935731680702 11.703321906808805 2 -1 -1
149 1 1 0.5897 8.078360914361195 12.865972184317329 11.954251458548129 -5 0 1
675 1 1 0.5897 5.248936908124014 16.47346691358814 15.742031242065176 -3 -2 -4
740 1 1 0.5897 6.621722643581227 13.832382220894308 13.518007287914806 0 0 2
570 1 1 0.5897 7.711850166647301 15.355433938187137 12.50442884453834 2 -1 -1
478 1 2 -1.1794 4.827598458290443 12.313641526670422 16.014095662276933 -3 2 -4
148 1 2 -1.1794 7.410801235796532 12.645669656039544 11.304535088975936 -5 0 1
125 1 1 0.5897 6.098569733382113 11.957493356003225 13.161543482446687 2 1 3
124 1 2 -1.1794 5.294627640698631 12.444222150317046 13.343396682990265 2 1 3
117 1 1 0.5897 8.738593733777295 16.7411743712222 15.48299514524874 -1 -3 4
126 1 1 0.5897 5.295803866936656 12.563284982967595 14.293200828556502 2 1 3
480 1 1 0.5897 5.721006343868781 12.244482296664613 16.35075234947535 -3 2 -4
687 1 1 0.5897 6.795249460172689 13.638563186102889 19.007993122390815 7 -7 -4
231 1 1 0.5897 5.325321933312121 15.446412079975385 17.866975989860478 3 3 0
172 1 2 -1.1794 6.594420256239244 12.052390738267082 19.766279249325343 2 1 -2
495 1 1 0.5897 8.627613670603019 14.533718166045812 17.675476819097334 -2 -1 -1
376 1 2 -1.1794 6.920175449268411 16.246722431401075 20.64782027320404 2 4 3
137 1 1 0.5897 4.916312773421911 13.77108746478814 21.53948456347971 8 -8 0