LAMMPS data file via write_data, version 30 Jul 2021, timestep = 22500000

1296 atoms
2 atom types
864 bonds
1 bond types
432 angles
1 angle types

-10.623948005073547 12.603948005073548 xlo xhi
-9.303107837898649 12.293105837898649 ylo yhi
0.09454893297624523 21.765450067039115 zlo zhi
-9.407831682629194 2.166286390965685 2.8240907714744 xy xz yz

Masses

1 1.008
2 15.999

Pair Coeffs # lj/cut/tip4p/long/omp

1 0 0
2 0.21084 3.1668

Bond Coeffs # harmonic/omp

1 450 0.9572

Angle Coeffs # harmonic/omp

1 55 104.52

Atoms # full

298 100 2 -1.1794 -5.939908636048769 -7.211985998503884 3.9493874828210687 1 1 0
270 90 1 0.5897 -8.601964821258646 -7.668644209197625 1.8447202478344886 1 1 0
269 90 1 0.5897 -9.354722402447761 -6.377103173274296 2.084202714299505 1 1 0
268 90 2 -1.1794 -9.105838431325118 -7.198073431445591 2.5087706496302706 1 1 0
313 105 2 -1.1794 -8.842753429698412 -6.460382533422608 5.238324014532798 1 1 0
275 92 1 0.5897 -10.611096057281367 -8.008621787312153 3.249500421116239 1 1 0
163 55 2 -1.1794 -7.239509254068152 -8.108672644835814 0.8146480712804862 1 1 0
164 55 1 0.5897 -6.393539123877235 -8.46658848692001 1.0836265804957521 1 1 0
633 211 1 0.5897 -5.97443640243884 -5.79402911600279 5.472750467699146 1 1 0
299 100 1 0.5897 -6.64810187806979 -7.855801290533911 3.935890865843696 1 1 0
280 94 2 -1.1794 -9.997166895174395 -4.60115567993882 1.510024592732747 1 1 0
314 105 1 0.5897 -8.783763727976144 -6.766010125998433 4.333139379919345 1 1 0
281 94 1 0.5897 -9.305497107845614 -3.943599205902716 1.5837854969794762 1 1 0
73 25 2 -1.1794 -8.534518912183959 -3.822919266335589 4.764525053566659 1 0 0
324 108 1 0.5897 -7.121009994075031 -4.625503048678485 3.5415792704497573 1 1 0
282 94 1 0.5897 -10.79394793852013 -4.14200469761213 1.7755499913793003 1 1 0
323 108 1 0.5897 -6.533108828219767 -5.886128506861917 2.9438198308066013 1 1 0
322 108 2 -1.1794 -6.694121672107042 -4.96193040535647 2.7536482173412997 1 1 0
315 105 1 0.5897 -8.840120952572526 -5.505589316046489 5.1700445556489125 1 1 0
261 87 1 0.5897 -6.809075999366565 -5.22696748463402 1.1323424544567637 1 1 0
75 25 1 0.5897 -9.358939217874784 -3.529280458164518 4.3769455018458805 1 0 0
260 87 1 0.5897 -6.871580206541417 -6.36584627153748 0.13670565783444213 1 1 0
300 100 1 0.5897 -5.140206523110511 -7.735961398698105 3.9951171679241515 1 1 0
259 87 2 -1.1794 -6.80432229131486 -5.412638847763513 0.19333792221050933 1 1 0
419 140 1 0.5897 -8.412536247438156 -5.34400760930696 8.612537556355132 1 0 0
418 140 2 -1.1794 -9.089612350939317 -5.928572447352822 8.953147416850976 1 0 0
618 206 1 0.5897 -7.417988945697919 -7.33498379547614 6.658594645821748 1 1 0
428 143 1 0.5897 -6.465389185389618 -7.217794931319229 10.14446942809253 1 0 0
616 206 2 -1.1794 -7.132569714141139 -8.078494848426285 7.189523542084657 1 1 0
420 140 1 0.5897 -8.622001140143874 -6.519004554275362 9.543781255995953 1 0 0
414 138 1 0.5897 -6.622944173426388 -4.5294781163670015 7.562597270638267 1 0 0
413 138 1 0.5897 -7.495188230475943 -3.3104223372878545 7.7750208182264 1 0 0
412 138 2 -1.1794 -7.210683215418645 -4.12060832749965 8.197931186191914 1 0 0
429 143 1 0.5897 -6.265957082713113 -7.43081700082395 8.658969912791308 1 0 0
350 117 1 0.5897 -7.1704902431300654 -4.143762058370642 9.999818149655622 0 0 0
427 143 2 -1.1794 -5.890262395292975 -6.982243673142871 9.416537200513284 1 0 0
627 209 1 0.5897 -10.446557011348562 -6.972257410603591 6.193455977101163 1 1 0
408 136 1 0.5897 -10.837191405185202 -5.146580608211504 9.045158391903216 1 0 0
626 209 1 0.5897 -10.22648773549458 -6.7389232573173175 7.672971559448038 1 1 0
631 211 2 -1.1794 -5.696824961950572 -5.167154258823563 6.140796278597626 1 1 0
617 206 1 0.5897 -7.870748220157429 -8.254164168305968 7.772938153214329 1 1 0
349 117 2 -1.1794 -7.088773747124152 -3.808808476090519 10.89278889159731 0 0 0
351 117 1 0.5897 -6.852855890724086 -2.887622131744145 10.783051465763748 0 0 0
661 221 2 -1.1794 -9.206025844248773 -4.449016213732685 12.584897553333075 0 0 0
682 228 2 -1.1794 -8.012736447808852 -6.76772445525854 13.823955555198562 0 0 0
780 260 1 0.5897 -7.498140077037934 -3.7856056109930165 15.21706865850787 0 0 0
779 260 1 0.5897 -7.088616808138713 -2.8524072856516556 14.097654147349155 0 0 0
778 260 2 -1.1794 -7.852288590216464 -3.158093928394326 14.587038049583974 0 0 0
684 228 1 0.5897 -8.41329005476533 -6.394531851200486 14.609159843729547 0 0 0
662 221 1 0.5897 -8.69356991632556 -4.041609301032452 13.28321311200153 0 0 0
652 218 2 -1.1794 -5.7099823282404305 -5.380618946440125 12.785861949427437 0 0 0
654 218 1 0.5897 -6.071795438741537 -4.864386765340163 12.065664570022825 0 0 0
653 218 1 0.5897 -6.470948147060275 -5.802469075197948 13.184738496834555 0 0 0
788 263 1 0.5897 -4.741815309337513 -4.672732306968532 15.707884949682487 0 0 0
768 256 1 0.5897 -9.573541961916934 -2.508985415116312 14.619200942711432 0 0 0
729 243 1 0.5897 -8.094068824466337 -7.038683487814429 12.053407307424845 1 0 0
663 221 1 0.5897 -8.70944329366845 -4.269245958867096 11.786626118117772 0 0 0
740 247 1 0.5897 -10.82579238482735 -3.6910264822308108 12.087935163167325 1 0 0
727 243 2 -1.1794 -7.840940467201019 -7.354029014424132 11.18580148513449 1 0 0
766 256 2 -1.1794 -10.4125486905748 -2.0678557127611183 14.75199178006463 0 0 0
789 263 1 0.5897 -4.610302007138426 -4.773052887338589 14.203074526040714 0 0 0
767 256 1 0.5897 -11.068725458532866 -2.7297842913132353 14.533971247562514 0 0 0
1088 363 1 0.5897 -6.346569713783547 -5.819563207381892 16.573827584580624 0 0 0
1089 363 1 0.5897 -6.42126955277941 -4.693199215596842 17.582770220444548 0 0 0
1227 409 1 0.5897 -8.96044265120868 -3.4738145315435993 20.582642567072288 0 0 0
1221 407 1 0.5897 -10.530318105602085 -2.131784431079085 19.13398644174709 0 0 0
1143 381 1 0.5897 -8.38443119165285 -5.666002844887592 21.678525465349203 0 0 0
1087 363 2 -1.1794 -6.3087960738302415 -4.865937269000243 16.64802955676356 0 0 0
1152 384 1 0.5897 -6.855191332399004 -4.222271912209878 19.900018068007473 0 0 0
1225 409 2 -1.1794 -8.30874649817043 -3.7372757410101443 21.232245325879536 0 0 0
1151 384 1 0.5897 -5.941896268932223 -5.397988726128242 19.625062262521762 0 0 0
1150 384 2 -1.1794 -6.119051057001613 -4.497354482624575 19.353543098155303 0 0 0
1109 370 1 0.5897 -8.430882144886356 -3.4656544650898287 17.84902126992467 0 0 0
1108 370 2 -1.1794 -9.02516631329553 -4.213286627380062 17.913111032021106 0 0 0
1219 407 2 -1.1794 -10.186363404519863 -2.160329927524087 20.02675479136753 0 0 0
1129 377 2 -1.1794 -7.4646587034706515 -2.069140686310922 17.967463964959467 0 0 0
1248 416 1 0.5897 -5.506492780904521 -1.4059421199805238 20.698001271044266 0 0 0
1097 366 1 0.5897 -8.965818905344577 -5.8681863233567695 18.605796094745987 0 0 0
1121 374 1 0.5897 -4.767928857301606 -3.4094782745626677 18.405313280427432 0 0 0
1131 377 1 0.5897 -6.80333523642657 -1.6953249458326436 17.385183329355478 0 0 0
1130 377 1 0.5897 -7.205689201458846 -1.7792151718721687 18.842171799423646 0 0 0
758 253 1 0.5897 -9.366407848240463 -5.24763994405824 16.466292434779323 0 0 0
1110 370 1 0.5897 -9.88988808504399 -3.8223452171404784 18.037982422882294 0 0 0
165 55 1 0.5897 -5.342290758946188 -5.83288912460617 21.74847713190363 1 1 -1
1226 409 1 0.5897 -8.146964695530826 -2.945146313139535 21.744816233110257 0 0 0
258 86 1 0.5897 -12.578568578641619 -2.916816660499756 1.7518723502780043 1 1 0
67 23 2 -1.1794 -10.672026263039115 -2.080111727933585 4.406327771456829 1 0 0
272 91 1 0.5897 -9.710741257021885 -1.2736683226806509 1.4097771715559448 1 1 0
271 91 2 -1.1794 -10.516612344763248 -1.0220994839072102 0.9588182046700034 1 1 0
82 28 2 -1.1794 -8.756226618663572 0.08612693613929068 4.509605611159702 1 0 0
83 28 1 0.5897 -9.464383608861395 -0.548536062417714 4.618733834050374 1 0 0
273 91 1 0.5897 -10.561747873594896 -1.6081057691587208 0.2032406334633065 1 1 0
1249 417 2 -1.1794 -13.61901055192234 -2.2613429171338 0.27827638430568297 0 0 1
98 33 1 0.5897 -11.905429554698838 0.3258782088447738 4.476896756059296 1 0 0
54 18 1 0.5897 -11.842782478880197 -0.5101870567503273 2.0158901391997555 1 0 0
53 18 1 0.5897 -12.549100557490268 0.7501078935671917 2.4685335596306284 1 0 0
52 18 2 -1.1794 -12.455563260556925 -0.18030311286577927 2.6730908617860933 1 0 0
68 23 1 0.5897 -11.285048376148438 -2.143364098958994 5.138696837824415 1 0 0
301 101 2 -1.1794 -8.109317704175359 -2.1854159454983515 1.5552230360987116 1 1 0
69 23 1 0.5897 -11.20054949548394 -2.2778062600979556 3.6331729178716827 1 0 0
256 86 2 -1.1794 -12.19961063341118 -3.3500484070318564 2.5166018099474545 1 1 0
99 33 1 0.5897 -11.829186907904539 1.5276565122861214 5.394590444615268 1 0 0
44 15 1 0.5897 -10.185087663863998 0.7191695261243165 0.41313825985024366 1 0 0
107 36 1 0.5897 -9.376057243472756 1.3852659687110886 3.5766213700359284 1 0 0
97 33 2 -1.1794 -11.893907116555845 0.5726268192490309 5.40167604921939 1 0 0
302 101 1 0.5897 -7.755413904184744 -2.347575982004969 2.429630352284393 1 1 0
1251 417 1 0.5897 -13.31480879146423 -1.363052769915578 0.1485925810529255 0 0 1
74 25 1 0.5897 -8.306960084547446 -3.1372243817336116 5.392528990913015 1 0 0
426 142 1 0.5897 -8.892855569592673 -1.509532957012241 7.19601089248494 1 0 0
435 145 1 0.5897 -7.595351008224501 -0.8682107026447081 9.987251245163367 0 0 0
528 176 1 0.5897 -12.20535916594823 0.5042123404676584 9.677554379343128 1 0 0
402 134 1 0.5897 -10.857364334168537 -0.14681970635565378 6.6819303101286565 1 0 0
401 134 1 0.5897 -11.250822036902743 -1.2877289274736246 7.595826076509021 1 0 0
400 134 2 -1.1794 -10.496116417996626 -0.7741468088396939 7.308102210355589 1 0 0
527 176 1 0.5897 -12.222052833330514 1.7633862271114413 8.837341959478154 1 0 0
526 176 2 -1.1794 -12.779359904202018 1.2131781098889967 9.387637677442587 1 0 0
424 142 2 -1.1794 -7.9788912164858345 -1.7562674036156647 7.054801749903202 1 0 0
537 179 1 0.5897 -9.493856558633738 0.21391683165876962 8.664725971202808 1 0 0
536 179 1 0.5897 -9.654596880995122 0.2144848659638754 10.170029790256638 1 0 0
535 179 2 -1.1794 -9.007870057901656 0.3513473112588219 9.477814166247452 1 0 0
415 139 2 -1.1794 -8.73991888135576 1.883910533094662 6.595752861584038 1 0 0
425 142 1 0.5897 -7.500611663853675 -0.9273691718157142 7.075974465038963 1 0 0
522 174 1 0.5897 -10.173313996414103 2.2735150417432077 7.532775962206286 1 0 0
411 137 1 0.5897 -13.330354930863079 0.3283343055164014 6.436645591921433 1 0 0
760 254 2 -1.1794 -8.643224840579812 1.8987813822914088 12.800991694592533 0 0 0
790 264 2 -1.1794 -10.996205654524406 0.2021955851316477 13.530213120448058 0 0 0
791 264 1 0.5897 -10.759133699128457 -0.6654755047203693 13.857547490598552 0 0 0
835 279 2 -1.1794 -11.137094974946162 -0.5948232794784793 10.93852518839297 1 0 0
865 289 2 -1.1794 -12.648853645428147 1.4154443195895237 15.469547884998262 0 0 0
761 254 1 0.5897 -9.155939557882142 1.1701813533510972 13.150881870688442 0 0 0
770 257 1 0.5897 -11.851933314442515 3.1689825620978684 13.236560815530133 0 0 0
792 264 1 0.5897 -11.73389866403774 0.47183077789942907 14.077289668589232 0 0 0
837 279 1 0.5897 -11.104846750746134 -0.11501923695530358 11.76620703556381 1 0 0
762 254 1 0.5897 -9.182258772616153 2.253990301005018 12.094325563589173 0 0 0
836 279 1 0.5897 -11.149114565395683 -1.5167546877206464 11.195733294163515 1 0 0
888 296 1 0.5897 -10.265449163585922 3.1836201069645185 15.279099812791516 0 0 0
866 289 1 0.5897 -12.228690280405987 1.9274383376106865 16.16063603265019 0 0 0
1099 367 2 -1.1794 -9.716700675511902 -0.8527570044724726 17.08071555222136 0 0 0
1100 367 1 0.5897 -8.896441384515427 -1.2965118952981207 17.29610367806232 0 0 0
1218 406 1 0.5897 -12.601174150564216 3.2069335731424378 17.90554228061077 0 0 0
1259 420 1 0.5897 -8.608432974895077 1.9137503021449316 19.667617543101652 0 0 0
1258 420 2 -1.1794 -8.87709365110261 2.772143688044684 19.340224674435174 0 0 0
1236 412 1 0.5897 -7.648907411064565 -0.09814101793799956 20.49084728401955 0 0 0
1217 406 1 0.5897 -11.169621765647332 3.683882216977258 17.783716425471425 0 0 0
1235 412 1 0.5897 -9.0777005056514 -0.5595440625256956 20.29765684441164 0 0 0
1234 412 2 -1.1794 -8.534867580263533 0.22806132675184188 20.333448618625695 0 0 0
1195 399 2 -1.1794 -9.012780051959105 1.967041402142371 16.53967187407438 0 0 0
1216 406 2 -1.1794 -11.703252078478977 2.8896371956540943 17.80955923311088 0 0 0
1011 337 1 0.5897 -11.774639952140838 3.6641660963725915 20.62730283572435 0 -1 0
1009 337 2 -1.1794 -11.073256539297557 3.275229437470699 21.149694414716837 0 -1 0
1260 420 1 0.5897 -9.610262416501488 3.0244037351094857 19.901491694967813 0 0 0
1197 399 1 0.5897 -9.082711398156519 2.2445515104962936 17.453101178555162 0 0 0
1250 417 1 0.5897 -11.450700121927849 0.17956028431542492 21.072001450646187 0 0 0
1206 402 1 0.5897 -10.854868381138003 0.09105558438318617 18.340111147455985 0 0 0
1205 402 1 0.5897 -11.316052298479093 1.4492397533252532 18.824716704251685 0 0 0
1246 416 2 -1.1794 -6.009203633933767 -0.9706205469380347 20.009609133271987 0 0 0
1196 399 1 0.5897 -9.10086397971473 1.0143679503332823 16.57073073358835 0 0 0
1204 402 2 -1.1794 -11.43198683437774 0.5114510739015063 18.977656673497115 0 0 0
1229 410 1 0.5897 -7.563369577745593 3.5998014912602194 18.46960584370025 0 0 0
1010 337 1 0.5897 -10.821490196433052 3.964459093621798 21.764448066101863 0 -1 0
1101 367 1 0.5897 -10.089814193082065 -1.371097037297507 16.367689907929186 0 0 0
55 19 2 -1.1794 -13.545576279486914 6.192145908415025 0.9419500073529912 1 0 0
66 22 1 0.5897 -13.642587416784524 2.560314600545123 1.656676382415361 1 0 0
191 64 1 0.5897 -12.889512357963216 6.291417611517836 4.054352675242516 1 0 0
56 19 1 0.5897 -12.737257476257055 5.9022096067237175 1.364612408492089 1 0 0
65 22 1 0.5897 -12.203737111845788 3.030290242796127 1.6783771918044008 1 0 0
64 22 2 -1.1794 -12.74166628584139 2.2428174110130623 1.59602414716012 1 0 0
177 59 1 0.5897 -14.341720735500067 4.280700106424357 3.0917929457417697 1 0 0
181 61 2 -1.1794 -11.466274117663735 3.1802706714399367 4.822169846444009 1 0 0
40 14 2 -1.1794 -15.112272155157633 3.418382225277309 1.8578307165597885 1 0 0
183 61 1 0.5897 -12.054125836188922 3.641506070828763 4.2240015972102665 1 0 0
176 59 1 0.5897 -14.466526643178417 4.364820550983774 4.598163701800193 1 0 0
108 36 1 0.5897 -10.243379298950561 2.6259744067171766 3.557721687536973 1 0 0
57 19 1 0.5897 -13.641088875833665 5.614261815158734 0.18481291217984328 1 0 0
175 59 2 -1.1794 -13.854876951333594 4.523704832942551 3.8792825672310083 1 0 0
85 29 2 -1.1794 -11.297180654852795 4.753712878337732 1.6161310301175464 1 0 0
106 36 2 -1.1794 -9.628452047690198 2.1239944600260827 3.0227890288381967 1 0 0
42 14 1 0.5897 -15.42871298998109 3.9284311185054364 1.1122890884857985 1 0 0
162 54 1 0.5897 -14.567184124020558 6.744633023681585 2.181896658997766 1 0 0
167 56 1 0.5897 -16.510676001136513 6.257059493211367 3.370675608935217 1 0 0
190 64 2 -1.1794 -12.250855166461399 6.974613587082276 4.258360100700879 1 0 0
45 15 1 0.5897 -9.752745790054034 1.9406977627563577 1.1961707897114287 1 0 0
43 15 2 -1.1794 -9.858986932367147 1.6123975945555635 0.3033127936177924 1 0 0
206 69 1 0.5897 -14.776886500335015 7.433516669266977 4.609893157442186 1 0 0
192 64 1 0.5897 -11.40086145571933 6.546272827859541 4.157330191851546 1 0 0
160 54 2 -1.1794 -15.120298343767434 7.213382934223995 2.8068856278480667 1 0 0
182 61 1 0.5897 -11.204212141085168 3.8439449120740026 5.460291865515446 1 0 0
508 170 2 -1.1794 -13.614338313042488 6.380807099640151 7.71427081741297 1 0 0
519 173 1 0.5897 -16.338172891428826 7.549000036857327 6.5230127683822685 1 0 0
510 170 1 0.5897 -13.954817942811705 6.90307764642761 6.988046727526539 1 0 0
509 170 1 0.5897 -14.30909460659162 5.749910431057922 7.902564839942063 1 0 0
645 215 1 0.5897 -12.350879179689052 7.449133575452679 8.955594886541537 1 0 0
643 215 2 -1.1794 -11.954600005992193 7.694621918709133 9.791605608767219 1 0 0
644 215 1 0.5897 -12.673262461308642 7.644417287721284 10.42181102314336 1 0 0
521 174 1 0.5897 -10.972756081982816 3.536054285293586 7.775518592222024 1 0 0
534 178 1 0.5897 -12.079580252441879 5.387987144933945 7.029476454285633 1 0 0
532 178 2 -1.1794 -11.216022296994286 5.042419328859594 6.803588719128705 1 0 0
636 212 1 0.5897 -15.361680490134281 7.686936977860638 9.952362061717503 1 0 0
518 173 1 0.5897 -16.806138491901343 7.849881034791869 7.930962561987894 1 0 0
543 181 1 0.5897 -10.757979202769237 6.460467690182311 10.109948281743481 0 0 0
457 153 2 -1.1794 -10.35759724009711 3.2290373431703543 10.811067167516041 0 0 0
458 153 1 0.5897 -10.426091192977033 2.9333872876596043 9.903241836311865 0 0 0
533 178 1 0.5897 -10.609602759593532 5.7495667680878295 7.0236972248488945 1 0 0
459 153 1 0.5897 -10.528994700212262 4.169948348643489 10.770764404607615 0 0 0
541 181 2 -1.1794 -10.109811537265893 5.942263331677042 10.586876848504868 0 0 0
520 174 2 -1.1794 -10.808661200421325 2.6634892326411777 8.133182901943739 1 0 0
900 300 1 0.5897 -14.519230991662393 7.623353668076353 14.47664642141925 0 0 0
898 300 2 -1.1794 -13.833060134233305 7.307085218687506 13.888964577250153 0 0 0
649 217 2 -1.1794 -15.781333868386794 8.476057812188865 15.81181407528772 0 -1 0
875 292 1 0.5897 -13.882704399922238 4.012569246901176 14.950000128276663 0 0 0
899 300 1 0.5897 -13.535406571210927 6.488575425469282 14.286011376998418 0 0 0
945 315 1 0.5897 -14.278899330554424 7.278222984271684 12.0100128770415 1 0 0
874 292 2 -1.1794 -13.2483551967995 4.726079199138576 15.018932133562842 0 0 0
876 292 1 0.5897 -12.395759622461506 4.296517979516926 14.950241836511069 0 0 0
848 283 1 0.5897 -14.087868564257942 4.039944793117668 12.102688672762874 1 0 0
887 296 1 0.5897 -10.05718301035116 4.034023297108238 14.044158292979004 0 0 0
943 315 2 -1.1794 -14.178877266953716 6.956044805253606 11.114209350738117 1 0 0
944 315 1 0.5897 -14.331740484654405 6.013362231931573 11.17960308596263 1 0 0
886 296 2 -1.1794 -10.738224153018061 3.7061841775852216 14.63139048094245 0 0 0
894 298 1 0.5897 -10.534508495200154 8.248331601533392 12.610893271901249 0 0 0
769 257 2 -1.1794 -12.500475542414303 3.165984614715608 12.532631470642771 0 0 0
771 257 1 0.5897 -11.981901653343321 3.1885529135546378 11.728430640160836 0 0 0
926 309 1 0.5897 -8.780770189442503 5.218154787744 15.192238921366345 0 0 0
1209 403 1 0.5897 -13.039417319185187 6.041503090143127 16.249075248938436 0 0 0
1043 348 1 0.5897 -12.21434039348236 9.021072305621535 19.70979151204536 0 -1 0
1208 403 1 0.5897 -11.92430073011184 6.190363381550245 17.26200900538284 0 0 0
989 330 1 0.5897 -14.424499004361586 8.440165698920795 18.691308746513695 0 -1 0
1207 403 2 -1.1794 -12.702475730985936 6.632380195909748 16.922609069149747 0 0 0
1018 340 2 -1.1794 -11.551039491179967 7.4496102109404045 20.398011169832078 0 -1 0
1019 340 1 0.5897 -12.096215855195076 6.664987225757052 20.33961336151946 0 -1 0
1020 340 1 0.5897 -10.653633024750334 7.117294437260197 20.417305979078684 0 -1 0
1030 344 2 -1.1794 -9.080525413035502 6.0252111192959035 20.359446476522578 0 -1 0
1237 413 2 -1.1794 -10.44266664986939 5.27092082850641 17.841876422199633 0 0 0
1034 345 1 0.5897 -14.391377796724052 7.747553364226716 20.772236425840383 0 -1 0
1239 413 1 0.5897 -9.715912705236692 5.376774534312258 17.228069477491633 0 0 0
1238 413 1 0.5897 -10.096135944328797 5.578412588376617 18.679491492570115 0 0 0
650 217 1 0.5897 -15.517997958395494 8.91892050238677 16.61854366528909 0 -1 0
990 330 1 0.5897 -13.951168807964152 7.012972976285559 18.51459590320314 0 -1 0
1032 344 1 0.5897 -8.697404979753744 5.283179197638846 20.827147131886974 0 -1 0
988 330 2 -1.1794 -14.368923934375402 7.599384875152717 19.145406263974124 0 -1 0
1003 335 2 -1.1794 -13.043343361292484 5.146786100032751 20.42312816696361 0 -1 0
1005 335 1 0.5897 -13.510113852678343 4.918947947013692 19.619124995603098 0 -1 0
1033 345 2 -1.1794 -14.587455952983866 8.133132552146462 21.62615080622229 0 -1 0
1035 345 1 0.5897 -14.445166050728158 9.071833376947778 21.50413212417219 0 -1 0
980 327 1 0.5897 -12.369820720253378 8.429751779485548 16.57484506094493 0 -1 0
174 58 1 0.5897 -16.82054698209419 9.994937429540085 1.9443835636432378 1 0 0
173 58 1 0.5897 -15.373064153941986 10.422702789484758 1.8283757287551832 1 0 0
172 58 2 -1.1794 -15.941859483496492 9.654567268254128 1.7763873909417516 1 0 0
161 54 1 0.5897 -15.326675817237138 8.040491869217727 2.371571207595864 1 0 0
284 95 1 0.5897 -17.41045523758401 12.036100521713385 4.938073249592181 1 0 0
289 97 2 -1.1794 -14.559869314917167 10.486444899823644 4.7348003357716895 1 0 0
148 50 2 -1.1794 -18.47743670034091 10.836976313241651 2.29598263041528 1 0 0
150 50 1 0.5897 -18.874502658813427 11.418995181836996 1.6481319098276679 1 0 0
283 95 2 -1.1794 -16.869464298606545 12.168743889047418 4.159685337439922 1 0 0
291 97 1 0.5897 -15.399778669980265 10.945375188859062 4.744803495656966 1 0 0
216 72 1 0.5897 -13.386228430841292 9.766575060814967 3.550320710135934 1 0 0
194 65 1 0.5897 -14.04355454618754 12.445160321120587 2.5562438819660036 1 0 0
285 95 1 0.5897 -17.438013381568613 11.927795776948239 3.42833641689848 1 0 0
193 65 2 -1.1794 -14.37830739214215 12.137129064927633 1.7140468336879353 1 0 0
207 69 1 0.5897 -14.788712711713828 8.74108991732132 5.373042190938585 1 0 0
153 51 1 0.5897 -12.877946537226581 9.040462432597115 1.3259748979518353 1 0 0
215 72 1 0.5897 -12.534348741809582 8.526949927154869 3.378211107232295 1 0 0
151 51 2 -1.1794 -12.894659518143792 8.825475925047291 0.393379706574463 1 0 0
214 72 2 -1.1794 -12.689682611484532 9.39601134685327 3.008343066894663 1 0 0
152 51 1 0.5897 -13.219752056814063 7.925752532942164 0.3601734302107384 1 0 0
205 69 2 -1.1794 -14.824794023786652 7.792467509855223 5.4959739476641225 1 0 0
290 97 1 0.5897 -13.997615342745789 11.002572982057606 5.312502144807542 1 0 0
325 109 2 -1.1794 -13.133703936051841 13.082070159486817 10.316113847469671 0 -1 0
640 214 2 -1.1794 -13.910628882672249 12.400828133654679 7.050215962663704 1 0 0
566 189 1 0.5897 -13.752751705229219 10.160529199614833 9.911399370380568 0 0 0
630 210 1 0.5897 -12.831673507354232 9.500740742994518 7.723605505522187 1 0 0
629 210 1 0.5897 -13.79246555567575 10.64435737726234 7.970580429508468 1 0 0
628 210 2 -1.1794 -13.648383599677505 9.719761726400487 8.172151000195958 1 0 0
642 214 1 0.5897 -14.812463451564476 12.72146868013976 7.046026435788956 1 0 0
634 212 2 -1.1794 -15.690160740637644 8.291188113394357 9.286709199245578 1 0 0
635 212 1 0.5897 -14.906585801572671 8.586705164120497 8.82325184564371 1 0 0
567 189 1 0.5897 -13.745922942390777 11.425402253503483 10.743444505147576 0 0 0
646 216 2 -1.1794 -18.49304337136342 12.212521503808278 8.57758375683796 1 0 0
565 189 2 -1.1794 -13.727557939289179 10.471138026183093 10.816466996338768 0 0 0
647 216 1 0.5897 -18.20949823867506 11.367506231357266 8.92652375695796 1 0 0
525 175 1 0.5897 -11.920884770573208 7.952859685661165 5.932586949848445 1 0 0
624 208 1 0.5897 -16.980818572914863 9.453743206698677 9.673311900449292 1 0 0
327 109 1 0.5897 -13.89148153136625 13.553511824841424 9.97021664064352 0 -1 0
956 319 1 0.5897 -16.54021183621191 11.028963114907524 12.461258031628502 1 0 0
728 243 1 0.5897 -17.286276932232802 13.28832209719907 11.256639629608578 1 -1 0
877 293 2 -1.1794 -15.39644555060416 9.623814581598731 12.754846678509185 0 0 0
658 220 2 -1.1794 -16.41430730581248 12.426028568115418 15.020301613342358 0 -1 0
672 224 1 0.5897 -13.650397214963213 10.324922569362835 15.305086577534276 0 -1 0
671 224 1 0.5897 -13.240068747729211 11.374432880456444 14.29421751425621 0 -1 0
670 224 2 -1.1794 -13.994747587741355 11.05240049732974 14.787057925330837 0 -1 0
660 220 1 0.5897 -15.518646584896858 12.134876857269878 14.849478669959057 0 -1 0
683 228 1 0.5897 -17.120399635139997 13.961404532927082 14.09651509001455 0 -1 0
878 293 1 0.5897 -14.935108861912589 9.78005638201378 13.578820598782274 0 0 0
879 293 1 0.5897 -14.784357171795069 9.913536556714215 12.078432661337292 0 0 0
870 290 1 0.5897 -12.624321814055726 9.718037575557466 12.077802305599125 0 0 0
680 227 1 0.5897 -10.997211866405689 9.76008392345299 15.115003416696435 0 -1 0
955 319 2 -1.1794 -17.310526724683406 11.428782085529162 12.057695282649352 1 0 0
659 220 1 0.5897 -16.931229965067217 11.620420086294493 15.027264708359722 0 -1 0
868 290 2 -1.1794 -12.093077299271524 9.166289154090586 12.651800315401314 0 0 0
957 319 1 0.5897 -17.476455377705243 10.897427344602269 11.278947922543413 1 0 0
869 290 1 0.5897 -12.729531920859616 8.707592629019766 13.200119906983508 0 0 0
1022 341 1 0.5897 -13.317545492318093 12.818516084693636 18.835169062512662 0 -1 0
1126 376 2 -1.1794 -14.676120587815372 14.577335590794531 20.247032520228164 0 -1 0
992 331 1 0.5897 -15.423292654177645 13.471265314947013 17.72863899870195 0 -1 0
991 331 2 -1.1794 -16.262460849241737 13.825040195776301 17.434101452150372 0 -1 0
1119 373 1 0.5897 -15.02646992495309 11.04972952257305 21.184990679225 0 -1 0
1140 380 1 0.5897 -11.77367865204002 12.889652165884053 20.97334498511574 0 -1 0
1000 334 2 -1.1794 -15.122660128773061 10.030385829728347 17.876704804540832 0 -1 0
1138 380 2 -1.1794 -12.267808578887982 13.346525760073108 20.292747866728895 0 -1 0
1127 376 1 0.5897 -15.2353070917606 13.817129897516216 20.407107559042597 0 -1 0
1128 376 1 0.5897 -13.784547775074923 14.246349669567989 20.355084029194444 0 -1 0
1023 341 1 0.5897 -13.065564993086578 12.805610254583664 17.34248276470373 0 -1 0
1117 373 2 -1.1794 -14.08765867743529 10.863467425313532 21.19326755791247 0 -1 0
1098 366 1 0.5897 -17.565628724488462 14.456356016631387 18.457771690103478 0 -1 0
1044 348 1 0.5897 -12.860408072594613 10.389511788998183 19.754366851238103 0 -1 0
1001 334 1 0.5897 -14.62166770907886 10.840031389022988 17.77812405350476 0 -1 0
1021 341 2 -1.1794 -13.736382427382793 12.616518104552013 17.998524229897217 0 -1 0
1013 338 1 0.5897 -10.912089588911012 11.072748735251087 18.80262053915549 0 -1 0
981 327 1 0.5897 -12.176694276042824 9.724868905448519 17.334866341189812 0 -1 0
1042 348 2 -1.1794 -12.15167456071336 9.900268144882416 19.336550533259512 0 -1 0
1111 371 2 -1.1794 -16.519282981351253 12.163946865487683 20.55942750247149 0 -1 0
1141 381 2 -1.1794 -17.745922123426013 14.977722736653869 21.76163866131764 0 -1 0
979 327 2 -1.1794 -12.209926040031991 9.365032025929429 16.44847450797554 0 -1 0
1002 334 1 0.5897 -15.972397565184323 10.313677241004696 18.21415058989214 0 -1 0
993 331 1 0.5897 -16.5043085555957 13.278144652384873 16.686619600293678 0 -1 0
1118 373 1 0.5897 -13.704836641263611 11.582470089421362 21.696069676076707 0 -1 0
310 104 2 -1.1794 -3.551127175169259 -8.528002692230723 3.7400608945272245 1 1 0
241 81 2 -1.1794 -1.0942994279894336 -6.941215449803007 5.480702537552616 0 1 0
305 102 1 0.5897 -1.3286672710607075 -6.210025174447104 2.4757140996201614 1 1 0
304 102 2 -1.1794 -1.29390376387685 -7.126334551668458 2.7503275933915914 1 1 0
316 106 2 -1.1794 -1.7558013423506473 -4.567141171816077 1.5346558307650355 1 1 0
242 81 1 0.5897 -1.075392373615962 -7.0663073432653585 4.531914455513292 0 1 0
306 102 1 0.5897 -0.7557283856689381 -7.555982622443834 2.0854647202673955 1 1 0
311 104 1 0.5897 -3.008719538593976 -8.070031401273852 3.098037215285833 1 1 0
318 106 1 0.5897 -2.616344690886109 -4.152935176001523 1.5982057147218631 1 1 0
1 1 2 -1.1794 -0.8601694178230712 -4.158659234237958 4.888934234052455 0 0 0
199 67 2 -1.1794 0.36401842766445647 -8.059382868397327 0.8215819675090849 1 1 0
3 1 1 0.5897 -1.5370346608899066 -3.747677158012129 4.351292410105215 0 0 0
293 98 1 0.5897 -5.192749690734884 -4.132241168909308 2.1025703123573107 1 1 0
1262 421 1 0.5897 -1.8122583815895883 -5.90896289730969 0.12377553489944765 0 0 1
348 116 1 0.5897 -1.3785758011165985 -6.200779538543205 9.921765586580333 0 0 0
347 116 1 0.5897 -0.8972221775307911 -5.19231477908464 8.90049577051865 0 0 0
346 116 2 -1.1794 -1.6840329103087317 -5.643853132663993 9.20576903033769 0 0 0
336 112 1 0.5897 -3.1925687962557294 -4.9760020211693075 9.23232380551787 0 0 0
359 120 1 0.5897 -4.827529625490775 -2.8517692780142854 8.724295212891112 0 0 0
334 112 2 -1.1794 -4.078671047208382 -4.622651299792582 9.310417461572175 0 0 0
632 211 1 0.5897 -4.912173501078729 -5.557911538953899 6.525149423728328 1 1 0
356 119 1 0.5897 1.0714199631223895 -7.0890257865672694 10.173830474398956 0 0 0
554 185 1 0.5897 -2.8135478324722447 -6.463762780645786 7.710104885575397 0 1 0
555 185 1 0.5897 -2.6589176919955264 -6.813097431980543 6.245194362819329 0 1 0
553 185 2 -1.1794 -3.3102809172737375 -6.553816328183373 6.8968910422081775 0 1 0
546 182 1 0.5897 -0.0799134217444557 -7.687969787450628 6.830089342901299 0 1 0
335 112 1 0.5897 -4.627595375282134 -5.3875361048335835 9.483219124330274 0 0 0
404 135 1 0.5897 -5.511737326664413 -3.5144704063456125 5.9265475379280845 1 0 0
544 182 2 -1.1794 0.48211189525786935 -8.115114001055778 7.476445848070416 0 1 0
641 214 1 0.5897 -3.9682006662246794 -8.409466858303745 6.937178341046814 1 1 0
669 223 1 0.5897 -3.883603592362789 -3.7448079167164536 10.905530193043314 0 0 0
243 81 1 0.5897 -0.9108683784148326 -6.009795316870784 5.603789636362772 0 1 0
793 265 2 -1.1794 -1.832342731284772 -6.294072310192719 15.506860816513257 0 0 0
657 219 1 0.5897 -0.16863847918303243 -6.951898625102114 12.047817149650095 0 0 0
816 272 1 0.5897 0.3880855413461308 -4.050476416788981 15.43452375034456 0 0 0
795 265 1 0.5897 -2.4553130116157877 -5.944572166267493 14.869787607122865 0 0 0
667 223 2 -1.1794 -3.786019489904108 -3.1783088693439376 11.670961149571896 0 0 0
668 223 1 0.5897 -3.044917951400901 -3.5484265927658 12.15042837475924 0 0 0
718 240 2 -1.1794 0.3603808956618959 -7.016818327560157 13.972009583106273 0 0 0
697 233 2 -1.1794 -1.370904646574143 -4.5642509653328 12.629032001401796 0 0 0
720 240 1 0.5897 -0.36879708597887095 -6.661316601990208 14.480085766790229 0 0 0