LAMMPS data file via write_data, version 30 Jul 2021, timestep = 20250000

1296 atoms
2 atom types
864 bonds
1 bond types
432 angles
1 angle types

-10.722722769780663 12.702722769780664 xlo xhi
-9.165456448489133 12.155454448489133 ylo yhi
0.07051536896148569 21.789483631038827 zlo zhi
-9.191413429175217 1.846527659810584 2.9914574101390414 xy xz yz

Masses

1 1.008
2 15.999

Pair Coeffs # lj/cut/tip4p/long/omp

1 0 0
2 0.21084 3.1668

Bond Coeffs # harmonic/omp

1 450 0.9572

Angle Coeffs # harmonic/omp

1 55 104.52

Atoms # full

280 94 2 -1.1794 -9.766684700674844 -4.576373443691293 1.5882465056502555 1 1 0
270 90 1 0.5897 -8.584356620887775 -7.498679844163302 1.9505357746610008 1 1 0
269 90 1 0.5897 -9.325672202485485 -6.218365408404397 2.2711866380252914 1 1 0
268 90 2 -1.1794 -9.213993945860336 -7.122327723743222 2.565358911080233 1 1 0
314 105 1 0.5897 -8.872801342531018 -6.847145690751859 4.443178297394804 1 1 0
299 100 1 0.5897 -6.656273027887173 -7.993225699560975 4.116231922536857 1 1 0
163 55 2 -1.1794 -7.190787724530498 -7.838307740175559 0.7049224443683788 1 1 0
164 55 1 0.5897 -6.471790349492856 -8.335699323838003 1.094669111308694 1 1 0
298 100 2 -1.1794 -6.0674712186544095 -7.238548027635478 4.115934567654256 1 1 0
73 25 2 -1.1794 -8.558151654984133 -3.75729904407328 4.618197420911653 1 0 0
261 87 1 0.5897 -6.880993872026667 -4.719803515373765 1.0180637358810363 1 1 0
323 108 1 0.5897 -6.447796378077775 -5.809791914941455 3.102404150426911 1 1 0
324 108 1 0.5897 -7.284988015684887 -4.607511942738167 3.4834622916954174 1 1 0
300 100 1 0.5897 -5.191663907790959 -7.617390427899839 4.040727738690082 1 1 0
282 94 1 0.5897 -10.634475666635804 -4.174278397149078 1.5496005248810316 1 1 0
260 87 1 0.5897 -6.791931097469665 -6.002011432486836 0.21835665346079924 1 1 0
293 98 1 0.5897 -5.220013012420227 -4.151546553745661 2.2560222442817426 1 1 0
259 87 2 -1.1794 -6.6948181509125275 -5.052999142423115 0.14033714759040594 1 1 0
322 108 2 -1.1794 -6.648343258289506 -4.91229363853439 2.837017574308942 1 1 0
317 106 1 0.5897 -1.3524625387287639 -3.6996601870830084 1.5048441599626663 1 1 0
275 92 1 0.5897 -10.725038988800666 -8.002311320117915 3.3092051647599305 1 1 0
315 105 1 0.5897 -8.94583969739353 -5.526567590497564 5.179562295081574 1 1 0
75 25 1 0.5897 -9.396392230644713 -3.3232370425167526 4.459520193526746 1 0 0
304 102 2 -1.1794 -1.3570437076929238 -7.17350460870986 2.472788023874966 1 1 0
318 106 1 0.5897 -2.6993862264370723 -4.332439352655733 1.7829265759302944 1 1 0
242 81 1 0.5897 -1.1863552848199 -6.883962324667582 4.264667830095707 0 1 0
305 102 1 0.5897 -1.4647673816858653 -6.249375648157305 2.2480061623223295 1 1 0
316 106 2 -1.1794 -1.7908116925671127 -4.547869721515099 1.5725532253345145 1 1 0
311 104 1 0.5897 -2.925694775996533 -8.00008294543749 3.1374761572851733 1 1 0
306 102 1 0.5897 -0.5213365262358458 -7.420864483401399 2.07708788572286 1 1 0
199 67 2 -1.1794 0.6223920728406647 -8.072083311490703 0.8702705653831787 1 1 0
310 104 2 -1.1794 -3.6119027647989252 -8.379493098347819 3.686440806739351 1 1 0
3 1 1 0.5897 -1.425734606680681 -3.5570523574579216 3.9277849324737457 0 0 0
243 81 1 0.5897 -1.1382778134807285 -5.506404303154895 4.890438962746529 0 1 0
241 81 2 -1.1794 -1.2123791394852894 -6.435171164933612 5.109653802079489 0 1 0
313 105 2 -1.1794 -8.896109902752777 -6.471565615227928 5.323235101629089 1 1 0
281 94 1 0.5897 -9.15841975562069 -3.8459564084833646 1.4753887940716583 1 1 0
292 98 2 -1.1794 -4.4973862105188385 -3.6409863262731923 1.8908239063150893 1 1 0
257 86 1 0.5897 -12.750959838772426 -3.604964043224384 2.2470512559431146 1 1 0
74 25 1 0.5897 -8.195030526813074 -3.3067957815135243 5.380680331284467 1 0 0
1262 421 1 0.5897 -2.002812332845526 -5.673351041466217 0.12989091388940202 0 0 1
420 140 1 0.5897 -9.28220487818157 -6.40473815014308 9.848518361307367 1 0 0
618 206 1 0.5897 -7.909152645944808 -7.212744126407425 6.469024402676128 1 1 0
413 138 1 0.5897 -7.501255275646969 -3.693079136070775 7.663558870400288 1 0 0
419 140 1 0.5897 -8.7831820042361 -5.41768975312561 8.81485990963097 1 0 0
418 140 2 -1.1794 -9.58161807297185 -5.831187124215948 9.143106836872771 1 0 0
414 138 1 0.5897 -6.667927058296581 -4.9529170168770476 7.563444326388323 1 0 0
350 117 1 0.5897 -7.215460154745319 -3.9906442708650793 9.943087653847687 0 0 0
412 138 2 -1.1794 -7.305999806499507 -4.509945708371204 8.122672703672524 1 0 0
429 143 1 0.5897 -6.3858570157380505 -6.834696865825395 8.755912618304281 1 0 0
427 143 2 -1.1794 -5.902614451652024 -6.793173177687389 9.581138513512201 1 0 0
428 143 1 0.5897 -6.568035501136842 -6.927917608892524 10.25583530620099 1 0 0
545 182 1 0.5897 -0.40905617693700513 -7.96399569806275 7.69940267016051 0 1 0
359 120 1 0.5897 -4.7625548907977455 -3.1272256947449373 8.695838169670564 0 0 0
627 209 1 0.5897 -10.370894418481056 -6.752045612242151 6.37352181586259 1 1 0
544 182 2 -1.1794 0.2944983770788241 -7.527265013607003 7.219321455635828 0 1 0
631 211 2 -1.1794 -5.542094936449503 -5.436706855492794 6.328125188312917 1 1 0
346 116 2 -1.1794 -1.7402449805314433 -5.674836884240199 9.01234380752581 0 0 0
632 211 1 0.5897 -4.775067933533203 -5.829577603935402 6.744781378244775 1 1 0
335 112 1 0.5897 -4.851436651779882 -5.289451518638554 9.625693146891546 0 0 0
546 182 1 0.5897 -0.14803911316419693 -7.084584738420512 6.495142122493653 0 1 0
553 185 2 -1.1794 -3.2024444363607376 -6.7585649522541456 7.028243390121648 0 1 0
554 185 1 0.5897 -2.6430460851514344 -6.541993765250477 7.774183687732397 0 1 0
334 112 2 -1.1794 -4.262412591996741 -4.53495167974687 9.628690775235656 0 0 0
356 119 1 0.5897 1.1189150619030368 -6.816147869516753 10.16653914321048 0 0 0
555 185 1 0.5897 -2.6638024228806856 -6.566525941670507 6.260695641646955 0 1 0
347 116 1 0.5897 -0.9239085677380956 -5.37447864234206 8.612832537340587 0 0 0
348 116 1 0.5897 -1.4633449404779544 -6.295507920012435 9.686364572061265 0 0 0
336 112 1 0.5897 -3.453429738554158 -4.860395998364536 9.234006363514156 0 0 0
616 206 2 -1.1794 -7.426652395859401 -7.773359941221775 7.076588780663808 1 1 0
404 135 1 0.5897 -5.294189746812518 -3.809911092758531 5.76023728247076 1 0 0
351 117 1 0.5897 -7.251476960648999 -2.675391356557844 10.691641789487678 0 0 0
349 117 2 -1.1794 -7.3484953254734835 -3.6195563811987164 10.815257105733904 0 0 0
626 209 1 0.5897 -10.630478329653538 -6.454632627360111 7.834925646227207 1 1 0
633 211 1 0.5897 -5.8419897382318595 -6.098314383099554 5.704826917770371 1 1 0
652 218 2 -1.1794 -5.774121478341856 -5.360919603216045 12.600641314063449 0 0 0
780 260 1 0.5897 -7.479535471866203 -3.7927641529390055 15.213430913564045 0 0 0
779 260 1 0.5897 -7.222323250329597 -2.6701112905303725 14.23096196347583 0 0 0
778 260 2 -1.1794 -7.928311903926332 -3.1565226287389256 14.656637379651965 0 0 0
768 256 1 0.5897 -9.57793571133459 -2.5373853122587757 14.830629693348934 0 0 0
654 218 1 0.5897 -6.227582795241557 -4.657944507406398 12.135441576486727 0 0 0
653 218 1 0.5897 -6.459146085576393 -5.790594092670295 13.112802360524912 0 0 0
662 221 1 0.5897 -9.118143324785652 -4.240599733862719 13.36296950254311 0 0 0
661 221 2 -1.1794 -9.537274887701125 -4.492578077326332 12.540136242637367 0 0 0
663 221 1 0.5897 -8.902181441187858 -4.254636531618566 11.864707360349458 0 0 0
684 228 1 0.5897 -8.470525680639481 -6.42162536946408 14.45859007093088 0 0 0
655 219 2 -1.1794 -0.5084758128497135 -7.229445765283167 10.946876496769885 0 0 0
682 228 2 -1.1794 -7.855951198979019 -6.687370172340589 13.774646323292577 0 0 0
766 256 2 -1.1794 -10.446430788030662 -2.160542152577017 14.971709955733207 0 0 0
795 265 1 0.5897 -2.891212111044295 -5.577249434231829 15.335182179321892 0 0 0
740 247 1 0.5897 -11.08586675959382 -3.196891807418133 12.240022023329603 1 0 0
727 243 2 -1.1794 -8.200238334696904 -7.23328973306408 11.10268061202456 1 0 0
788 263 1 0.5897 -4.854923711488131 -4.33375589424951 15.293808378890251 0 0 0
729 243 1 0.5897 -8.168554113194773 -6.853051843572239 11.980478698080946 1 0 0
789 263 1 0.5897 -4.398353799122073 -4.6764169442024865 13.891786759641366 0 0 0
720 240 1 0.5897 -0.851785245037199 -6.410454696588591 14.438180650128546 0 0 0
787 263 2 -1.1794 -4.100829146461867 -4.273406800898052 14.707404929628627 0 0 0
774 258 1 0.5897 -5.167397322231182 -2.291212645626671 12.897491047480225 0 0 0
678 226 1 0.5897 -4.119398761586057 -6.261311799228629 12.197540182167055 0 0 0
804 268 1 0.5897 -1.7533424067712762 -2.353118108257889 14.778175065486296 0 0 0
802 268 2 -1.1794 -2.6573922803952836 -2.043299552071918 14.832376378382657 0 0 0
698 233 1 0.5897 -1.2264734213748874 -3.865181291257888 13.158096372780047 0 0 0
699 233 1 0.5897 -0.9595891114385413 -4.020360300068472 11.676115866716339 0 0 0
697 233 2 -1.1794 -1.6289623109801052 -4.168030296436328 12.344167632746318 0 0 0
718 240 2 -1.1794 -0.2563564876556672 -6.713079617937919 13.752632756816777 0 0 0
677 226 1 0.5897 -2.682447033787742 -5.799247098974373 12.314776970214051 0 0 0
668 223 1 0.5897 -3.0765918970238078 -3.1329425955537022 11.963221579864609 0 0 0
793 265 2 -1.1794 -2.063413787248207 -5.931442250593301 15.660095577698254 0 0 0
816 272 1 0.5897 0.38805863753924186 -3.7276578746795472 15.10973192993733 0 0 0
667 223 2 -1.1794 -3.9066384392668922 -2.788777024377965 11.633292199459566 0 0 0
676 226 2 -1.1794 -3.223438321591736 -6.5881090095661925 12.279510154097146 0 0 0
814 272 2 -1.1794 -0.021445286579693246 -3.098655978670063 14.515691058521881 0 0 0
803 268 1 0.5897 -3.1884055093973203 -2.8329419442945856 14.728887249438207 0 0 0
767 256 1 0.5897 -11.0221987639782 -2.9177126206208204 15.078517454065262 0 0 0
657 219 1 0.5897 -0.5279835136562969 -6.810396897242871 11.80717708566181 0 0 0
757 253 2 -1.1794 -9.798799848043085 -5.514703249440463 15.56008836689116 0 0 0
794 265 1 0.5897 -1.7292297962981635 -5.256915467198436 16.251284482423124 0 0 0
739 247 2 -1.1794 -11.789248168181729 -2.733990376017224 11.78479285566792 1 0 0
689 230 1 0.5897 1.2329632861937991 -5.608287028968485 13.07861639420587 0 0 0
669 223 1 0.5897 -4.1688917874279 -3.407199817230043 10.951433942562142 0 0 0
1087 363 2 -1.1794 -6.402044786201192 -4.718104562438349 16.260218908766348 0 0 0
1150 384 2 -1.1794 -6.1592072795727955 -4.298304672302516 18.986304244208696 0 0 0
1152 384 1 0.5897 -6.799370724107414 -3.9005540693366836 19.57628903190806 0 0 0
1227 409 1 0.5897 -8.809309336224764 -2.8163410030338785 20.672018995973623 0 0 0
1109 370 1 0.5897 -8.775482484594157 -3.3407307772489307 17.864587442855566 0 0 0
1089 363 1 0.5897 -6.304765301240162 -4.38567234719017 17.152493912427303 0 0 0
1151 384 1 0.5897 -5.951406743587927 -5.14072841868689 19.390424664833283 0 0 0
1108 370 2 -1.1794 -9.460487389082825 -4.009149088397361 17.849079248663877 0 0 0
1225 409 2 -1.1794 -7.9943057898721595 -3.2314299938295363 20.95436659310286 0 0 0
1131 377 1 0.5897 -7.253011265605851 -1.879612905853624 17.083865549852263 0 0 0
1110 370 1 0.5897 -10.246888054183913 -3.5539942436064376 18.150013522473323 0 0 0
1165 389 2 -1.1794 0.07454279022817722 -1.582726378731456 17.71105510946841 0 0 0
1141 381 2 -1.1794 -8.80244348133003 -5.9039548019500465 21.72697103130939 0 0 0
1088 363 1 0.5897 -6.495267179239421 -5.664847926892409 16.365720226232277 0 0 0
1143 381 1 0.5897 -8.653660471269266 -4.991573130888002 21.478811444142586 0 0 0
1221 407 1 0.5897 -10.953632354908748 -2.0662101318397816 19.648632296714894 0 0 0
1248 416 1 0.5897 -5.867544650775123 -1.2349501800739695 20.551735553774954 0 0 0
1124 375 1 0.5897 0.9810863110144421 -5.645875919756993 16.59168044225111 0 0 0
201 67 1 0.5897 2.167947953044429 -5.508337563988855 21.787582898662123 1 1 -1
1129 377 2 -1.1794 -7.77522514746291 -1.8647635921629693 17.885853548613476 0 0 0
1219 407 2 -1.1794 -10.485455799271165 -1.8907548873584554 20.46488053955794 0 0 0
1121 374 1 0.5897 -4.723852579830401 -3.335394823269823 18.49486059416278 0 0 0
1144 382 2 -1.1794 -1.5364513938748292 -3.9580827644849244 17.44509075373327 0 0 0
1097 366 1 0.5897 -9.294708806515807 -5.678671789959607 18.625675672960035 0 0 0
1186 396 2 -1.1794 1.3664204903805786 -4.241922003586145 19.177768179897583 0 0 0
1263 421 1 0.5897 -1.223157767208896 -2.932058637669403 20.804239116237518 0 0 0
1133 378 1 0.5897 -1.222473465416364 -5.634397373555499 18.492675698498253 0 0 0
1188 396 1 0.5897 0.8214704237898616 -3.7413903994466278 19.784859245875275 0 0 0
1257 419 1 0.5897 -3.023637272046428 -2.0167215471225344 19.48321695270664 0 0 0
1255 419 2 -1.1794 -2.6228979275398228 -1.8275858808394458 20.331658557134176 0 0 0
1261 421 2 -1.1794 -0.4039184884085376 -3.2867787544175506 21.14961805757808 0 0 0
1256 419 1 0.5897 -3.3459514340654337 -1.8837139679967967 20.95630767595854 0 0 0
1120 374 2 -1.1794 -3.9770380812448822 -2.8910205385697942 18.09358214558889 0 0 0
1146 382 1 0.5897 -2.3952249844788476 -3.574893977090796 17.623608717280817 0 0 0
1122 374 1 0.5897 -4.369286537183756 -2.2277126048795886 17.52579988305103 0 0 0
1145 382 1 0.5897 -0.912497812534367 -3.2791323417831633 17.701907278583718 0 0 0
1187 396 1 0.5897 1.4438661130268606 -5.106254443701086 19.58160696615881 0 0 0
1096 366 2 -1.1794 -9.061244898113408 -6.567478141879702 18.893400368300007 0 0 0
1177 393 2 -1.1794 -1.1171460094006278 -6.012738055297125 21.56837805627793 0 0 0
1132 378 2 -1.1794 -1.3643336227330742 -6.550489572397318 18.73101901831931 0 0 0
1125 375 1 0.5897 1.377285930966373 -4.3556638666694205 17.277277597866117 0 0 0
1179 393 1 0.5897 -0.81288220948149 -5.138882951126211 21.323464854267627 0 0 0
1130 377 1 0.5897 -7.158430723661708 -1.6016581633827442 18.568945419277448 0 0 0
165 55 1 0.5897 -5.565465265587499 -5.328914460201242 21.6271335569185 1 1 -1
1226 409 1 0.5897 -7.714099861550786 -2.7190632290442522 21.71273650822117 0 0 0
758 253 1 0.5897 -9.543141939383457 -5.055142041921334 16.359841209288277 0 0 0
1123 375 2 -1.1794 1.3099143229119896 -4.764592686904512 16.41451636583836 0 0 0
103 35 2 -1.1794 -2.9671683567894407 -2.5178548792369746 3.8598793252587518 1 0 0
301 101 2 -1.1794 -8.03105594793481 -2.337820562944044 1.5268894388454313 1 1 0
99 33 1 0.5897 -11.800231418387204 1.550620840892261 5.350471035082759 1 0 0
27 9 1 0.5897 -4.050227222283617 1.7900122584420792 5.3041731153746605 0 0 0
107 36 1 0.5897 -9.617745647469363 1.5030590602816325 3.2657472052343612 1 0 0
59 20 1 0.5897 -13.694857806869713 -0.7271582596110946 3.4999349085907125 1 0 0
67 23 2 -1.1794 -10.754801573109392 -2.182835383339615 4.076992497248024 1 0 0
68 23 1 0.5897 -11.4154930651376 -2.4284574074151344 4.724543108609605 1 0 0
52 18 2 -1.1794 -12.217845216888989 0.052758452269630496 2.8190865506398524 1 0 0
53 18 1 0.5897 -12.395975660232603 0.9370754485392272 2.499075479956263 1 0 0
258 86 1 0.5897 -12.484478651323261 -2.5411133664819214 1.2035132197304335 1 1 0
88 30 2 -1.1794 -4.667041721291887 0.13962536028654782 2.6934799771693543 1 0 0
69 23 1 0.5897 -11.16421388022518 -2.372342057374378 3.2327896841463324 1 0 0
82 28 2 -1.1794 -9.098608779157045 0.0047011674845283125 4.166225850350968 1 0 0
98 33 1 0.5897 -12.083491338312788 0.3330697756420484 4.4966754888393 1 0 0
54 18 1 0.5897 -11.54386445309234 -0.28464818018061244 2.2291854934080386 1 0 0
83 28 1 0.5897 -9.765530436878281 -0.6801841685592649 4.117459268161743 1 0 0
272 91 1 0.5897 -9.559796100088356 -1.2038720336371505 1.2919173007372802 1 1 0
271 91 2 -1.1794 -10.342360053350532 -0.8299636755634587 0.886865958519622 1 1 0
302 101 1 0.5897 -7.610636291557968 -2.0395195781524276 2.333410590350175 1 1 0
303 101 1 0.5897 -7.3651642422814625 -2.216321182887091 0.8501473894419795 1 1 0
44 15 1 0.5897 -10.23210583959526 0.9945709519326105 0.19898016404725433 1 0 0
89 30 1 0.5897 -4.763232122629146 1.0460736271353728 2.4014904170890925 1 0 0
90 30 1 0.5897 -3.984520829608174 -0.22315403898260122 2.1289781279003788 1 0 0
95 32 1 0.5897 -6.022533132058098 -0.8945408149001892 3.2769550499113063 1 0 0
84 28 1 0.5897 -8.269192783803646 -0.4707850181152562 4.21313356148506 1 0 0
104 35 1 0.5897 -3.580311915024774 -2.61575173775058 4.588308795810521 1 0 0
26 9 1 0.5897 -4.1676820040951235 0.505096070944246 4.512483333932696 0 0 0
96 32 1 0.5897 -6.376131335918926 -1.7580471807765914 4.469039407377611 1 0 0
94 32 2 -1.1794 -6.766752904477718 -1.2886903512238836 3.7319233774622647 1 0 0
294 98 1 0.5897 -4.90327808044137 -3.102814438077808 1.211227119238178 1 1 0
105 35 1 0.5897 -3.483598317209661 -2.7277429248368676 3.0817422745438985 1 0 0
1010 337 1 0.5897 -12.93320678475238 1.2662830368982814 0.12082603992067528 0 -1 1
256 86 2 -1.1794 -12.044394619746289 -3.1015254570998936 1.8426520152742745 1 1 0
307 103 2 -1.1794 -2.846518448572784 -0.8552974424025948 0.748120279454381 1 1 0
25 9 2 -1.1794 -4.13425127070317 0.8421876150492125 5.407676487470848 0 0 0
97 33 2 -1.1794 -11.881210089902762 0.5978910417841341 5.39395451581166 1 0 0
273 91 1 0.5897 -10.572072187022794 -1.4478849595549788 0.19292600051173264 1 1 0
1046 349 1 0.5897 -5.020936735939804 1.3096882860772432 0.15745468074093655 0 -1 1
433 145 2 -1.1794 -6.70822349354645 -0.9101556230353545 10.204410059250707 0 0 0
401 134 1 0.5897 -11.26102220453839 -1.4173261091992906 7.774765084116317 1 0 0
527 176 1 0.5897 -12.097420597524719 1.6779417660903029 8.54567417192433 1 0 0
535 179 2 -1.1794 -9.070211718695747 0.146760927477267 9.444215983933923 1 0 0
424 142 2 -1.1794 -8.053713214038119 -2.1547126896936515 6.825138463360112 1 0 0
528 176 1 0.5897 -12.1346787643077 0.7830209501468168 9.766124554590274 1 0 0
426 142 1 0.5897 -8.917920774457668 -1.7696497673976364 6.97029465454896 1 0 0
402 134 1 0.5897 -10.992975630841718 -0.4402605717875758 6.649934676051437 1 0 0
400 134 2 -1.1794 -10.553941948046054 -0.9471100548009375 7.33300585518339 1 0 0
536 179 1 0.5897 -9.751819599573784 0.19417620326366958 10.114505728216749 1 0 0
526 176 2 -1.1794 -12.696917803625823 1.1782298081916505 9.099826090046488 1 0 0
537 179 1 0.5897 -9.545815268015023 -0.01530079217437219 8.62949139710483 1 0 0
329 110 1 0.5897 -3.599284317237971 -1.387448006239552 7.540853735619657 0 0 0
435 145 1 0.5897 -7.577846413902829 -0.6382779456411356 9.910937122646368 0 0 0
434 145 1 0.5897 -6.480637539571177 -0.28482745608556037 10.892388213689584 0 0 0
360 120 1 0.5897 -5.525178555505401 -1.8489918094982283 8.971713414623594 0 0 0
425 142 1 0.5897 -7.455918467349287 -1.4071665065588173 6.818033672793656 1 0 0
338 113 1 0.5897 -5.997404763696753 0.4748408428539719 7.644629365110251 0 0 0
455 152 1 0.5897 -4.302972309290511 1.866862193840186 8.894086636643683 0 0 0
339 113 1 0.5897 -5.797640216473078 0.31920403013025833 6.152162019135337 0 0 0
328 110 2 -1.1794 -2.824251656527764 -0.9277637205545624 7.217972998331439 0 0 0
454 152 2 -1.1794 -4.916411841820846 1.3850952893413506 9.448867625411854 0 0 0
358 120 2 -1.1794 -5.023138745594926 -2.2992173961677054 8.292508067580307 0 0 0
443 148 1 0.5897 -8.120585566207975 1.7748210842133965 9.526621472781153 0 0 0
416 139 1 0.5897 -7.939175971598102 1.1409583740110953 6.624347124499418 1 0 0
444 148 1 0.5897 -6.616090185679353 1.9336148840491276 9.584510524061866 0 0 0
442 148 2 -1.1794 -7.433421601025192 2.417814647540931 9.70161573264451 0 0 0
456 152 1 0.5897 -4.361493480794271 0.9366566743225935 10.086993332524605 0 0 0
405 135 1 0.5897 -5.200604406084497 -2.474874736959075 6.467699598898133 1 0 0
411 137 1 0.5897 -13.492356796946329 0.2701106113727736 6.325346526015191 1 0 0
415 139 2 -1.1794 -8.740069716738956 1.5518388200709747 6.298749607833916 1 0 0
330 110 1 0.5897 -3.1737883700133844 -0.19872924390645785 6.705591535265781 0 0 0
337 113 2 -1.1794 -6.420982828917819 0.13736354620495383 6.855388740125036 0 0 0
464 155 1 0.5897 -1.9165039450649566 0.049050944994732504 10.133470481500328 0 0 0
410 137 1 0.5897 -13.77837647396721 0.5680972014687011 7.781699613468987 1 0 0
403 135 2 -1.1794 -5.164845906018498 -2.875319312618614 5.599098341256025 1 0 0
522 174 1 0.5897 -9.836611523494236 2.1871475288278557 7.573401732012289 1 0 0
417 139 1 0.5897 -9.068347447034245 0.9453160750654774 5.635020947400949 1 0 0
354 118 1 0.5897 -1.2638832667268858 -1.7600161555996845 6.825559035215433 0 0 0
465 155 1 0.5897 -1.8545368058256102 -0.011787874450236657 8.622143921990993 0 0 0
458 153 1 0.5897 -10.405715028604106 2.824618333786594 9.969550232255664 0 0 0
818 273 1 0.5897 -5.618521534947657 -1.579494355773856 15.221483937664814 0 0 0
772 258 2 -1.1794 -5.823767618878556 -1.91101791060931 13.481214899899843 0 0 0
805 269 2 -1.1794 -4.739405057522449 3.025764182429917 12.4434743127345 0 0 0
792 264 1 0.5897 -11.587866519181201 0.6054999149901974 14.511511237225221 0 0 0
835 279 2 -1.1794 -11.201706293913652 -0.10892820719986496 11.081662043859192 1 0 0
760 254 2 -1.1794 -8.859273412272984 1.5530236311097116 12.79722262001335 0 0 0
837 279 1 0.5897 -11.359987351277331 0.184551213076519 11.978823916727345 1 0 0
791 264 1 0.5897 -10.721270969882717 -0.5720168605614386 14.119098022178648 0 0 0
762 254 1 0.5897 -9.196623409416878 2.1766707263703307 12.154219124513597 0 0 0
790 264 2 -1.1794 -11.001690954790925 0.29361070055483474 13.822153484177258 0 0 0
761 254 1 0.5897 -9.641573131175665 1.1515132044369718 13.175394173104245 0 0 0
807 269 1 0.5897 -4.082916219483946 3.092888152029527 11.750175975309663 0 0 0
769 257 2 -1.1794 -12.525605853035033 2.7193664994440514 12.531567834651646 0 0 0
896 299 1 0.5897 -8.093410988117832 2.647930350872981 15.685417574890545 0 0 0
786 262 1 0.5897 -7.239535717069254 0.9928181167001107 12.4119562102995 0 0 0
888 296 1 0.5897 -10.739397400142202 3.3637005388363175 15.32625899760969 0 0 0
897 299 1 0.5897 -7.788037261964247 2.4346893645041607 14.218156347378292 0 0 0
895 299 2 -1.1794 -7.424325104150637 2.8094895367208945 15.020300494094625 0 0 0
806 269 1 0.5897 -4.268773469994922 3.2610423057265745 13.243089345718934 0 0 0
901 301 2 -1.1794 -5.183353194125655 1.3283758209730419 15.719011900957657 0 0 0
770 257 1 0.5897 -12.222888325839854 3.082832556646469 13.363695018411443 0 0 0
903 301 1 0.5897 -5.92954911785403 1.8918178088825215 15.514215447405812 0 0 0
784 262 2 -1.1794 -6.358687292090956 0.6229440317183421 12.471544975287072 0 0 0
826 276 2 -1.1794 -3.1360081210952613 0.42490503590590656 13.975740944633944 0 0 0
828 276 1 0.5897 -3.835271672920917 0.7210018337175885 14.558381595265475 0 0 0
773 258 1 0.5897 -6.023504486103391 -1.0584136893768221 13.094764917878097 0 0 0
819 273 1 0.5897 -5.649125382486956 -0.38722661215529364 16.153739297001742 0 0 0
785 262 1 0.5897 -5.790964737327245 1.3782735894729168 12.624475475364328 0 0 0
765 255 1 0.5897 -3.362169807551661 0.11407295082280733 12.097279230288121 0 0 0
827 276 1 0.5897 -2.993320275665422 -0.4900773635043354 14.217814210454073 0 0 0
817 273 2 -1.1794 -5.657932458958987 -1.3443195389980351 16.14844422226676 0 0 0
924 308 1 0.5897 -2.7880541517462953 3.146652528080379 15.19533312018475 0 0 0
836 279 1 0.5897 -11.465743004529594 -1.028953845853291 11.080048305467269 1 0 0
797 266 1 0.5897 -1.8371200517854795 1.5801925028809336 13.087777077334891 0 0 0
771 257 1 0.5897 -11.757657311646332 2.7537341613891915 11.961270185961606 0 0 0
1137 379 1 0.5897 -2.6111963583407913 -0.8693495364938304 16.31687616969767 0 0 0
764 255 1 0.5897 -3.7284103303973417 -1.0242847408677154 11.169015114530085 0 0 0
763 255 2 -1.1794 -3.3736432145674655 -0.1352965414795353 11.173263710108301 0 0 0
865 289 2 -1.1794 -12.756096484352664 1.3129268786211181 15.680824554442616 0 0 0
1196 399 1 0.5897 -9.813561889475142 1.2420358920600734 16.354582423487955 0 0 0
1246 416 2 -1.1794 -6.221001256158585 -0.7563024544491501 19.801943433689978 0 0 0
1229 410 1 0.5897 -7.867263837537381 3.7044057779737987 18.28917063469735 0 0 0
1136 379 1 0.5897 -1.4128389827356642 -0.7094885285830586 17.228178052550753 0 0 0
1272 424 1 0.5897 -0.12706159027732689 0.011876263314585245 20.199244562326534 0 0 0
1271 424 1 0.5897 -1.5744213547673382 -0.4253561483225017 20.276544258152107 0 0 0
1236 412 1 0.5897 -8.016770861785307 -0.08805302024065753 20.241607090413652 0 0 0
1204 402 2 -1.1794 -11.809667786411975 0.5688874284728787 19.182425403520092 0 0 0
1009 337 2 -1.1794 -11.172726428652695 3.775670986557353 21.017410260346495 0 -1 0
1100 367 1 0.5897 -9.15914838268256 -0.771313305357209 17.38191283445431 0 0 0
1234 412 2 -1.1794 -8.822300240984475 0.3798583838614391 20.461464747973082 0 0 0
1259 420 1 0.5897 -9.021186743597893 1.9665087430943462 19.5486106360688 0 0 0
1258 420 2 -1.1794 -9.280357871691141 2.8284935662870616 19.223070304336837 0 0 0
1260 420 1 0.5897 -9.89408342852386 3.1582550258412088 19.87934242050249 0 0 0
1216 406 2 -1.1794 -12.598359471200524 2.977151421531355 17.965116649566035 0 0 0
1197 399 1 0.5897 -9.76438192225459 2.3746947496983672 17.357691678859403 0 0 0
1206 402 1 0.5897 -11.208642045313137 0.18994714628204967 18.54113111336445 0 0 0
1235 412 1 0.5897 -9.513142524442648 -0.2767654703719131 20.372937812225558 0 0 0
1099 367 2 -1.1794 -10.035824693628536 -0.47047616227869504 17.14271540534859 0 0 0
1252 418 2 -1.1794 -4.559119649538446 3.1774910868572004 17.90300788155087 0 0 0
1294 432 2 -1.1794 -1.6172057945583784 2.901429623845644 19.279308517984184 0 0 0
1011 337 1 0.5897 -11.979578952318265 4.1105706083568805 20.6261027507633 0 -1 0
1217 406 1 0.5897 -11.90489404897986 3.6330361241215208 18.037051735003352 0 0 0
1287 429 1 0.5897 -3.7818901488716374 2.0083205669561526 21.77138984434761 0 0 0
1045 349 2 -1.1794 -3.5392878498004965 3.7571882249617925 21.178456320198656 0 -1 0
1247 416 1 0.5897 -5.461973014683985 -0.31721311933750407 19.418147952581997 0 0 0
1295 432 1 0.5897 -1.3646464967789296 2.0240026598134317 19.566530891256775 0 0 0
1241 414 1 0.5897 -4.118239496928226 1.5989762943916208 18.699084307602725 0 0 0
1135 379 2 -1.1794 -2.26355015077554 -0.32248396299102033 17.021329583539362 0 0 0
1240 414 2 -1.1794 -4.0187936802722675 0.6674421979367828 18.895297574535313 0 0 0
1101 367 1 0.5897 -10.286214357465415 -1.0241982832598033 16.403222549671256 0 0 0
1195 399 2 -1.1794 -9.78417037807086 2.19666142748134 16.41745561168468 0 0 0
1254 418 1 0.5897 -5.431908548974045 3.5515926407566596 17.782441681017353 0 0 0
1296 432 1 0.5897 -2.2076315883239257 3.217124179637459 19.96328751899371 0 0 0
1242 414 1 0.5897 -3.360192868382108 0.36004115482254484 18.27251627411031 0 0 0
1286 429 1 0.5897 -3.9062249199443055 0.8095062784772349 20.85543660883794 0 0 0
1270 424 2 -1.1794 -1.0174898898836204 0.35311104272444815 20.282316127650148 0 0 0
1250 417 1 0.5897 -11.762154469095723 0.9331278512436523 20.842855981101387 0 0 0
1232 411 1 0.5897 -1.8680104006850655 1.351966903186005 16.435741851334534 0 0 0
1047 349 1 0.5897 -4.241874214367454 4.287848311411887 20.802925477601725 0 -1 0
1205 402 1 0.5897 -12.16293522164103 1.3463538369988441 18.750078932644797 0 0 0
1231 411 2 -1.1794 -1.80779276635535 2.306666081363481 16.403118941752766 0 0 0
1251 417 1 0.5897 -11.651659563091629 2.137070588397556 21.753840775539587 0 0 0
1249 417 2 -1.1794 -11.822755782704318 1.1953587306250473 21.761370834344447 0 0 0
1285 429 2 -1.1794 -3.8544427847481124 1.053956246985356 21.779392857845906 0 0 0
1218 406 1 0.5897 -13.408115877381418 3.486506235931902 17.9326812042041 0 0 0
1253 418 1 0.5897 -3.986827481353189 3.935886694774613 18.01940532151589 0 0 0
902 301 1 0.5897 -4.752586264716755 1.7592971370430437 16.45722349286622 0 0 0
866 289 1 0.5897 -12.550229971063157 1.8825976894925844 16.421928955020682 0 0 0
1233 411 1 0.5897 -1.8946575601498097 2.5838561501446673 17.315105917985427 0 0 0
309 103 1 0.5897 -1.1925091307560027 1.5620730635564382 21.725808632856356 1 1 -1
40 14 2 -1.1794 -15.314071508778344 3.9600634109491963 1.8675552355602298 1 0 0
177 59 1 0.5897 -14.33556307508508 4.727918417184927 3.2506009578154864 1 0 0
56 19 1 0.5897 -12.692312324646807 5.788597549488836 1.0790328776659484 1 0 0
66 22 1 0.5897 -13.701987959869633 2.8856753039715244 1.8899006937269196 1 0 0
65 22 1 0.5897 -12.21858284976572 3.0813621291880384 1.6592816337674678 1 0 0
64 22 2 -1.1794 -12.883266453368503 2.402765010698431 1.7773555794828837 1 0 0
191 64 1 0.5897 -12.474332852014646 6.267735991161981 4.098608708706428 1 0 0
183 61 1 0.5897 -12.4464514190662 3.793015513122967 4.54451661972467 1 0 0
175 59 2 -1.1794 -13.81419785239607 4.888667111565685 4.037107184562904 1 0 0
176 59 1 0.5897 -14.431285343811911 4.779066026075876 4.760523976531567 1 0 0
181 61 2 -1.1794 -11.662299961297983 3.3377985636987386 4.851341059841895 1 0 0
55 19 2 -1.1794 -13.480019068616091 6.1961271405280804 0.7188894970301299 1 0 0
42 14 1 0.5897 -15.620817851792221 4.386438271846416 1.0673469055840652 1 0 0
108 36 1 0.5897 -10.452856471107703 2.735223974370898 3.541367986600201 1 0 0
111 37 1 0.5897 -4.505798846135167 3.9796838068000913 4.173346511204359 0 0 0
192 64 1 0.5897 -10.968267617817917 6.4220950265856445 4.097484957305944 1 0 0
86 29 1 0.5897 -10.529958445248814 4.6897327953025165 2.2034514208945266 1 0 0
45 15 1 0.5897 -10.114183044626555 2.1955621751919203 1.112920408673803 1 0 0
190 64 2 -1.1794 -11.780126430300637 6.91819947267774 3.99267378150054 1 0 0
85 29 2 -1.1794 -11.216411200263284 4.647982458337474 1.5376213296067411 1 0 0
43 15 2 -1.1794 -10.130309054857968 1.9462404145679955 0.18896062768250227 1 0 0
106 36 2 -1.1794 -9.812548940752762 2.3767724930368104 2.926862484674907 1 0 0
101 34 1 0.5897 -4.619423068958707 3.504549197289144 1.5660140573256716 1 0 0
87 29 1 0.5897 -10.745590896317966 4.6835434678155 0.7050558263347467 1 0 0
91 31 2 -1.1794 -5.951110968478093 6.352484565112102 1.1251450405617296 1 0 0
212 71 1 0.5897 -6.619889279136839 4.777270609516622 4.670414143865737 1 0 0
76 26 2 -1.1794 -7.565737470810722 3.7318196512006683 1.9280314669166896 1 0 0
102 34 1 0.5897 -6.036034953284976 2.9798821992418265 1.665872635190959 1 0 0
204 68 1 0.5897 -9.110240731731547 4.820119128879767 4.4860813687177 1 0 0
211 71 2 -1.1794 -5.995348164696794 4.827351235620473 3.9468339899671205 1 0 0