LAMMPS data file via write_data, version 30 Jul 2021, timestep = 2750000

864 atoms
2 atom types
576 bonds
1 bond types
288 angles
1 angle types

0.06959027614495383 18.137982123854343 xlo xhi
-0.0922822291550105 23.721460029160014 ylo yhi
-0.024714110469421513 22.237909910468936 zlo zhi

Masses

1 1.00794
2 15.9994

Atoms # full

707 1 1 0.5897 2.592507347981349 1.6525239932542504 3.548188950114539 0 0 0
706 1 2 -1.1794 2.848125557568229 1.8676328934847957 2.6512184729844295 0 0 0
708 1 1 0.5897 2.1233943330584926 2.39496085139571 2.3150572474053464 0 0 0
493 1 2 -1.1794 7.447992518729795 1.5230574089275761 2.8068127134816887 0 0 0
494 1 1 0.5897 6.6889827361164285 1.9586465331293135 2.4188885390165513 0 0 0
30 1 1 0.5897 5.137969221202378 3.75464577033471 2.18698000199053 0 0 0
28 1 2 -1.1794 5.0817088387018865 2.858251592564523 1.8557589070398217 0 0 0
29 1 1 0.5897 4.217233167199529 2.554023211159395 2.1321854518335264 0 0 0
495 1 1 0.5897 8.195534293027707 2.0549461974269185 2.533623633010341 0 0 0
846 1 1 0.5897 7.4942990663919105 1.2683027090616819 4.870912564837565 0 0 0
595 1 2 -1.1794 0.19510354625154486 5.711690098320375 2.6778359572998376 0 0 0
1 1 2 -1.1794 0.676102545007325 3.254978707215781 1.6567908661406785 0 0 0
668 1 1 0.5897 5.349815285168037 2.8147631714688806 0.143243370195717 0 0 0
3 1 1 0.5897 0.43773354264944514 4.164949442095725 1.8344172170298458 0 0 0
487 1 2 -1.1794 2.751370303640694 1.4869368994334642 5.312463413771772 0 0 0
181 1 2 -1.1794 0.45610538290918345 5.812428883209093 5.40234589475416 0 0 0
188 1 1 0.5897 3.1894235569847273 0.009631609000095853 1.9921610482315897 0 1 0
419 1 1 0.5897 9.000380278861275 2.5427141290270954 6.41140376421415 0 0 0
176 1 1 0.5897 8.974272215970027 2.9193529491134256 9.849245114194396 0 0 0
686 1 1 0.5897 5.1653947798532585 4.783734708538456 6.039902899775511 0 0 0
844 1 2 -1.1794 7.654941943914286 1.4415227511254882 5.798460579362426 0 0 0
785 1 1 0.5897 0.5048550161047867 2.9044297911910943 7.299165208910485 0 0 0
673 1 2 -1.1794 3.2344090512172357 1.8379816153994641 10.290693967654484 0 0 0
274 1 2 -1.1794 5.179646854882078 3.2202881081966233 9.089468838685796 0 0 0
112 1 2 -1.1794 0.6614974981518658 5.579237498326467 10.0417011861359 0 0 0
676 1 2 -1.1794 4.740991284080125 5.437494762551453 10.42678236388988 0 0 0
784 1 2 -1.1794 0.43277483292343166 3.2320111252025066 6.402692334762982 0 0 0
276 1 1 0.5897 5.983639856198611 2.845944893284929 9.449680787245734 0 0 0
275 1 1 0.5897 5.280790853166769 3.138567816400922 8.14119340748386 0 0 0
84 1 1 0.5897 5.678173441099377 2.1758985862426745 5.910887803437913 0 0 0
675 1 1 0.5897 3.3793955399631304 0.963867280317549 9.928372139435881 0 0 0
845 1 1 0.5897 7.485829632946489 0.6047634862816381 6.231591621493449 0 0 0
183 1 1 0.5897 0.38011614089218443 4.927411561895822 5.759239164292113 0 0 0
82 1 2 -1.1794 4.979223036480429 2.7436457161244845 6.235617118182965 0 0 0
355 1 2 -1.1794 7.426599263531836 2.046728720525275 10.499027756021752 0 0 0
685 1 2 -1.1794 5.1228320782306325 5.692782621462205 5.742875680150438 0 0 0
35 1 1 0.5897 0.9630017035004256 3.6385217660641587 9.346264014443419 0 0 0
678 1 1 0.5897 4.850024507766692 4.656273256552558 9.884440781616735 0 0 0
34 1 2 -1.1794 0.9070487590936225 2.7184684137793806 9.087839389636624 0 0 0
674 1 1 0.5897 3.91677281472283 2.3789008506719287 9.893053110783114 0 0 0
83 1 1 0.5897 4.190262155435706 2.4297556623629615 5.793704604059712 0 0 0
488 1 1 0.5897 2.076565935051257 1.8971996432507847 5.853375031063102 0 0 0
36 1 1 0.5897 1.699996148100606 2.3197775743183766 9.446428165329685 0 0 0
356 1 1 0.5897 7.593225090063083 1.1356849454286493 10.256867286539327 0 0 0
489 1 1 0.5897 2.8202213311158144 0.594052906818078 5.650718815936741 0 0 0
113 1 1 0.5897 0.71724013429667 5.758163854447775 10.980327975781659 0 0 0
166 1 2 -1.1794 3.2361254783990336 1.65241187154725 12.967655763378483 0 0 0
167 1 1 0.5897 3.2807956341093987 1.8753597067213246 12.037899990106757 0 0 0
168 1 1 0.5897 2.488136094171096 2.15005311632965 13.29806162928354 0 0 0
458 1 1 0.5897 5.791175570392444 2.6946403896483386 14.225753166866706 0 0 0
762 1 1 0.5897 4.730367023122159 4.942142646980474 13.714119563647152 0 0 0
457 1 2 -1.1794 5.010333142814429 3.1893483336397264 14.474485094848314 0 0 0
459 1 1 0.5897 4.301750766259469 2.7884043527077615 13.971074154405873 0 0 0
71 1 1 0.5897 4.815806116181757 2.815784781977063 16.213645108825826 0 0 0
592 1 2 -1.1794 7.228573237589685 1.6513932633040487 13.269926131491903 0 0 0
593 1 1 0.5897 7.2714222180863 0.7162962792773493 13.470398937714323 0 0 0
594 1 1 0.5897 8.051351333340982 2.00687642671594 13.606011481820536 0 0 0
466 1 2 -1.1794 1.0767355614536012 3.2575646123597224 13.997976032872481 0 0 0
365 1 1 0.5897 0.8407098455201196 5.092462942476705 13.367924299092461 0 0 0
468 1 1 0.5897 0.8896545134174275 3.169199920833878 14.932509501904788 0 0 0
357 1 1 0.5897 7.211856970247572 2.0117940383606396 11.431144176974243 0 0 0
737 1 1 0.5897 3.0654787998395583 -0.05331058334192445 13.539426959795998 0 1 0
133 1 2 -1.1794 0.5969702089488681 2.8063826943372074 16.64923509612616 0 0 0
760 1 2 -1.1794 4.842221607711089 5.6838444660231815 13.119376374112594 0 0 0
467 1 1 0.5897 0.37134985716889674 2.7762193837986198 13.565508542386226 0 0 0
761 1 1 0.5897 4.7759093623754305 5.301692271939951 12.244306865550168 0 0 0
277 1 2 -1.1794 5.643304942377359 5.321996568620454 18.2112215493073 0 0 0
19 1 2 -1.1794 0.3059610244963874 3.0683482806590168 21.217807895465143 0 0 0
144 1 1 0.5897 5.833909576063778 5.622776635634627 20.009939738828592 0 0 0
571 1 2 -1.1794 0.9512873462029364 5.339465608266889 17.56577945602451 0 0 0
142 1 2 -1.1794 5.650147662794597 5.611959469386319 20.949227122367358 0 0 0
669 1 1 0.5897 4.492377135063646 2.5847793889303707 21.17960746014574 0 0 0
754 1 2 -1.1794 7.622555167501966 1.6895930462197704 17.7704597233414 0 0 0
40 1 2 -1.1794 7.621029171895621 1.6469969763186187 20.559690587084912 0 0 0
291 1 1 0.5897 1.9348748765338093 2.0424589718518806 17.720077328043104 0 0 0
70 1 2 -1.1794 4.848417261692028 2.8467376514211558 17.169736945988703 0 0 0
42 1 1 0.5897 7.766144586631812 0.7812982661842205 20.94163816658302 0 0 0
667 1 2 -1.1794 5.3887499735713185 2.7840418618606053 21.449999144251084 0 0 0
756 1 1 0.5897 6.718209660267483 1.9459071435754147 17.5894629751547 0 0 0
21 1 1 0.5897 0.6259313236139543 3.951045250266162 21.03107703858175 0 0 0
72 1 1 0.5897 4.02469448474418 2.44835692165488 17.450956931435112 0 0 0
290 1 1 0.5897 2.5981956287499357 0.7083606421589413 17.450851601526 0 0 0
41 1 1 0.5897 6.7834166916332705 1.9329002604305274 20.92431383888939 0 0 0
134 1 1 0.5897 0.5195787072191096 3.6655069442250414 17.06432261516177 0 0 0
755 1 1 0.5897 7.643292493616449 1.5332041763044906 18.714524471920637 0 0 0
568 1 2 -1.1794 2.8395390604781454 1.766965125754791 20.70389770293285 0 0 0
570 1 1 0.5897 2.688982566213363 1.5769642580710148 19.777950128542173 0 0 0
569 1 1 0.5897 1.9818958590379956 2.030849568727324 21.037251331179625 0 0 0
572 1 1 0.5897 1.8019710712773742 5.678199838985861 17.286701854437343 0 0 0
289 1 2 -1.1794 2.620817106655381 1.4589235463969488 18.044556896068155 0 0 0
143 1 1 0.5897 5.554695940341332 4.684052417398434 21.164421359724976 0 0 0
278 1 1 0.5897 5.593685333397807 4.393474676774871 17.983633826614593 0 0 0
648 1 1 0.5897 0.8859272600695501 5.479515402986123 19.262213808785045 0 0 0
646 1 2 -1.1794 0.8154452051160702 5.603238541491499 20.208717071467138 0 0 0
323 1 1 0.5897 7.941070081738831 -0.08936322564062728 17.24912662955568 0 1 0
279 1 1 0.5897 5.01407884638517 5.746134111240577 17.627749996281306 0 0 0
20 1 1 0.5897 0.2736108015549891 3.021985028015239 22.173294210113337 0 0 -1
123 1 1 0.5897 2.8477675509654765 8.17035234091647 2.154672644007056 0 0 0
121 1 2 -1.1794 2.7691755431088576 9.114894695520357 2.2892065746928703 0 0 0
122 1 1 0.5897 2.8553935075249757 9.230484656717781 3.2354484249524593 0 0 0
44 1 1 0.5897 1.2768927495231097 10.114471490361277 1.831102337529202 0 0 0
219 1 1 0.5897 4.152906225555592 10.21779340574205 2.065170939692019 0 0 0
218 1 1 0.5897 5.63419300010653 10.307900024879865 2.364691113258017 0 0 0
66 1 1 0.5897 7.099109778846005 9.666709979284667 3.8813792546466765 0 0 0
65 1 1 0.5897 7.204632815717694 8.74982883632675 2.6813119518319004 0 0 0
64 1 2 -1.1794 7.130471437440774 9.672687116565749 2.9247465126817764 0 0 0
415 1 2 -1.1794 7.334328199165833 7.073679813757585 2.06681667314453 0 0 0
254 1 1 0.5897 2.640891133159637 6.643619086609447 0.6898949964992142 0 0 0
253 1 2 -1.1794 2.657655593433982 6.487455206090369 1.634072207763672 0 0 0
217 1 2 -1.1794 4.879222186498556 10.839568073071012 2.1123604692607865 0 0 0
255 1 1 0.5897 1.7646623073103045 6.217530986049701 1.8485706457529472 0 0 0
43 1 2 -1.1794 0.5750301779935192 10.689793884892236 1.526610923783081 0 0 0
416 1 1 0.5897 6.544901009934752 6.63613015817728 2.385670185491401 0 0 0
417 1 1 0.5897 8.055440388570803 6.59930270094818 2.480722528070554 0 0 0
137 1 1 0.5897 4.921577336013763 5.935782139647864 4.027546795117794 0 0 0
793 1 2 -1.1794 2.7649583891222727 9.983675395038299 4.982441192021385 0 0 0
773 1 1 0.5897 8.806375034598766 10.503808900595763 2.3125089064088873 0 0 0
794 1 1 0.5897 2.0001449071308937 10.237896122157114 5.49886369137413 0 0 0
162 1 1 0.5897 7.580979568854052 7.283527829447735 0.14681083986068125 0 0 1
138 1 1 0.5897 4.108718366625541 6.075791309720722 2.7581167059822156 0 0 0
597 1 1 0.5897 0.4247055666760628 5.935090640918921 3.5798395735966757 0 0 0
45 1 1 0.5897 0.817927556873061 11.557141101835771 1.850784274598585 0 0 0
136 1 2 -1.1794 5.001023378208149 5.9326412319145145 3.0736974396018684 0 0 0
363 1 1 0.5897 5.20764777360736 10.963366066349172 0.36087055368788495 0 0 1
579 1 1 0.5897 5.010162269006579 11.597259220068072 6.5086981550431755 0 0 0
712 1 2 -1.1794 7.463533649959476 9.743217695844143 5.562993162150177 0 0 0
114 1 1 0.5897 1.2331339783167912 6.2326923762060416 9.638525078795922 0 0 0
677 1 1 0.5897 5.518817701138013 5.9654720353385615 10.246337028294143 0 0 0
11 1 1 0.5897 2.057820094846933 6.751365733028374 5.9731905737460185 0 0 0
258 1 1 0.5897 3.8740191727830906 10.097281075411773 10.602766610547148 0 0 0
551 1 1 0.5897 0.5443218289819505 10.912421679989006 7.620683455668318 0 0 0
145 1 2 -1.1794 7.1675118932567 7.0771917000945646 6.896986655943795 0 0 0
13 1 2 -1.1794 0.8952603687271569 10.853465336992846 9.377199232427012 0 0 0
714 1 1 0.5897 7.428874699725123 8.900393749476827 6.015552570554389 0 0 0
651 1 1 0.5897 3.410005114736903 6.588439174939429 9.409781786329438 0 0 0
15 1 1 0.5897 1.7204488228774533 10.538786355572416 9.746441094086984 0 0 0
257 1 1 0.5897 2.993211511506839 8.947477601010746 10.161926510983891 0 0 0
650 1 1 0.5897 2.686158730179073 7.268998413614063 8.267502889136937 0 0 0
527 1 1 0.5897 7.114434615493889 7.787174066964343 9.755933155452169 0 0 0
526 1 2 -1.1794 6.9599714943982045 6.847503211754346 9.658078453906594 0 0 0
528 1 1 0.5897 7.665724568897823 6.4350707815893236 10.156168653379074 0 0 0
581 1 1 0.5897 6.314101848292277 10.157080330785924 9.586403570553927 0 0 0
822 1 1 0.5897 8.627135775546122 9.858607944065048 10.162017206763103 0 0 0
582 1 1 0.5897 5.168711126124166 10.346287967445898 8.614716306913204 0 0 0
12 1 1 0.5897 2.633233835255605 8.151644042628568 5.9940408236687235 0 0 0
10 1 2 -1.1794 2.8715256518568473 7.233275236502702 6.121406571345619 0 0 0
713 1 1 0.5897 8.3197218397575 10.104199322474255 5.793108347547505 0 0 0
649 1 2 -1.1794 2.7758844938072325 7.280088527010926 9.220375865044636 0 0 0
795 1 1 0.5897 3.512881371051613 10.194670842216944 5.5413107175603304 0 0 0
578 1 1 0.5897 5.87104420940905 10.407164993585752 6.14148492897556 0 0 0
820 1 2 -1.1794 7.818283937227631 9.434549497969087 10.448800310153436 0 0 0
577 1 2 -1.1794 5.045813477881045 10.64231930995267 6.5657268667823 0 0 0
580 1 2 -1.1794 5.404178625585249 10.450123848548152 9.536633740024612 0 0 0
147 1 1 0.5897 6.98156760732498 6.976275428303657 7.830464643387184 0 0 0
146 1 1 0.5897 6.478651415043038 6.576701665137814 6.4596437473191095 0 0 0
256 1 2 -1.1794 3.020533397614197 9.693694524909468 10.760875947867504 0 0 0
550 1 2 -1.1794 0.4639908593216867 11.042350824614829 6.675794274427323 0 0 0
687 1 1 0.5897 4.24401675716237 5.983979384865292 5.986314583755432 0 0 0
165 1 1 0.5897 8.618595571809264 6.233142731830471 6.419022900284442 0 0 0
14 1 1 0.5897 0.8738208376199783 11.785019133751963 9.596738144302865 0 0 0
332 1 1 0.5897 2.6121580552627806 8.12870015561378 13.758615592700597 0 0 0
797 1 1 0.5897 2.7901682711060682 9.9298917197841 12.700825607313554 0 0 0
796 1 2 -1.1794 2.7696091104920533 9.8834519463871 13.656627798215654 0 0 0
798 1 1 0.5897 1.9257875011359935 10.26595143284298 13.897369590133245 0 0 0
225 1 1 0.5897 3.2361875691690423 6.907309494250491 15.865379809475911 0 0 0
331 1 2 -1.1794 2.670116389125852 7.224300391498358 14.066991312210677 0 0 0
475 1 2 -1.1794 7.5750688596463185 9.592063890886429 13.383485810712587 0 0 0
476 1 1 0.5897 6.730065772721896 10.005335319678952 13.206055499139067 0 0 0
477 1 1 0.5897 7.380829089265409 8.65545357842496 13.422025740689964 0 0 0
722 1 1 0.5897 4.531674814880655 10.672725884502775 14.238130044648425 0 0 0
828 1 1 0.5897 7.203525797077869 6.887051544693976 14.790769832287822 0 0 0
723 1 1 0.5897 5.776122624625136 11.294989213430256 14.834931682119954 0 0 0
826 1 2 -1.1794 7.222491247620288 6.807095235301879 13.837156276640776 0 0 0
721 1 2 -1.1794 5.353980148385554 11.10003464263144 13.998262923087667 0 0 0
261 1 1 0.5897 0.22661872168991712 10.612450864834223 15.277336266016166 0 0 0
827 1 1 0.5897 6.404742219728963 6.360634750583616 13.617454647915308 0 0 0
333 1 1 0.5897 3.4569541471802503 6.877289013709931 13.646584557079239 0 0 0
259 1 2 -1.1794 0.33112531594653516 10.971841264262695 14.396354795204301 0 0 0
851 1 1 0.5897 8.725478092303566 5.962244680340631 13.639669488116784 0 0 0
104 1 1 0.5897 9.095985975503323 10.636009150162915 13.81345074132221 0 0 0
366 1 1 0.5897 1.339701089011481 6.516584611283695 13.244031825083637 0 0 0
821 1 1 0.5897 7.954933039510966 9.262235451034298 11.380357164745057 0 0 0
364 1 2 -1.1794 0.6421474641625993 5.930548795533898 12.950128422176348 0 0 0
396 1 1 0.5897 0.8003648749979746 10.921754119961482 21.887318924526856 0 0 -1
395 1 1 0.5897 0.098254699449583 10.474168029019918 20.6229935902792 0 0 0
447 1 1 0.5897 0.7098878745345005 10.650483314800988 17.501727131295336 1 0 0
445 1 2 -1.1794 1.5302168604785014 11.071464949822593 17.244562810410162 0 0 0
573 1 1 0.5897 0.3256820605908805 6.013511491373152 17.30003413319096 0 0 0
141 1 1 0.5897 7.579130106733511 8.897382624314945 21.018145985082892 0 0 0
520 1 2 -1.1794 7.464470972106162 6.942818600798418 16.808688314224852 0 0 0
223 1 2 -1.1794 3.3487426816054713 6.790138106647566 16.80864483015987 0 0 0
394 1 2 -1.1794 0.7774526662987314 11.068648836134141 20.94178541030945 0 0 0
160 1 2 -1.1794 7.694896556300274 7.1368333991327155 21.470476250552306 0 0 0
4 1 2 -1.1794 3.21921463114298 6.6561504959489435 20.962706963402084 0 0 0
161 1 1 0.5897 6.947652250268115 6.593471652729896 21.220073216869412 0 0 0
139 1 2 -1.1794 7.689616281357451 9.825782739915484 20.812471087352975 0 0 0
679 1 2 -1.1794 5.880027316320786 11.106087466160984 16.752644064603324 0 0 0
688 1 2 -1.1794 3.227268915842199 9.380497143496571 20.513706524791807 0 0 0
6 1 1 0.5897 3.3063854736822424 7.587038034122147 20.757144136527305 0 0 0
5 1 1 0.5897 4.119382899577487 6.332190738639996 20.99516790063932 0 0 0
522 1 1 0.5897 7.440197640613577 7.675298324678362 17.424491781805163 0 0 0
521 1 1 0.5897 6.933798456538271 6.26265626215211 17.223551871854408 0 0 0
680 1 1 0.5897 5.1633229561160245 10.610272845940825 17.148618543180618 0 0 0
9 1 1 0.5897 7.210665344682265 9.86373512317578 17.318817441839727 0 0 0
689 1 1 0.5897 3.878250366226477 10.082269389217418 20.524620655987288 0 0 0
7 1 2 -1.1794 7.948140497048618 9.425290299896803 17.743293333957876 0 0 0
140 1 1 0.5897 6.860730047799434 10.229100642791106 21.070500640068964 0 0 0
224 1 1 0.5897 3.5975812590692327 7.656825211791414 17.13007793887695 0 0 0
690 1 1 0.5897 2.3847288253591765 9.834467313751041 20.532833341276188 0 0 0
625 1 2 -1.1794 3.7981147465112106 9.412499922313348 17.842983079489198 0 0 0
627 1 1 0.5897 2.977530443484943 9.801554520192598 17.54034913342132 0 0 0
8 1 1 0.5897 7.81560154443803 9.583447401437285 18.677941877769815 0 0 0
626 1 1 0.5897 3.636737869592994 9.196019112799744 18.761272862578824 0 0 0
361 1 2 -1.1794 5.266158227925948 11.04429367449798 21.671564124495386 0 0 0
647 1 1 0.5897 1.65562874588644 5.984226499879551 20.464170224209752 0 0 0
711 1 1 0.5897 8.946448125397493 5.920507186715686 17.26769301205278 0 0 0
557 1 1 0.5897 2.4830252331992373 14.434170015116232 2.0469096978863655 0 0 0
293 1 1 0.5897 2.552630837039207 16.721196631863805 3.025008910078074 0 0 0
558 1 1 0.5897 3.470622822431011 15.164162236941682 1.1616044980518505 0 0 0
556 1 2 -1.1794 3.2779517292345175 14.966563023479114 2.0781258576661057 0 0 0
173 1 1 0.5897 4.509298127966623 13.758006049863909 2.7453655568725743 0 0 0
480 1 1 0.5897 6.604312587790962 14.415553823958184 2.2333350127536096 0 0 0
478 1 2 -1.1794 7.35710077355619 15.003066597524349 2.1664434386888716 0 0 0
172 1 2 -1.1794 5.282352587297529 13.283161822653549 3.05071268390389 0 0 0
174 1 1 0.5897 5.109118681766212 12.36993534665737 2.821765403081853 0 0 0
449 1 1 0.5897 7.201111246752609 16.56037793934901 2.859711500968726 0 0 0
479 1 1 0.5897 8.101428229147086 14.47271032016441 2.451103765078226 0 0 0
373 1 2 -1.1794 0.8241126598073149 13.352757818225738 2.4484214939821762 0 0 0
200 1 1 0.5897 5.118737506433435 13.287331381757381 4.803325198395861 0 0 0
374 1 1 0.5897 0.7933552874486908 13.391990714378295 3.404280342045818 0 0 0
308 1 1 0.5897 7.537521784968717 17.07405730974068 4.95210660881332 0 0 0
294 1 1 0.5897 2.6568196518584046 17.45431499243091 4.345436100003439 0 0 0
448 1 2 -1.1794 7.209312300972603 17.47148040922386 3.1533524109919115 0 0 0
655 1 2 -1.1794 0.7525756553866401 13.557955638801268 5.352294224581691 0 0 0
292 1 2 -1.1794 2.8178859493680215 17.55763921285969 3.4076024662414954 0 0 0
317 1 1 0.5897 7.712628160889384 15.166738877944399 0.4797972341211848 0 0 0
450 1 1 0.5897 6.296414862866631 17.752349650113903 3.0898227567332768 0 0 0
238 1 2 -1.1794 2.7101523393740408 17.523093805796194 6.008027397079411 0 0 0
552 1 1 0.5897 0.6166837783154651 11.97877533022024 6.548463044810454 0 0 0
307 1 2 -1.1794 7.520860386926821 17.220735692177005 5.897805985313929 0 0 0
59 1 1 0.5897 9.017745014581367 14.144175285199225 10.240148029149818 0 0 0
656 1 1 0.5897 1.3874723892497502 14.062783253894873 5.860675343313607 0 0 0
376 1 2 -1.1794 7.499918584970299 14.873899461352009 9.600753598199212 0 0 0
811 1 2 -1.1794 2.9412454956913545 15.026103202398707 9.650776142414438 0 0 0
199 1 2 -1.1794 5.070881121079846 13.262487107646216 5.758956225139771 0 0 0
454 1 2 -1.1794 5.212074015580403 13.514757878718202 10.283368921971828 0 0 0
186 1 1 0.5897 7.6477191352589236 16.6500896094652 9.754797839760705 0 0 0
384 1 1 0.5897 3.13371441987751 16.70269347168024 10.249599241781178 0 0 0
378 1 1 0.5897 7.638946885703912 14.80161228853238 8.65650907097131 0 0 0
18 1 1 0.5897 3.5083000202154664 14.441420266931383 6.347588575436027 0 0 0
16 1 2 -1.1794 2.8454410799843064 14.997066959119202 6.7576891194238335 0 0 0
766 1 2 -1.1794 0.7531565645129837 13.656729948368689 10.27709953516555 0 0 0
456 1 1 0.5897 5.124497018566805 12.639399690992601 9.905937048954408 0 0 0
239 1 1 0.5897 2.946156351816924 16.659841724070073 6.347840820074184 0 0 0
517 1 2 -1.1794 7.430899268281417 14.373996286557086 6.888295219051148 0 0 0
812 1 1 0.5897 3.6683476344208388 14.50912609577657 9.997794735090697 0 0 0
813 1 1 0.5897 2.156234324185639 14.575570909614179 9.962377384155937 0 0 0
519 1 1 0.5897 8.261483975578475 14.034023858587899 6.555334653869504 0 0 0
201 1 1 0.5897 5.922299385195101 13.588710320065143 6.050419311069729 0 0 0
377 1 1 0.5897 6.7423167422092165 14.315370000645053 9.775201250967159 0 0 0
518 1 1 0.5897 7.352188647572266 15.243075973275598 6.4947365316188375 0 0 0
17 1 1 0.5897 3.168131838958885 15.138542967361362 7.647646191095873 0 0 0
382 1 2 -1.1794 3.26377028557743 17.625011809911946 10.470558768747123 0 0 0
309 1 1 0.5897 8.340376679199588 17.679011849780306 6.084069994125339 0 0 0
184 1 2 -1.1794 7.412465206383239 17.537791513247743 10.02504096313478 0 0 0
232 1 2 -1.1794 2.6291790436149016 14.736103066650927 14.063580584906893 0 0 0
234 1 1 0.5897 2.716129775450585 14.906687521426564 15.001400637375387 0 0 0
606 1 1 0.5897 2.931427354289951 16.49619884863105 13.355144176945542 0 0 0
639 1 1 0.5897 1.1563600189789602 13.751064010924054 13.325797946789475 0 0 0
233 1 1 0.5897 3.520053153316465 14.543165014292251 13.771150606327696 0 0 0
295 1 2 -1.1794 7.222688843408041 14.78337296230428 14.018127228674764 0 0 0
270 1 1 0.5897 7.681973480702171 16.487835802395594 12.947675799785834 0 0 0
296 1 1 0.5897 7.297856991779166 14.902974571760753 14.964798234562643 0 0 0
429 1 1 0.5897 5.64497358626652 14.183300500935005 13.25244315741005 0 0 0
427 1 2 -1.1794 4.945620663869267 13.559439762975769 13.05741012369253 0 0 0
297 1 1 0.5897 8.023027225970239 14.320314451493731 13.770448461713626 0 0 0
428 1 1 0.5897 5.17283649790859 12.778523330005084 13.562266901746186 0 0 0
637 1 2 -1.1794 0.35339459088860614 13.290454501017573 13.082060570902335 0 0 0
455 1 1 0.5897 5.088840534776913 13.384074852502522 11.223514655442608 0 0 0
638 1 1 0.5897 0.3315636838229404 12.525379559921129 13.656959894532203 0 0 0
605 1 1 0.5897 3.1708906472484313 17.438154860227975 12.19438407553482 0 0 0
269 1 1 0.5897 7.711304586483506 17.534165253402964 11.85389063632054 0 0 0
268 1 2 -1.1794 7.596891952315658 17.42960403352724 12.798408800119178 0 0 0
767 1 1 0.5897 0.6334037743292121 13.487349878041616 11.21150421060149 0 0 0
604 1 2 -1.1794 3.1116899864391034 17.41358519123177 13.149386920122264 0 0 0
53 1 1 0.5897 0.4739664868943012 13.836079527786152 18.5859279639805 0 0 0
664 1 2 -1.1794 3.29959465026004 15.074991145180647 21.543538753602977 0 0 0
446 1 1 0.5897 1.4087341974689478 11.993260773329977 17.472466262169537 0 0 0
684 1 1 0.5897 4.747605989406915 14.209012641925128 21.300905968176334 0 0 0
823 1 2 -1.1794 2.9343172679187353 15.118361354053274 17.096984286168073 0 0 0
362 1 1 0.5897 5.467736271697262 11.967961667658376 21.521160609351337 0 0 0
51 1 1 0.5897 8.292216244857602 14.415648751948 17.159259069070558 0 0 0
318 1 1 0.5897 7.802918605611355 15.939989365066477 21.444040614312534 0 0 0
451 1 2 -1.1794 1.0116015115245172 13.865053052525024 20.60901891556103 0 0 0
124 1 2 -1.1794 5.415211427216215 13.882731747948274 18.148717464447987 0 0 0
316 1 2 -1.1794 7.81693066772447 15.050690924439927 21.79806971585105 0 0 0
49 1 2 -1.1794 7.5779835428754785 14.877983761743037 16.720604881271427 0 0 0
584 1 1 0.5897 3.2232477213572928 17.01857080949418 17.7801501141464 0 0 0
126 1 1 0.5897 6.263102410019424 14.190706264621836 17.82850616129445 0 0 0
666 1 1 0.5897 3.150720661121176 15.954865595552342 21.19704016521175 0 0 0
665 1 1 0.5897 2.613894266436133 14.540189812751072 21.14339191462413 0 0 0
125 1 1 0.5897 5.476557994178131 13.958092568072011 19.10092379434394 0 0 0
50 1 1 0.5897 7.647283483251353 15.779756151479823 17.034290372708785 0 0 0
52 1 2 -1.1794 0.4572217407905096 13.85148928912832 17.629051101457886 0 0 0
452 1 1 0.5897 0.7516034232078196 12.954768009598759 20.751153522629576 0 0 0
825 1 1 0.5897 2.141897991799029 14.606655676323733 17.260054944834692 0 0 0
824 1 1 0.5897 3.631938316366258 14.624141390181425 17.52753656389318 0 0 0
453 1 1 0.5897 0.3839711396665466 14.376508421570003 21.119688142861737 0 0 0
682 1 2 -1.1794 5.481501711645005 13.736851619364478 20.907503948984143 0 0 0
683 1 1 0.5897 6.250507751245398 14.047246770152844 21.38556715226121 0 0 0
157 1 2 -1.1794 7.679309119380639 17.537488620147695 20.890403326209732 0 0 0
159 1 1 0.5897 7.8470064545589775 17.191083112649462 20.014011896096793 0 0 0
681 1 1 0.5897 5.781807563615786 11.99147220090957 17.10310882918967 0 0 0
610 1 2 -1.1794 7.715071078025021 17.5083184674735 18.04024642165649 0 0 0
715 1 2 -1.1794 3.040549829362531 17.66133701360629 20.76348197886829 0 0 0
696 1 1 0.5897 1.5877658505580006 21.50065127055576 2.9350044983497576 0 0 0
266 1 1 0.5897 4.646672536129261 22.03735379784526 2.523621909279913 0 0 0
267 1 1 0.5897 6.151128716672438 21.93829754615655 2.3859607004138295 0 0 0
226 1 2 -1.1794 4.9617719614682425 18.930133986144536 2.1011642748740735 0 0 0
265 1 2 -1.1794 5.417204545942252 21.62587330038035 2.9151542860571116 0 0 0
228 1 1 0.5897 5.002450217718552 19.840236949629837 2.395193276857726 0 0 0
818 1 1 0.5897 8.357044990263415 22.159645519357436 2.2882910030786263 0 0 0
249 1 1 0.5897 5.04408444152138 21.72243645433499 4.72553670761079 0 0 0
817 1 2 -1.1794 7.655486120327657 22.579138825082936 1.790174767189957 0 0 0
187 1 2 -1.1794 3.4791408465102176 22.966743890730168 1.6780790967496133 0 0 0
344 1 1 0.5897 1.3726301753924688 18.490888035501893 2.63549536502365 0 0 0
695 1 1 0.5897 0.49898317165747974 20.44861150180938 2.934126745612634 0 0 0
602 1 1 0.5897 5.147405645968945 19.08314195539645 0.31356173525877845 0 0 0
343 1 2 -1.1794 0.6040423248518229 18.921722073614642 2.2614068024241116 0 0 0
345 1 1 0.5897 0.7724047959745921 18.93713488455171 1.3193056516793982 0 0 0
413 1 1 0.5897 0.43658358716005535 21.340008664203868 5.216074315478787 0 0 0
227 1 1 0.5897 4.205250973044082 18.563551835823347 2.558947447502543 0 0 0
189 1 1 0.5897 3.4639368572374267 23.043264803521502 0.7241162461782151 0 0 0
694 1 2 -1.1794 0.7383669096498569 21.290023499122576 3.3228524079094806 0 0 0
321 1 1 0.5897 8.74633588303372 18.402001273501888 2.155637380023984 0 0 0
819 1 1 0.5897 7.5921631883795 23.4599463910836 2.159754655463918 0 -1 0
383 1 1 0.5897 4.0715697048686685 17.868544082514685 10.018434083020624 0 0 0
404 1 1 0.5897 1.3409147208130026 17.930046040026788 9.947408508803134 0 0 0
247 1 2 -1.1794 5.1337244085659055 21.710779334317962 5.678413636299216 0 0 0
386 1 1 0.5897 5.856567343596086 18.447239133440572 6.157722878599979 0 0 0
387 1 1 0.5897 5.198762153043124 19.810742391270093 6.179968151803753 0 0 0
33 1 1 0.5897 6.9083208489179215 22.251500086080046 6.8278220008008965 0 0 0
185 1 1 0.5897 8.17359160051679 18.069398048132225 9.791785575603814 0 0 0
240 1 1 0.5897 3.5344814247146172 18.009584104359426 5.9951879668119545 0 0 0
403 1 2 -1.1794 0.656738307256189 18.53650221306349 9.66378311744487 0 0 0
86 1 1 0.5897 7.420808622679305 23.071790746811743 8.95308559632835 0 0 0
85 1 2 -1.1794 7.46149736661642 22.995169981210427 9.90629768944728 0 0 0
94 1 2 -1.1794 0.9036306968000527 21.36353321831108 10.396060254900743 0 0 0
701 1 1 0.5897 2.84744105132062 23.009240216814987 7.614375679123627 0 0 0
31 1 2 -1.1794 7.592100942886903 22.79374155422205 7.221194310956566 0 0 0
101 1 1 0.5897 6.078915448244155 18.682220064512112 9.351743280818775 0 0 0
340 1 2 -1.1794 0.44866229249518613 18.60430473953383 6.905911480810803 0 0 0
405 1 1 0.5897 0.9873760191933937 19.40165326852154 9.905838702439587 0 0 0
102 1 1 0.5897 5.21297835381473 19.101354084944365 8.182843510449278 0 0 0
702 1 1 0.5897 1.9276288442297755 22.5597893921287 6.49906357775407 0 0 0
555 1 1 0.5897 5.229567668402666 20.74331523099596 10.040503985530668 0 0 0
553 1 2 -1.1794 5.206863702961837 21.52633294287159 10.590703888465294 0 0 0
412 1 2 -1.1794 0.4603087391584972 21.418011569916246 6.169745364725588 0 0 0
39 1 1 0.5897 3.7054845653045123 22.501356215710985 9.573352311586085 0 0 0
37 1 2 -1.1794 2.9930077926916314 23.1180116502597 9.404626071788845 0 0 0
414 1 1 0.5897 0.44831314105727543 20.514139647572357 6.484798566025969 0 0 0
100 1 2 -1.1794 5.328977192602123 19.231797281501112 9.123968874186302 0 0 0
342 1 1 0.5897 0.35467538594850967 18.501627885929974 7.85289749637651 0 0 0
38 1 1 0.5897 2.246856755562065 22.76006807947299 9.885693370154653 0 0 0
248 1 1 0.5897 4.288013997718234 22.02036265897095 6.002785167211935 0 0 0
385 1 2 -1.1794 5.040512739617487 18.89033165216361 6.390229117729909 0 0 0
700 1 2 -1.1794 2.8361612271085823 22.800810156340138 6.680229646066498 0 0 0
87 1 1 0.5897 8.218992985821577 22.4331640401203 10.069772163105686 0 0 0
341 1 1 0.5897 1.2973101030327339 18.209737021092412 6.704801256060737 0 0 0
554 1 1 0.5897 6.030695712992159 21.97598920403573 10.402433000077911 0 0 0
32 1 1 0.5897 8.407524544694791 22.333474817706847 7.022202013072362 0 0 0
95 1 1 0.5897 0.09660987410975963 21.524060167962784 9.90698405693755 1 0 0
381 1 1 0.5897 1.2093383267119908 22.107116114996725 13.340692292702844 0 0 0
738 1 1 0.5897 3.6927980896009327 22.3845039426638 13.614520511590806 0 0 0
788 1 1 0.5897 7.274899424255065 23.014470116903336 15.083215906066416 0 0 0
789 1 1 0.5897 6.407384650487085 22.522485468110556 13.944240947021047 0 0 0
90 1 1 0.5897 5.327695268488367 20.42015641055189 13.706739133441776 0 0 0
89 1 1 0.5897 4.993892152708762 21.262929951137032 12.494222863060116 0 0 0
88 1 2 -1.1794 5.066345589143586 21.30390304711195 13.447744650182239 0 0 0
474 1 1 0.5897 5.317724888733798 18.98109734308668 15.902455232115706 0 0 0
350 1 1 0.5897 2.953459632650928 23.06923177287773 15.67176518505513 0 0 0
763 1 2 -1.1794 5.3853977212752016 18.569574150321337 14.173773086969337 0 0 0
503 1 1 0.5897 1.6153401893111183 18.404089318809767 13.761899217674271 0 0 0
764 1 1 0.5897 4.629021761120028 18.143548247294966 13.770405723661298 0 0 0
736 1 2 -1.1794 2.888857761064169 22.862118283921944 13.819183528273053 0 0 0
380 1 1 0.5897 0.5513326161947152 20.75441668643485 13.512625513863433 0 0 0
787 1 2 -1.1794 7.255581203731487 22.92524869930136 14.130424281417648 0 0 0