#include		in.partitions
include		in.temp
variable        temperature equal 78.27
variable	tempDamp equal 100.0
include		in.pressure
variable        pressure equal 8227.4
variable        pressureDamp equal 1000.0 # This is 1 ps
include		in.seed
variable        seed equal 745823

units		real
atom_style	full
read_restart	restart.lmp.${pid}
read_restart	restart.lmp.0
Reading restart file ...
  restart file = 30 Jul 2021, LAMMPS = 30 Jul 2021
  restoring atom style full from restart
  orthogonal box = (0.035241928 -0.012064018 0.0082334628) to (24.694759 24.742065 22.801767)
  2 by 4 by 2 MPI processor grid
  restoring pair style lj/cut/tip4p/long/omp from restart
  restoring bond style harmonic/omp from restart
  restoring angle style harmonic/omp from restart
  1920 atoms
  1280 bonds
  640 angles
Finding 1-2 1-3 1-4 neighbors ...
  special bond factors lj:    0        0        0       
  special bond factors coul:  0        0        0       
     2 = max # of 1-2 neighbors
     1 = max # of 1-3 neighbors
     1 = max # of 1-4 neighbors
     2 = max # of special neighbors
  special bonds CPU = 0.001 seconds
  read_restart CPU = 0.006 seconds
include 	in.setup
variable	out_freq equal 1000
variable	out_freq2 equal 10000
variable	out_freq3 equal 1000

timestep	2.0

neigh_modify    delay 7 every 1

include		in.tip4p
# This is TIP4P/Ice

# create groups ###
group ox type 2
640 atoms in group ox
group hy type 1
1280 atoms in group hy

# set charges - beside manually ###
set group ox charge -1.1794
Setting atom values ...
  640 settings made for charge
set group hy charge 0.5897
Setting atom values ...
  1280 settings made for charge

# ### TIP3P Potential Parameters ###
pair_style lj/cut/tip4p/long/omp 2 1 1 1 0.1577 8.5
pair_coeff 1 1*2 0.000 0.000
pair_coeff 2 2 0.21084 3.1668
bond_style  harmonic
bond_coeff  1 450 0.9572
angle_style harmonic
angle_coeff 1 55 104.52
kspace_style pppm/tip4p/omp 1.0e-5
pair_modify tail yes

thermo          ${out_freq}
thermo          1000
thermo_style    custom step temp pe etotal epair emol press lx ly lz vol pxx pyy pzz pxy pxz pyz enthalpy

restart 	${out_freq3} restart.lmp.${pid} restart2.lmp.${pid}
restart 	1000 restart.lmp.${pid} restart2.lmp.${pid}
restart 	1000 restart.lmp.0 restart2.lmp.${pid}
restart 	1000 restart.lmp.0 restart2.lmp.0


include         in.dump
dump            myDump all atom ${out_freq2} dump.water.${pid}
dump            myDump all atom 10000 dump.water.${pid}
dump            myDump all atom 10000 dump.water.0
dump            myDump2 all dcd ${out_freq2} dump.dcd
dump            myDump2 all dcd 10000 dump.dcd
dump_modify     myDump append yes
dump_modify     myDump2 append yes


variable natoms 	equal  "count(all)"                        # NUMBER ATOMS
variable H      	equal  "enthalpy/v_natoms"                 # ENTHALPY-per-atom
variable Vol      	equal  "vol/v_natoms"                 # volume-per-atom
fix AVG all 		ave/time ${out_freq} 1 ${out_freq} v_Vol v_H file vol_enthalpy.dat
fix AVG all 		ave/time 1000 1 ${out_freq} v_Vol v_H file vol_enthalpy.dat
fix AVG all 		ave/time 1000 1 1000 v_Vol v_H file vol_enthalpy.dat




fix 		1 all shake 1e-6 200 0 b 1 a 1
       0 = # of size 2 clusters
       0 = # of size 3 clusters
       0 = # of size 4 clusters
     640 = # of frozen angles
  find clusters CPU = 0.000 seconds
fix             2 all nph aniso ${pressure} ${pressure} ${pressureDamp}
fix             2 all nph aniso 8227.4 ${pressure} ${pressureDamp}
fix             2 all nph aniso 8227.4 8227.4 ${pressureDamp}
fix             2 all nph aniso 8227.4 8227.4 1000
fix             3 all temp/csvr ${temperature} ${temperature} ${tempDamp} ${seed}
fix             3 all temp/csvr 78.27 ${temperature} ${tempDamp} ${seed}
fix             3 all temp/csvr 78.27 78.27 ${tempDamp} ${seed}
fix             3 all temp/csvr 78.27 78.27 100 ${seed}
fix             3 all temp/csvr 78.27 78.27 100 745823


run             250000
PPPM initialization ...
  extracting TIP4P info from pair style
  using 12-bit tables for long-range coulomb (../kspace.cpp:340)
  G vector (1/distance) = 0.37518828
  grid = 30 30 30
  stencil order = 5
  estimated absolute RMS force accuracy = 0.0031854355
  estimated relative force accuracy = 9.5928443e-06
  using double precision FFTW3
  3d grid and FFT values/proc = 7920 1800
Last active /omp style is kspace_style pppm/tip4p/omp
Neighbor list info ...
  update every 1 steps, delay 7 steps, check yes
  max neighbors/atom: 2000, page size: 100000
  master list distance cutoff = 10.8154
  ghost atom cutoff = 10.8154
  binsize = 5.4077, bins = 5 5 5
  1 neighbor lists, perpetual/occasional/extra = 1 0 0
  (1) pair lj/cut/tip4p/long/omp, perpetual
      attributes: half, newton on, omp
      pair build: half/bin/newton/omp
      stencil: half/bin/3d
      bin: standard
Per MPI rank memory allocation (min/avg/max) = 12.56 | 12.57 | 12.57 Mbytes
Step Temp PotEng TotEng E_pair E_mol Press Lx Ly Lz Volume Pxx Pyy Pzz Pxy Pxz Pyz Enthalpy 
37000000    81.325518   -9852.9913   -9542.9413   -9852.9913            0    7004.3326    24.659517    24.754129    22.793533    13913.739    7525.2792    6987.6134    6500.1053   -733.23163   -16.554725   -221.41536   -8121.6388 
37001000    78.900269    -9869.966   -9569.1622    -9869.966            0    8023.0267    24.642149    24.700386    22.781691    13866.546    8614.4545    8045.8682    7408.7575   -464.57597    164.66946   -78.263887   -7946.6708 
37002000    78.777749   -9864.2419   -9563.9052   -9864.2419            0    8188.9418    24.750466    24.620396    22.736197    13854.671    7453.0757    8847.4451    8266.3045   -453.42499    153.16566    130.09381    -7909.279 
37003000    78.414755   -9867.6626   -9568.7098   -9867.6626            0     8059.799    24.692523    24.664287    22.774392    13870.139      7552.33    8475.8756    8151.1913   -6.2023467   -402.66966    302.10308   -7938.3595 
37004000    78.264138   -9872.3967   -9574.0181   -9872.3967            0    7931.6446      24.6162    24.711221    22.773795    13853.216    8728.4016    7548.4499    7518.0823   -356.61431    3.7692712        991.1   -7971.5487 
37005000    78.478214   -9856.2243   -9557.0295   -9856.2243            0    8626.8153    24.690765     24.72216    22.666601    13835.898    8306.7896    8689.2136    8884.4426    303.90744    171.94868    -433.7646   -7816.2902 
37006000    80.400075   -9855.2927    -9548.771   -9855.2927            0    8440.4382    24.651085    24.793429    22.663505    13851.593    8957.6237    7148.9633    9214.7277   -214.97709    144.16724   -738.36803   -7843.7073 
37007000    75.877473   -9863.4113   -9574.1317   -9863.4113            0     7675.539    24.650324    24.747947    22.764347    13887.274    8331.1149    6750.1561     7945.346    -134.2907    -221.6498    43.903537   -8019.5922 
37008000    76.327969   -9864.8545   -9573.8575   -9864.8545            0    7300.7993    24.705715    24.708029    22.757763     13892.01    7067.4097    7455.2883    7379.6999   -101.03739   -856.93901   -114.21736   -8094.7103 
37009000    79.047534   -9853.0467   -9551.6815   -9853.0467            0    8204.8087    24.706821    24.652437    22.768495    13867.911    8485.1506      8080.52    8048.7555    440.40788   -623.11363     106.6357    -7892.265 
37010000    81.383876   -9869.3529   -9559.0805   -9869.3529            0    8360.4713    24.668865    24.686941    22.733169    13844.473    8358.3247    8232.5298    8490.5594    213.73501   -18.515102    756.41283   -7871.0391 
37011000    76.365524   -9851.0794   -9559.9392   -9851.0794            0    9206.3752    24.610279    24.687022    22.746886    13819.973    9562.9068    8735.7179    9320.5009    288.97801    510.19934    642.47104   -7704.3931 
37012000    79.894723    -9856.979   -9552.3839    -9856.979            0    8238.8021    24.689077    24.759804    22.680651    13864.607    8104.1739    7470.9665    9141.2657    -540.0807   -57.276084    417.86447   -7886.4893 
37013000    81.829308   -9864.0022   -9552.0315   -9864.0022            0    8457.9535    24.692422     24.67934    22.695511    13830.478    7913.1002    8225.2639    9235.4965   -692.62379   -917.47513   -219.19717   -7846.0341 
37014000    75.721718   -9871.2806   -9582.5949   -9871.2806            0    7343.7834    24.705645    24.764962    22.697734    13887.254    6834.1161    7298.0291    7899.2051   -272.45363   -605.30617    121.02507   -8095.2485 
37015000    77.987251   -9864.1449   -9566.8219   -9864.1449            0    7845.8597    24.677435    24.709452    22.738141    13864.943     7701.259    8254.5751    7581.7449    -14.97501    536.95288    343.46692   -7980.3423 
37016000    77.806485   -9855.5535   -9558.9197   -9855.5535            0    8855.5423    24.606752    24.675907    22.791575    13838.906    8950.6763    9019.6781    8596.2725    82.648857   -362.28905    370.45355   -7771.6388 
37017000    77.129607   -9853.4093   -9559.3561   -9853.4093            0    8283.6244    24.691955    24.670894    22.729718    13846.321    8131.1673    8270.1527    8449.5532   -63.273143   -224.45885    441.73498   -7886.6074 
37018000    77.414969   -9872.2612   -9577.1201   -9872.2612            0    7611.5872    24.614633    24.760687    22.752881    13867.317    8534.3456    6606.1076    7694.3084   -136.79599    213.08486    725.92172   -8037.7482 
37019000    78.073404   -9864.9009   -9567.2494   -9864.9009            0     8512.864    24.727854    24.648689    22.711511    13842.875    7770.3644    8902.1957     8866.032   -121.52105    -178.5561   -28.536341   -7848.6373 
37020000    77.183323   -9861.6933   -9567.4353   -9861.6933            0    8693.1139    24.660116    24.786259    22.608858    13819.258    9004.3778    8048.4618     9026.502   -374.16208   -122.87748   -350.49441   -7815.4278 
37021000    80.085846   -9871.0894   -9565.7656   -9871.0894            0    8548.1682    24.668938    24.729861    22.666297    13827.788    8655.7589    8342.8155    8645.9301   -531.50548    -342.8398    902.72164    -7841.907 
37022000    76.207915   -9844.6245   -9554.0851   -9844.6245            0    8517.5864    24.711842    24.641037     22.75163    13854.046    8162.3409    8739.2353     8651.183   -135.47162   -108.89393    764.62485    -7833.132 
37023000    76.040726    -9865.994   -9576.0921    -9865.994            0    8451.7415      24.6963     24.65763    22.713947    13831.709    8226.9162    8829.8909    8298.4174    19.669593   -908.14072    177.11516   -7871.1959 
37024000    78.667634   -9845.9475   -9546.0306   -9845.9475            0    8212.0074    24.634039     24.71734    22.784873    13873.434     8817.377     7914.114    7904.5312    195.86081    32.632471    540.54429   -7884.4968 
37025000    79.449681   -9865.3626   -9562.4642   -9865.3626            0     8141.125    24.697928    24.668888     22.73189    13849.868    7200.0319    8897.9417    8325.4013    132.66038   -239.99207   -229.96547   -7918.0699 
37026000    80.592588   -9866.8657     -9559.61   -9866.8657            0    7674.7572    24.633965    24.782737    22.743072    13884.579    7967.1236     7462.462    7594.6861   -338.60067   -2.9642851    351.56127   -8005.5304 
37027000    77.628163   -9858.3359   -9562.3819   -9858.3359            0    8219.0547    24.663195    24.684432    22.748308    13849.101    8586.5619    8085.0519    7985.5502    195.70808   -721.55975    109.46285   -7902.3389 
37028000    79.250554   -9869.9177   -9567.7785   -9869.9177            0    8843.7004    24.654424    24.632547    22.765107    13825.278    8371.8437    9290.5447    8868.7129   -553.10803   -29.896617    431.49774   -7784.6453 
37029000    75.427963   -9857.9006   -9570.3348   -9857.9006            0    8527.9598    24.624097    24.714627    22.767018    13855.446    9149.9605    8273.6406    8160.2783   -284.65052   -4.3481251   -588.50448   -7847.1115 
37030000    77.922747   -9856.7412   -9559.6641   -9856.7412            0    7816.1482    24.685531    24.721605    22.737103     13875.68    7976.7839    7926.8438    7544.8169   -123.14313    396.10614   -85.066408   -7977.9684 
37031000    81.291314   -9859.2909   -9549.3713   -9859.2909            0    8537.5137    24.712717    24.604633    22.763575    13841.331    7494.3465    9663.2133    8454.9813   -119.50836    523.56589   -75.519146    -7825.975 
37032000    76.741889   -9840.5203   -9547.9452   -9840.5203            0    9383.5831    24.672531    24.661701    22.714254    13820.865    9067.5933    9563.1504    9520.0057   -572.08503   -148.10474    441.75853   -7656.5608 
37033000    80.152282   -9857.8655   -9552.2885   -9857.8655            0    9207.6898    24.582071    24.681252    22.766786     13812.98    10130.388    8895.3879    8597.2931   -91.400143   -132.86626    177.02237   -7697.4164 
37034000    77.485468   -9865.6434   -9570.2335   -9865.6434            0    9017.8256    24.636091    24.692358    22.694016    13805.296    9240.9987    8739.3652    9073.1129   -77.511919     573.9447   -71.444345   -7754.6198 
37035000    76.089994   -9869.1952   -9579.1054   -9869.1952            0    8445.5699    24.661887    24.616449    22.810293    13847.857    7959.6153    9251.1292    8125.9652    91.855282    -313.7778   -115.73049   -7873.4652 
37036000    77.217976   -9862.4912   -9568.1011   -9862.4912            0    7737.6161    24.716223    24.629696    22.795994    13877.132    7708.2741    8161.1897    7343.3844    605.57029    -504.3304     -325.226   -8002.1334 
37037000    77.875012   -9856.0193   -9559.1242   -9856.0193            0    8284.0701    24.668761    24.728047    22.692504    13842.661    8386.5922    7687.1548    8778.4633   -659.23266    91.241278   -67.174197   -7886.7278 
37038000    78.951184   -9858.6872   -9557.6892   -9858.6872            0    7887.7868    24.728969    24.755815    22.632093    13855.046    7617.6393    7944.3027    8101.4185   -473.40849    254.91647    393.84994   -7963.8701 
37039000    77.700167   -9862.8803   -9566.6518   -9862.8803            0    9205.8893    24.634468     24.71531    22.678382      13807.7    9115.9713    9164.5626    9337.1338   -475.13269   -492.34747     218.0408   -7712.8514 
37040000    75.413305     -9856.12   -9568.6101     -9856.12            0    8568.7344    24.632063    24.684056    22.756463    13836.367     8715.916    8442.8834     8547.404   -363.19056   -390.70808    75.713782   -7839.5319 
37041000    75.434861   -9869.6514   -9582.0593   -9869.6514            0    8259.7076    24.692406    24.652559    22.745768    13846.054    8118.9906    8427.3192    8232.8131   -224.38427    255.51647    33.607044   -7914.1724 
37042000    77.668233   -9862.3219   -9566.2152   -9862.3219            0    8394.1516    24.738561    24.679011    22.663459    13836.568    7630.3221    8751.5892    8800.5434   -636.26649   -159.07335    82.899593   -7872.3413 
37043000    76.582871   -9847.1996   -9555.2308   -9847.1996            0    9210.6515    24.653094    24.668455    22.726779    13821.375    9455.6222    9559.8244     8616.508   -210.13774    1234.4001    614.11591   -7698.6344 
37044000    81.200856   -9872.6762   -9563.1015   -9872.6762            0    8396.1769    24.687172    24.646038    22.761339    13848.931    8228.9175    8707.6425    8251.9708   -250.00789    -925.4511    361.83968   -7867.3051 
37045000    76.490478   -9873.8301   -9582.2135   -9873.8301            0    8537.9098    24.617058    24.702852    22.741977    13829.658       9001.2    8996.3724     7616.157    2.3882425    11.590237   -24.190492   -7860.1907 
37046000     81.36409   -9861.3883   -9551.1913   -9861.3883            0    8080.1991    24.698775     24.69227    22.747377    13872.916    7491.7901    8203.0426    8545.7646    -148.3171   -94.446508    102.50393   -7916.3872 
37047000    77.080658   -9868.2848   -9574.4182   -9868.2848            0    7288.6204    24.693452    24.772431    22.717198    13896.492    7016.4466    7323.0785     7526.336    355.18934   -319.02681    454.17927    -8097.262 
37048000    77.048761   -9863.1787   -9569.4337   -9863.1787            0    7952.9893    24.619502    24.735053    22.776878    13870.314    8583.4746    7362.6484    7912.8448    -221.7528   -1076.6709   -487.43583   -7960.6687 
37049000    78.810301   -9857.0814   -9556.6206   -9857.0814            0    8274.0879    24.712539    24.683814     22.71538    13856.375    8479.3983    7779.1901    8563.6753      -196.07    -293.2937   -360.61684   -7884.5845 
37050000    80.098212   -9858.9892   -9553.6183   -9858.9892            0     8437.681     24.73187    24.732586    22.645659    13851.967    7539.6261    8566.7309     9206.686    387.94889    365.57542     177.3491   -7849.0656 
37051000    78.628815    -9860.485   -9560.7161    -9860.485            0    8806.6248    24.668671    24.734846    22.663532    13828.738    8416.7705    8609.8536    9393.2502   -229.59972    126.93707     603.3833   -7784.6139 
37052000    78.567292   -9862.7789   -9563.2446   -9862.7789            0    8513.0339    24.595165    24.688879     22.78777    13837.351     8746.901    8739.5463    8052.6544   -215.32461    283.40906    58.552386    -7845.284 
37053000    77.300431   -9861.6443   -9566.9398   -9861.6443            0    8000.3579    24.724092    24.645539    22.771341    13875.457    6787.4746    9048.5999    8164.9993   -48.912038   -476.78927   -26.034704    -7947.993 
37054000    80.518325   -9868.6956   -9561.7231   -9868.6956            0    7813.1592    24.669423    24.648739    22.811365    13870.911    7481.1589    8322.8707     7635.448    81.575788   -503.40804   -288.05432   -7981.1756 
37055000    81.262073   -9864.6889   -9554.8808   -9864.6889            0    7899.6047    24.656142    24.769338    22.709248    13868.908    7688.2581    7762.1625    8248.3935    46.391327   -362.69847    220.77025   -7957.0767 
37056000    81.493604   -9862.3169   -9551.6261   -9862.3169            0    8420.4838    24.690422    24.711831    22.684396    13840.783    8317.4003    8041.4826    8902.5686   -797.35014    470.79015    -320.3079    -7851.921 
37057000     78.18434   -9860.3995   -9562.3252   -9860.3995            0     7956.324    24.719748    24.760814    22.652058    13864.896    7850.4068     7449.879    8568.6861   -435.82029   -1024.5311    351.53734   -7953.5144 
37058000    76.885115   -9861.7066   -9568.5855   -9861.7066            0    8467.5187    24.704478    24.652346    22.712405    13832.385    7285.5307     9538.219    8578.8063   -346.83302   -57.842746    111.96523   -7860.4232 
37059000    78.172875   -9861.2288   -9563.1982   -9861.2288            0    8223.9233    24.774264    24.638008    22.689204    13849.229    6846.1921     8927.222    8898.3558    -761.7876   -273.06032   -52.192773   -7902.1565 
37060000    76.889394   -9873.0349   -9579.8975   -9873.0349            0    7896.9621    24.653729    24.743185    22.713485    13855.493    8162.9464    7848.9825    7678.9574    17.251819    267.35363   -296.34898   -7984.1729 
37061000    76.424592   -9864.4463   -9573.0809   -9864.4463            0    8236.3999      24.6384    24.747253    22.722502    13854.653    8422.4082    7873.4747    8413.3167   -413.28216   -32.561484    99.095233   -7908.8677 
37062000    81.058429   -9872.4707    -9563.439   -9872.4707            0    8576.6851    24.738416    24.641699    22.701044    13838.479    8636.4319    8727.6644    8365.9588    -289.9686    54.145407    210.07346   -7832.4923 
37063000     80.65984   -9855.4384   -9547.9263   -9855.4384            0    8613.3982    24.659887    24.739138    22.667293    13828.507    8885.5125    8265.7639    8688.9183   -187.88199    -502.9414    802.89456   -7810.8227 
37064000    77.768816   -9854.8777   -9558.3875   -9854.8777            0    9155.7827    24.595464    24.624406    22.813897    13817.207    9323.0752    9736.0648    8408.2081   -239.32102   -89.402544   -47.391145   -7713.4076 
37065000    76.119217    -9869.764   -9579.5629    -9869.764            0    8487.3396    24.669316     24.68972    22.716186    13835.941    8159.2124    8726.9998    8575.8064   -41.577323    225.57394   -167.42342    -7866.962 
37066000    78.792292   -9843.6561    -9543.264   -9843.6561            0    9174.5568    24.674568    24.690767    22.685876    13821.007    9153.4631    8770.1695    9600.0378   -668.74164   -899.45287    534.31225   -7693.9925 
37067000    77.399849   -9869.0861   -9574.0026   -9869.0861            0    8398.2689     24.69313    24.666504    22.713569     13834.68    7952.5976    8924.1151     8318.094    321.60962   -166.92495    252.68026   -7879.5291 
37068000    77.678024   -9868.5022   -9572.3581   -9868.5022            0    8487.0112    24.684228    24.687628     22.70797    13838.124    7987.3662     8301.535    9172.1325   -476.62933    151.97979    174.67242   -7859.5532 
37069000    77.183056   -9867.4111   -9573.1541   -9867.4111            0     8486.537    24.619449    24.662518    22.785857    13835.062    9023.4304    8751.3514    7684.8293    450.86351   -219.11489   -330.50372   -7860.8239 
37070000    77.021414   -9867.5259   -9573.8852   -9867.5259            0    8341.5986     24.65746    24.649584    22.778862    13844.904    8278.3089    8716.6262    8029.8608   -301.79409   -369.54468    279.72553   -7889.6019 
37071000    79.106831   -9864.3682   -9562.7769   -9864.3682            0    8010.6091    24.620713     24.70961    22.771665    13853.557    8049.7454    7862.1129     8119.969   -361.07315   -199.84869    347.37125    -7944.314 
37072000    77.600206   -9856.1778   -9560.3304   -9856.1778            0    7708.1819    24.682801    24.744165    22.730913    13883.026    7289.1756    7846.0682    7989.3021   -104.43442   -37.473759   -352.84521   -7999.6572 
37073000    75.194493   -9870.4799   -9583.8042   -9870.4799            0    8782.4498    24.640386    24.616316    22.799679    13829.271    8745.9162    9668.2235    7933.2096    -18.75801   -588.38087   -559.08214   -7812.5094 
37074000    78.801017   -9854.7478   -9554.3224   -9854.7478            0    8489.8551    24.734324    24.633206    22.718619     13842.13    7839.4114    9128.1252    8502.0288   -148.38017   -162.59307   -320.53277   -7840.4476 
37075000    80.127023    -9858.509   -9553.0282    -9858.509            0    8390.6675    24.641475    24.779419    22.665086    13839.334    8690.4735    8192.4861    8289.0429   -398.14916   -743.44866   -210.76591   -7859.5189 
37076000    79.864769   -9869.9659    -9565.485   -9869.9659            0    8312.0019    24.678083    24.703463    22.722539    13852.435    8282.4863    8295.7889    8357.7306   -149.65415     205.5367    459.19594   -7886.2648 
37077000    78.392417   -9878.2025   -9579.3349   -9878.2025            0    8098.8849    24.574049    24.749947     22.77313    13850.764     8960.078    7193.2283    8143.3483   -173.06635   -581.33713   -369.34777   -7943.3668 
37078000    77.983928   -9851.6869   -9554.3766   -9851.6869            0    7966.7744    24.680414    24.727347    22.726287    13869.425    8170.2224    7733.7726    7996.3283     -634.766   -912.19805    614.05386   -7942.9265 
37079000     78.55924   -9872.0646   -9572.5609   -9872.0646            0    7757.0244    24.746877    24.719139    22.672916     13869.51    7202.2425    8129.6279    7939.2026   -72.559188   -915.57568    788.55751   -8003.5276 
37080000    77.229587   -9862.4183   -9567.9839   -9862.4183            0    8036.1429    24.717567    24.689757    22.708563    13858.371    7769.5956    7780.6203    8558.2127  -0.61160343    540.49174    144.56872   -7943.7981 
37081000    79.109052   -9850.1738    -9548.574   -9850.1738            0    9397.7573    24.608059     24.70158    22.721876    13811.673     10114.45    8762.6935    9316.1281    394.60704    550.01108    451.60952   -7655.5923 
37082000    78.341373   -9867.4606   -9568.7875   -9867.4606            0     8232.139    24.699485    24.620959     22.79407    13861.644     7614.807    9608.8056    7472.8044   -153.11333   -867.33276   -821.00804    -7904.596 
37083000    75.561299   -9871.7483   -9583.6741   -9871.7483            0    7794.3462    24.646616    24.680838    22.798836    13868.512    7755.4425    8233.1575    7394.4387   -123.41205   -796.24958   -206.11066    -8007.205 
37084000    79.820744   -9856.9235   -9552.6104   -9856.9235            0    8274.3822    24.642875    24.712857    22.756192    13858.426    8487.4501    8153.9032    8181.7931   -46.235268   -691.56506    226.92448   -7880.2673 
37085000    77.952328   -9864.7012   -9567.5114   -9864.7012            0    8504.8514    24.611838    24.765225    22.720133    13848.323    8912.4099    7665.6826    8936.4617    170.03081   -103.66881    306.38734   -7849.8411 
37086000    77.073892   -9850.4107   -9556.5698   -9850.4107            0     8958.129    24.676383    24.638943     22.73239    13821.293    8946.3582    9046.2105    8881.8183     245.8199   -650.75215    540.68873   -7750.8853 
37087000     77.00251   -9856.5126    -9562.944   -9856.5126            0    8529.2401    24.655821    24.721837    22.709345     13842.19    8216.2126    8829.1152    8542.3924   -134.16348   -482.17717   -204.79833   -7841.1109 
37088000    77.484467   -9848.0047   -9552.5986   -9848.0047            0    8343.9637    24.741361    24.686298    22.684974    13855.361    7144.9719    8644.4322    9242.4871   -622.05267   -787.05949   -497.12221   -7866.5653 
37089000    75.660192   -9869.3334   -9580.8822   -9869.3334            0    8187.7718    24.608591    24.731317    22.758143    13850.671    8512.9921    8027.8012    8022.5221   -936.66174   -221.08867    611.39927     -7926.97 
37090000    78.048384   -9855.8143   -9558.2583   -9855.8143            0    8065.9824    24.673171    24.711786     22.73947    13864.667    8558.9513    7799.9344    7839.0614   -491.52137    825.40214    87.152742   -7927.3009 
37091000    72.740391   -9852.3592   -9575.0397   -9852.3592            0    8245.3507    24.627426    24.698015    22.772278    13851.205    8959.7454     7607.078    8169.2287   -437.42015    -488.4492   -209.15133   -7909.4325 
37092000    78.824022   -9861.8821    -9561.369   -9861.8821            0    8354.9379    24.727129    24.704817    22.661491    13843.434    7828.2565    8385.8068    8850.7504    -444.9438   -88.127381   -474.12436   -7874.5715 
37093000    80.898169   -9871.0558   -9562.6351   -9871.0558            0    8283.0523    24.609817    24.749179    22.738892     13849.64    8761.7398    7310.0013     8777.416    177.18495   -588.05615   -124.73229   -7889.6011 
37094000    75.852361   -9857.1947   -9568.0109   -9857.1947            0    7936.5978    24.687162    24.628534      22.8157    13872.142    7522.1127    9082.2961    7205.3845   -117.59912   -978.22447   -209.61407   -7962.3502 
37095000    74.760333   -9869.9173   -9584.8968   -9869.9173            0    8072.1822    24.673605    24.699483    22.745137    13861.461    7659.2443    8149.1618    8408.1405    131.49207    17.798596    144.50804   -7953.0632 
37096000    78.648479   -9864.7883   -9564.9444   -9864.7883            0    7637.3121    24.713807    24.736747    22.695834    13874.853    7421.1754    7123.0105    8367.7502   -171.41576   -340.12743   -443.15965   -8019.5305 
37097000    77.225742   -9852.7394   -9558.3197   -9852.7394            0     8194.603    24.633978    24.711337    22.768954     13860.34    8737.8791    8207.6675    7638.2626    126.05949    261.90673    134.71165   -7901.8722 
37098000    76.541972   -9869.9333   -9578.1204   -9869.9333            0    8702.2606    24.643997    24.691232    22.711113      13819.5    9311.9307    8252.4499    8542.4011   -298.34342     415.8395    294.01047   -7824.2386 
37099000    79.661321    -9863.595   -9559.8897    -9863.595            0    7787.2639    24.726534    24.684983    22.738753    13879.146    7527.3687    7912.1498    7922.2733     142.3677    549.69363     17.03333   -7983.6455 
37100000    77.820015   -9873.3443   -9576.6589   -9873.3443            0     8337.712    24.677761    24.762703    22.667881    13852.072    8682.5444      7474.09    8856.5017   -194.46268   -226.74092   -13.098806   -7892.2889 
37101000    76.358764   -9859.7007   -9568.5862   -9859.7007            0    8367.7803    24.670427    24.692491    22.717781    13839.089    8536.9983    8710.5678    7855.7749    117.70119    183.43843     320.3028   -7879.7262 
37102000    79.454059   -9858.2073   -9555.2922   -9858.2073            0    8355.4259    24.696902    24.666536    22.754954    13862.023    7953.0406    8156.3365    8956.9005   -200.65404   -241.08341   -893.31307    -7866.131 
37103000    80.449487   -9870.5736   -9563.8635   -9870.5736            0    7689.4223     24.65898    24.707732    22.769864    13872.937    7582.3654     8156.346    7329.5553     447.4532   -429.75757    419.02031   -8008.1199 
37104000    79.097832   -9863.2316   -9561.6746   -9863.2316            0     8807.058    24.732148    24.664018    22.667835    13827.247    7574.7215    9310.1484    9536.3043    468.79503   -243.62415    305.00596   -7785.6767 
37105000    80.194315   -9868.2632   -9562.5259   -9868.2632            0    7350.4489    24.639093    24.786699    22.731044    13882.343    8380.3029    6443.2279     7227.816   -254.14031    392.41604   -65.515518   -8074.3559 
37106000    78.451696   -9873.0343   -9573.9407   -9873.0343            0    7907.1177    24.645087    24.639843    22.825142    13860.592    7682.3652    8919.8282    7119.1598    455.34756   -281.73252    548.56628    -7975.576 
37107000    79.301008   -9865.1872   -9562.8556   -9865.1872            0    8229.9979     24.66969    24.710183    22.724703     13852.81    8830.8848    7182.1436    8676.9652    245.47272   -389.73637    18.162311   -7900.1572 
37108000    77.402889   -9860.9757   -9565.8806   -9860.9757            0     8309.908    24.698394    24.710958    22.679321    13841.665    8376.5144     8768.751    7784.4586    114.22733   -693.56779     375.2046   -7888.3887 
37109000    78.412755    -9865.165   -9566.2199    -9865.165            0    8796.7089    24.616692     24.72739    22.715085    13826.821    9511.1365    8409.7933    8469.1969    263.25115    105.69713    338.69821   -7792.3635 
37110000    77.978674   -9869.8379   -9572.5476   -9869.8379            0    8453.4604    24.713606      24.6086    22.748753    13835.047    7519.6645    9793.3741    8047.3425   -329.85679    546.02504   -269.10484   -7866.8932 
37111000    77.625849   -9860.9071   -9564.9619   -9860.9071            0    7915.4016     24.63785    24.731775    22.738597    13855.486    8766.9734    7387.3542     7591.877    361.78457   -518.04251    147.21991   -7965.5122 
37112000    79.829869    -9867.366   -9563.0182    -9867.366            0    8097.7644    24.717076    24.690651    22.726755      13869.7    7175.1549    8745.5432    8372.5951   -220.73812    -748.6774     57.47859   -7925.0401 
37113000    78.498758   -9865.6601    -9566.387   -9865.6601            0    7819.4669    24.670097    24.762634    22.701712    13868.398    7875.8005     7095.487    8487.1132   -282.11409    212.27249    480.42743   -7984.8501 
37114000    82.730384   -9857.0291   -9541.6232   -9857.0291            0      8409.16    24.747301    24.582261     22.77267    13853.631     7650.824     9668.976      7907.68   -562.03308   -324.25308   -604.72267    -7842.628 
37115000    77.958316   -9845.1023   -9547.8896   -9845.1023            0    8842.0551    24.683936    24.716621    22.691375    13844.087    8185.8754    9178.9816    9161.3081   -324.02794   -777.35658    222.27805   -7762.6628 
37116000    76.235122   -9862.9284   -9572.2854   -9862.9284            0    8491.4143     24.70232     24.68512    22.693743    13838.184    9096.9464    7655.4132    8721.8833    -627.4473    84.404337    203.11588   -7858.5845 
37117000    76.357722   -9863.3795   -9572.2691   -9863.3795            0    9983.7107    24.683589    24.670168     22.61322    13770.282     9832.461    9908.7185    10209.953    48.639915   -116.64294    238.24489    -7567.286 
37118000    78.259046   -9878.9626   -9580.6034   -9878.9626            0    8351.4649    24.641113    24.674385    22.759804    13838.059    8278.1077    8788.7339    7987.5531   -152.49768   -630.00639    219.91876   -7895.1618 
37119000    77.665614   -9867.6925   -9571.5957   -9867.6925            0    7408.4887    24.696471    24.731669    22.743664    13891.487    6737.8944     7872.905    7614.6667   -128.48816   -93.911593   -54.626258   -8070.6871 
37120000     75.01419   -9858.1217   -9572.1334   -9858.1217            0    8214.4913    24.728655    24.718823    22.670921    13857.901     7519.511    7763.7994    9360.1635   -245.19411    403.19372    96.417886   -7911.9579 
37121000    80.003184   -9873.1873   -9568.1786   -9873.1873            0    8497.4175       24.649    24.747448    22.671612    13829.679    9202.8007    8030.3668    8259.0849    195.64111    484.88111    188.28555   -7854.3202 
37122000    78.604016   -9859.6575   -9559.9831   -9859.6575            0    7770.1832    24.664767    24.716881    22.750578    13869.574    7925.5732    7858.1891    7526.7872   -1159.2546   -231.46482    454.56414   -7988.2809 
37123000    76.798969   -9863.8441   -9571.0514   -9863.8441            0    8164.4136    24.615899    24.662916    22.821477    13854.915    8261.2887    8549.5745    7682.3774   -285.39448   -169.28731    51.631034   -7921.3523 
37124000    77.714787   -9849.9975   -9553.7132   -9849.9975            0    8199.2622    24.680067     24.70379    22.724843    13855.137    8277.5588    7723.3902    8596.8376   -526.51809    646.88208   -255.33244   -7896.9461 
37125000    79.571129   -9853.2779   -9549.9165   -9853.2779            0    8261.9607    24.682895     24.75271     22.65846    13843.606    8307.5517    7648.6635    8829.6668    184.15912   -363.98304    21.655007   -7881.8696 
37126000    77.555754   -9860.9897   -9565.3118   -9860.9897            0    8454.6857    24.644033    24.726629     22.72259    13846.325    8913.3556    7864.5153    8586.1863   -490.78181     -66.3418    199.91183   -7858.0195 
37127000    79.401822   -9861.2992   -9558.5832   -9861.2992            0    8525.4162    24.700888    24.612756    22.785845    13852.812    8090.8235    9392.8804    8092.5447    393.55563    86.658307    501.36842   -7836.2015 
37128000    77.653973   -9865.4482   -9569.3959   -9865.4482            0    8329.7473    24.682875    24.713819    22.702125    13848.481    7305.4787    9062.4739    8621.2894   -122.82975    -11.16551    510.03726   -7887.0711 
37129000    78.416761   -9859.8167   -9560.8562   -9859.8167            0    8094.7458    24.622979    24.820564    22.664869    13851.776    9013.9811     6787.865    8482.3913   -141.08207    140.06624    213.78786   -7925.6047 
37130000    77.506534   -9875.7088   -9580.2186   -9875.7088            0    7940.5277    24.701803    24.692366    22.723175    13859.909    7455.0426    8577.8748    7788.6658    3.5579816    345.65583     480.8022   -7975.1794 
37131000    77.173343   -9874.3482   -9580.1282   -9874.3482            0     8236.953    24.650227    24.691394    22.762126    13854.133     8544.688     8231.856     7934.315    284.55779   -318.56893    190.77139   -7915.8657 
37132000    76.206262   -9862.3403   -9571.8072   -9862.3403            0    8012.3664    24.648016    24.718233    22.753132    13862.469    7998.8341    8623.9752    7414.2898   -100.28529     15.84965    226.98244    -7951.948 
37133000    75.427097   -9859.2232   -9571.6608   -9859.2232            0    7600.3182    24.703508    24.741001    22.718955    13885.587     7498.352    7111.5443    8191.0583    278.86838    -58.27099    590.26639   -8032.5427 
37134000    76.391083   -9869.4257   -9578.1881   -9869.4257            0    7706.4859      24.6385    24.721313     22.76762    13867.668    8371.8322    7119.7231    7627.9025   -2.3756083   -688.27229   -121.25196   -8019.5843 
37135000    78.278163   -9879.7795   -9581.3475   -9879.7795            0     7772.259    24.731904     24.67231    22.708159    13856.365    7172.4914    8601.2618    7543.0238    80.533969   -294.68097    570.93421   -8010.7226 
37136000    77.329963   -9857.6885   -9562.8715   -9857.6885            0    8411.6806    24.669767    24.773075    22.658291    13847.524     8649.089    7367.0958     9218.857    14.623111   -455.95391   -751.87929   -7864.1163 
37137000    77.719348   -9870.1794   -9573.8778   -9870.1794            0    8428.3075    24.681128    24.679974    22.717323    13837.794    8295.4651    8672.5774    8316.8799   -72.063398   -329.34007    142.45452   -7872.9607 
37138000    76.442438   -9857.4222   -9565.9888   -9857.4222            0    8218.5382    24.695481    24.657053    22.770729    13865.502    7898.8101    8669.7837    8087.0208   -615.53519   -959.58317    12.605333   -7904.0843 
37139000     77.60097   -9871.8053    -9575.955   -9871.8053            0    8732.4982    24.614851    24.778763     22.67962     13832.88     9287.792    7350.1086    9559.5941   -895.53995   -487.84798    831.09563   -7814.2751 
37140000    77.200872   -9855.1512   -9560.8263   -9855.1512            0    8926.9368    24.654044    24.714292    22.686493    13823.044    8841.2589    8847.7058    9091.8455   -355.80169   -205.57543   -230.14697   -7761.2012 
37141000    75.638607   -9866.0637   -9577.6948   -9866.0637            0    7773.5884    24.643353     24.73219    22.756292    13869.598    8118.6327    7858.4602    7343.6723    228.41237   -172.89343    184.60406   -8005.3011 
37142000    76.968837   -9873.2066   -9579.7663   -9873.2066            0    8067.5461     24.65819    24.671615    22.788642    13863.638    7894.8537     8229.187    8078.5976    -63.80255    57.473427    824.44194   -7948.6138 
37143000     79.02067   -9865.3736   -9564.1108   -9865.3736            0    8324.7025    24.658508    24.691361    22.736194     13842.98    8143.7378    8575.7125    8254.6573   -481.72921   -528.84367   -431.66301   -7883.4726 
37144000    81.862106   -9877.8628   -9565.7671   -9877.8628            0    8249.2413    24.703372    24.757019    22.623447     13836.09    8226.6211    7662.3021    8858.8008    -107.4536   -360.07925    769.85133   -7901.1925 
37145000    80.203912   -9854.5938   -9548.8199   -9854.5938            0    8213.0612    24.643828    24.705678    22.746607    13849.101     8618.647    8465.3882    7555.1484    350.48828    39.048861    262.04294   -7889.9874 
37146000    78.846964   -9865.9063   -9565.3057   -9865.9063            0    9127.1442    24.645267    24.623951    22.774727    13821.159    9553.6898    9207.2388    8620.5039    63.661802   -300.69814    159.17697   -7725.5708 
37147000    77.125255   -9864.0353   -9569.9987   -9864.0353            0    8583.2753    24.680973    24.654119    22.738962    13836.378    8388.9235    9036.6152    8324.2872   -159.90582    325.10917   -559.85053   -7837.9849 
37148000    77.216127   -9866.5919   -9572.2088   -9866.5919            0    8897.4975    24.633975    24.696861     22.70599    13813.912    9610.3203    8739.9122      8342.26    10.056902    591.44672     504.2497   -7779.7034 
37149000    77.861337   -9861.2147   -9564.3718   -9861.2147            0    8294.0192    24.647273    24.730866    22.713381    13844.905    8226.0651    8358.8357    8297.1568   -248.34869   -144.41538      226.021   -7889.6954 
37150000    77.920513    -9870.268   -9573.1995    -9870.268            0    7889.6914    24.632419     24.66661    22.829571    13871.208    7847.9707    8249.1086    7571.9948     218.3487   0.58987171   -425.00867   -7977.1359 
37151000    79.215341   -9864.4302   -9562.4252   -9864.4302            0    8493.9799    24.706451    24.708616    22.659526    13832.784    8023.6922    8460.0052    8998.2422   -73.058632    75.255136    52.198169   -7848.8755 
37152000    76.513681   -9866.4724   -9574.7673   -9866.4724            0    8406.5907    24.704206    24.702753    22.680921    13841.301     7945.173    8228.0364    9046.5627   -365.57425   -384.63653    -36.65896    -7877.803 
37153000    78.808216   -9857.9636   -9557.5107   -9857.9636            0    8974.6283    24.620616    24.713431    22.708437    13817.173    8739.7483    9059.4861    9124.6506   -327.57943    -600.5086      7.89172   -7749.0397 
37154000    78.236914   -9866.8339   -9568.5591   -9866.8339            0    9533.7752    24.613069    24.641334    22.745735    13795.262    9745.0087    9437.6264    9418.6906   -394.17394    390.33946    26.236938   -7650.4613 
37155000    78.450177   -9867.9404   -9568.8525   -9867.9404            0    7751.5133    24.644602    24.690883    22.799766    13873.589    8061.6272    7889.1653    7303.7475   -284.57581    227.60813   -46.142248   -8000.4729 
37156000    74.372417   -9881.7405    -9598.199   -9881.7405            0     7938.403    24.719914    24.739576    22.645071    13848.824    7559.6865    7619.1849    8636.3376    191.16575   -59.551088    448.73821   -7994.8726 
37157000    77.388357   -9863.4116   -9568.3719   -9863.4116            0    8357.3513    24.663279    24.729916    22.700577    13845.555    8183.1504    8562.8349    8326.0688    33.302553   -236.26373    593.86109   -7880.8286 
37158000    78.007841    -9863.007   -9565.6056    -9863.007            0    8403.7608    24.601926    24.721218    22.762757    13844.071    8972.4974    8348.0101    7890.7749   -506.10235   -216.10126   -617.74892    -7868.873 
37159000    79.015134   -9857.0738    -9555.832   -9857.0738            0    8683.6455    24.667331    24.671293      22.7385    13838.082    8344.6646    8980.5816    8725.6904    -258.7867    400.26487   -268.99932   -7803.3488 
37160000    78.213213   -9869.3069   -9571.1225   -9869.3069            0    7598.7545    24.724666    24.727286    22.694954    13875.102    7141.4043    7354.1559    8300.7033    35.904347    -73.09201     351.0111   -8033.4831 
37161000    76.256123   -9879.1497   -9588.4266   -9879.1497            0    7608.8947     24.72554    24.699699    22.716479    13873.258    7708.2058    7078.0299    8040.4483   -122.46542   -27.944919   -329.38185   -8048.9399 
37162000    78.176249   -9869.3791   -9571.3356   -9869.3791            0    8267.2909    24.716693    24.668298    22.707159     13844.98    7812.8916    8147.3849    8841.5961    627.93354   -33.428822   -57.951029   -7902.0469 
37163000    79.059457    -9861.287   -9559.8763    -9861.287            0    8753.6039    24.621512    24.664079    22.788032    13838.418    8433.5013    9182.5544    8644.7561   -418.50719    333.14102    342.88431   -7793.2316 
37164000    75.375706   -9859.2602   -9571.8936   -9859.2602            0    8256.1237    24.713427    24.646781    22.732734    13846.654    7866.1904     8351.223    8550.9578   -383.60477   -659.10314    261.43199   -7904.6582 
37165000    77.285399   -9860.1247   -9565.4775   -9860.1247            0    8374.2191    24.714217    24.707442    22.669226    13842.398    8784.6638    7912.7301    8425.2633   -11.372399    406.74322    668.63324   -7874.9138 
37166000    79.404507   -9859.9398   -9557.2136   -9859.9398            0    8532.6958    24.690835    24.630015    22.782248    13854.696    8323.3113    9208.2046    8066.5716    33.812991      110.872    456.89554   -7833.1267 
37167000    76.067742   -9871.8521   -9581.8472   -9871.8521            0    8876.0505     24.63768    24.677698    22.729975    13819.852     9045.837    8709.2347    8873.0799    21.268889   -23.403751   -211.57998   -7792.8936 
37168000    80.624538   -9859.9338   -9552.5562   -9859.9338            0    8244.1045    24.656073    24.724643      22.7179    13849.118    8168.6374    8295.4048    8268.2715   -180.66798   -484.76846   -301.50024   -7887.4517 
37169000    80.175628   -9874.3583   -9568.6923   -9874.3583            0    7912.2104    24.704177    24.746809    22.674937    13862.313    7446.9165    7735.0603    8554.6543    -10.39442   -412.20776    508.94441   -7969.0996 
37170000    77.966528   -9870.0159    -9572.772   -9870.0159            0    7697.9184     24.67315    24.672938    22.786248    13871.336    8493.7921    7770.4829    6829.4804    276.47596    767.36007   -146.14679   -8015.4891 
37171000    76.625468   -9861.5222    -9569.391   -9861.5222            0    7797.7284     24.65814    24.675155     22.78883    13865.714    7901.6692    8111.8045    7379.7116   -700.75237   -28.093241    253.23405    -7992.556 
37172000     78.64646   -9866.8715   -9567.0354   -9866.8715            0    8229.8884    24.710559    24.714128    22.671939    13845.751    7806.6991      8048.11    8834.8561    9.3166521    307.24312   -448.96864   -7905.2063 
37173000    79.076085   -9868.1621    -9566.688   -9868.1621            0    8383.7743    24.673451    24.779156    22.644406    13844.501    8165.9353    7765.6053    9219.7824   -387.24971    113.74388     307.2807   -7873.9381 
37174000    77.613567   -9871.8592   -9575.9609   -9871.8592            0    8007.7374    24.668779    24.696749    22.748029    13858.978    8255.0297     7877.758    7890.4246   -174.74637   -581.65845    653.64633   -7957.4451 
37175000    76.642686   -9860.8408   -9568.6439   -9860.8408            0    8006.6339    24.695315    24.688007    22.719999    13851.886    8105.4564    7811.1961     8103.249     98.31598    -46.65495    809.62256   -7951.1794 
37176000    76.810921   -9869.5787   -9576.7405   -9869.5787            0    7549.5651    24.662499    24.698254    22.804524    13890.708    8199.1594    7132.6213    7316.9146    336.77167   -93.131844   -215.23401   -8047.3366 
37177000    77.278438    -9858.291   -9563.6704    -9858.291            0    8089.8822    24.622505    24.757545     22.72809     13854.88    8678.3202    7816.6558    7774.6704   -187.47624    -76.25754   -8.8600567   -7929.0352 
37178000    78.213842   -9866.3219    -9568.135   -9866.3219            0    7752.4372    24.712549    24.681988      22.7321    13865.554    7616.3027    7784.4419    7856.5671   -101.74864   -608.06358     445.6426   -8000.4768 
37179000    78.928367   -9871.1829   -9570.2719   -9871.1829            0    8023.3108    24.698178    24.699351    22.710738    13854.208    7873.2452    7747.2388    8449.4485   -166.00511   -265.96626    270.01121   -7949.1666 
37180000    79.644427   -9882.5544   -9578.9135   -9882.5544            0    7707.6078     24.68117    24.758533    22.698767    13870.526    8117.7956    7093.1142    7911.9135    30.643446    -416.9677     181.5158   -8019.7616 
37181000    76.965685   -9861.4587   -9568.0304   -9861.4587            0    8082.5698    24.748299    24.723729     22.64413    13855.269    7312.6971    8248.5364    8686.4759   -404.92326   -440.69274   -78.653225   -7934.8268 
37182000     80.30577   -9862.3724   -9556.2102   -9862.3724            0    8266.1691     24.64004    24.715897    22.750198    13854.886    8903.9182    7865.8136    8028.7755    218.48589   -143.40989   -437.48862   -7885.9539 
37183000    76.970287   -9862.4621   -9569.0163   -9862.4621            0    8105.4281    24.585755     24.66337    22.860822    13862.061    9056.8588    8527.8198    6731.6057    94.153586   -63.153386    594.90344    -7930.391 
37184000    77.545323   -9859.3977   -9563.7596   -9859.3977            0     8230.629    24.659087    24.708315    22.733047    13850.893    8025.5778    8529.4475    8136.8616    136.96965    277.06455    344.53062   -7901.1637 
37185000    81.369622   -9859.6415   -9549.4234   -9859.6415            0    8410.0179    24.754322    24.640818    22.699557    13845.975    7145.6441    9066.1479    9018.2615   -498.77711    731.78601   -26.587214   -7851.1941 
37186000    79.745599   -9856.2449   -9552.2183   -9856.2449            0    8625.6805    24.674061    24.674058    22.748947    13849.769    8341.8948    8259.1229    9276.0237   -340.62109    157.56886    544.94725   -7809.9631 
37187000    76.446858   -9874.7428   -9583.2925   -9874.7428            0    7894.9264    24.634412    24.798197    22.704875    13870.158     8099.253    6873.0905    8712.4358     49.91644   -295.65705   -166.08506   -7986.2908 
37188000    77.879035   -9850.5026   -9553.5922   -9850.5026            0    8476.7953    24.679073    24.694167    22.726629     13850.27    8049.7829    9298.2065    8082.3964   -481.08954   -1325.4563    61.025326   -7841.3475 
37189000    75.714205   -9867.2956   -9578.6385   -9867.2956            0    8645.8624    24.689399    24.711894    22.666933    13829.591    8393.1342    8436.0874    9108.3657   -506.96741   -483.25308    51.699348   -7834.8511 
37190000    81.232105   -9860.5633   -9550.8694   -9860.5633            0    8482.0596    24.673665    24.702049    22.715342    13844.775    8419.1562    8639.8446    8387.1781   -146.05298    19.665083    886.57106   -7838.2411 
37191000    78.231444    -9861.473   -9563.2191    -9861.473            0    8343.0469    24.681029    24.699756    22.722864    13852.207     8274.906    8472.6069    8281.6279    127.24767   -537.62611     358.9406   -7877.7548 
37192000    78.592487   -9853.3102   -9553.6798   -9853.3102            0    8972.9216    24.624277    24.651751    22.773201    13824.052    9148.3552    9317.1313    8453.2784    153.36122   -411.24182    484.67181   -7744.6525 
37193000    77.712129   -9860.7201    -9564.446   -9860.7201            0    8423.2311    24.596177     24.69603    22.804741    13852.236    8865.1991      8706.27    7698.2244   -422.33425   -758.77718   -230.49411   -7862.7793 
37194000    79.022875   -9870.5113     -9569.24   -9870.5113            0    8072.3691    24.735653    24.720194    22.666632    13859.968    7656.0848    7843.6448    8717.3777    10.258307    -299.2243    670.59283   -7937.5444 
37195000    77.073986   -9859.2492   -9565.4081   -9859.2492            0    8167.3494    24.689257    24.744626    22.685587    13859.225    8828.2515     7436.986    8236.8105   -411.09931    262.29764    179.72965   -7914.6023 
37196000    78.239415   -9859.2075   -9560.9231   -9859.2075            0    8396.3509    24.679807    24.719881    22.700803    13849.349    7283.3174     9282.256    8623.4793   -14.944448   -82.310446    163.03785   -7865.0404 
37197000    78.311909   -9862.9111   -9564.3504   -9862.9111            0    8467.7598    24.655937    24.616808    22.811727    13845.588    8419.9142    9357.4258    7625.9394   -590.24104    368.70065    677.90535    -7854.509 
37198000    77.968859    -9859.018   -9561.7651    -9859.018            0    8068.3124    24.655672    24.677902    22.787342    13864.964    8335.2537    7767.1766    8102.5068    34.782962   -60.994209    600.68278   -7930.3017 
37199000    81.178878   -9866.8155   -9557.3246   -9866.8155            0    8245.2925    24.671822    24.695696    22.740664    13855.609    7962.6803    8098.4838    8674.7135    483.90391    306.30298   -247.22686   -7891.1996 
37200000    75.701291    -9858.356   -9569.7481    -9858.356            0    7575.1866    24.694801    24.740966    22.721008    13881.927    7309.8117    7669.3562     7746.392   -97.084465    66.596349   -254.09428   -8036.1238 
37201000    80.445262   -9859.2615   -9552.5675   -9859.2615            0    8606.6933    24.741974    24.625197     22.70238    13832.015    7883.3515    8899.1862    9037.5421    135.75298    624.12857    747.14388   -7816.3759 
37202000    76.526864   -9860.0291   -9568.2738   -9860.0291            0    8473.8469      24.6347    24.668635    22.790558    13849.923    8583.6268    8960.6716    7877.2423    -314.6668   -318.31215    180.50216   -7856.6675 
37203000    77.557086   -9876.2656   -9580.5826   -9876.2656            0    8206.8904    24.598434    24.744412    22.749974    13847.313    9231.2402    7409.9613    7979.4696    12.853088   -718.37097   -561.75106   -7923.2105 
37204000    77.917795   -9856.5651   -9559.5069   -9856.5651            0    8458.9561    24.659284    24.713578    22.720479    13846.294    8911.9955    7674.4407     8790.432    279.79721   -681.42309    669.13091   -7851.3561 
37205000    78.016153    -9873.285   -9575.8519    -9873.285            0    8074.6965    24.698174    24.662737    22.742435    13852.976    7903.7933    8749.7614     7570.535     205.7569   -75.814476   -106.89704   -7944.5093 
37206000    74.653947   -9873.4657   -9588.8508   -9873.4657            0    8425.0357    24.712947    24.675055    22.688603    13835.359    7671.8075    8663.4234    8939.8762   -990.03173   -1096.6288    293.13847   -7888.8932 
37207000    78.921716   -9866.9533   -9566.0677   -9866.9533            0    8474.2982    24.612604    24.733939    22.756149    13853.185    8869.8734    7747.4148    8805.6063   -235.37313     60.61242   -324.23418   -7853.9672 
37208000    76.515303    -9857.492   -9565.7807    -9857.492            0    8266.6812    24.675933    24.658189    22.758537    13847.747    8363.3568    8604.4031    7832.2838   -210.95204    237.74962    339.57499   -7896.2816 
37209000    77.820936   -9850.5612   -9553.8723   -9850.5612            0    8489.8266    24.708938    24.662786    22.720097    13845.429    7854.1442    8877.5262    8737.8094   -24.435208   -251.62532    312.37685   -7839.5949 
37210000    79.014102   -9859.1401   -9557.9024   -9859.1401            0    8742.3347    24.625737    24.661785    22.759833    13822.379    8631.2524     9292.993    8302.7586    369.22142     211.5222    116.37374   -7795.5768 
37211000    81.785809   -9868.6047   -9556.7999   -9868.6047            0    7864.6233    24.650263    24.710014    22.748418    13856.251    8720.8766    7702.2098    7170.7834   -406.12298   -58.926818   -151.96424   -7967.5231 
37212000    77.998251   -9866.9484   -9569.5835   -9866.9484            0    8198.3568     24.72544    24.729167    22.665194    13858.395    8061.6883    7580.2861    8953.0962   -227.57824    -486.7066   -92.629522   -7912.6097 
37213000    76.745415   -9864.6502   -9572.0617   -9864.6502            0    8160.1869    24.654897    24.762888    22.685972    13850.386    8740.9448    7261.5151    8478.1009    195.77452   -419.06769    64.371944   -7923.7556 
37214000    78.718364   -9862.2074   -9562.0971   -9862.2074            0    8191.1888     24.66055    24.685763    22.773333    13863.597    7708.4237    8406.9292    8458.2134    -62.67438   -344.01934    7.4388372   -7905.9506 
37215000    79.655382   -9875.4586    -9571.776   -9875.4586            0    7578.4926    24.604541    24.757312    22.776851    13874.343    8371.5917    7130.2566    7233.6295   -838.87474   -36.141272    272.28805   -8038.3206 
37216000    74.584142   -9861.6012   -9577.2525   -9861.6012            0    8108.5605     24.71022    24.670853     22.73165    13857.719    8090.1975    8383.6654    7851.8186    -26.47438    833.83997   -96.449703   -7938.5074 
37217000    80.726089   -9866.7402   -9558.9755   -9866.7402            0    8651.9637    24.679128    24.650346    22.746262    13837.667    8699.8162    8836.6373    8419.4377   -361.51447    449.21173   -465.59466   -7812.9385 
37218000    75.806152   -9851.8845   -9562.8769   -9851.8845            0     8171.353    24.648849    24.677147    22.787537    13860.822    8600.2588    8474.0214    7439.7789    203.31885   -583.54883    575.66464   -7911.0716 
37219000    77.907388   -9873.6196   -9576.6011   -9873.6196            0    8023.5111    24.639317    24.739457    22.729759    13855.227    8762.2055    7307.8489    8000.4789    176.45684   -319.71344    530.00224   -7955.3361 
37220000    79.822915   -9868.8663   -9564.5449   -9868.8663            0    8317.5956    24.649665    24.713935    22.726457    13844.735    8243.8097     7976.251     8732.726   -355.08186   -404.09286   -112.91791   -7885.1288 
37221000    76.462443   -9862.9755   -9571.4658   -9862.9755            0    8061.6632    24.614673    24.735969    22.785361    13873.273    9286.6509    7170.1072    7728.2316     328.1377   -780.60945    -371.0811     -7940.37 
37222000    78.552129   -9867.0673   -9567.5907   -9867.0673            0    9290.7372     24.66686    24.639679    22.698827    13795.973    9460.2923    9469.7588    8942.1606   -270.02043    35.658414   -219.55328   -7698.2934 
37223000    78.729406   -9865.3641   -9565.2117   -9865.3641            0    8433.7211    24.635375    24.732434    22.709408    13836.678    8467.3046    8581.5491    8252.3095   -489.04846   -738.16556   -469.89921   -7863.3394 
37224000    79.354161   -9848.1483   -9545.6141   -9848.1483            0    8491.5412    24.692385    24.711765    22.701024    13851.993    7859.2148    8545.3226    9070.0862   -177.31446   -428.35825   -147.68329   -7830.1774 
37225000    76.940329   -9863.9968   -9570.6651   -9863.9968            0    8152.8365    24.683864    24.650647    22.784566    13863.798    8445.8632    8080.9222    7931.7241     40.82832   -259.23098    604.39991    -7922.249 
37226000    78.417093   -9862.0624   -9563.1007   -9862.0624            0    8275.4812    24.611082    24.669448    22.806934    13847.043    8751.6768    8830.2212    7244.5455    5.3244251   -75.440139    141.20899   -7891.9093 
37227000    79.535893    -9860.928   -9557.7009    -9860.928            0    8345.6132    24.661515    24.724006    22.720699    13853.525    8208.6187    8125.1183    8703.1025   -206.57296   -743.57712   -142.09273   -7871.5578 
37228000    77.227115   -9846.1324   -9551.7074   -9846.1324            0    8980.1433    24.642723    24.734756    22.685332     13827.43    9008.6419     8958.854    8972.9341   -701.69764    -350.5606    248.49753   -7740.7818 
37229000     77.81883   -9871.6554   -9574.9746   -9871.6554            0    7817.9247    24.704773    24.763994    22.674135    13871.784    7721.0436    7301.1881    8431.5423    -35.90059   -167.68458    -210.0452   -7993.3636 
37230000    77.410813   -9861.9622   -9566.8369   -9861.9622            0    7466.1616    24.668443    24.684208    22.806698    13887.477    7884.4058    7249.8931    7264.1859   -40.559471    -64.68065   -21.307394   -8054.6807 
37231000    81.408106   -9865.6143   -9555.2495   -9865.6143            0    7542.6591     24.67021    24.708452    22.777208    13884.136    7594.4732    7740.0841    7293.4199   -17.218663   -328.29791    706.90799   -8027.9675 
37232000    78.811534    -9862.405   -9561.9394    -9862.405            0    7751.9228    24.661751    24.738083    22.727073    13865.433    8026.2838    7677.2058    7552.2789   -526.10512     92.91693   -538.20204   -7994.3989 
37233000    78.457057   -9853.3758   -9554.2617   -9853.3758            0    8379.8133    24.721882    24.623065    22.743834     13844.82    7266.7544    9550.5205    8322.1651    314.42108   -86.268099     812.8649   -7862.2726 
37234000    79.369137   -9859.7823   -9557.1909   -9859.7823            0    8182.8565    24.639379    24.661712    22.797126    13852.657    8011.6582    8440.5988    8096.3124    443.44953    11.218663    -3.113532   -7904.0347 
37235000    75.122431   -9861.3286   -9574.9276   -9861.3286            0    8060.8577    24.663446    24.723061    22.726751     13857.77    8110.5304     7605.858    8466.1847   -284.82723   -1015.4297   -310.68923   -7945.8173 
37236000    80.904093   -9868.2158   -9559.7725   -9868.2158            0    8464.1943    24.634538    24.744825    22.696838    13835.478    8469.8899    8453.1116    8469.5814    -346.5894     148.8543    179.87095   -7851.8991 
37237000    77.870547   -9863.9999   -9567.1219   -9863.9999            0     9085.101    24.632342    24.639075     22.76598    13817.086    9868.6962    9272.7921    8113.8146   -462.93593   -90.117085   -71.113308   -7736.4012 
37238000    81.355674   -9858.5882   -9548.4233   -9858.5882            0    8030.6887    24.639084    24.710291     22.75078     13851.56    8538.8036    7591.7242    7961.5384   -316.36074   -84.345002    571.20152   -7926.1374 
37239000    76.930074    -9852.677   -9559.3845    -9852.677            0    8437.5816    24.653607    24.666408    22.775816    13850.336    8768.0861    8518.0309    8026.6278   -119.67524    13.624965    681.35093   -7855.0525 
37240000    80.944303   -9862.3438   -9553.7472   -9862.3438            0    8228.7605    24.677749    24.746947    22.683055    13852.518    8327.9893    7594.8263    8763.4658   -9.3185934    305.09768    40.187525   -7891.3338 
37241000    78.370791   -9860.2756   -9561.4904   -9860.2756            0    8118.2859    24.733579    24.675501    22.704033    13856.577    7971.3176    8431.1214    7952.4187    63.559942    137.30517    338.04318    -7920.915 
37242000    81.785682   -9871.3936   -9559.5893   -9871.3936            0    7997.0861    24.618308    24.734315     22.75477    13855.766    7895.9031    7967.2457    8128.1095   -75.751588   -480.98083     496.0583    -7943.601 
37243000    75.187167   -9852.0961   -9565.4483   -9852.0961            0    8730.9399    24.634524    24.637186    22.800302    13838.081    8883.0564    9224.1435    8085.6197   -120.69587   -907.27153    -1.308882   -7803.4205 
37244000    76.712312   -9863.2397   -9570.7774   -9863.2397            0    9100.6117    24.630403    24.695601    22.707187    13811.933    8676.9529    9410.7295    9214.1526   -650.24073   -541.69693    423.92549   -7737.6151 
37245000     80.44291    -9870.964   -9564.2789    -9870.964            0    7877.2547    24.730904    24.741888     22.64848    13858.361    7211.8764    7872.7776    8547.1102    39.567857    437.42464   -404.82659   -7972.2071 
37246000    77.410917    -9865.572   -9570.4463    -9865.572            0    8578.7969    24.681779     24.63224    22.753816     13833.58    8860.6371    9319.1862    7556.5673   -148.79359   -620.55097   -91.357934   -7839.6862 
37247000    81.435036   -9856.6089   -9546.1414   -9856.6089            0     9003.478    24.713865     24.67411    22.647159    13810.071    8428.0449    9618.3431    8964.0461   -37.029629   -109.08198   -414.46947   -7732.7895 
37248000     76.24461   -9869.9926   -9579.3134   -9869.9926            0    8414.4518    24.618188    24.727278    22.728399    13835.703    9129.6675    7998.4742    8115.2136   -671.19703   -952.77486    88.138692   -7881.4492 
37249000    74.249775   -9864.8675   -9581.7935   -9864.8675            0    8443.4235    24.692561    24.621369    22.750148    13831.286    8363.5292    9280.6902    7686.0511   -278.95817    217.76673    170.97738   -7878.6274 
37250000    77.316994   -9854.2986   -9559.5309   -9854.2986            0    8180.5907    24.608341    24.677805    22.833071    13866.064    8054.2862    8641.6931     7845.793    447.37701    -527.5483    -453.6002   -7905.2329 
Loop time of 508.016 on 64 procs for 250000 steps with 1920 atoms

Performance: 85.037 ns/day, 0.282 hours/ns, 492.110 timesteps/s
377.7% CPU use with 16 MPI tasks x 4 OpenMP threads

MPI task timing breakdown:
Section |  min time  |  avg time  |  max time  |%varavg| %total
---------------------------------------------------------------
Pair    | 72.808     | 74.91      | 76.85      |  12.7 | 14.75
Bond    | 1.5867     | 1.7695     | 2.5361     |  16.8 |  0.35
Kspace  | 244.76     | 248.94     | 252.9      |  15.8 | 49.00
Neigh   | 0.14987    | 0.15306    | 0.15831    |   0.7 |  0.03
Comm    | 62.669     | 69.218     | 72.997     |  31.7 | 13.63
Output  | 0.54711    | 0.54737    | 0.54892    |   0.1 |  0.11
Modify  | 77.365     | 89.123     | 93.526     |  47.8 | 17.54
Other   |            | 23.36      |            |       |  4.60

Nlocal:        120.000 ave         123 max         118 min
Histogram: 4 0 3 0 3 0 2 0 3 1
Nghost:        4329.00 ave        4355 max        4285 min
Histogram: 1 0 1 0 4 1 0 2 6 1
Neighs:        43865.4 ave       44950 max       42879 min
Histogram: 4 0 1 2 1 2 2 1 1 2

Total # of neighbors = 701847
Ave neighs/atom = 365.54531
Ave special neighs/atom = 2.0000000
Neighbor list builds = 250
Dangerous builds = 0

unfix		3
unfix		2
unfix		1

write_data	data.final.${pid}
write_data	data.final.0
System init for write_data ...
PPPM initialization ...
  extracting TIP4P info from pair style
  using 12-bit tables for long-range coulomb (../kspace.cpp:340)
  G vector (1/distance) = 0.3753178
  grid = 30 30 30
  stencil order = 5
  estimated absolute RMS force accuracy = 0.0031684838
  estimated relative force accuracy = 9.5417949e-06
  using double precision FFTW3
  3d grid and FFT values/proc = 7920 1800
Last active /omp style is kspace_style pppm/tip4p/omp
WARNING: Not all mixed pair coeffs generated from mixing. Use write_data with 'pair ij' option to store all pair coeffs. (../write_data.cpp:312)

write_restart   restart.lmp.${pid}
write_restart   restart.lmp.0
System init for write_restart ...
PPPM initialization ...
  extracting TIP4P info from pair style
  using 12-bit tables for long-range coulomb (../kspace.cpp:340)
  G vector (1/distance) = 0.3753178
  grid = 30 30 30
  stencil order = 5
  estimated absolute RMS force accuracy = 0.0031684838
  estimated relative force accuracy = 9.5417949e-06
  using double precision FFTW3
  3d grid and FFT values/proc = 7920 1800
Last active /omp style is kspace_style pppm/tip4p/omp
Total wall time: 0:08:28
