LAMMPS (30 Jul 2021)
Processor partition = 0
  using 2 OpenMP thread(s) per MPI task
using multi-threaded neighbor list subroutines
variable        pid world 0 1
variable        phase world IceV IceIII

shell cd ${phase}
shell cd IceV
include Restart.lmp
echo both
log log.lammps
#include		in.partitions
include		in.temp
variable        temperature equal 116.47
variable	tempDamp equal 100.0
include		in.pressure
variable        pressure equal 7005.6
variable        pressureDamp equal 1000.0 # This is 1 ps
include		in.seed
variable        seed equal 745823

units		real
atom_style	full
read_restart    restart.lmp.${pid}
read_restart    restart.lmp.0
Reading restart file ...
  restart file = 30 Jul 2021, LAMMPS = 30 Jul 2021
  restoring atom style full from restart
  triclinic box = (-3.1614394 0.041126104 -0.037558668) to (14.771438 22.538873 19.267557) with tilt (-0.019554481 -6.7521908 -0.027024129)
  2 by 4 by 4 MPI processor grid
  restoring pair style lj/cut/tip4p/long/omp from restart
  restoring bond style harmonic/omp from restart
  restoring angle style harmonic/omp from restart
  1008 atoms
  672 bonds
  336 angles
Finding 1-2 1-3 1-4 neighbors ...
  special bond factors lj:    0        0        0       
  special bond factors coul:  0        0        0       
     2 = max # of 1-2 neighbors
     1 = max # of 1-3 neighbors
     1 = max # of 1-4 neighbors
     2 = max # of special neighbors
  special bonds CPU = 0.002 seconds
  read_restart CPU = 0.007 seconds

include 	in.setup
variable	out_freq equal 1000
variable	out_freq2 equal 10000
variable	out_freq3 equal 1000

timestep	2.0

neigh_modify    delay 7 every 1

include		in.tip4p
# This is TIP4P/Ice

# create groups ###
group ox type 2
336 atoms in group ox
group hy type 1
672 atoms in group hy

# set charges - beside manually ###
set group ox charge -1.1794
Setting atom values ...
  336 settings made for charge
set group hy charge 0.5897
Setting atom values ...
  672 settings made for charge

# ### TIP3P Potential Parameters ###
pair_style lj/cut/tip4p/long/omp 2 1 1 1 0.1577 8.5
pair_coeff 1 1*2 0.000 0.000
pair_coeff 2 2 0.21084 3.1668
bond_style  harmonic
bond_coeff  1 450 0.9572
angle_style harmonic
angle_coeff 1 55 104.52
kspace_style pppm/tip4p/omp 1.0e-5
pair_modify tail yes

thermo          ${out_freq}
thermo          1000
thermo_style    custom step temp pe etotal epair emol press lx ly lz vol pxx pyy pzz pxy pxz pyz enthalpy

restart 	${out_freq3} restart.lmp.${pid} restart2.lmp.${pid}
restart 	1000 restart.lmp.${pid} restart2.lmp.${pid}
restart 	1000 restart.lmp.0 restart2.lmp.${pid}
restart 	1000 restart.lmp.0 restart2.lmp.0


include         in.dump
dump            myDump all atom ${out_freq2} dump.water.${pid}
dump            myDump all atom 10000 dump.water.${pid}
dump            myDump all atom 10000 dump.water.0
dump            myDump2 all dcd ${out_freq2} dump.dcd
dump            myDump2 all dcd 10000 dump.dcd
dump_modify     myDump append yes
dump_modify     myDump2 append yes


variable natoms 	equal  "count(all)"                        # NUMBER ATOMS
variable H      	equal  "enthalpy/v_natoms"                 # ENTHALPY-per-atom
variable Vol      	equal  "vol/v_natoms"                 # volume-per-atom
fix AVG all 		ave/time ${out_freq} 1 ${out_freq} v_Vol v_H file vol_enthalpy.dat
fix AVG all 		ave/time 1000 1 ${out_freq} v_Vol v_H file vol_enthalpy.dat
fix AVG all 		ave/time 1000 1 1000 v_Vol v_H file vol_enthalpy.dat



fix 		1 all shake 1e-6 200 0 b 1 a 1
Finding SHAKE clusters ...
       0 = # of size 2 clusters
       0 = # of size 3 clusters
       0 = # of size 4 clusters
     336 = # of frozen angles
  find clusters CPU = 0.000 seconds
fix             2 all nph tri ${pressure} ${pressure} ${pressureDamp}
fix             2 all nph tri 7005.6 ${pressure} ${pressureDamp}
fix             2 all nph tri 7005.6 7005.6 ${pressureDamp}
fix             2 all nph tri 7005.6 7005.6 1000
fix             3 all temp/csvr ${temperature} ${temperature} ${tempDamp} ${seed}
fix             3 all temp/csvr 116.47 ${temperature} ${tempDamp} ${seed}
fix             3 all temp/csvr 116.47 116.47 ${tempDamp} ${seed}
fix             3 all temp/csvr 116.47 116.47 100 ${seed}
fix             3 all temp/csvr 116.47 116.47 100 745823


run             250000
PPPM initialization ...
  extracting TIP4P info from pair style
  using 12-bit tables for long-range coulomb (../kspace.cpp:340)
  G vector (1/distance) = 0.37969579
  grid = 24 27 32
  stencil order = 5
  estimated absolute RMS force accuracy = 0.0024140078
  estimated relative force accuracy = 7.2697127e-06
  using double precision FFTW3
  3d grid and FFT values/proc = 5355 672
Last active /omp style is kspace_style pppm/tip4p/omp
Neighbor list info ...
  update every 1 steps, delay 7 steps, check yes
  max neighbors/atom: 2000, page size: 100000
  master list distance cutoff = 10.8154
  ghost atom cutoff = 10.8154
  binsize = 5.4077, bins = 5 5 4
  1 neighbor lists, perpetual/occasional/extra = 1 0 0
  (1) pair lj/cut/tip4p/long/omp, perpetual
      attributes: half, newton on, omp
      pair build: half/bin/newton/tri/omp
      stencil: half/bin/3d/tri
      bin: standard
Setting up Verlet run ...
  Unit style    : real
  Current step  : 29250000
  Time step     : 2
Per MPI rank memory allocation (min/avg/max) = 10.31 | 10.32 | 10.34 Mbytes
Step Temp PotEng TotEng E_pair E_mol Press Lx Ly Lz Volume Pxx Pyy Pzz Pxy Pxz Pyz Enthalpy 
29250000     119.9721   -5139.4324   -4899.4734   -5139.4324            0    6549.0335    17.932878    22.497747    19.305115    7788.6361    6476.4767    7407.4735    5763.1502    268.25383    397.02164    2110.7256   -4155.5734 
29251000    116.79596   -5152.7691   -4919.1627   -5152.7691            0    7526.6235    17.749601    22.958076    19.072732    7772.0753    7107.5405    7070.2475    8402.0825   -127.52651     728.4201   -245.92765   -4066.0369 
29252000    114.84636   -5147.8686   -4918.1617   -5147.8686            0    6430.6869    17.866405    22.649769     19.26845    7797.3626    7122.4332    7054.9083    5114.7192    505.53087   -398.01251   -232.65169   -4186.8863 
29253000     116.7147   -5150.4542   -4917.0104   -5150.4542            0    6897.6156    17.778879    22.731127    19.227099    7770.3236    7302.5922    6970.0732    6420.1814   -381.33896   -130.89103   -189.44692   -4135.3574 
29254000    113.31902   -5163.5924   -4936.9404   -5163.5924            0    5578.2911    17.982474     22.58122    19.266768    7823.5832    5082.4319    5822.0262    5830.4151     -784.289   -103.05944   -110.78733   -4300.4633 
29255000    116.40757   -5149.3038   -4916.4743   -5149.3038            0    6333.4311    17.757622    22.830058    19.188451    7779.1425    7578.5178    6069.9938    5351.7818    402.36898    526.74728   -528.34909   -4197.9414 
29256000    121.27857   -5153.4106   -4910.8385   -5153.4106            0    6396.9224    18.010536    22.509161    19.233778    7797.4131    6310.5616    6903.8448    5976.3607   -299.73937   -297.31001   -323.58983    -4183.398 
29257000    109.47298   -5135.6083   -4916.6488   -5135.6083            0    8042.2402    17.816154    22.904786    19.009569    7757.3336    7709.7697     7957.667    8459.2839      921.464   -10.843326    1097.4682    -4006.808 
29258000    116.51849   -5151.3128   -4918.2614   -5151.3128            0    5310.6974    17.971029    22.627615    19.252515    7828.8721     6186.379      4805.64    4940.0731   -656.46109   -1081.4818   -664.45907   -4311.9068 
29259000    118.13706   -5139.0388     -4902.75   -5139.0388            0     8020.432    17.860543    22.832452    19.031689    7761.1228    8357.8929     7083.997    8619.4061   -560.64281   -690.53267    -492.7176   -3994.9333 
29260000    117.07701   -5139.9655    -4905.797   -5139.9655            0    7646.2876    17.909788     22.61414    19.173714    7765.6312    8090.8103    8213.3734    6634.6793    1014.2478    575.16992   -641.68699   -4039.8261 
29261000    115.47498   -5146.5593   -4915.5951   -5146.5593            0    8211.1841    17.801119    22.737004    19.147212    7749.7211    8590.1975     7225.614    8817.7409   -160.78751    -142.6125    611.98166   -3987.5528 
29262000     124.9356   -5146.4509   -4896.5643   -5146.4509            0      7284.36    17.878584     22.82875    19.093451    7792.9105    7864.4965    6535.4074     7453.176     139.6352   -357.99828   -604.48428   -4068.6851 
29263000    120.19136   -5142.4598   -4902.0622   -5142.4598            0    6322.7199    17.920748    22.665262    19.244502    7816.7021     7670.559    5927.1498    5370.4508   -96.166554   -388.33904    769.49751   -4181.2811 
29264000    117.26737   -5150.4124   -4915.8631   -5150.4124            0    8200.9897    17.771952    22.826319    19.123842    7757.9355    10583.419    7284.0199    6735.5303   -526.28464    483.43461    403.07958   -3987.9906 
29265000    114.95012   -5144.0376   -4914.1232   -5144.0376            0    7756.1726     17.91754    22.595106    19.206369    7775.6741    7639.6408     8307.598     7321.279    -92.39217   -91.865946    -24.12996   -4034.5714 
29266000    119.46049   -5149.0662   -4910.1304   -5149.0662            0    7442.9197    17.823233    22.752817    19.146956    7764.6416    7204.6147    8027.1761    7096.9684   -508.62428    446.52296    772.74308   -4067.2992 
29267000    119.51815   -5157.1771    -4918.126   -5157.1771            0    6571.3258     17.91319    22.730644    19.142719    7794.5008    6875.5993    6397.9982    6440.3798    203.63246   -433.67645    1476.9006   -4171.1319 
29268000     116.0036   -5158.4549   -4926.4333   -5158.4549            0    6737.1171    17.898353    22.657542    19.214964    7792.2959    5602.8371     7535.547    7072.9671    -378.7495     224.5587    413.28217   -4160.8095 
29269000     115.7379   -5143.3568   -4911.8667   -5143.3568            0    8377.6587    17.901349    22.641003    19.074458    7730.9634    7850.5971    8313.9629     8968.416   -182.80609   -355.08633   -681.75719   -3967.3011 
29270000    117.81942   -5149.1456   -4913.4923   -5149.1456            0    7872.9515    17.764061     22.70711    19.226066    7755.2275    8277.0566    7884.7864    7457.0114    1222.3681   -516.80606   -414.17096   -4023.0454 
29271000    111.14377   -5146.9065   -4924.6052   -5146.9065            0    6349.8144    17.940306     22.68534     19.12875    7785.0559    4924.3406    5923.7844    8201.3182    -23.29939   -1020.7506   -578.78888    -4203.666 
29272000    119.04513   -5149.6023   -4911.4974   -5149.6023            0     7642.492    17.908417    22.680027    19.127257    7768.7915    7012.1115    7509.1517    8406.2129   -116.23609    248.54769    -346.8716   -4045.6041 
29273000    114.88929   -5156.9093   -4927.1165   -5156.9093            0    7101.2227    17.813376    22.773003    19.131878    7761.1155    6718.9669    7362.6368    7222.0643    216.39311    942.97061   -874.42373    -4123.344 
29274000    121.32794   -5137.4274   -4894.7566   -5137.4274            0    6785.8043    18.028809    22.540154    19.161486    7786.6939    4931.3607    8103.2807    7322.7713    -982.4226    90.759649   -1279.6835   -4124.1542 
29275000    118.00269   -5138.7669    -4902.747   -5138.7669            0    6759.0792    17.840897    22.912615    19.031766     7779.836    6956.2252    6964.3874    6356.6249   -981.84903    292.62015    77.182785   -4135.8556 
29276000    120.32026   -5145.1055   -4904.4501   -5145.1055            0    7601.9639    17.945966    22.591168    19.173739    7773.4236    7236.0665    7335.0937    8234.7314     3.733549   -328.28301   -194.58016   -4042.6352 
29277000    119.59547   -5142.4285   -4903.2228   -5142.4285            0    7103.2733    17.808367    22.948807    19.055676    7787.6883    6512.4388    7118.6698    7678.7112   -427.76533    1189.2185     140.9697   -4096.4654 
29278000    115.07687   -5150.2471   -4920.0792   -5150.2471            0    7015.5774    17.986489    22.668942     19.09551     7785.902    6587.5158    7131.6663    7327.5499    -14.06538   -1051.1003   -725.85887   -4123.4646 
29279000    120.89902   -5154.1883   -4912.3754   -5154.1883            0    7653.7679     17.78426    22.745824    19.180621    7758.8996     7121.823    8011.8037    7827.6769   -39.029025    783.28359    -633.3838   -4046.3087 
29280000    120.77755   -5146.8609   -4905.2909   -5146.8609            0    7194.8615    17.945331    22.654488     19.13226    7778.0729    6776.7618    7393.0502    7414.7724    268.31189   -334.68284   -2334.4121   -4089.1402 
29281000    122.64504   -5146.7212    -4901.416   -5146.7212            0    6509.4858    17.907013    22.694819    19.203376    7804.1833    5928.9094    7187.7847    6411.7632    498.88478    442.87619   -171.87884   -4160.5323 
29282000    114.97044   -5136.1165   -4906.1615   -5136.1165            0    7524.0625    17.864902    22.687116    19.165991    7768.0358    7802.3166    7777.4713    6992.3997     283.2699   -945.21883    44.474789   -4053.7692 
29283000    118.95949   -5149.1149   -4911.1812   -5149.1149            0    7611.4993    17.757605    22.737269    19.190608    7748.3891    9603.7944    6930.7649    6299.9386   -1193.0521   -674.85918   -362.36294   -4051.0642 
29284000    113.79944   -5159.0014   -4931.3885   -5159.0014            0    5728.6148    17.982945    22.776999    19.077442    7814.0727    5453.5231    5511.6798    6220.6416    434.12694    466.68866   -881.54623   -4278.5542 
29285000    117.83291     -5168.83   -4933.1497     -5168.83            0    6081.1194    17.920682    22.762775    19.139352    7807.4096    5378.6401    6477.6531    6387.0649   -882.28774    607.10684    520.60071   -4240.7348 
29286000    114.39072   -5155.9754   -4927.1799   -5155.9754            0    6375.0693    17.938938    22.657992    19.187472    7798.9458    6894.9052    6538.3143    5691.9883    312.56657   -349.19388   -142.56827   -4202.0819 
29287000    116.96522   -5148.7135   -4914.7686   -5148.7135            0    7219.2132    17.798273    22.819102    19.198781    7797.4044    8176.6292    6674.6541    6806.3565    1585.3811   -618.67794    1192.2092   -4093.8203 
29288000    116.96048   -5154.4323   -4920.4969   -5154.4323            0    6360.8735    17.827086    22.760963    19.228019    7801.9927    7147.7976    6618.3975    5316.4254   -868.08296    384.78943   -1070.0655   -4196.7309 
29289000    117.43957   -5152.5408   -4917.6471   -5152.5408            0    7562.6581    17.901754    22.633402    19.236225    7794.0875    7858.0428    7580.6166     7249.315   -385.03621    741.05517   -250.74046    -4058.009 
29290000    112.92571    -5141.285   -4915.4196    -5141.285            0    5970.2936    17.871995    22.782478    19.227466    7828.8152    6530.0094    5980.7535     5400.118    217.96875    1033.4445    1205.3364   -4233.7599 
29291000    116.01106   -5143.0606   -4911.0241   -5143.0606            0    7215.8692    17.767553    22.685827    19.262611     7764.212    7861.9558      6889.95    6895.7019   -360.34884   -479.08313    169.74705   -4093.9491 
29292000    113.42198     -5136.93    -4910.072     -5136.93            0    7469.1612    17.883699    22.727525     19.07485    7753.0148    6539.6332    7372.6346    8495.2159   -312.76701   -172.31325   -477.09577   -4065.5356 
29293000    118.08198    -5142.537   -4906.3584    -5142.537            0    7658.4914    17.816695    22.753801    19.169038    7771.0807    7941.7556    7179.5769    7854.1416   -258.18484    44.164049   -51.413251   -4038.3968 
29294000    112.63119    -5149.922   -4924.6457    -5149.922            0    8803.2777    17.869445    22.639036    19.130677    7739.2582     8655.247    8338.2339    9416.3522   -967.40856   -196.05324    101.39257   -3931.0273 
29295000    109.87107   -5143.9592   -4924.2034   -5143.9592            0    7595.1478    17.686155    22.753209    19.244578    7744.3411    6876.8296     8057.955    7850.6589    -975.8834   -564.06238    529.48327   -4066.3826 
29296000     113.6143   -5150.9262   -4923.6836   -5150.9262            0    6054.3863    17.904599    22.651779    19.217289    7793.9757      5746.27    6875.7685    5541.1205   -93.900521    747.35712     50.87328   -4235.4988 
29297000    118.65979   -5156.7033   -4919.3691   -5156.7033            0    6722.5948    17.780936    22.789923    19.235291    7794.6432    9075.0701    5475.0576    5617.6568   -313.33783   -276.00856    1025.0161   -4155.1655 
29298000    119.36233   -5165.0375   -4926.2981   -5165.0375            0    7110.0794    17.897373    22.639379    19.209514     7783.415    6924.2132    6878.0261     7527.999    631.55662   -351.67834    684.24416   -4119.2107 
29299000    115.45117   -5136.6063   -4905.6896   -5136.6063            0    7845.9086    17.813725    22.797862    19.132659    7770.0569    8232.5251    7626.7764    7678.4244   -32.257912    70.812633   -877.50934   -4016.6045 
29300000    117.46829   -5163.9356   -4928.9845   -5163.9356            0    6089.2355    18.003577    22.649083    19.146759    7807.3686    5745.8542    6492.2979    6029.5544   -9.5479186   -346.48083   -1097.2336   -4235.6491 
29301000     125.5769   -5141.3683    -4890.199   -5141.3683            0     6565.398    17.793658    22.844624    19.180141    7796.5249    6021.6454    6141.0624    7533.4863    734.75055    301.22889    1219.7504   -4143.6849 
29302000    114.86664   -5150.5148   -4920.7673   -5150.5148            0    7192.3951    17.872311    22.679716    19.162957    7767.4924    6939.1063    7293.5505    7344.5285    45.537193   -940.34588   -55.271018   -4106.0063 
29303000     114.7694   -5161.0942   -4931.5413   -5161.0942            0    7799.7825    17.775721     22.77879      19.1564    7756.6067      8090.51    7795.4015    7513.4359    347.22618    50.499068    876.08422   -4049.2131 
29304000    118.69431   -5139.1886   -4901.7854   -5139.1886            0    6938.1681    17.864464    22.698998    19.263627    7811.5054    7428.6221    7105.7682    6280.1142   -73.241083    120.38256   -89.750165   -4111.3699 
29305000    120.94602   -5148.6833   -4906.7763   -5148.6833            0    7326.2062    17.987094    22.728833    19.035356    7782.1417    6713.3406    7099.1164    8166.1614   -488.73883    1200.0036    1189.4437   -4075.2918 
29306000    125.29554   -5143.6493   -4893.0428   -5143.6493            0    8296.3093    17.828458    22.768594     19.09405    7750.8273    7914.2115    8561.6928    8413.0237   -401.49674    487.13374   -358.72102   -3955.2457 
29307000    111.63963   -5152.2879   -4928.9948   -5152.2879            0    8196.5022    17.775344    22.688008    19.234388    7756.9817      9333.75    8083.7699    7171.9866    472.85105   -658.90938    460.80356    -4001.744 
29308000    117.18404   -5151.5644   -4917.1819   -5151.5644            0    5403.7365    17.981818    22.772823    19.082471    7814.2102    5041.9753    5163.0836    6006.1505     582.4645   -253.31145   -235.35683   -4301.3599 
29309000    117.57539   -5153.2986   -4918.1333   -5153.2986            0    6551.0348    17.880486    22.604586    19.302829    7801.8364    7161.8734    6731.4238    5759.8071   -1975.7068    721.10021    -494.7134   -4172.7449 
29310000    117.93067   -5149.1219    -4913.246   -5149.1219            0    7354.9396    17.780451    22.649302    19.287444    7767.3391    8158.4799    6955.9856    6950.3534    266.89326   -670.74255    901.40846   -4080.0882 
29311000    125.19845    -5154.625   -4904.2127    -5154.625            0    7161.7958    17.823125     22.78129     19.15616    7778.0485    6669.2614    7487.2848    7328.8411    776.49134   -300.77135    172.91527   -4091.8154 
29312000    120.91996   -5139.5585   -4897.7036   -5139.5585            0    5744.8619    17.989304    22.665834    19.171308    7816.9587    5074.7072    6096.8575    6063.0209   -243.84077   -212.49861   -968.47372    -4242.776 
29313000    124.11209   -5147.6261   -4899.3866   -5147.6261            0    7473.6651    17.867402    22.830606    19.081365    7783.7392    7719.0474    7731.2913    6970.6567   -937.32312    385.01384    419.69526   -4050.9922 
29314000    115.89523   -5148.9219   -4917.1171   -5148.9219            0    7337.1568    17.917068    22.600891    19.199811    7774.8045    7186.2081    7763.6464    7061.6158    809.56584   -49.979931    938.54355   -4085.1748 
29315000    113.50546   -5152.7381   -4925.7132   -5152.7381            0    6272.2324    17.797277    22.851746    19.180441    7800.6633    6526.5728    5694.2388    6595.8855   -725.48076   -781.00211    109.00932   -4212.1547 
29316000    118.26906   -5138.4323   -4901.8795   -5138.4323            0    7000.9989    17.976258    22.626063    19.180408    7801.2847    7772.5033    6670.3056    6560.1878   -111.85206    136.94854   -130.13492   -4105.3497 
29317000    114.19785   -5155.6736   -4927.2638   -5155.6736            0    5787.5954    17.889055    22.799828    19.185605    7825.1827    5492.2899    5995.4781    5875.0182    1241.3029    925.25278    396.03941   -4266.7703 
29318000    118.80537   -5148.3188   -4910.6934   -5148.3188            0    7089.7102    17.802272    22.659688     19.26805    7772.6148    7439.4751    7345.0478    6484.6078    491.78561   -385.52425   -645.00959   -4107.0349 
29319000    113.80853   -5154.2029   -4926.5718   -5154.2029            0    7390.5931    17.899771    22.719964     19.09786    7766.7588    6723.3699    7236.0572    8212.3522   -1187.2137   -1151.9604    1061.3245   -4089.4378 
29320000    115.39561   -5148.4628   -4917.6573   -5148.4628            0    6375.7777      17.9068    22.741059    19.245156    7837.0046    6831.9067    6246.8289    6048.5976    761.75519    1116.9405   -278.56647   -4188.9399 
29321000    118.96717   -5150.2586   -4912.3096   -5150.2586            0      7852.68    17.855225    22.833396    19.073117    7776.0227     6869.953    8458.4753    8229.6117    -119.5714    899.68735    354.60826   -4021.7739 
29322000    124.35959   -5141.3806   -4892.6461   -5141.3806            0    6713.2886    17.966343    22.670164    19.139354     7795.458    5717.3258    6980.2898    7442.2501    928.10527   -624.73912   -321.21971   -4129.4206 
29323000    114.75166   -5166.0874   -4936.5699   -5166.0874            0    6777.9057    17.837436    22.736131     19.19479    7784.5293     6043.226    7173.9764    7116.5146    971.43836    614.40598    539.33102   -4167.0785 
29324000    111.48206   -5153.1205   -4930.1426   -5153.1205            0    8395.2753     17.87643    22.691427    19.122722    7756.9735    7908.1877    8783.4641     8494.174    389.60805    303.03849   -217.80466    -3980.406 
29325000    116.12397   -5146.7498   -4914.4875   -5146.7498            0    7582.1688    17.976176    22.691437    19.000588    7750.4399    6902.3347    6866.8197     8977.352    384.69011   -1109.7428    108.73084   -4057.4582 
29326000    116.86205   -5142.1955    -4908.457   -5142.1955            0    7995.4271    17.776799    22.752406    19.142195    7742.3464     8136.775    7701.0807    8148.4257    768.35808   -911.09191    768.38209   -4005.6599 
29327000     112.7776   -5157.4388   -4931.8696   -5157.4388            0    7437.1518    18.016246    22.495403     19.16344     7766.611    6838.1011    8313.0238    7160.3305   -242.44958    331.07093   -1832.5671   -4089.4779 
29328000    122.65581   -5139.4522   -4894.1255   -5139.4522            0    7341.3394    17.858307    22.783477    19.119976    7779.4273    8410.2965    7181.8002    6431.9214     172.5272      183.608   -102.62932    -4061.214 
29329000    117.96088   -5160.5554   -4924.6191   -5160.5554            0    7974.2249    17.926366    22.540345    19.217093    7764.9832    8473.1259    7058.6977     8390.851    975.29656   -350.88542    646.66635   -4021.5834 
29330000    118.48318    -5140.058    -4903.077    -5140.058            0    6628.0191    17.810407    22.955884    19.084752    7802.8703    7033.3042    5997.0946    6853.6586   -811.88687    -106.7226    95.004139   -4148.8293 
29331000    115.27308   -5144.7036   -4914.1432   -5144.7036            0    7093.1603    17.945614    22.536259    19.260148    7789.3239    6346.0156    7815.5367    7117.9284    159.44091    192.11916    1466.9892   -4108.3651 
29332000    115.34208    -5156.804   -4926.1056    -5156.804            0    6955.8542    17.883382    22.851348    19.032458    7777.7926    6880.1203    6244.5645    7742.8778    489.78436   -418.77871    978.87852   -4137.0952 
29333000    117.36149   -5143.7425    -4909.005   -5143.7425            0    6836.4457     17.85342    22.723907    19.206808    7792.1914    7146.3907    5899.4324    7463.5139    533.73464   -795.85199   -154.82339   -4132.1037 
29334000    122.42487    -5143.842   -4898.9771    -5143.842            0    6404.0506    17.869633    22.715716    19.227833     7804.991    6970.0686    6730.4838    5511.5993   -269.57153     76.95012    268.47981   -4170.0182 
29335000    114.87549   -5155.0096   -4925.2445   -5155.0096            0    6343.4918    17.840532    22.765596    19.179887    7789.9176    5576.9581    6702.7907    6750.7267   -47.695492   -598.38589    559.01621   -4204.5733 
29336000    116.11924   -5152.6117   -4920.3588   -5152.6117            0    7549.5008    17.920339    22.727939    19.052202    7759.8164    6477.8462    7502.9096    8667.7467   -375.41218    941.10169    97.000313   -4065.9897 
29337000    111.23163   -5146.9229   -4924.4459   -5146.9229            0    5870.4363     17.89088    22.691144    19.264459     7820.687    6134.8738    5504.9382     5971.497    103.40749    349.46215   -1151.4312   -4254.8833 
29338000    117.95707   -5152.2628   -4916.3341   -5152.2628            0    6108.8352    17.810341    22.846294    19.155464    7794.3639    6158.6967     5372.055    6795.7538    364.32863   -296.94022    1137.2594   -4221.9257 
29339000    115.12593   -5167.2777   -4937.0116   -5167.2777            0    6572.6122    17.822449    22.654047    19.248319    7771.5202    7887.6063    6346.3091     5483.921    272.52304   -355.61318   -1290.9983   -4192.0741 
29340000    111.94336   -5147.1281   -4923.2275   -5147.1281            0    6888.8975     17.84218     22.78576    19.162439     7790.444    8875.4815    5700.6305    6090.5804   0.87804172   -32.336342    1580.1148   -4140.5411 
29341000    113.51528   -5148.7552   -4921.7106   -5148.7552            0    7153.4342    17.849917    22.610305    19.219843    7756.9762    7136.7655    7344.9239    6978.6131   -718.76876    60.105135    -1348.766   -4112.4602 
29342000    116.28708   -5153.6283   -4921.0398   -5153.6283            0    6256.7843    17.841463    22.799667    19.141237    7786.2612    6431.7402    6413.0559    5925.5569   -1380.4205   -980.39113   -716.77694   -4210.5529 
29343000    126.40551   -5159.9228   -4907.0961   -5159.9228            0    5376.7268    17.903829    22.892586    19.071852    7816.8837    5269.4505    4822.6386    6038.0913    290.54177   -671.95865   -357.51225   -4294.1427 
29344000    113.54303   -5142.7128   -4915.6127   -5142.7128            0    7610.1374    17.901372    22.567473    19.257387    7779.7675    7241.3821    7744.0265    7845.0037   -1303.2822    838.98823     -1349.54   -4052.1671 
29345000    112.96323   -5163.2532   -4937.3128   -5163.2532            0    6314.9251     17.84539    22.822976    19.140774    7795.7486     6151.991      6086.21    6706.5743    68.263014    57.011155    -791.4109     -4219.35 
29346000      114.823   -5141.2011   -4911.5409   -5141.2011            0    6948.4526    17.910042    22.662114     19.20734     7795.864    6410.8146    7062.3644    7372.1789   -261.77616   -73.273271    361.84116   -4121.5388 
29347000    120.20877    -5156.751   -4916.3186    -5156.751            0    7386.7327    17.853123    22.887843     19.01174     7768.567    7453.6853    6541.1142    8165.3986   -210.93489   -322.27239   -502.70411   -4079.4271 
29348000    119.39469   -5151.6729   -4912.8688   -5151.6729            0    8389.8311    17.930759    22.539534    19.181078    7752.0512    8780.3837    8359.6082    8029.5014   -146.15542   -230.46133   -790.63679   -3964.3504 
29349000    118.88602   -5160.6164   -4922.8297   -5160.6164            0     5620.779    17.869295    22.939814    19.083259    7822.5776     5785.582    4901.4318    6175.3231    1353.7918    -813.5425    51.297616   -4281.5872 
29350000    112.86729   -5142.0769   -4916.3284   -5142.0769            0     8304.771    17.910918    22.616947    19.151451    7758.0667    7327.3102    8172.5412    9414.4614   -493.64956   -91.732396   -1525.3313    -3976.698 
29351000    108.31553   -5149.9119   -4933.2674   -5149.9119            0    7043.1829    17.680764    22.918026    19.151721    7760.4347    7284.9608    7815.0656    6029.5224    660.67039    185.38713     444.8546   -4136.1342 
29352000    118.48438   -5150.1732   -4913.1898   -5150.1732            0    8282.6707     17.99281    22.504964    19.165699    7760.7197    6586.4082       9539.2    8722.4038    270.55592    525.26684    663.18265   -3975.7395 
29353000    116.50489   -5141.8041   -4908.7799   -5141.8041            0    6599.8356    17.787968    22.808552    19.193773    7787.2552    7544.7098     6377.295    5877.5018    107.83715    942.64989   -823.47756   -4159.2423 
29354000    112.88024   -5130.6396   -4904.8652   -5130.6396            0    7448.0404    17.827242    22.623099    19.248215    7762.9488    7250.9692    8402.8899     6690.262   -403.78235    56.228017     263.9748   -4061.6379 
29355000    124.71118    -5143.771   -4894.3333    -5143.771            0    7234.2086    17.762583    22.775334    19.229399    7779.2296    8007.3703    6110.9486    7584.3068   -384.09292   -806.46691     556.6188   -4073.5972 
29356000    111.22098   -5149.6137    -4927.158   -5149.6137            0    7439.1049    17.894964    22.635691    19.198305    7776.5594    7733.6053    7384.4767    7199.2328   -249.90159    450.76367   -714.79867   -4083.4657 
29357000    122.38177   -5155.7677    -4910.989   -5155.7677            0    6574.7426    17.904237    22.710505    19.129332     7778.259    5545.9493    6942.8359    7235.4426   -1186.0706     613.1444   -497.79353   -4165.1639 
29358000    111.44753   -5133.8468    -4910.938   -5133.8468            0    6257.4169     17.78538    22.768699    19.265065    7801.3876    6326.3168    6434.4966    6011.4373    531.69497   -56.321073    1232.9432   -4198.9989 
29359000    114.90884   -5153.0622   -4923.2303   -5153.0622            0    5919.9012     18.00384    22.664758    19.151567    7814.8483    5871.4672    6073.1301    5815.1063   -26.872884   -285.96016   -516.61945     -4248.53 
29360000    118.95329    -5148.331   -4910.4097    -5148.331            0      6350.73    17.919327    22.757987     19.14554    7807.7009    5729.3683    6496.4652    6826.3567    235.50826   -101.96037    77.457154   -4187.2692 
29361000    123.48588   -5141.5384   -4894.5514   -5141.5384            0    8282.2389    17.763147     22.80951    19.127003    7749.6625    8769.2446    7699.6628    8377.8093    1656.7259    111.77453   -578.37128   -3958.4855 
29362000    114.14016   -5139.7034    -4911.409   -5139.7034            0    7408.3439    17.980026    22.614174     19.13442    7780.1209    6469.1985    7544.7392    8211.0939    568.77953    462.32614    1577.1896   -4070.8207 
29363000    118.85659   -5158.4335   -4920.7056   -5158.4335            0    7908.9045    17.779834    22.723184     19.19051    7753.2429    7368.1617    8218.1427    8140.4091    1120.3164      210.548   -6.6988283   -4026.4213 
29364000    119.20379   -5147.0138   -4908.5915   -5147.0138            0    6874.4504    17.875896     22.68317    19.186431    7779.7521    6895.4269    7527.5856    6200.3386    -821.5076    328.70102   -936.83451   -4128.6184 
29365000     116.0117   -5144.4674   -4912.4297   -5144.4674            0    7654.4837    17.870288    22.649837    19.170708    7759.5189     6069.349    8300.1246    8593.9774    57.662746    167.70558   -246.55929   -4046.2129 
29366000    114.33328   -5159.4856   -4930.8049   -5159.4856            0    5993.1876    17.732528    22.803951    19.316059    7810.8677    7318.4275     5864.637    4796.4982    60.484545   -184.84084    791.71039      -4248.1 
29367000     115.5007   -5163.1168   -4932.1011   -5163.1168            0    7181.3343    17.994725    22.640072    19.083726    7774.7456    6308.6256    7874.1195    7361.2579    850.63766     848.3914    961.20296   -4117.8334 
29368000    112.78648   -5149.2713   -4923.6844   -5149.2713            0    7043.2632    17.847676    22.742498    19.123523    7762.2521    6606.4989    7443.8582    7079.4326   -864.96561    52.518193   -682.91167   -4126.3554 
29369000    115.23546   -5155.0736   -4924.5885   -5155.0736            0    7748.4252    17.888797    22.590976    19.193308    7756.5032    8579.8359    7568.7204    7096.7195    571.70206   -389.38356    470.65645   -4048.0816 
29370000     115.7263   -5153.8149    -4922.348   -5153.8149            0    5850.8234    17.745624    22.998438    19.130702    7807.6534    6771.4852    5089.0163    5691.9686    470.04994    306.95686    793.78205   -4256.1346 
29371000    115.42785    -5160.591    -4929.721    -5160.591            0    6861.7144    17.932002    22.510681    19.283069     7783.834    6677.6116    7692.4279    6215.1037    1113.7108    205.39887     212.9427   -4150.7845 
29372000    113.69435   -5132.6752   -4905.2725   -5132.6752            0    6836.8758    17.789023    22.824543    19.188436    7791.0104    8035.0908    6619.9827    5855.5537   -932.74924    182.53021   -1181.3091     -4128.44 
29373000    116.33047   -5150.3137   -4917.6384   -5150.3137            0    7236.8061    17.933189    22.637401    19.166914    7781.0157    6579.9628    7166.4047    7964.0507   -352.24194   -821.21046    613.10703   -4096.4191 
29374000    121.47773   -5150.2375   -4907.2671   -5150.2375            0    7337.0783     17.78243    22.735158    19.215386    7768.5185    7358.6533    7765.3825    6887.1991   -417.59566    1212.0543   -325.13844   -4076.0064 
29375000    117.98493   -5145.0011   -4909.0167   -5145.0011            0    5735.6392    17.899855     22.77539    19.164457    7812.8928    6982.5258     4598.547    5625.8448   -461.86933   -234.16516    349.63075   -4255.4806 
29376000     114.5889   -5151.0418   -4921.8499   -5151.0418            0    7748.1576     17.89891    22.573032    19.210854    7761.8124    7329.3911    8434.9461    7480.1356   -939.97449   -145.79839   -1116.5079   -4044.7734 
29377000     114.0839   -5151.6628   -4923.4809   -5151.6628            0    6775.6321    17.858509    22.708357    19.196794    7785.0178    7348.2243    6787.7209     6190.951    258.96204    419.65741   -113.79628   -4154.1993 
29378000    113.57886   -5155.6493   -4928.4775   -5155.6493            0    6273.0627    17.941239    22.704275     19.16872    7808.2408    6720.1149     5682.677    6416.3964   -826.57328   -978.14704   -956.58726   -4214.1314 
29379000    121.78509     -5141.54   -4897.9548     -5141.54            0    7179.4186    17.875314    22.743764    19.166248    7792.0748     7438.555    7260.2945    6839.4064    1128.6482    244.39744    544.85787   -4082.0898 
29380000    111.37046   -5153.0048   -4930.2501   -5153.0048            0    7154.2892    17.863606    22.803964    19.024908    7750.0056      7527.67    6313.4311    7621.7665    52.180934   -967.39791    819.63578   -4121.6303 
29381000    111.42098   -5157.1247    -4934.269   -5157.1247            0    6416.7548    18.001573    22.546335    19.214107    7798.4198    5703.2473    7255.0012    6292.0159    -82.75044    498.82678    67.318167    -4204.479 
29382000    119.68984   -5145.0269   -4905.6324   -5145.0269            0    6504.3734    17.856714    22.805507    19.153289    7799.8212    5900.5095    6395.6271    7216.9838   -144.10015     153.3824   -831.89368   -4165.7444 
29383000    115.40296   -5133.8702   -4903.0501   -5133.8702            0    8740.1766    17.933956    22.436503    19.287406     7760.775    9193.9036    8713.4082    8313.2182    297.18607    644.04805   -279.71375   -3913.8111 
29384000    112.03645   -5153.5435   -4929.4568   -5153.5435            0    5235.0101     17.85924    22.901057    19.102516    7812.8429    5193.1039    4479.4714    6032.4549   -119.44484   -550.63108   -1109.7428   -4332.9677 
29385000    117.69543   -5160.7341   -4925.3287   -5160.7341            0    6645.3157    17.851348    22.723226    19.231741    7801.1679    6036.5344    7083.7742    6815.6385   -1246.7759    135.85772    924.45083   -4169.2776 
29386000    121.40705   -5150.7198   -4907.8907   -5150.7198            0    7609.0881     17.85107    22.765029    19.151215    7782.6732    7648.0772    7644.7457    7534.4414    115.25197    608.77821   -280.91413   -4044.2417 
29387000    114.47024   -5147.6274   -4918.6728   -5147.6274            0    8193.1686    17.937915    22.595323    19.137056    7756.4975    7228.8109    8692.5786    8658.1163   -484.49171    681.45109    546.87199    -3991.857 
29388000    114.61116   -5143.7245   -4914.4881   -5143.7245            0    7853.0403    17.862669    22.784085    19.061748    7757.8373    8059.8361    7862.6149    7636.6701    395.46414   -161.28247   -798.66962   -4025.9943 
29389000    113.49958   -5162.8572    -4935.844   -5162.8572            0    5724.8858    17.838296    22.763082    19.250807    7816.8788    7052.5435    5549.2347    4572.8793   -450.20011   -223.91796   -159.52785   -4283.2004 
29390000    117.09119   -5142.2031   -4908.0063   -5142.2031            0    7574.7079    18.036286    22.626447    19.059166      7777.99    6386.6039    7931.9094    8405.6104    137.57282    259.33439    17.088229   -4048.7768 
29391000    113.60872   -5146.8301   -4919.5987   -5146.8301            0    8492.5235    17.817566    22.767028    19.138117    7763.4348    8611.2999    8107.5493    8758.7215   -834.13262    46.824261   -40.664097   -3958.0604 
29392000    115.19669   -5149.4113   -4919.0037   -5149.4113            0    7032.9286    17.878129    22.677817      19.2373    7799.5121    6769.3221    7638.8254    6690.6382    -429.1251    916.88094   -158.54453    -4119.023 
29393000    111.86378   -5145.6915   -4921.9502   -5145.6915            0    7057.9086    17.882387    22.685228    19.181594    7781.3209    6983.1763    7697.6765     6492.873    295.60632    51.921258   -857.07923   -4121.0005 
29394000    112.69014   -5146.9783   -4921.5841   -5146.9783            0    5365.3526    17.929278    22.670363    19.318084    7852.0912    5311.4536    5369.7188    5414.8853   -389.18364   -334.15721    96.188979   -4307.1724 
29395000    117.18103   -5157.0358   -4922.6592   -5157.0358            0    5944.7886    17.810563    23.044385    19.065845    7825.2606    6782.6955    4806.0562    6245.6142    -423.3838   -643.50221    -138.4043   -4244.2197 
29396000     117.4092   -5156.1121   -4921.2792   -5156.1121            0    7426.7693    18.035503    22.542277    19.123882    7775.0305    7300.7432    7258.8765    7720.6884   -762.04091    164.14075   -995.65614   -4079.1516 
29397000    113.18869   -5156.8686   -4930.4772   -5156.8686            0     7098.298    17.766056    22.859691    19.145681    7775.5696    8069.3429    6314.8631     6910.688   -756.32732   -221.41965   -270.12546   -4125.5394 
29398000    112.12892   -5148.1805   -4923.9088   -5148.1805            0    6585.0809    17.926371    22.638147    19.203036    7792.9725    6128.9485    6038.1715    7588.1227    987.89181   -87.067183    1080.5356   -4175.4978 
29399000    120.69491   -5140.4001   -4898.9953   -5140.4001            0     7393.186    17.716144    22.886877     19.11198    7749.2812    5991.2459    7613.3801    8574.9319   -746.47089    58.454142   -1542.9284   -4063.4521 
29400000    114.89893   -5154.1003   -4924.2883   -5154.1003            0    5796.4228    17.920356    22.623164      19.2639    7809.8766    5310.8276    6159.3125    5919.1282   -1338.5177   -436.25312    9.7967434   -4264.0813 
29401000    121.77268    -5139.247   -4895.6866    -5139.247            0    6841.7729    17.859096    22.758367     19.17574    7793.8619    6517.3785    7215.5522    6792.3882    269.48707    1152.5897    16.789133   -4118.0132 
29402000    117.02895   -5149.7006   -4915.6283   -5149.7006            0    6653.3499    17.863042     22.74408     19.19082    7796.8168    6117.2941    6288.0708    7554.6849    120.70717   -92.148607     753.6317   -4159.0853 
29403000     117.2526   -5143.8825   -4909.3628   -5143.8825            0    8160.0364    17.810352    22.759638    19.185165    7776.8439    8184.5221    7743.1264    8552.4607   -291.84221   -91.477816    -828.5267   -3983.8736 
29404000     116.5737   -5155.5091   -4922.3473   -5155.5091            0    6627.6084    17.936276    22.738098    19.138153    7805.2429    5519.0988    6896.7031    7467.0234   -989.03223    275.52091   -510.54431   -4167.9169 
29405000    114.00784   -5146.8117   -4918.7819   -5146.8117            0    8529.9129     17.83448    22.510339     19.30242    7749.1533     8457.356    9171.9521    7960.4306    256.79445    41.320537    763.35028    -3954.787 
29406000    115.56291   -5162.6407   -4931.5006   -5162.6407            0     6883.965    17.798721    22.883371    19.088828    7774.7792    7302.0665    6074.0804    7275.7481   -180.79995    433.77702    -1087.336   -4150.9472 
29407000     112.8764   -5145.3691   -4919.6024   -5145.3691            0    7006.6696    17.969172    22.462309    19.319343     7797.849    6070.0985    7712.9015    7237.0087    427.36592    64.264639     2031.795   -4122.7785 
29408000    114.83514   -5155.2786   -4925.5941   -5155.2786            0     7990.584    17.627177     22.97499    19.087743    7730.2342    9715.0634    7092.2517    7164.4371   -723.69836   -35.305432    106.38725   -4024.7553 
29409000    112.27515   -5152.7874   -4928.2232   -5152.7874            0    7160.3926    18.046627    22.572952    19.145335    7799.1516    6216.7911    7723.2882    7541.0986   -866.26433    321.86117    1169.2573   -4113.7813 
29410000     123.4614   -5160.4918   -4913.5538   -5160.4918            0    6189.0387    17.843005     22.82521    19.147136    7798.0602    7811.9271    5239.7134    5515.4758    975.84115   -490.08073   -576.02897   -4209.6948 
29411000    115.39894   -5158.3947   -4927.5826   -5158.3947            0    7749.4655    17.954674    22.639225     19.09792    7762.9208    7401.5855    7886.3985    7960.4125   -1006.9872    405.92684    -362.0633   -4050.2327 
29412000    117.06854   -5152.4183   -4918.2668   -5152.4183            0    6268.4966    17.857273    22.774383    19.179256    7799.9806    6957.4896    5692.0582    6155.9421   -233.02527   -515.65482    1382.8518   -4205.1957 
29413000    110.59497   -5138.6965   -4917.4929   -5138.6965            0     8351.342    17.786641    22.583496    19.300755    7752.8148     9734.161     7952.535      7367.33    -420.5341   -169.04438   -702.90136   -3973.2329 
29414000    118.16588   -5164.2991   -4927.9528   -5164.2991            0    6350.3164    17.848713    22.809347    19.150026    7796.3105    6874.6508    6117.1848    6059.1135    523.14068    225.33183   -648.77962   -4205.9142 
29415000     118.2817   -5156.5381   -4919.9601   -5156.5381            0    8004.8059    17.911935    22.590838    19.173298    7758.3914    7100.9205    7916.0535    8997.4438    95.655508    304.24127    6.0847604   -4014.2309 
29416000    120.91529    -5144.457   -4902.6115    -5144.457            0    6756.8748    17.941876    22.625152    19.219537     7801.934    6492.0655    7322.1818    6456.3769   -1150.7549     193.6196   -1295.0997   -4133.7926 
29417000    110.79952   -5138.5741   -4916.9614   -5138.5741            0     7643.853    17.669109    22.865069    19.240143    7773.1215    8243.2399    6733.6561    7954.6631    512.38693   -555.10353    128.76032   -4050.4313 
29418000    120.23938   -5147.0043   -4906.5107   -5147.0043            0     7958.786    17.956856    22.592851    19.152208    7769.9851    9086.9118    7651.9175    7137.5287    131.18281   -78.687122    377.14764   -4004.6428 
29419000     128.1423   -5153.2571   -4896.9567   -5153.2571            0    7930.5762    17.871466     22.76714    19.061339    7755.7191    7695.0823     7578.883    8517.7633   -478.56503   -618.80555    335.03618   -3999.9355 
29420000    119.55434    -5152.968   -4913.8445    -5152.968            0    8548.3365    17.885114    22.623242    19.139385     7744.164    9869.2509    7919.0977    7856.6608    47.449597   -430.37498    132.96356   -3948.3895 
29421000    120.54819    -5152.288   -4911.1767    -5152.288            0    6405.7697    17.898029    22.749949    19.136918    7792.1559    6887.4688    6757.4511    5572.3893    459.52992   -29.092117    2050.0726   -4183.2212 
29422000    114.19244   -5153.9439   -4925.5449   -5153.9439            0    7101.2256    17.882102    22.711079    19.157496    7780.2774    5188.9353    8360.9571    7753.7842    820.28139     392.1362   -453.17027   -4119.7875 
29423000    115.29118   -5158.0068   -4927.4102   -5158.0068            0    7938.3143    17.919449    22.644919    19.153808     7772.318    7332.1302    7593.0254    8889.7874    323.35908    114.02336    403.48424    -4027.592 
29424000    116.21328   -5157.2977   -4924.8568   -5157.2977            0    6851.3832    17.832584    22.932385    19.041185    7786.7727    7572.6017    6108.3121    6873.2357    231.39183    97.777984   -817.07963   -4146.7994 
29425000    118.77912    -5159.471   -4921.8981    -5159.471            0      7133.53    17.916883    22.536161    19.273692    7782.2881    6852.8102    7787.3155    6760.4644    387.30039   -334.81647    323.18945   -4112.2661 
29426000    116.83823   -5152.7458   -4919.0549   -5152.7458            0     7413.278     17.81524    22.848824    19.099866    7774.7398    9074.7463    6165.5851    6999.5027   -367.74587   -416.93278   -410.25352   -4078.4885 
29427000    123.26632   -5150.5323   -4903.9844   -5150.5323            0    8239.3449    17.885664    22.592492    19.219424    7766.2175    8597.1672    8763.7828    7357.0846    1233.2747    401.32118     1674.466   -3970.7772 
29428000     119.4643   -5150.7134     -4911.77   -5150.7134            0    6505.2481    17.991863    22.610437    19.180697    7802.7822    5632.4744    6773.0131    7110.2567    526.56875    713.02084   -1571.5125   -4171.5016 
29429000    123.47841   -5158.0778   -4911.1058   -5158.0778            0    6054.1332    17.838429    22.901325    19.081501    7795.2446    5125.2372    6119.9139    6917.2484    808.20512   -81.509872    1795.9889   -4222.8377 
29430000    114.90444   -5141.3235   -4911.5004   -5141.3235            0    6811.6704    17.878402    22.554646    19.311935     7787.364    7468.6881    7089.4147    5876.9085   -407.00203    -999.4832   -17.239797   -4137.8942 
29431000    117.23085   -5157.5497   -4923.0735   -5157.5497            0     6560.207    17.933314    22.853053    18.981619    7779.2552    6377.3954    5864.8688    7438.3569    723.36986   -230.17147   -240.35184   -4178.8019 
29432000    121.83282   -5156.0732   -4912.3926   -5156.0732            0     6946.121    17.861838    22.716602    19.188553    7785.9524    6308.8781    7569.9247    6959.5601    1091.9982    1041.9097   -333.61937   -4123.6596 
29433000    116.27242   -5159.0919   -4926.5327   -5159.0919            0     7286.442    17.984683    22.658938    19.093729     7780.958    6060.2661    6848.0719     8950.988    464.62739   -655.94442    663.46516    -4099.687 
29434000    117.96642   -5158.1869   -4922.2395   -5158.1869            0     8219.025     17.70471    22.839828    19.123139    7732.8722    10436.485     7167.078    7053.5125    181.28954   -743.52705    -627.5628   -3995.3306 
29435000    119.80098    -5142.543   -4902.9262    -5142.543            0    7991.6811    17.953528    22.543312    19.180324    7762.8906     7405.773    8343.3006    8225.9696   -357.51477   -85.023205   -55.308562   -3998.1577 
29436000    118.07141   -5149.0113   -4912.8539   -5149.0113            0    6408.0234    17.854213    22.860108    19.107577    7798.7429     6090.658    6675.4095    6458.0027    521.79199    459.39041    1170.5645   -4184.0267 
29437000    116.38495   -5159.1582   -4926.3739   -5159.1582            0    5761.5469    17.901091    22.601042    19.286251    7802.8952    5943.6862    6466.5702    4874.3842    362.43885    192.69653    980.12139   -4270.7259 
29438000    116.67567   -5139.3157     -4905.95   -5139.3157            0    6707.4015     17.97758     22.76276    19.037782    7790.6286    6229.4761    6166.4244     7726.304   -605.43826    305.47544    793.57549   -4143.8663 
29439000    115.44574   -5162.7845   -4931.8788   -5162.7845            0    6604.2611    17.732667    22.804907    19.227906    7775.6081    6859.2551    6368.7767    6584.7516    -415.7927   -399.68569   -809.81768   -4182.9604 
29440000    125.88408   -5151.7407    -4899.957   -5151.7407            0    5986.6897     17.91062    22.705196    19.193292    7805.2233    6839.4888    6135.3002    4985.2801    600.96935   -441.71235    476.70556    -4218.485 
29441000    117.12883   -5145.0206   -4910.7485   -5145.0206            0    6911.1916    17.751407     22.89319    19.100632    7762.2358    7054.8973    7287.4695     6391.208    135.15877   -197.44234    -409.2883   -4128.3722 
29442000    121.75115   -5159.7622   -4916.2449   -5159.7622            0    5994.2565    17.950916    22.577821    19.278256    7813.3339    5143.5323    6493.7607    6345.4765    -674.7818    249.24021    1222.2318   -4233.2026 
29443000    117.55718   -5154.5394   -4919.4105   -5154.5394            0    6765.7662    17.845394     22.94592    18.981096    7772.3597    5847.2563    6473.8347    7976.2078    225.85707    777.08336   -214.89746   -4152.4981 
29444000    116.42491   -5151.5726   -4918.7084   -5151.5726            0    6169.5323    17.940934    22.638552    19.247203     7817.382    6559.0346    6784.8224    5164.7399    278.07596   -15.076054    165.35185   -4215.3293 
29445000    118.55836   -5151.1231   -4913.9917   -5151.1231            0     7310.214     17.76107    22.842711    19.166729     7776.153    7758.7064    6931.4158    7240.5198    1137.1614   -734.39217     754.8026   -4084.9607 
29446000    116.32631   -5151.7068   -4919.0398   -5151.7068            0    8352.2849    17.820045    22.612332    19.199202    7736.3719    8849.1885    8395.6666    7811.9998    509.67363   -261.96971   -190.20973   -3976.6761 
29447000     116.5159   -5147.9064   -4914.8602   -5147.9064            0    6703.0816     17.79429    22.853217    19.179017    7799.2772    7933.0401    6101.4462    6074.7584    181.91493    -564.0282   -373.15068   -4152.4218 
29448000    119.76816   -5154.9594   -4915.4083   -5154.9594            0     7999.825    17.840223    22.631783     19.21304    7757.3814    7877.3198    8591.9694    7530.1859   -531.67918    29.420648    176.86426   -4010.3605 
29449000    120.00641    -5144.256   -4904.2283    -5144.256            0    7857.7033    17.896153    22.598239    19.190258    7760.9538    6579.0437    8430.6807    8563.3855    342.51777    256.49124   -416.53296   -4014.8498 
29450000    117.54123   -5161.2148   -4926.1179   -5161.2148            0    5581.2519    17.903596    22.824497    19.161093    7830.0002    5927.6627      4712.95     6103.143    505.43618   -492.72206    37.076026   -4288.7806 
29451000    114.99239   -5149.4587   -4919.4597   -5149.4587            0    6909.7499    17.919522    22.722821    19.112094    7782.1022    6167.8406    6674.9481    7886.4609    192.47203   -394.98744    628.00576   -4135.2448 
29452000    112.76783   -5149.2823   -4923.7327   -5149.2823            0    6702.9946    17.893686    22.694196    19.197381    7795.7265    6131.7916    7570.1717    6407.0206   -901.81672    1419.1563    1639.9711   -4161.6513 
29453000    118.51128   -5171.1926   -4934.1554   -5171.1926            0    6683.0393    17.919341    22.742286    19.081471    7776.2104    4988.4936    7551.1982     7509.426   -59.069535    234.17071   -398.48092   -4176.2449 
29454000    112.24321   -5154.5799   -4930.0796   -5154.5799            0    7451.4179    17.880763    22.664468    19.161373    7765.2994    7117.9875    7923.2452     7313.021   -232.93432    506.72063   -54.157464   -4086.2146 
29455000     113.2105   -5157.9401   -4931.5051   -5157.9401            0    6615.5401    17.833719    22.701968    19.239649    7789.3743    7900.5986    6740.7085     5205.313    1070.3486    125.73661    203.49507   -4179.9795 
29456000    113.56219   -5148.6285   -4921.4901   -5148.6285            0    8229.3645    17.697556    22.794352    19.157128    7728.0678    8733.8366    7601.4141    8352.8428   -128.40874   -309.54076    1321.5045   -3993.9918 
29457000    117.58299   -5155.7774   -4920.5969   -5155.7774            0    6904.8805    17.858339    22.640744    19.257737    7786.4053    7977.3866    6578.6079    6158.6468   -658.16782    26.594086   -720.08564   -4136.5012 
29458000    118.87175   -5149.5838   -4911.8256   -5149.5838            0    6745.4134     17.86356    22.719502    19.198387    7791.6885    7663.1732    6913.8621    5659.2048    440.09465   -227.46127    318.76137   -4145.3187 
29459000     117.0821   -5148.7114   -4914.5327   -5148.7114            0    7007.1564    17.761054    22.756479    19.259474    7784.2764    6130.4145    7521.6024    7369.4522   -162.11804    311.43051    1087.8542   -4119.0405 
29460000    123.28098   -5151.8617   -4905.2845   -5151.8617            0    8046.9479    17.952154    22.719767     19.01111    7754.0374    6987.4235    8280.9134    8872.5067   -154.44489    254.68005   -193.26974    -3995.298 
29461000    116.61072   -5147.9089    -4914.673   -5147.9089            0    6963.5302    17.805138    22.739506    19.266055    7800.4412     6913.977    7118.6657    6857.9478   -1148.6632    1120.8352   -847.94891   -4122.4918 
29462000    113.79903   -5144.9646   -4917.3524   -5144.9646            0    6666.1141    17.882751    22.762236    19.137349    7789.8845     6879.102    6351.9215    6767.3187    380.36842    -110.7165   -104.37307   -4160.0321 
29463000    116.11101   -5151.7882   -4919.5518   -5151.7882            0    6282.8818     17.84713    22.670795     19.26633    7795.3233    8144.1816    6091.7509    4612.7131   -552.59503    -512.3731   -53.504489   -4205.2711 
29464000    114.55398   -5151.5712   -4922.4491   -5151.5712            0    6728.5124    17.924096    22.802896    19.089763    7802.3928    6575.9108    6441.6185     7168.008    685.69336   -393.08969   -522.01336   -4156.8124 
29465000    112.38292   -5161.1737    -4936.394   -5161.1737            0    6242.1654    17.829509    22.748299    19.222855    7796.6171    6358.6606    6334.1457      6033.69    849.21299    433.64931    1647.3937   -4226.6244 
29466000    119.02336   -5161.9347   -4923.8733   -5161.9347            0    6137.7514    17.897282     22.68765    19.218025    7803.4263    7462.5187    4756.9935    6193.7421      805.559   -1063.8846   -539.34195   -4225.3666 
29467000    112.94384   -5158.8324   -4932.9308   -5158.8324            0    6774.1879    17.867296    22.602044    19.223364    7763.1133    6817.2532    7239.5894    6265.7212    242.47448   -279.42888    220.92883   -4165.9772 
29468000     120.2408   -5147.6759   -4907.1794   -5147.6759            0    7639.8022    17.746564    22.683869    19.266304    7755.8575    8491.9974     7556.546    6870.8631    150.16057    55.373158    169.85057    -4043.032 
29469000    112.07954    -5145.375   -4921.2021    -5145.375            0    6850.3772    17.907884    22.612406    19.236806    7789.7589    6188.3608     7823.584    6539.1868    859.72683   -213.93031   -247.34706   -4142.9606 
29470000    115.90421   -5163.6945   -4931.8717   -5163.6945            0    7237.7727    17.796884    22.864414    19.113856    7777.7211    7960.1155    6451.2686    7301.9339   -348.06723    296.66951    1610.5237   -4110.8906 
29471000     113.8709   -5150.8288   -4923.0729   -5150.8288            0    7139.1046    17.977226    22.666655    19.107571    7786.0214    6262.7714    6867.0418    8287.5004    357.46689    -754.1346   -514.15082   -4112.4195 
29472000    109.95597   -5155.4382   -4935.5127   -5155.4382            0    7424.8538    17.823038    22.743619    19.141849    7759.3471    7643.3117    7320.8429    7310.4069   -54.867645   -159.72294    668.95912   -4095.3005 
29473000    109.47715   -5150.4478     -4931.48   -5150.4478            0    8027.0232    17.864077    22.633051    19.149945    7742.6781    6503.2461    8475.3545     9102.469   -821.86849    257.75826    1349.8544   -4025.0764 
29474000    114.81098   -5151.9356   -4922.2994   -5151.9356            0    7190.5711    17.934498    22.628669    19.184468    7785.7056     5835.668    7737.7721    7998.2732    26.850878    71.034486    -205.5988    -4105.835 
29475000    115.65791   -5155.5101     -4924.18   -5155.5101            0     9073.396    17.799899    22.750991    19.114802    7740.8327    9265.7828     8398.642    9555.7633   -1778.6697   -333.29467    284.94023   -3899.8652 
29476000     111.0882    -5140.235   -4918.0449    -5140.235            0    6521.3626    17.998185    22.623603    19.123727    7786.8718    5812.1997    7592.2764    6159.6118    1252.9053   -153.52968   -22.071896   -4177.4558 
29477000    126.72911   -5146.8629    -4893.389   -5146.8629            0    5515.1094    17.767205    22.853139    19.300579    7836.7378    6101.1348     5608.813    4835.3803   -1380.2962    737.64651   -351.99351   -4263.0629 
29478000    116.67924   -5141.5549    -4908.182   -5141.5549            0    6564.0316    17.863865    22.655728    19.237305    7785.6999    6629.8552    6459.1467    6603.0931    974.29095   -224.75129    367.23539   -4162.8596 
29479000    120.40982    -5147.813   -4906.9784    -5147.813            0    7482.6737     17.74765    22.830015    19.167119    7766.1161    9070.3377    6893.9967    6483.6868   -344.67365   -21.388106    411.07779   -4059.4845 
29480000    120.68527   -5137.8697   -4896.4842   -5137.8697            0    8165.4081    17.966114    22.512203     19.18588    7759.8594    7908.6513    8739.0357    7848.5373   -281.14838    12.468273     -272.872   -3972.4084 
29481000    117.96668   -5139.4969    -4903.549   -5139.4969            0    7581.6909    17.783885    22.827751    19.105003    7755.9836    7520.3598    7284.1989     7940.514   -871.60923    1288.5308    774.78528   -4045.9607 
29482000    116.88771    -5149.302   -4915.5121    -5149.302            0    6785.8653    17.887843    22.545221    19.277083    7774.1656    6496.9848    7488.7692    6371.8421    1016.5416    340.06519   -1045.8064   -4146.1427 
29483000    118.84538   -5162.8083   -4925.1028   -5162.8083            0    6620.0652    17.821976    22.761563    19.169713    7776.3097    6895.6584    6842.6161    6121.9211    123.49256    345.74268    1299.5514   -4174.3245 
29484000    122.83045   -5152.7292   -4907.0532   -5152.7292            0    7256.0708    17.847606    22.680042    19.178932    7763.3336    7561.5971    7309.6868    6896.9286    631.78786   -1059.3952    319.35567    -4085.519 
29485000    116.24891   -5159.2725   -4926.7603   -5159.2725            0    7927.6996    17.814567    22.838485    19.081794    7763.5754    7774.4606     7059.535    8949.1033   -1141.3767   -380.25982   -448.08477   -4029.1561 
29486000    116.01491   -5150.7707   -4918.7266   -5150.7707            0    7835.5687    17.858193    22.606004    19.159271    7734.6434    7869.2798    8159.8939    7477.5325    633.97302    387.65877    1655.0072     -4034.86 
29487000    109.97406   -5143.2148   -4923.2531   -5143.2148            0    7163.1296    17.962506    22.681881    19.097445    7780.7463    7150.3721    6822.5696    7516.4472   -874.65286   -575.89994   -290.89958   -4110.4227 
29488000     117.0615   -5143.5644   -4909.4269   -5143.5644            0    6647.0947    17.923641    22.769952    19.128495    7806.7302    6198.4459    6832.5411    6910.2971    241.30371    533.66735   -392.73918   -4152.6342 
29489000    118.47834   -5155.4849   -4918.5136   -5155.4849            0    6795.7265     17.77528    22.941453    19.125944    7799.3831    7052.5031    6132.4886    7202.1879    515.28094    626.87568    2151.0776   -4145.5269 
29490000    118.12357   -5152.4356   -4916.1738   -5152.4356            0    5805.1578    17.897269     22.62849    19.322475    7825.3742    6093.0799    6107.8338    5214.5599    153.93584    -381.6873    464.92348   -4253.6599 
29491000     116.4008   -5159.2899   -4926.4739   -5159.2899            0    7174.9525    17.820369    22.752427    19.205907    7787.1627    7693.0987    7191.3882    6640.3707   -287.60794    176.44032     -1327.07   -4111.6305 
29492000    114.18019   -5153.3348   -4924.9603   -5153.3348            0    5973.7632    17.847219    22.685101    19.292646     7810.936    6280.1311    6275.8567    5365.3017    701.97925    703.82451    -517.7293   -4244.4621 
29493000    125.96489   -5156.6232   -4904.6779   -5156.6232            0    6243.3361    17.852076    22.703743    19.225446    7792.2457    6234.5932    6578.7868    5916.6284   -604.09654   -390.46024   -363.26526   -4195.1733 
29494000    119.52007   -5145.2191   -4906.1642   -5145.2191            0    6801.5601    17.898578    22.684932    19.189037    7791.2871    6150.4644    6883.1237    7371.0923  -0.83291888   -401.65442    696.24134    -4133.317 
29495000    116.95634   -5135.4022   -4901.4751   -5135.4022            0    7264.6848     17.90198    22.621784    19.215199    7781.6699    6827.6598    7234.9034    7731.4912   -404.62438    680.67674   -158.17604   -4077.0229 
29496000    112.37371   -5151.2361   -4926.4748   -5151.2361            0    5244.2259    17.802802    22.927459      19.1592    7820.2682    5586.3253    4329.5644    5816.7882    772.88072   -886.28172    1763.2477   -4328.3678 
29497000    122.78151   -5163.5003   -4917.9221   -5163.5003            0    6638.5068    17.837789    22.803523     19.16086    7793.9562     7249.816    6897.6128    5768.0915    211.22149    226.82082    844.70769   -4163.3439 
29498000    117.85683   -5144.1022    -4908.374   -5144.1022            0     6607.857    17.949632     22.58889    19.220867    7793.3359    6497.9602    7383.7736    5941.8373    693.17154    246.58393    826.22271   -4157.3394 
29499000    116.96369   -5158.7075   -4924.7656   -5158.7075            0    6278.7206     17.86038     22.81462    19.164786    7809.2243    7359.3863    6155.2114    5321.5641   -383.99341    892.67146    685.24948   -4209.6851 
29500000      120.868   -5141.6778   -4899.9269   -5141.6778            0    7236.7391    17.949647    22.706077    19.062718    7769.3172    7517.8645    6448.6864    7743.6664    973.11239   -1094.4912    1065.7349   -4079.9499 
Loop time of 428.291 on 64 procs for 250000 steps with 1008 atoms

Performance: 100.866 ns/day, 0.238 hours/ns, 583.715 timesteps/s
194.8% CPU use with 32 MPI tasks x 2 OpenMP threads

MPI task timing breakdown:
Section |  min time  |  avg time  |  max time  |%varavg| %total
---------------------------------------------------------------
Pair    | 35.671     | 40.357     | 51.797     |  47.4 |  9.42
Bond    | 0.99648    | 1.2384     | 2.1998     |  18.6 |  0.29
Kspace  | 205.94     | 216.53     | 223.47     |  29.2 | 50.56
Neigh   | 1.1889     | 1.3387     | 1.4518     |   6.7 |  0.31
Comm    | 63.512     | 69.706     | 76.852     |  40.3 | 16.28
Output  | 0.51766    | 0.5193     | 0.52168    |   0.1 |  0.12
Modify  | 82.414     | 85.082     | 87.469     |  11.8 | 19.87
Other   |            | 13.52      |            |       |  3.16

Nlocal:        31.5000 ave          36 max          26 min
Histogram: 1 2 0 4 6 3 3 5 4 4
Nghost:        2955.28 ave        2986 max        2931 min
Histogram: 2 4 1 6 7 5 3 1 2 1
Neighs:        10759.0 ave       12283 max        8945 min
Histogram: 3 0 3 6 4 0 6 5 1 4

Total # of neighbors = 344287
Ave neighs/atom = 341.55456
Ave special neighs/atom = 2.0000000
Neighbor list builds = 3151
Dangerous builds = 0

unfix		3
unfix		2
unfix		1

write_data	data.final.${pid}
write_data	data.final.0
System init for write_data ...
PPPM initialization ...
  extracting TIP4P info from pair style
  using 12-bit tables for long-range coulomb (../kspace.cpp:340)
  G vector (1/distance) = 0.37975479
  grid = 24 27 32
  stencil order = 5
  estimated absolute RMS force accuracy = 0.0024091968
  estimated relative force accuracy = 7.2552247e-06
  using double precision FFTW3
  3d grid and FFT values/proc = 5355 672
Last active /omp style is kspace_style pppm/tip4p/omp
WARNING: Not all mixed pair coeffs generated from mixing. Use write_data with 'pair ij' option to store all pair coeffs. (../write_data.cpp:312)

write_restart   restart.lmp.${pid}
write_restart   restart.lmp.0
System init for write_restart ...
PPPM initialization ...
  extracting TIP4P info from pair style
  using 12-bit tables for long-range coulomb (../kspace.cpp:340)
  G vector (1/distance) = 0.37975479
  grid = 24 27 32
  stencil order = 5
  estimated absolute RMS force accuracy = 0.0024091968
  estimated relative force accuracy = 7.2552247e-06
  using double precision FFTW3
  3d grid and FFT values/proc = 5355 672
Last active /omp style is kspace_style pppm/tip4p/omp
Total wall time: 0:07:08
