LAMMPS data file via write_data, version 30 Jul 2021, timestep = 29000000

864 atoms
2 atom types
576 bonds
1 bond types
288 angles
1 angle types

0.6485389784186868 17.55903342158295 xlo xhi
1.8554245215978717 21.773753278408044 ylo yhi
0.7912160388584439 21.421979761131084 zlo zhi

Masses

1 1.00794
2 15.9994

Pair Coeffs # lj/cut/tip4p/long/omp

1 0 0
2 0.21084 3.1668

Bond Coeffs # harmonic/omp

1 450 0.9572

Angle Coeffs # harmonic/omp

1 55 104.52

Atoms # full

841 1 2 -1.1794 6.1506234820842485 4.008380550184844 3.37917860362389 -7 6 -1
181 1 2 -1.1794 2.4278959154569675 6.564348301120268 3.513403448575675 -4 -1 -2
863 1 1 0.5897 1.0817892630644996 6.118386980000319 4.855273038559747 3 3 -2
831 1 1 0.5897 5.798392486966023 2.545729161955469 4.176506288725127 5 8 -1
843 1 1 0.5897 6.463872548688911 4.888089025165343 3.589651476264126 -7 6 -1
207 1 1 0.5897 7.924127709252679 4.757803840270377 5.471961714100942 -6 6 -3
413 1 1 0.5897 2.403006143006519 3.622604729316546 2.3765833739427498 3 4 4
182 1 1 0.5897 1.8757333625316788 6.590532696303651 2.7319004486032474 -3 -1 -2
414 1 1 0.5897 1.3176705898492551 2.855281399762112 3.101411654581589 3 4 4
62 1 1 0.5897 4.837892054712334 4.187515052365471 4.49799296559362 1 3 4
61 1 2 -1.1794 3.994234270127145 4.41188812631783 4.890702274559849 1 3 4
337 1 2 -1.1794 8.728679257729521 5.522296271518201 4.071789535108439 -5 -5 -1
502 1 2 -1.1794 4.710500454985419 6.274445166600664 1.4689304199046824 -1 -1 5
63 1 1 0.5897 3.3517856878804038 3.926965626829869 4.372597466640974 1 3 4
842 1 1 0.5897 6.621342608040991 3.770759996036111 2.5802594610976137 -7 6 -1
504 1 1 0.5897 4.0790174438328926 5.575277439647578 1.2993344513799632 -1 -1 5
412 1 2 -1.1794 2.2447745083983053 3.087623785566301 3.1544506955546474 3 4 4
183 1 1 0.5897 3.2718216400695797 6.238769235819337 3.2001958089600664 -4 -1 -2
339 1 1 0.5897 8.42127295297827 6.009518223255962 3.307307813613307 -5 -5 -1
457 1 2 -1.1794 0.9755269862910446 6.733509021436271 1.1749092599477955 -3 2 1
368 1 1 0.5897 8.711659583658742 2.3954825071752683 3.017894973467943 4 14 -5
648 1 1 0.5897 8.960462826636775 6.762327362069125 1.1063240353622392 -11 -2 4
338 1 1 0.5897 8.97141287413934 4.662911509911477 3.7269834963312354 -5 -5 -1
48 1 1 0.5897 6.139901709124847 6.769432062492646 2.496601584235406 1 -5 2
665 1 1 0.5897 4.147464488073783 5.9438416333305035 5.9455678140312145 0 4 9
286 1 2 -1.1794 4.972534889676826 1.9685211572113237 0.8189237678986316 3 3 1
697 1 2 -1.1794 5.669855535361898 3.245633215280483 7.989747327420099 -3 6 -2
186 1 1 0.5897 4.86127307155303 2.0772130273842255 9.257210251554502 -6 -1 2
310 1 2 -1.1794 5.040912417056867 4.193776930919704 10.965720189045536 0 4 6
606 1 1 0.5897 8.900822396760976 2.8682302644588464 6.4201986023915385 -6 -1 -2
292 1 2 -1.1794 2.886341550192263 3.614144391160851 7.366070655532703 2 -2 -4
699 1 1 0.5897 6.217959090349198 3.561896045575324 7.271503494898404 -3 6 -2
96 1 1 0.5897 7.624313477186139 5.918072624332531 8.629801160522973 -7 -3 -3
40 1 2 -1.1794 2.0505689380214402 4.683313522413688 9.700900725129163 -4 -1 5
711 1 1 0.5897 5.666792931291727 5.347815195542522 9.885536731712328 3 4 1
42 1 1 0.5897 2.753409560386822 4.223972359257389 9.241136771120264 -4 -1 5
404 1 1 0.5897 1.9526476220425044 6.414413241408579 8.60585713311187 9 -2 -4
709 1 2 -1.1794 6.044095409341256 5.973946913784336 9.267546031642825 3 4 1
41 1 1 0.5897 1.8310483076266038 4.111316535089961 10.436408915374972 -4 -1 5
605 1 1 0.5897 8.918073141016857 1.8620700971022792 7.551360500888673 -6 -1 -2
710 1 1 0.5897 5.646248490880757 5.750139262346759 8.426142243342102 3 4 1
94 1 2 -1.1794 8.485225995607575 5.998198345215408 8.219015852374365 -7 -3 -3
294 1 1 0.5897 1.9484832417787472 3.7877806764037842 7.28493340175341 2 -2 -4
206 1 1 0.5897 8.10000749040081 4.868505429364039 6.971619418812841 -6 6 -3
698 1 1 0.5897 4.7800208407851255 3.495508454355539 7.740576036673581 -3 6 -2
664 1 2 -1.1794 4.524698537350131 6.378266716176683 6.710607776456402 0 4 9
205 1 2 -1.1794 7.640158635934888 4.366926804655395 6.298342246509653 -6 6 -3
250 1 2 -1.1794 8.080697811971026 2.463037852511871 10.498663918557035 -3 -11 7
621 1 1 0.5897 3.30031896994788 1.9181637811049852 6.639636367484669 -1 -2 5
311 1 1 0.5897 4.851293625248284 3.2911915830454928 10.709309157602233 0 4 6
252 1 1 0.5897 8.425832846310872 3.3537301169878617 10.436100025310692 -3 -11 7
293 1 1 0.5897 3.27550942912648 4.034718067700267 6.59925113292443 2 -2 -4
123 1 1 0.5897 9.09980431672489 5.405803945441653 9.825750731990597 4 -2 0
666 1 1 0.5897 3.768668107674809 6.626940800429374 7.24248736804198 0 4 9
274 1 2 -1.1794 1.2504047731820593 3.4306896863210135 12.024865284493195 -7 2 5
208 1 2 -1.1794 7.46004736692005 3.8603460575615713 15.135815455495356 1 -9 9
478 1 2 -1.1794 1.8628685717101596 1.9999513952973238 15.139239524235817 -5 8 -5
349 1 2 -1.1794 7.324146409325797 5.264326149161737 12.492186361968399 -14 6 0
611 1 1 0.5897 4.7005763171529615 4.382245593750814 15.409417513824623 7 -1 -3
517 1 2 -1.1794 3.681060994996148 2.457624153931831 13.034472039815785 1 1 -6
360 1 1 0.5897 1.1210665231175794 5.327679796091944 15.019387392953188 9 6 -6
519 1 1 0.5897 3.971510304678956 3.035762073433755 13.739991907154025 1 1 -6
210 1 1 0.5897 7.353425873665103 4.381819419108896 15.931435558494295 1 -9 9
143 1 1 0.5897 5.405527113082553 6.698071266728695 14.980624602613142 7 1 8
480 1 1 0.5897 1.4893277312651265 2.8803494354811354 15.097844643247488 -5 8 -5
811 1 2 -1.1794 6.487618669496926 2.157968460291658 12.579598842383652 -4 8 4
209 1 1 0.5897 6.652962057857593 3.349365957756884 15.073808036369606 1 -9 9
312 1 1 0.5897 5.801238958598381 4.124541085995373 11.543163254801733 0 4 6
518 1 1 0.5897 2.940154174633954 2.9161643322174484 12.638045762365822 1 1 -6
144 1 1 0.5897 3.9284919541344294 6.5228875730511415 15.263065305230862 7 1 8
351 1 1 0.5897 7.342465637137688 4.5982931693356015 13.17948620794458 -14 6 0
610 1 2 -1.1794 4.861223803993405 3.47321502722233 15.156045380764155 7 -1 -3
812 1 1 0.5897 5.581052646035553 2.319966540454067 12.840771824811961 -4 8 4
385 1 2 -1.1794 2.3658329148071426 6.370857906872155 14.478238104185333 -9 5 2
275 1 1 0.5897 0.792576779199872 4.25964848098771 12.164630798874951 -7 2 5
409 1 2 -1.1794 3.4001769788714546 6.125013541506164 11.824833924921986 8 -3 -3
350 1 1 0.5897 8.160534945086775 5.163267295273971 12.037695707563767 -14 6 0
386 1 1 0.5897 2.7381578896959406 6.035623549388997 13.662575357658234 -9 5 2
411 1 1 0.5897 2.5152276273141396 6.000921040276761 11.481646884843355 8 -3 -3
142 1 2 -1.1794 4.795442249493764 6.2823029493561435 15.589924907473444 7 1 8
410 1 1 0.5897 3.8837440517220148 5.354914405847243 11.525762081968365 8 -3 -3
479 1 1 0.5897 2.579063619322022 2.0130153730329803 14.504253124553513 -5 8 -5
612 1 1 0.5897 4.6511477475600405 2.964987435163423 15.93955902374857 7 -1 -3
836 1 1 0.5897 7.46348655113969 1.9414418819094823 15.674813317166928 1 1 -8
251 1 1 0.5897 7.548090820382097 2.4673552615905767 11.294054568602789 -3 -11 7
358 1 2 -1.1794 0.6922995591355559 4.557497364832065 15.392614923799037 9 6 -6
236 1 1 0.5897 7.1094299259288904 6.584418324279813 13.698241397204328 -6 -5 -5
849 1 1 0.5897 3.685921680985589 4.512997787884273 19.670378737540698 6 5 -2
497 1 1 0.5897 6.905208276017471 3.415996782096121 18.026788513163254 4 2 2
840 1 1 0.5897 3.4330830758946873 3.1651515274666915 17.699843923353782 -2 0 -2
498 1 1 0.5897 6.983828421770713 2.1593974843882635 18.867591822573065 4 2 1
203 1 1 0.5897 7.921756636863031 3.505055409633549 21.127039490561106 2 4 0
2 1 1 0.5897 2.592551556229057 6.6014607599420385 17.089424779028707 1 -6 5
204 1 1 0.5897 6.434510569313035 3.2600556771536127 21.269343248536615 2 4 0
561 1 1 0.5897 7.414786230009465 5.6464372980370126 20.573981192852248 7 3 -1
52 1 2 -1.1794 7.159547019981729 5.172654074924738 17.363852356561452 -3 1 -1
848 1 1 0.5897 4.792246182683292 4.187918703681462 18.689322619472033 6 5 -2
559 1 2 -1.1794 7.4417614787677735 6.599372715732634 20.4873360105463 7 3 -1
496 1 2 -1.1794 6.373440362467789 2.6920182097695635 18.35763887375711 4 2 2
202 1 2 -1.1794 7.092945888096645 3.9545131862372433 21.292622659950915 2 4 0
801 1 1 0.5897 4.252270337536666 6.658402903306681 19.09640213442233 0 0 6
847 1 2 -1.1794 3.952667298028618 4.642243979707635 18.760176423970343 6 5 -2
402 1 1 0.5897 2.2939228883409446 3.7414093904928185 21.116516908718467 0 -1 2
53 1 1 0.5897 8.115775523623741 5.1305177569032345 17.37686422768711 -3 1 -1
54 1 1 0.5897 6.962244144084506 6.0324177440752615 16.992108412946223 -3 1 -1
560 1 1 0.5897 7.66064372769303 6.750662700807679 19.56781176169672 7 3 -1
459 1 1 0.5897 0.9516906712295095 6.441005035519327 20.89451134031389 -3 2 0
703 1 2 -1.1794 0.9806251991153245 5.928642975947012 19.35848513743521 0 1 -10
503 1 1 0.5897 4.898091590037622 6.643023559016435 21.236402054733244 -1 -1 4
705 1 1 0.5897 1.4037703107000916 6.490519091725462 18.70920620367453 0 1 -10
838 1 2 -1.1794 3.497474307461686 2.317908731559117 17.25898540524105 -2 0 -2
839 1 1 0.5897 2.778580164366055 2.3210020021566997 16.626922956761923 -2 0 -2
400 1 2 -1.1794 3.1715841799542415 3.9993242724139693 21.398488130030717 0 -1 2
704 1 1 0.5897 0.9645122496502738 5.0621537291686955 18.951970704771927 0 1 -10
401 1 1 0.5897 3.6773330264587716 3.1867362424932577 21.382357178641634 0 -1 2
764 1 1 0.5897 1.653975402450754 10.317493053203021 3.573172226287259 -12 -3 -3
68 1 1 0.5897 5.251201619337811 9.386866044428825 1.5281795983390283 10 -6 4
674 1 1 0.5897 3.481248508765958 7.9888184502820785 4.411683309500882 -3 -3 -7
347 1 1 0.5897 8.337830117071503 8.370507660226377 4.805600583553935 -2 1 -3
47 1 1 0.5897 6.047693737941463 7.421294199982522 3.859946589071707 1 -5 2
395 1 1 0.5897 1.9251338885433058 10.534385395639022 1.0349027101521973 4 1 -3
673 1 2 -1.1794 4.307198817369922 8.450528757046593 4.556409680718955 -3 -3 -7
581 1 1 0.5897 3.447850659756703 10.156880725285838 5.400340102869475 3 2 4
763 1 2 -1.1794 1.3308694850025853 9.816074704761194 4.321834728149093 -12 -3 -3
675 1 1 0.5897 4.4272819422100955 8.980338328202297 3.76825098680269 -3 -3 -7
67 1 2 -1.1794 4.441375882071554 9.47897648505753 2.0301934309408605 10 -6 4
346 1 2 -1.1794 9.0872639684642 8.666872497115968 4.28898107817238 -2 1 -3
46 1 2 -1.1794 6.677470908206706 7.077589974232235 3.226259458642233 1 -5 2
575 1 1 0.5897 8.333195836342874 9.763686298045275 3.07821854662519 1 2 0
473 1 1 0.5897 4.375895550285815 11.222431826672004 1.6758420288164184 2 -2 -4
8 1 1 0.5897 6.682669344451244 8.894180072578045 5.893338508424601 8 4 0
82 1 2 -1.1794 6.417819578750779 10.539915070459735 5.342851160512283 -6 3 -4
394 1 2 -1.1794 1.7474917272765782 11.136408921310451 1.757623940820983 4 1 -3
83 1 1 0.5897 5.490253628886909 10.708380373208993 5.508905327253951 -6 3 -4
574 1 2 -1.1794 7.919845865373264 10.412816510014467 2.508932668016528 1 2 0
576 1 1 0.5897 7.585514085704302 9.90525691174494 1.7693936932430308 1 2 0
84 1 1 0.5897 6.878558093124399 11.189585544811694 5.873875586163824 -6 3 -4
69 1 1 0.5897 3.7453409014835275 9.300317674433185 1.397792885378752 10 -6 4
197 1 1 0.5897 7.267437021904996 9.606738743539228 10.000074025402398 -2 -2 -5
420 1 1 0.5897 1.641470188795029 10.859341272742434 9.669819378231384 -7 -5 6
7 1 2 -1.1794 6.8939439686781965 7.970717642509919 6.030782543244695 8 4 0
405 1 1 0.5897 1.3631474566860509 7.489301918580402 7.717471958426527 9 -2 -4
9 1 1 0.5897 6.047229178251994 7.550841148813705 6.182731081616637 8 4 0
105 1 1 0.5897 3.1765974524210345 9.034141927418434 10.684959461400384 9 -3 1
403 1 2 -1.1794 2.1917147797449195 7.180659669382053 8.084269829793994 9 -2 -4
592 1 2 -1.1794 8.81329472269604 8.559994086776348 8.07489987452969 -5 2 -6
145 1 2 -1.1794 6.969589631933602 8.111536251689571 10.850214021400262 -2 3 -5
594 1 1 0.5897 8.656940492542299 9.390911455725824 8.523721430239537 -5 2 -6
196 1 2 -1.1794 7.072184438064768 10.29743345008199 9.366683737994054 -2 -2 -5
95 1 1 0.5897 8.70948681776274 6.924313487957249 8.310390825184781 -6 -3 -3
736 1 2 -1.1794 4.761878647330896 9.470716849772502 8.28411156185263 1 2 -2
593 1 1 0.5897 8.056114754963524 8.451942392021461 7.499298882587833 -5 2 -6
737 1 1 0.5897 5.5481055277645135 9.78420589264338 8.731218950605438 1 2 -2
147 1 1 0.5897 6.857290982853165 7.415829339201578 10.20233002399427 -2 3 -5
104 1 1 0.5897 2.340511899596306 8.538803971828155 9.524053515124839 9 -3 1
738 1 1 0.5897 4.08463880585667 9.471558816388113 8.960662869505645 1 2 -2
198 1 1 0.5897 6.719698009475862 11.014203288477718 9.894237776137158 -2 -2 -5
582 1 1 0.5897 3.9576283500172336 10.329580226631231 6.815415599867276 3 2 4
103 1 2 -1.1794 2.546457810680608 9.32705897906256 10.026598574622659 9 -3 1
580 1 2 -1.1794 3.7295026811009273 10.82298073944225 6.027486033046221 3 2 4
418 1 2 -1.1794 1.1976946870616025 11.706388619128845 9.713366860114174 -7 -5 6
245 1 1 0.5897 7.560338945423614 11.556130466956208 7.869512275828015 -8 5 3
549 1 1 0.5897 8.682587826012801 7.321952518020736 15.3527543692786 12 0 0
127 1 2 -1.1794 2.5194110016084985 9.381277271896039 14.334682302767566 -6 2 -9
129 1 1 0.5897 1.5779800222806193 9.553921418642936 14.349864134196917 -6 2 -9
235 1 2 -1.1794 7.125297348916539 7.191030940174386 14.438582266525428 -6 -5 -5
327 1 1 0.5897 4.777317944697853 11.514658440130868 11.683021651136508 -2 4 0
237 1 1 0.5897 6.656905350045985 7.964732449227616 14.124984771886558 -6 -5 -5
644 1 1 0.5897 4.100808246048444 7.786196025747173 11.98693166212142 2 -4 -5
398 1 1 0.5897 5.279797338808246 9.290289209197208 13.305891857812814 9 0 -3
30 1 1 0.5897 8.23747068792975 10.33958683575305 15.888000345815179 -6 1 6
643 1 2 -1.1794 4.330746141421446 8.707817379326729 11.868313099529155 2 -4 -5
690 1 1 0.5897 9.055966809817427 11.201751985446824 12.385228160016705 0 0 6
128 1 1 0.5897 2.8208429003453133 9.617201342745716 15.212063377860094 -6 2 -9
399 1 1 0.5897 6.6347065751042935 9.961676142960041 13.38065608721315 9 0 -3
578 1 1 0.5897 3.390586330565317 10.841636758180881 13.137331857782925 4 4 -3
387 1 1 0.5897 2.0800441099963507 7.259065167195511 14.264390962277444 -9 5 2
688 1 2 -1.1794 8.099790122216092 11.166102537475469 12.413943879552965 0 0 6
397 1 2 -1.1794 5.992981018388727 9.490531951029476 13.912192438980522 9 0 -3
577 1 2 -1.1794 3.5642759330703013 11.781137616248685 13.196381182364945 4 4 -3
645 1 1 0.5897 5.201479825802452 8.688741911468469 11.471090656716393 2 -4 -5
29 1 1 0.5897 6.72852492368405 10.461046001343977 15.865039293239004 -6 1 6
146 1 1 0.5897 7.772456333851591 7.87809332532718 11.316358959642061 -2 3 -5
1 1 2 -1.1794 2.13110015029217 7.344213492204034 17.478943418587054 1 -6 5
19 1 2 -1.1794 6.235681086077582 7.871332006495489 17.427774439375725 0 -7 4
138 1 1 0.5897 4.387926642222772 10.045864308960654 18.68551857903097 11 -12 -2
137 1 1 0.5897 4.110153130214595 10.944396209549957 19.871934460348772 11 -12 -2
728 1 1 0.5897 3.1248247815171943 8.357025643441043 20.193438219751584 -6 -2 2
727 1 2 -1.1794 2.4993899363466543 8.817995074523854 20.75260139536531 -6 -2 2
136 1 2 -1.1794 4.824872348420514 10.550113930765923 19.371904298433755 11 -12 -2
707 1 1 0.5897 0.691515193527899 11.20904802530595 16.323015274662083 -4 -2 -7
271 1 2 -1.1794 6.913799592643878 9.176224930482551 21.072249029859226 -3 3 5
802 1 2 -1.1794 3.476186496311034 9.5932318867229 16.896288328997162 6 1 -3
3 1 1 0.5897 1.2854780163214814 7.363229192477629 17.0307226860262 1 -6 5
729 1 1 0.5897 1.9588512252574926 8.124327092611274 21.13070835146173 -6 -2 2
800 1 1 0.5897 5.3472344238631955 7.700967277403153 19.01713407763191 0 0 6
803 1 1 0.5897 2.800018258054196 10.26239693750983 17.002748650737473 6 1 -3
273 1 1 0.5897 7.064774118638769 8.250146790892508 20.88267254170805 -3 3 5
20 1 1 0.5897 5.4813525779238566 7.638128207523243 16.886555069199026 0 -7 3
804 1 1 0.5897 3.0249192523762347 8.766639815728835 17.067848259708533 6 1 -3
21 1 1 0.5897 6.498238558367958 8.736553456032073 17.113501285305297 0 -7 4
272 1 1 0.5897 6.456128616733428 9.507871037030922 20.29966591983443 -3 3 5
799 1 2 -1.1794 4.60503186202466 7.421946267440914 19.55345627032417 0 0 6
28 1 2 -1.1794 7.454561963894173 10.14646568718614 16.40383419738949 -6 1 6
706 1 2 -1.1794 1.4211242314128472 11.580420137670833 16.81910028754691 -4 -2 -7
782 1 1 0.5897 6.348028598302737 11.60481181370069 18.88797722991154 -12 2 -1
795 1 1 0.5897 8.497696239303693 10.830436263026645 18.757850576516493 -5 3 2
712 1 2 -1.1794 1.065380141247159 15.784695371762163 3.876664054262773 -4 1 -1
607 1 2 -1.1794 8.799792242589799 15.580624555016225 4.517397593469688 6 -4 5
376 1 2 -1.1794 2.07020966398109 12.89244822290719 4.121614924022867 8 8 2
474 1 1 0.5897 4.798755925828837 12.573815570183077 2.2116271177675793 2 -2 -4
658 1 2 -1.1794 4.154679315922616 14.769720990637383 3.6422041237065113 0 -1 -2
659 1 1 0.5897 3.9138728896574446 15.328382484437846 4.381291018721246 0 -1 -2
852 1 1 0.5897 8.700711821566927 12.462564457125177 3.6106639510672496 -12 0 -4
513 1 1 0.5897 7.4554236067713555 15.546220087635747 2.334317743197409 7 3 4
377 1 1 0.5897 2.5812499705111582 12.218918224796981 4.570521813305581 8 8 2
512 1 1 0.5897 6.140338611024337 15.264168029454742 1.63926288638417 7 3 4
261 1 1 0.5897 7.026087468032265 11.871507778202378 3.035517113697793 7 -2 9
507 1 1 0.5897 5.733736797183774 14.165249896940871 5.423549497310675 9 1 -2
608 1 1 0.5897 7.930043000762632 15.245273292450419 4.735190662026149 6 -4 5
855 1 1 0.5897 2.0263938040285705 15.745249936724678 2.251520397290542 -1 4 3
660 1 1 0.5897 4.9268627720229965 15.190941961176303 3.2645485396293297 0 -1 -2
222 1 1 0.5897 7.78894060822547 12.859275264598386 1.2183978104637063 -1 -4 2
853 1 2 -1.1794 2.2298896650994964 15.663764934401218 1.319693799046779 -1 4 3
378 1 1 0.5897 2.7254027196552735 13.485766907769316 3.75418211200737 8 8 2
505 1 2 -1.1794 6.674638390584346 14.12156652826803 5.252941912365996 9 1 -2
511 1 2 -1.1794 6.528865661823613 15.786567488279557 2.3410168484129232 7 3 4
260 1 1 0.5897 6.431201688118359 13.119005470279161 3.6535769134724045 7 -2 9
259 1 2 -1.1794 6.70130768898847 12.744565149677053 2.8150319636590853 7 -2 9
472 1 2 -1.1794 4.291430820722454 12.161795490081786 1.5122123993020624 2 -2 -4
713 1 1 0.5897 1.6953353572662468 16.20867076888809 4.459531647673911 -4 1 -1
179 1 1 0.5897 3.8475815422264183 15.058861224353713 0.8207348493172395 -16 0 -5
396 1 1 0.5897 2.4061466445323423 11.824692283497285 1.6640615538849715 4 1 -4
609 1 1 0.5897 9.016215276404205 16.17237402026488 5.238026189099076 6 -4 5
854 1 1 0.5897 1.617498263668232 15.002471928317597 0.9972287904815 -1 4 3
714 1 1 0.5897 1.090791854262406 14.861058238703977 4.126886838428375 -4 1 -1
433 1 2 -1.1794 5.932602612349364 14.19195196487228 8.920594613418736 4 4 -7
476 1 1 0.5897 8.967170030946562 15.095572794550888 7.569630313777187 3 -4 -5
516 1 1 0.5897 7.516625614142373 13.7470237087855 9.86094486207802 -4 -3 3
651 1 1 0.5897 2.5993534566638976 13.05210195000667 10.223600965035143 5 -1 -3
649 1 2 -1.1794 3.2784732102783005 13.69312314097962 10.433837426867907 5 -1 -3
356 1 1 0.5897 3.5173817277269306 14.434740939827316 7.054614420960354 9 2 1
355 1 2 -1.1794 4.227678796462879 14.029811947156682 6.556789931560635 9 2 1
263 1 1 0.5897 1.7086811975006937 15.977956642520311 7.862353281661003 2 2 2
246 1 1 0.5897 8.479474985194965 12.649360561812914 7.367333888397982 -8 5 3
326 1 1 0.5897 4.894337911705947 12.591736998401117 10.625524721416447 -2 4 0
357 1 1 0.5897 4.10758437758796 13.089368935732294 6.688926602059531 9 2 1
264 1 1 0.5897 2.3535076296628277 15.108174784786494 8.920554031281235 2 2 2
200 1 1 0.5897 5.955948018863526 16.61586976683536 10.722856295722712 2 -11 -2
435 1 1 0.5897 5.372840623973062 14.043025401877241 8.158481946434886 4 4 -7
166 1 2 -1.1794 7.391050644226783 16.179469058061045 7.776820522177514 2 -2 4
110 1 1 0.5897 1.1341947597922277 14.197248406977618 7.046643153643774 -5 3 -15
262 1 2 -1.1794 2.237063322180638 15.187563448935471 7.973739888616743 2 2 2
168 1 1 0.5897 6.722242889230922 15.647094819805918 8.2076307669924 2 -2 4
434 1 1 0.5897 5.435100959703359 14.798745245182237 9.468869082374175 4 4 -7
244 1 2 -1.1794 7.6333876562156995 12.234765436196653 7.198326434606645 -8 5 3
515 1 1 0.5897 8.71996908689485 12.842285835251387 10.020847842546429 -4 -3 3
514 1 2 -1.1794 8.19079273007075 13.487977897780207 10.489220953747488 -4 -3 3
167 1 1 0.5897 6.9526709288957775 16.53667149217834 7.004447192023222 2 -2 4
419 1 1 0.5897 1.1363558353659666 11.992342153033672 8.80188885198316 -7 -5 6
199 1 2 -1.1794 5.300131220711216 15.941648074173251 10.900742900561411 2 -11 -2
201 1 1 0.5897 4.489069628325885 16.4285073039471 11.047314036914145 2 -11 -2
506 1 1 0.5897 7.025859996587115 13.60225302842756 5.976316707188123 9 1 -2
111 1 1 0.5897 1.1501717863055796 13.131351896124983 5.971597434680117 -5 3 -15
554 1 1 0.5897 5.03047770879686 14.857642002101194 14.5026738596334 -3 -6 4
33 1 1 0.5897 8.227610162846414 14.993000848492917 11.691590423545236 3 6 3
826 1 2 -1.1794 2.5185383843225 14.020492705339747 16.033109525774982 -7 5 6
71 1 1 0.5897 5.571668408667519 13.25938625016158 12.53677269542915 13 -2 -2
309 1 1 0.5897 2.504964012634317 14.536622852141349 13.701218548520243 3 1 -4
629 1 1 0.5897 3.433122499901015 16.52320308987685 15.164993964732165 -2 0 2
70 1 2 -1.1794 5.665034795532086 14.135323595376306 12.911428101773547 13 -2 -2
217 1 2 -1.1794 7.561965371848927 12.930929314023274 14.575662706998468 8 -1 2
72 1 1 0.5897 5.4509658214118994 14.728449745025422 12.19121109222398 13 -2 -2
555 1 1 0.5897 5.653954281889673 15.221608262498595 15.833428130550475 -3 -6 4
218 1 1 0.5897 7.7655637198403555 12.268427186006004 13.91539584383775 8 -1 2
650 1 1 0.5897 3.063346049913259 13.989349310974891 11.318312884348614 5 -1 -3
306 1 1 0.5897 6.002909000725723 12.261785416879608 15.263018142694305 11 -4 -11
669 1 1 0.5897 1.8755115930077917 12.16492545257065 13.046370164160322 -4 -4 -3
553 1 2 -1.1794 4.840276542048007 15.292120339541219 15.334158798637022 -3 -6 4
324 1 1 0.5897 7.75895447025031 16.477558312250807 13.583400193477033 6 2 1
31 1 2 -1.1794 8.745467561564922 15.544800963820025 12.277808439051043 3 6 3
667 1 2 -1.1794 0.9418342533728591 12.143317304191289 12.836391969682184 -4 -4 -3
219 1 1 0.5897 7.075435881693536 13.603409493972027 14.098827848039418 8 -1 2
308 1 1 0.5897 1.8945577338139699 15.72831307191379 12.994496945541336 3 1 -4
752 1 1 0.5897 8.473202237056775 12.891167409784812 16.027187845078128 1 -8 0
307 1 2 -1.1794 2.538689955016391 15.029302456429294 12.881181824289744 3 1 -4
827 1 1 0.5897 3.428861436244479 14.31574427315177 16.011869839815553 -7 5 6
304 1 2 -1.1794 5.199763536006684 11.849268813928624 15.581023328296679 11 -4 -11
579 1 1 0.5897 3.97793703903247 11.895411834821953 14.052033683724247 4 4 -3
323 1 1 0.5897 6.886060815021759 16.493290446398376 14.820323090679816 6 2 1
689 1 1 0.5897 7.815769233751012 11.876655701325209 11.838828687690071 0 0 6
708 1 1 0.5897 1.8310215432899222 12.200048099995197 16.21548076859652 -4 -2 -7
325 1 2 -1.1794 5.410005179575874 11.945772940595182 11.108395781839288 -2 4 0
333 1 1 0.5897 7.499047286006062 14.979369404759463 20.260064222933558 2 -7 -3
64 1 2 -1.1794 4.202266510087199 15.914655655845895 18.78016246810881 -4 3 -1
783 1 1 0.5897 7.239299096540905 12.486801931121516 19.736410363501424 -12 2 -1
180 1 1 0.5897 4.457225376140768 13.760788659590512 20.966200106728095 -16 0 -6
425 1 1 0.5897 4.312615472775612 14.112704652526237 18.387428020088976 15 3 1
178 1 2 -1.1794 4.647615546290309 14.692646190332544 21.07442705635413 -16 0 -6
585 1 1 0.5897 1.755752807609073 11.9653681251951 18.571958912534924 0 -7 -1
331 1 2 -1.1794 7.629738778550676 15.709921966561666 19.65546847353817 2 -7 -3
584 1 1 0.5897 3.1965358671166784 12.365226333098866 18.80935880023919 0 -7 -1
780 1 1 0.5897 7.9477063757715385 15.60229290637529 16.51268477431848 -3 4 5
65 1 1 0.5897 3.2889120134757137 16.198983825856615 18.744550342007052 -4 3 -1
426 1 1 0.5897 5.5704476334681665 13.343781278395717 18.04288851929386 15 2 1
332 1 1 0.5897 7.107722309128112 16.422734961123734 20.023918834063927 2 -7 -3
779 1 1 0.5897 7.188138483920216 15.508025255699168 17.818934321503285 -3 4 5
66 1 1 0.5897 4.3354188477902635 15.64829651702065 19.689913152420306 -4 3 -1
583 1 2 -1.1794 2.381300328543836 12.1637673547438 19.26883871086306 0 -7 -1
424 1 2 -1.1794 4.616091328830555 13.26986671969662 18.050029981582057 15 3 1
131 1 1 0.5897 1.3107012043219655 13.0387864290688 20.301151668821813 -1 1 -3
778 1 2 -1.1794 7.070955316962738 15.46105043673778 16.87004083519478 -3 4 5
781 1 2 -1.1794 7.116526183500875 12.173549086851306 18.840243494624275 -12 2 -1
753 1 1 0.5897 8.576512673049201 12.524304152271615 17.492416231400814 1 -8 0
305 1 1 0.5897 4.9223969192758945 12.398019708594786 16.31469559208728 11 -4 -11
221 1 1 0.5897 8.921203362358552 13.110889689436293 20.876108135153185 -1 -4 1
828 1 1 0.5897 2.149662515342881 14.435814892814088 16.812699420121525 -7 5 6
220 1 2 -1.1794 8.048582552033169 13.420783754638475 21.118665291489343 -1 -4 1
815 1 1 0.5897 6.006782017521096 17.648209801379807 2.5274710603982795 0 6 -6
601 1 2 -1.1794 2.150342080234127 18.74032170995568 3.801603901467711 9 2 1
486 1 1 0.5897 6.002808095832846 18.317354198127045 4.316143911581212 -4 5 -2
427 1 2 -1.1794 3.8530940976879258 20.59971854235619 2.905746945115843 2 -1 0
602 1 1 0.5897 1.6618267565964369 19.249967208617804 4.44810508632454 9 2 0
429 1 1 0.5897 3.282684525834498 21.33839299113192 3.118712486805311 2 -1 0
814 1 2 -1.1794 5.8926752304522285 18.59496042591216 2.61113602094701 0 6 -6
162 1 1 0.5897 7.525460545297881 20.694658848501895 4.731006704483882 4 5 0
603 1 1 0.5897 2.8416646186372714 19.33118693696316 3.5028303973489296 9 2 1
861 1 1 0.5897 2.950002905166204 17.68892920495209 4.880843268751867 -4 0 6
859 1 2 -1.1794 3.394272468749192 16.93855949026785 5.275701157813242 -4 0 6
832 1 2 -1.1794 3.4414016903224085 18.15664995824254 0.8128515846476625 8 -7 -3
573 1 1 0.5897 7.218756478087465 20.19287705381528 2.1147256473413556 6 1 -1
816 1 1 0.5897 5.094701594880248 18.78505362092354 2.1177399420450023 0 6 -6
428 1 1 0.5897 4.587836045903185 20.680735699660044 3.513942218003546 2 -1 0
571 1 2 -1.1794 7.920625673880692 20.763802119867343 1.8020740148880434 6 1 -1
829 1 2 -1.1794 5.7691860113222635 21.597933621388474 4.583135176921067 5 7 -1
160 1 2 -1.1794 8.261106117093455 20.182599528111922 5.067061764997298 4 5 0
572 1 1 0.5897 8.723774113172334 20.356808442310346 2.1270691463764884 6 1 -1
830 1 1 0.5897 5.1444957311358035 21.691460182107186 5.302399003122398 5 7 -1
484 1 2 -1.1794 5.943145853222131 17.813745001432896 5.128045357238622 -4 5 -2
287 1 1 0.5897 4.598533438470525 21.316839565696945 1.4908983220054377 3 2 1
485 1 1 0.5897 5.062342819329331 17.43914821356187 5.1138978669610475 -4 5 -2
161 1 1 0.5897 8.534250192933847 20.64600768078466 5.858870471169482 4 5 0
834 1 1 0.5897 3.109472219164191 17.263629039283842 0.9059010572043267 8 -7 -3
740 1 1 0.5897 7.277421205722545 17.33578986325358 9.214446626588922 1 2 4
120 1 1 0.5897 6.497756228996726 19.924026244017373 7.7077856086033085 8 -4 -2
741 1 1 0.5897 8.32742889927961 17.457884327520127 10.298274836612924 1 2 4
739 1 2 -1.1794 7.431513802155937 17.71472044847445 10.079891572526863 1 2 4
115 1 2 -1.1794 7.933393970925775 20.558001304145513 8.423600801065827 -8 1 4
536 1 1 0.5897 1.3581878389237412 18.923942635208373 6.525758849423858 8 4 8
537 1 1 0.5897 2.108239105951224 20.18127580085863 6.140187513056076 8 4 8
454 1 2 -1.1794 4.415011279758758 17.088199232853555 8.070773033997458 6 -2 2
117 1 1 0.5897 7.9413219590884685 21.07337761153895 9.230231844748575 -8 1 4
535 1 2 -1.1794 1.2535047243753448 19.756775522145567 6.065482993073271 8 4 8
620 1 1 0.5897 4.0176680114331695 20.516482792183666 6.827079071261218 -1 -3 5
119 1 1 0.5897 6.001846901597668 19.183915346182296 6.483687843603321 8 -4 -2
118 1 2 -1.1794 5.715151096983311 19.51986591162136 7.332957251353995 8 -4 -2
456 1 1 0.5897 5.026054514837846 17.762833436698976 7.774438252700459 6 -2 2
455 1 1 0.5897 3.82515997537973 17.545294161948892 8.670330044528315 6 -2 2
755 1 1 0.5897 3.2191752378102607 20.449843106237914 9.036432451285936 -6 -5 -2
234 1 1 0.5897 6.3056950865102355 18.975132035425684 10.886238473364603 -4 -1 1
756 1 1 0.5897 2.577448883759866 19.11699236637111 9.358605534316071 -6 -5 -2
185 1 1 0.5897 4.671214480944458 20.98202607004888 10.365708714262366 -6 -2 2
619 1 2 -1.1794 3.6254294827462403 21.076401696405306 6.157035075604559 -1 -3 5
43 1 2 -1.1794 0.7203548574028685 17.375742461897563 7.315661640643562 -1 6 -1
754 1 2 -1.1794 2.5815051434552405 19.817092334329452 8.705796073359583 -6 -5 -2
633 1 1 0.5897 2.0583508861499933 17.55691489601797 10.575701344237055 11 9 4
631 1 2 -1.1794 2.9760826662472155 17.829099354298165 10.56910138938142 11 9 4
116 1 1 0.5897 8.486843848590294 19.80124160001826 8.616859904262764 -8 1 4
860 1 1 0.5897 3.470405100379644 17.165220532494544 6.202615275216536 -4 0 6
184 1 2 -1.1794 4.2128309880379575 21.66830626987518 9.88071385131215 -6 -2 2
761 1 1 0.5897 0.8384807763107753 20.83501598933974 9.117607657087651 1 1 -1
813 1 1 0.5897 6.4937383398588775 21.165075652703266 12.286412190271102 -4 7 4
567 1 1 0.5897 5.306249657803626 20.600696471752826 15.53527795877666 -3 2 -7
36 1 1 0.5897 5.251729371060817 18.065984604423953 13.479081993065934 1 -1 -3
661 1 2 -1.1794 2.1758581778287414 20.101725505349233 12.179878247585364 -7 -5 6
662 1 1 0.5897 2.718371244436499 20.794454527540243 12.556883445765763 -7 -5 6
494 1 1 0.5897 2.296354317713913 18.729478831651736 15.850141396927176 3 -5 1
566 1 1 0.5897 4.486305153819039 19.727113278302973 14.609716108065903 -3 2 -7
797 1 1 0.5897 8.085528464557346 19.975308507712985 14.69807796483926 -5 -3 -8