#include		in.partitions
include		in.temp
variable        temperature equal 277.96
variable	tempDamp equal 100.0
include		in.pressure
variable        pressure equal -1500.0
variable        pressureDamp equal 1000.0 # This is 1 ps
include		in.seed
variable        seed equal 745823

units		real
atom_style	full
read_restart	restart.lmp.${pid}
read_restart	restart.lmp.1
Reading restart file ...
  restart file = 30 Jul 2021, LAMMPS = 30 Jul 2021
  restoring atom style full from restart
  orthogonal box = (-0.30542995 0.73177513 -0.37262383) to (18.513002 22.897403 22.585820)
  2 by 2 by 4 MPI processor grid
  restoring pair style lj/cut/tip4p/long/omp from restart
  restoring bond style harmonic/omp from restart
  restoring angle style harmonic/omp from restart
  864 atoms
  576 bonds
  288 angles
Finding 1-2 1-3 1-4 neighbors ...
  special bond factors lj:    0        0        0       
  special bond factors coul:  0        0        0       
     2 = max # of 1-2 neighbors
     1 = max # of 1-3 neighbors
     1 = max # of 1-4 neighbors
     2 = max # of special neighbors
  special bonds CPU = 0.001 seconds
  read_restart CPU = 0.006 seconds
include 	in.setup
variable	out_freq equal 1000
variable	out_freq2 equal 10000
variable	out_freq3 equal 1000

timestep	2.0

neigh_modify    delay 7 every 1

include		in.tip4p
# This is TIP4P/Ice

# create groups ###
group ox type 2
288 atoms in group ox
group hy type 1
576 atoms in group hy

# set charges - beside manually ###
set group ox charge -1.1794
Setting atom values ...
  288 settings made for charge
set group hy charge 0.5897
Setting atom values ...
  576 settings made for charge

# ### TIP3P Potential Parameters ###
pair_style lj/cut/tip4p/long/omp 2 1 1 1 0.1577 8.5
pair_coeff 1 1*2 0.000 0.000
pair_coeff 2 2 0.21084 3.1668
bond_style  harmonic
bond_coeff  1 450 0.9572
angle_style harmonic
angle_coeff 1 55 104.52
kspace_style pppm/tip4p/omp 1.0e-5
pair_modify tail yes

thermo          ${out_freq}
thermo          1000
thermo_style    custom step temp pe etotal epair emol press lx ly lz vol pxx pyy pzz pxy pxz pyz enthalpy

restart 	${out_freq3} restart.lmp.${pid} restart2.lmp.${pid}
restart 	1000 restart.lmp.${pid} restart2.lmp.${pid}
restart 	1000 restart.lmp.1 restart2.lmp.${pid}
restart 	1000 restart.lmp.1 restart2.lmp.1


include         in.dump
dump            myDump all atom ${out_freq2} dump.water.${pid}
dump            myDump all atom 10000 dump.water.${pid}
dump            myDump all atom 10000 dump.water.1
dump            myDump2 all dcd ${out_freq2} dump.dcd
dump            myDump2 all dcd 10000 dump.dcd
dump_modify     myDump append yes
dump_modify     myDump2 append yes


variable natoms 	equal  "count(all)"                        # NUMBER ATOMS
variable H      	equal  "enthalpy/v_natoms"                 # ENTHALPY-per-atom
variable Vol      	equal  "vol/v_natoms"                 # volume-per-atom
fix AVG all 		ave/time ${out_freq} 1 ${out_freq} v_Vol v_H file vol_enthalpy.dat
fix AVG all 		ave/time 1000 1 ${out_freq} v_Vol v_H file vol_enthalpy.dat
fix AVG all 		ave/time 1000 1 1000 v_Vol v_H file vol_enthalpy.dat


timer           timeout 23:50:00 every 1000
New timer settings: style=normal  mode=nosync  timeout=23:50:00

fix 		1 all shake 1e-6 200 0 b 1 a 1
       0 = # of size 2 clusters
       0 = # of size 3 clusters
       0 = # of size 4 clusters
     288 = # of frozen angles
  find clusters CPU = 0.000 seconds
fix             2 all nph iso ${pressure} ${pressure} ${pressureDamp}
fix             2 all nph iso -1500 ${pressure} ${pressureDamp}
fix             2 all nph iso -1500 -1500 ${pressureDamp}
fix             2 all nph iso -1500 -1500 1000
fix             3 all temp/csvr ${temperature} ${temperature} ${tempDamp} ${seed}
fix             3 all temp/csvr 277.96 ${temperature} ${tempDamp} ${seed}
fix             3 all temp/csvr 277.96 277.96 ${tempDamp} ${seed}
fix             3 all temp/csvr 277.96 277.96 100 ${seed}
fix             3 all temp/csvr 277.96 277.96 100 745823

run             250000
PPPM initialization ...
  extracting TIP4P info from pair style
  using 12-bit tables for long-range coulomb (../kspace.cpp:340)
  G vector (1/distance) = 0.37118083
  grid = 24 25 27
  stencil order = 5
  estimated absolute RMS force accuracy = 0.0031969873
  estimated relative force accuracy = 9.6276323e-06
  using double precision FFTW3
  3d grid and FFT values/proc = 5700 1200
Last active /omp style is kspace_style pppm/tip4p/omp
Neighbor list info ...
  update every 1 steps, delay 7 steps, check yes
  max neighbors/atom: 2000, page size: 100000
  master list distance cutoff = 10.8154
  ghost atom cutoff = 10.8154
  binsize = 5.4077, bins = 4 5 5
  1 neighbor lists, perpetual/occasional/extra = 1 0 0
  (1) pair lj/cut/tip4p/long/omp, perpetual
      attributes: half, newton on, omp
      pair build: half/bin/newton/omp
      stencil: half/bin/3d
      bin: standard
Per MPI rank memory allocation (min/avg/max) = 12.19 | 12.21 | 12.23 Mbytes
Step Temp PotEng TotEng E_pair E_mol Press Lx Ly Lz Volume Pxx Pyy Pzz Pxy Pxz Pyz Enthalpy 
 6250000    283.00818   -3822.1106   -3337.0443   -3822.1106            0   -1662.5027    18.818432    22.165628    22.958443    9576.4801   -1370.0005   -1843.5881   -1773.9195   -398.00226   -694.30724    617.17703   -3569.2346 
 6251000     284.5105   -3856.6554   -3369.0142   -3856.6554            0   -2945.9098     18.85736    22.211479    23.005935     9636.033   -2402.8696   -3079.8201   -3355.0397    55.613236   -397.76064    650.96284   -3783.0078 
 6252000    276.32656    -3840.399   -3366.7847    -3840.399            0   -790.23854    18.691914    22.016606    22.804091    9384.6246    135.08332     -2564.92    59.121125   -432.57471    -939.0974   -9.3777727   -3474.9408 
 6253000     280.2686   -3858.1645   -3377.7937   -3858.1645            0   -1508.3689    18.782262    22.123024    22.914316    9521.3668   -591.89352   -2810.7484   -1122.4648   -10.647714    1549.8517   -338.02836   -3587.2449 
 6254000    264.00562    -3854.918   -3402.4214    -3854.918            0   -1533.3329    18.659984    21.978996    22.765137    9336.6133    -3162.372   -153.83909   -1283.7875   -1109.0862    158.25952    727.48063   -3611.2076 
 6255000    271.02201   -3817.8697   -3353.3473   -3817.8697            0   -1115.8193    18.691215    22.015782    22.803239    9383.5718   -3027.4092   -1451.9862    1131.9376   -839.02016    265.12104   -168.70689   -3506.0469 
 6256000    279.46482   -3800.8773   -3321.8841   -3800.8773            0    -3132.732    18.803146    22.147623    22.939795    9553.1625   -2884.4651   -4335.5559   -2178.1751   -244.14156    746.56392    448.79362    -3758.346 
 6257000    285.61889   -3829.2032   -3339.6622   -3829.2032            0   -1461.5284    18.686989    22.010805    22.798083    9377.2086   -1114.5419   -1626.5674    -1643.476   -171.78951    855.11865   -90.774265   -3539.5364 
 6258000    280.33305    -3804.736   -3324.2548    -3804.736            0   -1691.1742    18.665815    21.985864    22.772251    9345.3691   -1659.5688   -2333.6017    -1080.352    1399.3573    425.12486    109.21976   -3554.7493 
 6259000    277.44498   -3780.2578   -3304.7266   -3780.2578            0   -604.48693    18.636817    21.951709    22.736873     9301.882   -308.19705   -1589.0041    83.740411     444.1381   -134.77572    1052.0906   -3386.7304 
 6260000    272.59114    -3778.642   -3311.4301    -3778.642            0   -2185.5062    18.742889    22.076648    22.866281    9461.6138   -2018.6668    -1729.348   -2808.5037    361.84284   -28.531259   -740.64734   -3613.0036 
 6261000    291.64046   -3847.6772   -3347.8155   -3847.6772            0   -83.168335    18.582371    21.887578    22.670449    9220.5947   -449.87478     433.3496   -232.97982    530.89319     1149.962   -20.956396   -3358.9994 
 6262000    288.04764   -3801.7534   -3308.0496   -3801.7534            0   -2096.3595    18.658811    21.977615    22.763706    9334.8537   -1981.8311   -3374.3053   -932.94203    481.08644   -1148.1032    253.61001   -3593.4464 
 6263000    284.78342   -3806.1117   -3318.0026   -3806.1117            0   -1802.4878    18.659275    21.978162    22.764272    9335.5501   -1487.6958   -1163.3105   -2756.4569   -1029.9054   -933.19597   -620.62939   -3563.4103 
 6264000    268.23296    -3826.781   -3367.0389    -3826.781            0   -1236.5436    18.605639    21.914985    22.698836     9255.276   -250.89349   -2685.1198   -773.61752   -189.16489   -179.47296     115.4538   -3533.9459 
 6265000    279.97028    -3829.866   -3350.0065    -3829.866            0   -134.45086    18.696508    22.022017    22.809697    9391.5466    1597.3302    39.654511   -2040.3373   -546.15743     328.4399   -157.58153   -3368.4217 
 6266000    271.42285   -3820.0382   -3354.8288   -3820.0382            0   -2895.0365    18.805926    22.150896    22.943185    9557.3995   -3495.0709   -2892.2248   -2297.8138    1306.3809   -135.83319   -256.24889   -3758.3531 
 6267000    287.35625   -3851.4733   -3358.9545   -3851.4733            0   -1076.0591    18.696579    22.022101    22.809783    9391.6537   -561.26197   -2326.4405   -340.47471   -276.72449    557.27578   -907.99195   -3506.3398 
 6268000    261.52558   -3841.8006   -3393.5547   -3841.8006            0   -486.07537    18.620589    21.932594    22.717074    9277.6033   -854.07672   -1011.6071    407.45775   -122.40465   -20.089417   -15.658262   -3459.3228 
 6269000    274.95619    -3839.669   -3368.4035    -3839.669            0   -1358.3083    18.667993     21.98843    22.774908    9348.6416   -2731.2814   -702.18475   -641.45872   -347.22421    1620.1707    163.39593   -3553.5958 
 6270000    274.04654   -3842.0059   -3372.2995   -3842.0059            0   -1895.9168    18.673309    21.994692    22.781394    9356.6303   -1381.3103   -3102.9342   -1203.5058   -444.06031    -871.1299    -910.8504   -3631.0103 
 6271000    269.61889    -3817.409   -3355.2915    -3817.409            0   -787.07081    18.679682    22.002198    22.789168    9366.2126     -449.395   -307.43064   -1604.3868    59.366051    -570.0756   -119.83843   -3462.8027 
 6272000    279.28968   -3799.4699   -3320.7769   -3799.4699            0    -694.5402    18.668038    21.988483    22.774963    9348.7091   -1389.9243    266.94678   -960.64308    668.39812   -284.30988    989.68245   -3415.4715 
 6273000    266.59667   -3812.8648   -3355.9272   -3812.8648            0   -2019.3968    18.709293    22.037076    22.825294    9410.8257   -1251.5073   -2662.3245   -2144.3586   -123.59452    1041.9785   -803.25905   -3633.0839 
 6274000    293.63586   -3765.7831   -3262.5013   -3765.7831            0   -3418.6853    18.805978    22.150958    22.943249    9557.4794   -3659.6124   -3344.3791   -3252.0645   -445.96623    40.827763   -1096.8193   -3739.0183 
 6275000    281.07675   -3815.9235   -3334.1676   -3815.9235            0   -405.38471    18.594697    21.902097    22.685487    9238.9566   -603.26332    790.98405   -1403.8749    357.96533   -572.55103   -1073.8036   -3388.7894 
 6276000    294.60711    -3824.487   -3319.5405    -3824.487            0   -2266.9147    18.635291    21.949911    22.735011    9299.5965   -1179.9326   -2737.6772   -2883.1342   -261.47412   -114.15384    54.689789    -3626.991 
 6277000    288.86551   -3828.7901   -3333.6845   -3828.7901            0   -1120.4512    18.706408    22.033677    22.821774    9406.4721   -921.47836   -1310.7654   -1129.1097    1046.4311   -530.52518    217.48503   -3487.3922 
 6278000    275.05425   -3851.7028   -3380.2692   -3851.7028            0   -2179.4787     18.68185    22.004752    22.791814    9369.4752    -2968.731   -1226.9715   -2342.7336   -222.50724   -1149.5494    978.36602   -3678.0823 
 6279000    268.68534   -3861.1175      -3400.6   -3861.1175            0    -2026.311    18.699246    22.025242    22.813037    9395.6728   -2500.0062   -2126.5564   -1452.3705   -288.03252   -1013.0594    -938.5874   -3678.2578 
 6280000    285.87274   -3826.2802   -3336.3041   -3826.2802            0   -839.81693    18.758279    22.094775    22.885057    9484.9402   -1249.9387   -1039.8062   -229.70596    373.58631     321.7992    421.87697   -3452.4744 
 6281000    290.11821   -3818.7495   -3321.4968   -3818.7495            0   -2428.2455    18.793593    22.136371     22.92814    9538.6096   -2961.6062   -930.20551   -3392.9249    490.37842   -38.754494   -1158.6936   -3659.2921 
 6282000    272.71948   -3809.7443   -3342.3124   -3809.7443            0   -1503.3444    18.721363    22.051293    22.840019    9429.0512   -2273.1197   -578.05264   -1658.8609   -651.80967    312.14655    -676.5762   -3549.0419 
 6283000    285.29828   -3857.2616   -3368.2701   -3857.2616            0   -1221.0816    18.716483    22.045545    22.834066      9421.68   -2226.8282    -1704.704    268.28755   -39.696331   -335.95847   -143.88516   -3536.0535 
 6284000    274.28661   -3887.2923   -3417.1744   -3887.2923            0   -886.10158    18.732618     22.06455     22.85375    9446.0672   -623.30671   -890.64505    -1144.353    525.35261    582.89501    684.92885   -3539.2448 
 6285000    274.97016   -3908.0518   -3436.7624   -3908.0518            0   -1329.6896    18.669101    21.989735     22.77626    9350.3056    -1779.978   -598.57371   -1610.5171    457.53556    1254.9384    1288.5833    -3618.085 
 6286000    279.77121   -3883.9986   -3404.4803   -3883.9986            0   -1637.9798    18.743041    22.076827    22.866467    9461.8437   -1497.0181   -1908.9958   -1507.9254    468.64055    150.76378    502.19389   -3630.5073 
 6287000    277.98502   -3827.5569   -3351.1001   -3827.5569            0   -1481.0754    18.760964    22.097937    22.888332    9489.0127   -3025.4284    133.99065   -1551.7884   -125.07377    -27.30042    766.58874   -3556.0625 
 6288000    280.49417   -3844.6678   -3363.9104   -3844.6678            0   -1142.1291    18.713564    22.042107    22.830505    9417.2724   -1969.6159   -945.78583   -510.98571    532.00194     246.0722  -0.44513042   -3520.7719 
 6289000    280.73001    -3843.086   -3361.9243    -3843.086            0   -1265.5374    18.717276    22.046478    22.835032    9422.8763   -2169.8787   -1096.0143   -530.71916   -389.76674    658.98225   -689.56042   -3535.8383 
 6290000    281.96655   -3845.3946   -3362.1135   -3845.3946            0   -1761.6928    18.727194     22.05816    22.847132    9437.8634     -2450.12   -1235.2842   -1599.6743   -434.24307    122.89321    1169.9559   -3604.5957 
 6291000    277.21983   -3831.0109   -3355.8656   -3831.0109            0   -2012.8082    18.728892     22.06016    22.849204    9440.4308   -2274.4995   -1974.3116   -1789.6134   -206.12646   -141.13621      834.192   -3632.9871 
 6292000    277.53145   -3832.8875   -3357.2081   -3832.8875            0   -499.15169    18.649701    21.966884    22.752592    9321.1868     -334.085   -25.547185   -1137.8229   -718.33302    552.58371   -367.29287   -3425.0628 
 6293000    285.51508   -3823.0894   -3333.7263   -3823.0894            0   -1335.1908    18.731515     22.06325    22.852404     9444.398   -992.69923    -2150.431   -862.44225   -627.55842     377.3553    1027.9105   -3517.6313 
 6294000    285.36159   -3824.1018   -3335.0018   -3824.1018            0   -695.39188    18.625451    21.938322    22.723007     9284.874   -931.17307    227.95927   -1382.9619    209.88708    102.61665   -58.875429   -3429.1651 
 6295000    268.02339   -3855.6799    -3396.297   -3855.6799            0   -2693.0465    18.651443    21.968936    22.754717    9323.7985    -3159.323   -2525.1285   -2394.6881   -271.53384   -125.09252   -1387.3345   -3762.4922 
 6296000       290.28   -3823.1135   -3325.5836   -3823.1135            0   -1900.6088    18.716823    22.045945     22.83448     9422.193   -1603.5963   -2655.0089   -1443.2211   -650.65568    466.21982   -1180.3352    -3586.752 
 6297000    261.88887   -3804.9013   -3356.0328   -3804.9013            0   -787.97973    18.707341    22.034777    22.822913    9407.8808   -1043.7006   -484.88002   -835.35863    612.68269   -1738.9401   -199.52006    -3464.147 
 6298000    283.95055   -3839.3202   -3352.6387   -3839.3202            0   -833.41874    18.766805    22.104817    22.895458    9497.8787   -669.72756   -399.42384   -1431.1048    301.47174   -1296.6991    144.39868   -3468.0812 
 6299000    277.49366   -3809.6724   -3334.0578   -3809.6724            0    -1243.404    18.864488    22.219875    23.014631    9646.9633    -2855.542    347.13815   -1221.8081    1331.2017    552.19423   -522.09724   -3508.9936 
 6300000      271.526    -3852.937   -3387.5507    -3852.937            0   -478.19759    18.738578    22.071569    22.861021    9455.0855     83.11246   -967.66444    -550.0408    60.209351    275.37658    537.02537   -3453.4907 
 6301000     276.6219   -3804.4248   -3330.3043   -3804.4248            0   -1781.1139    18.857999    22.212232    23.006715    9637.0125   -526.68602   -2212.5663   -2604.0893    767.62069   -224.09326    27.617789   -3580.6326 
 6302000     273.8337   -3812.2259   -3342.8843   -3812.2259            0   -3008.3597    18.841893    22.193261    22.987065    9612.3413   -4207.3437   -2212.3576   -2605.3779    293.39534   -224.09634    238.12907   -3764.6146 
 6303000    267.46947   -3846.6076   -3388.1741   -3846.6076            0   -1029.8679    18.762295    22.099505    22.889956    9491.0328    636.39607   -1347.4837   -2378.5161   -1116.3555   -533.59908    316.53886   -3530.7253 
 6304000    274.02508   -3785.0163   -3315.3467   -3785.0163            0   -2478.8475    18.816174    22.162967    22.955688    9573.0322   -1182.6254   -3552.8184   -2701.0985    290.00563   -417.93281   -169.46689   -3661.4257 
 6305000    267.71082   -3818.3232    -3359.476   -3818.3232            0   -2447.3752    18.841143    22.192378     22.98615    9611.1936   -2582.3359   -1516.0569   -3243.7329    249.90091   -248.47838    373.36813   -3702.5232 
 6306000    282.70611   -3807.0016    -3322.453   -3807.0016            0   -2072.1511    18.886935    22.246314    23.042016    9681.4416   -3094.6085   -1239.3918   -1882.4529   -1011.2992    -501.8259    623.53351   -3615.0281 
 6307000    283.41138   -3843.4953   -3357.7379   -3843.4953            0   -2015.7963    18.874725    22.231932     23.02712     9662.677   -3136.5201   -2212.4205   -698.44837    1091.8063   -930.50612   -502.20458   -3641.8044 
 6308000    283.94109   -3849.6704   -3363.0051   -3849.6704            0   -1013.3531    18.735257    22.067658     22.85697    9450.0598   -2373.0878   -1581.3951    914.42371   -438.13249    1264.1917   -36.930978   -3502.6649 
 6309000     277.8829   -3799.1484   -3322.8666   -3799.1484            0   -1354.3129    18.772122    22.111081    22.901946    9505.9543   -2033.8696   -1957.4747   -71.594204    988.16063   -354.19107     748.3717   -3510.6212 
 6310000    267.03757   -3844.9372   -3387.2439   -3844.9372            0   -1123.0928    18.722844    22.053037    22.841826     9431.289   -1452.9746   -834.58956   -1081.7143     850.8594    340.51365    237.74252   -3541.7205 
 6311000    270.79409   -3813.8103   -3349.6786   -3813.8103            0   -242.65302    18.665754    21.985792    22.772176    9345.2773    -22.18472    168.62803   -874.40237    235.64634   -835.09683    -1300.791     -3382.75 
 6312000    279.21095    -3814.485   -3335.9269    -3814.485            0   -3071.3578    18.827457    22.176257    22.969453    9590.2642   -2598.3844   -3520.9562   -3094.7328    211.21037   -86.946761   -482.88425   -3765.4998 
 6313000    282.63033   -3798.0162   -3313.5975   -3798.0162            0   -1311.9448    18.821384    22.169104    22.962044     9580.987   -2268.7555   -788.07491   -879.00392    60.653729    1180.7715   -2543.3373    -3496.914 
 6314000    277.98953   -3842.3978   -3365.9332   -3842.3978            0     -605.322    18.708379    22.035999    22.824179    9409.4464   -42.140376   -523.83818   -1249.9875   -36.017332   -116.79718   -199.30982   -3448.9998 
 6315000    269.28939   -3893.0686   -3431.5158   -3893.0686            0   -728.05388    18.633874    21.948243    22.733283    9297.4762   -871.13078   -416.71386   -896.31701    71.406405   -763.09565    261.02702   -3530.2356 
 6316000    285.87062   -3820.4895    -3330.517   -3820.4895            0   -1653.1479    18.780988    22.121523    22.912762    9519.4291   -1973.1761   -1374.7131   -1611.5543    -240.6281   -1317.5197   -160.49839   -3560.0254 
 6317000      266.086   -3863.6235   -3407.5612   -3863.6235            0   -1060.4697    18.719529    22.049132    22.837781    9426.2798   -1544.2219   -1493.0447   -144.14253    881.05182     270.2915    1183.7404   -3553.3467 
 6318000    285.12941   -3851.3461    -3362.644   -3851.3461            0   -2498.7316    18.731905     22.06371    22.852881    9444.9891   -1656.8775   -2729.3747   -3109.9425   -920.29182   -257.70206    322.34335    -3706.833 
 6319000    278.49199   -3859.7808   -3382.4551   -3859.7808            0   -840.78269    18.658619    21.977389    22.763472    9334.5653   -1552.6624   -495.65235   -474.03329    1508.4814   -1297.4329    895.13823   -3496.9151 
 6320000    281.25502   -3818.9786   -3336.9171   -3818.9786            0   -2535.6012    18.784056    22.125137    22.916504    9524.0949   -1822.5365    -3532.377     -2251.89    1182.5619   -553.62702    459.04409     -3689.11 
 6321000    277.55114   -3842.6563   -3366.9431   -3842.6563            0   -551.44315    18.707657    22.035149    22.823298    9408.3573   -151.70041   -30.926375   -1471.7027     1038.993   -317.08282   -106.10616   -3442.6073 
 6322000    299.94178   -3809.2311   -3295.1412   -3809.2311            0   -467.30831    18.722164    22.052236    22.840997    9430.2615   -331.14193   -793.57443   -277.20856   -156.18083   -1064.3202    359.03271   -3359.4104 
 6323000    267.35031   -3871.6983    -3413.469   -3871.6983            0   -1547.4858    18.801241    22.145379    22.937471    9550.2593   -1164.7455   -1036.4265   -2441.2855   -891.20112    522.66945    -317.6719    -3629.004 
 6324000    293.72992    -3896.744   -3393.3009    -3896.744            0   -978.42587    18.735962    22.068489     22.85783    9451.1271    -1142.629    60.023544   -1852.6722    32.644935    1101.5499    596.81481   -3528.1623 
 6325000    282.97797   -3880.6143   -3395.5997   -3880.6143            0   -1074.9867    18.634645    21.949151    22.734224    9298.6305   -582.85048   -202.69947   -2439.4103    593.46217   -510.90883   -329.45647   -3541.3797 
 6326000    268.73992   -3829.7037   -3369.0927   -3829.7037            0    210.75841    18.641828    21.957611    22.742986    9309.3866   -11.482999    1422.1975   -778.43927    159.68853   -817.88917    905.53112   -3340.4785 
 6327000    272.15468   -3860.5424   -3394.0785   -3860.5424            0   -1128.3809    18.669894    21.990669    22.777227     9351.497   -1578.4583   -306.78702   -1499.8973     761.2307    262.88057   -696.03657   -3547.9694 
 6328000    301.87198   -3821.4129   -3304.0147   -3821.4129            0   -1004.8346    18.604556    21.913709    22.697514     9253.659   -785.66507   -737.19591   -1491.6429     132.9114     -428.753    641.33058   -3439.6223 
 6329000    289.15901   -3840.8134   -3345.2048   -3840.8134            0   -2703.3842    18.756174    22.092296    22.882489    9481.7469   -3245.8407   -2952.8325   -1911.4794    397.58298   -9.6930624    835.82258   -3719.0329 
 6330000    301.53959   -3834.0483   -3317.2197   -3834.0483            0   -2126.2022    18.655945    21.974239    22.760209    9330.5523   -765.64992   -3336.6791   -2276.2776   -174.48796     272.6107    1312.6772    -3606.546 
 6331000    284.41651   -3826.4382    -3338.958   -3826.4382            0   -1838.8168    18.592022    21.898946    22.682223    9234.9695   -1955.2753   -2021.1992   -1539.9761    64.897754    48.896735    501.85056   -3586.6145 
 6332000    272.60447   -3812.0626   -3344.8279   -3812.0626            0   -1514.4994    18.640118    21.955597      22.7409    9306.8251   -501.93519   -2597.4537   -1444.1094   -645.09096   -941.22743    263.17475   -3550.3916 
 6333000    277.33338   -3811.0284   -3335.6885   -3811.0284            0   -2018.2686    18.579748    21.884489    22.667249    9216.6909   -2048.1128   -1981.5555   -2025.1374    1530.3154     325.2483   -396.06445   -3606.9761 
 6334000    283.88433   -3776.9029   -3290.3349   -3776.9029            0   -677.53267     18.73105    22.062703    22.851837    9443.6949   -1289.0566   -1337.0353    593.49384   -1284.3535   -544.50504    392.48436   -3383.6492 
 6335000    280.33372   -3815.3841   -3334.9017   -3815.3841            0   -3317.1493    18.909216    22.272559    23.069199    9715.7461   -3755.4908   -3333.2497   -2862.7074    58.632255    247.99391    218.40067   -3804.9225 
 6336000    280.73321   -3836.6705   -3355.5034   -3836.6705            0   -404.83362    18.666334    21.986476    22.772884     9346.149    276.52727   -1003.9269   -487.10121    87.256659    622.40934    527.27186   -3410.6838 
 6337000    263.72762   -3810.7721    -3358.752   -3810.7721            0   -1946.9686    18.755558    22.091569    22.881737    9480.8119     -1906.54   -2205.4374   -1728.9283    478.27953   -369.29566    1276.9898   -3627.9553 
 6338000    279.06234    -3787.725   -3309.4217    -3787.725            0   -1319.8337    18.774449    22.113821    22.904783    9509.4887   -2189.6087   -139.29804   -1630.5945   -1194.8046     528.8843    840.13922   -3492.4644 
 6339000     274.9232   -3849.3187   -3378.1097   -3849.3187            0    -2765.808    18.790147    22.132311    22.923935    9533.3626   -2278.9952   -2950.4252   -3068.0036   -174.78285   -94.161171    626.36382    -3762.652 
 6340000    282.30309   -3832.4832   -3348.6253   -3832.4832            0   -57.178202    18.673471    21.994883    22.781591    9356.8736   -244.10053   -916.51737     989.0833   -1366.3051    703.63656    -425.1559   -3356.4279 
 6341000    257.84344   -3817.6342   -3375.6994   -3817.6342            0    -1390.619     18.66308    21.982643    22.768914    9341.2619   -2150.1684    -1745.333    -276.3557    94.432121    137.10979    599.68033   -3565.1472 
 6342000     266.1513   -3766.6289   -3310.4547   -3766.6289            0   -1319.2826    18.703758    22.030556    22.818541    9402.4757   -1404.7629   -1843.4382    -709.6466    291.03266    -698.9539    190.93149   -3491.3619 
 6343000    279.95822   -3836.3525   -3356.5137   -3836.3525            0   -2821.0386     18.81872    22.165967    22.958795    9576.9196   -3294.0933   -3161.8592   -2007.1632   -913.65892    155.09451    478.14453   -3750.5269 
 6344000     279.6176   -3860.5671   -3381.3121   -3860.5671            0   -1025.2378    18.660011    21.979029     22.76517    9336.6549   -784.24194   -1862.8964   -428.57521    471.41511    268.43129      889.612   -3520.9141 
 6345000    274.39895   -3874.4592   -3404.1487   -3874.4592            0   -1055.4543    18.712404     22.04074    22.829089    9415.5203   -2064.9393   -1002.8853   -98.538239     191.7548    -1306.467   -457.85375   -3549.0792 
 6346000    284.15002   -3818.4418   -3331.4184   -3818.4418            0   -1250.9031    18.836128    22.186471    22.980032    9603.5213   -2572.3891   -1205.8845    25.564201   -156.66027    311.87646    762.26456   -3506.6167 
 6347000    280.93831     -3819.89   -3338.3713     -3819.89            0    -1737.212    18.630012    21.943693    22.728571    9291.6961   -559.61433   -1593.2879   -3058.7337   -191.45998   -729.68857     776.6564   -3573.7807 
 6348000    268.14225   -3839.0868   -3379.5001   -3839.0868            0   -1587.3671    18.686462    22.010184     22.79744     9376.415   -1105.3826   -2374.9377   -1281.7809   -1031.6725   -409.04143   -556.03716   -3596.5653 
 6349000    277.08916   -3821.4549   -3346.5336   -3821.4549            0   -1205.1408     18.74532    22.079511    22.869246    9465.2951   -918.11214   -1157.4728   -1539.8375    524.08932   -396.60425   -85.366553   -3512.8931 
 6350000    278.63849    -3852.744   -3375.1672    -3852.744            0   -1775.2754    18.708743    22.036428    22.824623    9409.9953   -1744.6003   -2044.8451   -1536.3808    857.00825   -331.42256   -968.15836   -3618.7974 
 6351000    278.81646   -3891.7111   -3413.8293   -3891.7111            0   -971.57945    18.668809    21.989391    22.775903    9349.8665   -628.10324   -535.70721   -1750.9279   -942.25008    438.20114   -481.64206   -3546.3121 
 6352000    286.49918   -3818.8643   -3327.8145   -3818.8643            0   -1060.9765    18.779435    22.119694    22.910867    9517.0676    -1224.989    -1171.944   -785.99629    540.69533   -491.09083   -761.91564   -3475.0745 
 6353000    282.89255   -3842.8931    -3358.025   -3842.8931            0   -2474.4449    18.704334    22.031235    22.819243    9403.3439   -3309.5283   -2160.6876   -1953.1188    781.51127    -555.4406    753.15233   -3697.3657 
 6354000     274.9562   -3836.8754   -3365.6099   -3836.8754            0   -2503.1819    18.808227    22.153607    22.945993    9560.9086   -2095.2415   -2508.3685   -2905.9356    75.560242    262.81548    353.77766   -3714.6437 
 6355000    285.23674   -3795.1355   -3306.2495   -3795.1355            0   -1542.6042    18.728638    22.059862    22.848894    9440.0472   -732.41688   -2052.1977    -1843.198   -22.656328    664.15427   -448.72751   -3518.6251 
 6356000    265.35266   -3809.1073   -3354.3019   -3809.1073            0   -2100.8846    18.671077    21.992062     22.77867    9353.2748   -1691.9972   -2946.6448   -1664.0117   -75.288563    231.28894    317.84177   -3640.8792 
 6357000    280.77582   -3833.1518   -3351.9117   -3833.1518            0    -171.8858    18.522155    21.816652    22.596986    9131.2483    929.95552   -2191.1661    745.55318   -239.42083    76.120537     220.7667   -3374.8017 
 6358000    274.87332   -3822.3365    -3351.213   -3822.3365            0   -2480.8478    18.712538    22.040898    22.829252    9415.7226    -3355.416   -2994.2431   -1092.8844    214.96682    -525.0233    260.34911   -3691.8797 
 6359000     282.9568   -3817.9336   -3332.9553   -3817.9336            0   -2164.1382    18.726081     22.05685    22.845775    9436.1815   -2787.8864   -2218.0206   -1486.5076    1565.2835   -1029.5394     249.8244   -3630.7776 
 6360000    266.06269   -3815.5814    -3359.559   -3815.5814            0   -1991.0192    18.741016    22.074441    22.863995    9458.7765   -1103.3764   -2579.4999   -2290.1812   -116.24287    189.09493   -9.9367973   -3634.2133 
 6361000    275.89226    -3807.762   -3334.8921    -3807.762            0   -2304.8376    18.767488    22.105622    22.896292    9498.9157   -2726.6133   -1987.8309   -2200.0685   -320.49065   -292.80251   -523.31476   -3654.1857 
 6362000    273.76696   -3801.7527   -3332.5255   -3801.7527            0   -2606.9741    18.721682    22.051669    22.840409    9429.5333   -2237.3144   -2692.8939   -2890.7139   -362.50427   -458.05915    825.95851   -3691.0368 
 6363000    274.61018   -3836.0107   -3365.3382   -3836.0107            0   -1160.9121    18.535894    21.832835    22.613748    9151.5828   -771.90348   -1902.8671   -807.96582    766.29236   -267.39617   -382.09488    -3520.281 
 6364000    282.52228   -3799.0952   -3314.8617   -3799.0952            0   -1460.9459    18.665608     21.98562    22.771998    9345.0579    -128.6884   -1590.3163   -2663.8332    258.07249   -331.09306    766.49926   -3513.9712 
 6365000    297.99458   -3829.3251   -3318.5726   -3829.3251            0    -615.8298    18.633044    21.947265    22.732271     9296.234    193.64222   -1619.7406   -421.39106    216.45905    708.72974   -746.86119   -3402.0644 
 6366000    270.74979   -3821.6453   -3357.5895   -3821.6453            0   -1228.5611    18.647347    21.964111     22.74972    9317.6574   -1101.2374   -1455.4354   -1129.0105   -330.43722    552.97766    473.36548   -3524.5368 
 6367000    261.73837   -3823.9875   -3375.3769   -3823.9875            0   -706.35871    18.679047     22.00145    22.788394    9365.2579   -2969.0685    1000.0525   -150.06012    411.12982    545.60399    169.99064   -3471.8533 
 6368000     267.7223   -3824.7129    -3365.846   -3824.7129            0   -911.68462    18.660572    21.979689    22.765855    9337.4969   -711.07015   -1065.3323   -958.65145    1083.0486    517.36836     236.0739   -3489.9972 
 6369000    285.54417   -3835.2099    -3345.797   -3835.2099            0   -1064.1278    18.653503    21.971363     22.75723    9326.8888   -1386.4889   -794.11044    -1011.784   -19.161101    555.52809    935.57355    -3490.543 
 6370000    273.17356   -3813.9967   -3345.7866   -3813.9967            0   -1782.5508    18.701585    22.027997     22.81589     9399.199   -1330.4794    -1404.222    -2612.951      -348.82   -387.20215    1250.3722   -3590.1345 
 6371000    284.35083   -3842.9167   -3355.5492   -3842.9167            0   -592.65178    18.649604     21.96677    22.752474    9321.0417   -612.65153   -706.49399   -458.80982   -642.05042   -323.47081    371.92453    -3436.113 
 6372000    283.46148   -3764.1364   -3278.2931   -3764.1364            0   -2121.3113      18.7315    22.063232    22.852386    9444.3752   -1684.7028   -2044.0033   -2635.2279    1401.5987    611.93014   -648.65445   -3570.4752 
 6373000    259.99662   -3818.9428   -3373.3174   -3818.9428            0   -1598.2753    18.720108    22.049815    22.838488    9427.1549   -2398.7253   -1836.8987   -559.20197    595.92183   -791.42104    133.10535   -3593.0569 
 6374000    271.76034   -3798.8315   -3333.0435   -3798.8315            0   -706.84114    18.623863    21.936451    22.721069    9282.4987   -856.90071   -704.57493   -559.04778   -425.75796    224.32579    139.32242   -3428.7327 
 6375000    273.06261   -3778.9801   -3310.9601   -3778.9801            0   -283.18741     18.64674    21.963397    22.748979     9316.748   -1037.8731    1282.8952   -1094.5844   -680.90859    520.08217   -528.88451   -3349.4382 
 6376000    284.14123   -3839.5189   -3352.5105   -3839.5189            0   -2046.2893    18.611656    21.922073    22.706177    9264.2583   -1862.5548   -2240.2622   -2036.0508    369.44433   -293.35374    672.39811   -3628.9841 
 6377000    284.80728   -3819.2055   -3331.0555   -3819.2055            0   -2244.5476    18.635697    21.950389    22.735507    9300.2045   -2874.4331   -1844.0586   -2015.1512    707.93362    186.02063   -368.74076   -3635.4924 
 6378000    274.91461   -3801.5189   -3330.3247   -3801.5189            0   -1192.7589    18.569814    21.872788     22.65513    9201.9163   -1362.8121   -1316.5245   -898.93997   -761.54933   -83.088228   -768.71209   -3490.3935 
 6379000    290.43079   -3806.8701   -3309.0817   -3806.8701            0   -1056.7662    18.600815    21.909303    22.692951    9248.0788   -1591.5394   -1594.6572    15.897906    632.18827    439.99293   -510.08716   -3451.6117 
 6380000    284.43309   -3854.4518   -3366.9432   -3854.4518            0   -2779.7528    18.657876    21.976513    22.762565    9333.4497    -2610.884   -3930.1039   -1798.2705   -348.58557    407.46756   -8.0410772   -3745.3198 
 6381000    282.22899   -3870.0494   -3386.3186   -3870.0494            0   -2783.8933    18.652379    21.970039    22.755859    9325.2033   -1715.7994   -3328.7751   -3307.1055   -140.14917    881.99399    -626.3515    -3764.924 
 6382000    281.88268   -3813.9011   -3330.7638   -3813.9011            0   -596.47846    18.743068    22.076859      22.8665    9461.8847   -1055.1297   -1370.7823     636.4766    291.62279   -563.22093   -151.66111    -3413.073 
 6383000    269.59605   -3824.6701   -3362.5917   -3824.6701            0   -1522.4387    18.645416    21.961837    22.747364    9314.7627   -1268.4184   -1653.1606    -1645.737   -132.48433    501.41297    963.26718   -3569.4093 
 6384000    276.35744   -3884.1788   -3410.5116   -3884.1788            0   -1923.4841    18.659838    21.978825    22.764959    9336.3952   -2318.6007   -2759.8356   -692.01595   -309.29283   -79.722948    -282.5443   -3672.4166 
 6385000     262.5523   -3853.4478   -3403.4422   -3853.4478            0   -1605.2688    18.641474    21.957194    22.742554    9308.8559   -1605.8693   -1911.2143   -1298.7227   -707.40315   -714.50869    343.43542   -3621.3736 
 6386000    290.71192   -3853.9639   -3355.6936   -3853.9639            0   -1781.4661    18.698721    22.024623    22.812396     9394.881    -2513.937   -670.90647   -2159.5548    1003.4852   -696.57476     231.2716   -3599.7806 
 6387000    278.53276   -3843.6394   -3366.2438   -3843.6394            0   -816.35972    18.676678     21.99866    22.785504    9361.6952   -10.814676   -820.12672   -1618.1378   -279.23686   -263.87667    417.29902    -3477.702 
 6388000    284.72129   -3838.1004   -3350.0979   -3838.1004            0   -121.87814    18.604646    21.913815    22.697624    9253.7936    431.85999   -537.05612   -260.43828   -405.74085    225.70897    26.359515   -3366.5462 
 6389000    250.53519   -3836.6484   -3407.2397   -3836.6484            0   -2616.4108    18.636605    21.951459    22.736615    9301.5643   -2996.9281   -2300.6353   -2551.6691   -320.09377   -789.32986    160.68692   -3762.1657 
 6390000    267.09378   -3816.7773   -3358.9877   -3816.7773            0     514.0804    18.650937     21.96834      22.7541    9323.0403    296.01963    654.14012    592.08147   -753.31087    453.23656   -587.64923   -3289.0898 
 6391000    271.68428   -3864.6515   -3398.9939   -3864.6515            0   -1725.4443    18.622578    21.934937    22.719502    9280.5775   -1039.0439   -2507.2087   -1630.0803    1192.6012   -3.6334759   -1362.0536   -3632.5288 
 6392000    261.51886   -3843.7514    -3395.517   -3843.7514            0   -762.50637    18.610024     21.92015    22.704186    9261.8208    -1357.761    223.87667   -1153.6348   -292.03165    548.83349   -702.36025   -3498.5119 
 6393000    259.24148   -3827.1053   -3382.7743   -3827.1053            0   -2565.6575     18.73934    22.072467    22.861951    9456.2392    -1550.946    -3694.017   -2452.0097    444.57932     638.8559    198.47155   -3736.6029 
 6394000    276.15848   -3850.8896   -3377.5634   -3850.8896            0   -1929.3543    18.713673    22.042235    22.830637    9417.4363   -1461.7064   -1232.3655    -3093.991     1047.114    89.307454    -764.6422   -3642.5479 
 6395000     294.5932   -3858.3165   -3353.3938   -3858.3165            0   -420.57019    18.574535    21.878349    22.660889    9208.9356   -771.07656   -456.25289   -34.381111    261.85576   -209.27553    1026.0238   -3409.8776 
 6396000     273.7719   -3852.8761   -3383.6404   -3852.8761            0   -2153.7856    18.711298    22.039438     22.82774    9413.8516   -1285.6105    -1590.998   -3584.7482   -159.80977   -345.64048    276.23479   -3679.3366 
 6397000    271.50531   -3868.3601   -3403.0093   -3868.3601            0   -1856.8702     18.72311    22.053351    22.842151     9431.691   -1364.7703   -2444.2815   -1761.5589    -658.0158   -320.12915   -968.31444   -3658.4247 
 6398000    269.96944   -3870.8285   -3408.1101   -3870.8285            0   -1543.4843    18.777169    22.117025    22.908103    9513.6236   -1435.4298   -1074.0842   -2120.9388   -714.84072    197.46263   -1414.2285    -3622.263 
 6399000    292.86525    -3844.955    -3342.994    -3844.955            0   -910.93773    18.683789    22.007036    22.794179    9372.3927   -1422.7351   -644.36487   -665.71325   -143.94835     851.6984    68.525542   -3467.5071 
 6400000    271.63182    -3864.252   -3398.6844    -3864.252            0   -2145.7501    18.826267    22.174856    22.968002    9588.4464   -2532.5742   -1511.7832   -2392.8931   -512.85131    903.73314   -694.79913   -3698.7411 
 6401000    288.50914   -3853.1335   -3358.6387   -3853.1335            0   -772.77214    18.710217    22.038165    22.826421    9412.2204   -560.24807   -1362.4849   -395.58345    1348.4631     -509.984   -318.43585   -3464.7153 
 6402000     266.4169   -3864.7916   -3408.1621   -3864.7916            0   -1669.3655    18.753078    22.088648    22.878711    9477.0515   -512.58202   -2130.0553   -2365.4592    48.991235     137.7363   -897.60697   -3638.8903 
 6403000    275.54119   -3849.6189   -3377.3507   -3849.6189            0   -1535.8168    18.732741    22.064694      22.8539    9446.2525   -1483.0726   -1208.7108   -1915.6671   -304.79615    112.49498   -536.68848   -3588.9309 
 6404000    273.94011   -3871.9585   -3402.4346   -3871.9585            0   -2061.4334    18.850801    22.203754    22.997934    9625.9818   -2182.1977   -2141.7658   -1860.3368    770.01967    1081.8065    322.23228    -3691.829 
 6405000    265.37256   -3848.7019   -3393.8624   -3848.7019            0   -1163.7491    18.778416    22.118494    22.909624    9515.5186   -1694.6845   -176.53983   -1620.0232    1144.2518   -18.760735    916.80853   -3555.3606 
 6406000    270.02438   -3892.3636    -3429.551   -3892.3636            0   -1051.9255    18.662369    21.981806    22.768047    9340.1948   -2039.2487     1115.085   -2231.6128    7.5936588    422.57919    84.790774   -3572.8413 
 6407000    268.27988   -3853.8049   -3393.9824   -3853.8049            0    -879.3648    18.631772    21.945767    22.730719      9294.33   -4.6657825   -1201.9781   -1431.4505    800.13291    126.81519    38.908956   -3513.1788 
 6408000    291.36301   -3907.4403   -3408.0541   -3907.4403            0   -1984.4332    18.672393    21.993613    22.780276    9355.2535   -1751.2367   -1476.3299   -2725.7331   -1085.1721    -250.0758   -984.05829   -3678.8038 
 6409000    266.04861   -3872.7387   -3416.7405   -3872.7387            0   -1329.2286    18.743598    22.077483    22.867146    9462.6869    -597.6455    -1788.508   -1601.5323    456.12369   -321.86064   -1057.3015   -3600.1788 
 6410000    277.83799   -3845.8348     -3369.63   -3845.8348            0   -1611.6426     18.80701    22.152174    22.944509    9559.0531   -1673.2194   -2025.7582   -1135.9502   -1150.9998   -66.702033   -1068.6437   -3594.3075 
 6411000    269.02713   -3876.8054   -3415.7021   -3876.8054            0   -2796.2424    18.728499    22.059698    22.848725    9439.8369   -3305.9734    -1230.065   -3852.6889    489.88359    192.44266   -164.74652   -3800.6617 
 6412000     278.9493   -3876.4993   -3398.3897   -3876.4993            0   -1252.5595    18.735329    22.067743    22.857057    9450.1685   -2339.8673   -844.75066    -573.0607    31.180378    1094.8091   -20.439377   -3571.0188 
 6413000    288.38383   -3877.4994   -3383.2194   -3877.4994            0   -1486.6323    18.713824    22.042413    22.830822    9417.6645   -3305.8531     1069.126     -2223.17    626.20073    1245.6823   -332.52062   -3587.4039 
 6414000    276.36563     -3866.99   -3393.3088     -3866.99            0    219.33636    18.672496    21.993734    22.780402    9355.4079    47.314969   -862.20438    1472.8985    870.29789    1566.4833   -1646.4469   -3363.3828 
 6415000    276.87743   -3868.2515   -3393.6931   -3868.2515            0   -788.29739     18.64657    21.963197    22.748772    9316.4936    -1154.306    155.55103   -1366.1372    722.99745    624.18608   -423.20156   -3500.8002 
 6416000     277.2669   -3851.4787   -3376.2527   -3851.4787            0   -13.913548    18.743345    22.077185    22.866837    9462.3038    11.737236    808.48292    -861.9608    1722.7895    961.64378    862.58573   -3378.1728 
 6417000    269.36205   -3883.7699   -3422.0926   -3883.7699            0   -2114.0573    18.747516    22.082097    22.871925    9468.6219   -3240.1813   -1258.9975   -1842.9932    660.78992   -213.34306   -1023.9927   -3714.0231 
 6418000    305.65544   -3862.0642   -3338.1813   -3862.0642            0   -1810.1554    18.654077    21.972039     22.75793    9327.7497   -1229.5108   -2024.6058   -2176.3497   -11.799034   -434.63445    222.37234    -3584.427 
 6419000    272.38268   -3806.3504   -3339.4958   -3806.3504            0   -1562.3357    18.697499    22.023184    22.810906    9393.0399   -2203.2206   -1681.6729   -802.11347   -246.92284    140.22303    470.34976   -3553.5168 
 6420000    279.19718   -3825.9418   -3347.4074   -3825.9418            0   -1678.9894    18.843057    22.194632    22.988486    9614.1233   -1438.4745   -1174.7904   -2423.7034   -204.54674   -148.35718   -691.09181   -3582.8221 
 6421000    276.38449   -3831.4698   -3357.7562   -3831.4698            0   -1998.1712    18.748188    22.082889    22.872745    9469.6398   -2620.2385   -865.88243   -2508.3928    -865.0699    234.92582    902.05762   -3633.7136 
 6422000    269.99861    -3832.271   -3369.5026    -3832.271            0   -1951.5589     18.82039    22.167934    22.960832    9579.4699   -2281.7398   -2038.2116   -1534.7252   -361.24927   -655.41165   -222.79262   -3642.1485 
 6423000    279.35585   -3850.9688   -3372.1624   -3850.9688            0   -2252.0224    18.874629     22.23182    23.027003    9662.5301   -2307.9033   -2327.1729    -2120.991    43.223118   -181.61318    322.38765   -3689.5131 
 6424000    277.99134   -3867.0277   -3390.5601   -3867.0277            0   -2716.5823    18.702098    22.028602    22.816516     9399.973   -2257.0371   -3388.9077   -2503.8021   -887.82141   -1306.1326      916.109   -3762.9735 
 6425000    277.68789   -3828.4418   -3352.4943   -3828.4418            0    179.12632      18.6207    21.932725     22.71721    9277.7696   -559.66789    573.97477     523.0721   -497.91133   -461.72993   -635.30202   -3328.2573 
 6426000     275.7369   -3852.4984   -3379.8948   -3852.4984            0     79.51278    18.719087    22.048612    22.837243    9425.6128    698.44024    257.21799   -717.11988   -531.54011   -11.718671    484.64475   -3368.9647 
 6427000    293.10417   -3846.3127   -3343.9422   -3846.3127            0   -1497.5222    18.776359    22.116071    22.907114    9512.3918   -1692.0944   -1302.3564   -1498.1157   -1231.0551     64.67692   -2.9715132   -3551.6911 
 6428000     274.8188   -3835.2791   -3364.2491   -3835.2791            0   -1537.8896    18.870657    22.227141    23.022157     9656.431   -1532.7763   -1291.7637   -1789.1288    57.553983   -81.110299   -127.51775   -3580.8288 
 6429000    271.09105   -3833.0968    -3368.456   -3833.0968            0   -909.64564    18.778763    22.118902    22.910047    9516.0455   -764.88723   -148.42637   -1815.6233    630.83313    83.007657    502.02073   -3494.6983 
 6430000    271.89821   -3840.9291   -3374.9049   -3840.9291            0   -1347.4039    18.775247    22.114761    22.905757    9510.7016   -3020.9128   -901.58887   -119.70992    54.299044      720.348   -272.87021   -3561.7949 
 6431000    290.93301   -3840.5203   -3341.8711   -3840.5203            0   -1982.7006    18.754363    22.090162    22.880279    9479.0001   -2643.3655   -1284.7268   -2020.0093   -229.41898    24.902098    678.95702   -3615.9626 
 6432000    291.85258   -3819.7543    -3319.529   -3819.7543            0   -761.91833    18.932074    22.299482    23.097086    9751.0228    48.201016   -2914.5357    580.57976    65.921822    239.15477     860.5872   -3427.8803 
 6433000    272.83904   -3855.8338    -3388.197   -3855.8338            0   -997.15757    18.851056    22.204054    22.998245    9626.3726   -1570.4485     -298.864   -1122.1602    -833.0644    617.89529   -633.11677   -3528.1887 
 6434000     268.7993   -3857.5665   -3396.8537   -3857.5665            0   -2619.1013     18.87624    22.233717    23.028969    9665.0046   -3041.0718   -2708.8633   -2107.3686   -206.01718   -1288.7821    80.287499   -3766.0269 
 6435000    276.08905    -3797.668   -3324.4608    -3797.668            0   -1551.8257      18.9329    22.300456    23.098094    9752.2995   -1464.7431   -2142.0503   -1048.6836   -826.47817    13.610877   -401.78626   -3545.1728 
 6436000    287.26517   -3792.9505   -3300.5878   -3792.9505            0   -292.05719    18.771109    22.109886    22.900709    9504.4143   -585.39755   -889.73438    598.96035   -192.41451   -1350.8243   -537.01745   -3341.0705 
 6437000    269.10842   -3813.5993   -3352.3567   -3813.5993            0   -2120.9352    18.713616    22.042168    22.830568    9417.3508   -2674.8002   -2415.5408   -1272.4646   -292.21417   -382.16013    166.37258    -3643.651 
 6438000    285.30655   -3800.9038   -3311.8981   -3800.9038            0   -1541.7498    18.695579    22.020923    22.808563    9390.1461    200.86781   -2153.8004   -2672.3167    661.59189   -1113.2567   0.69006172    -3523.034 
 6439000    275.50396   -3832.1089   -3359.9045   -3832.1089            0   -1881.9025    18.718558    22.047989    22.836597    9424.8131    -1820.181   -2659.9664   -1165.5601    114.31959   -256.51869   -903.84859   -3618.5743 
 6440000    289.95864   -3793.6159   -3296.6367   -3793.6159            0   -1878.3528    18.812973    22.159198    22.951784    9568.1487   -3424.8187   -558.42094   -1651.8187   -497.36608   -388.75185      1312.69   -3558.7451 
 6441000    286.62858   -3812.1326    -3320.861   -3812.1326            0   -2346.0218     18.80066    22.144694    22.936761     9549.373    -1611.705   -2465.7511   -2960.6094    160.24493     425.3843   -48.901058   -3647.5863 
 6442000    283.30027   -3829.6768   -3344.1099   -3829.6768            0   -23.554974    18.793407    22.136151    22.927913    9538.3261   -1370.6344    856.07863     443.8908   -539.93354    832.44905   -1038.3264   -3347.3865 
 6443000    273.29499   -3813.9236   -3345.5053   -3813.9236            0   -1146.0606     18.78223    22.122986    22.914277    9521.3176     684.5945   -1005.9281   -3116.8483   -232.10101    608.90995   -197.81854   -3504.6458 
 6444000    281.74222   -3817.5091   -3334.6126   -3817.5091            0   -996.87444    18.913692    22.277831    23.074661    9722.6478   -59.070645   -1730.9967    -1200.556    476.65939    590.99726   -480.84215   -3475.9642 
 6445000    273.88524   -3838.6326   -3369.2026   -3838.6326            0   -1574.6155    18.769945    22.108516    22.899289    9502.6465   -1960.4794   -2226.3932   -536.97399   -731.23389    280.58587   -29.093916   -3587.4229 
 6446000    282.39192   -3810.4673   -3326.4572   -3810.4673            0   -2856.6074    18.939645      22.3084    23.106322    9762.7254   -2616.3939   -3170.8164   -2782.6119   -351.03022    218.68603    154.20218   -3733.1791 
 6447000    275.72363   -3800.7637   -3328.1828   -3800.7637            0   -2094.7773    18.986805    22.363949    23.163858    9835.8363   -2998.4302   -1625.9793   -1659.9223    -717.1185     494.8353    246.90787   -3628.6694 
 6448000    277.33873   -3770.6281    -3295.279   -3770.6281            0   -2068.9887    18.925604    22.291862    23.089193     9741.029   -2389.5475   -1017.2726    -2800.146    1082.1034    52.718222    690.56176   -3589.2055 
 6449000    288.32365   -3794.5924   -3300.4155   -3794.5924            0   -2117.3425    18.828118    22.177036     22.97026    9591.2742   -604.36993   -1743.5467   -4004.1108    29.509665   -24.054419    59.609301   -3596.5871 
 6450000    274.16893   -3831.9218   -3362.0056   -3831.9218            0   -2151.3301    18.851658    22.204763    22.998979    9627.2942   -2178.7478   -1111.0961   -3164.1465    129.52895   -47.865285    531.51237   -3664.0615 
 6451000    267.65274   -3825.2459   -3366.4983   -3825.2459            0   -2242.1381     18.90158    22.263564    23.059883    9703.9799    -2807.711   -1838.5488   -2080.1545   -784.03173    465.34211    237.95541   -3683.8115 
 6452000    270.32862   -3814.8942   -3351.5602   -3814.8942            0   -1256.9013    18.840146    22.191203    22.984934    9609.6679   -736.24646    462.23341   -3496.6907    172.70628    656.08506    609.10818   -3527.7113 
 6453000    276.59244   -3874.8731   -3400.8031   -3874.8731            0   -1519.4744    18.725184    22.055793    22.844681    9434.8254    -1269.728   -2178.1465   -1110.5487    501.80292   -611.07539    558.95175   -3609.8786 
 6454000    268.55418   -3845.8067   -3385.5141   -3845.8067            0   -832.89158    18.682566    22.005595    22.792687    9370.5521   -1706.3262    629.94063   -1422.2892   -236.83751   -1400.0871    14.641973    -3499.337 
 6455000    271.14313   -3862.7185   -3397.9885   -3862.7185            0   -1214.6079    18.708032    22.035591    22.823756    9408.9234   -1679.5449     188.4263   -2152.7051    841.34548   -160.53751    1043.8052   -3564.6564 
 6456000    267.56431   -3838.4527   -3379.8566   -3838.4527            0   -1518.0602    18.840135     22.19119    22.984921     9609.651    -854.6875   -2356.7461   -1342.7469    739.21515   -461.45469    817.25097    -3592.608 
 6457000    271.86949   -3812.8455   -3346.8705   -3812.8455            0    -2543.991    18.831532    22.181057    22.974425    9596.4929   -1450.5072   -3365.1151   -2816.3507    969.47953   -426.34859   -763.04824   -3702.9148 
 6458000    279.69858   -3814.9734   -3335.5796   -3814.9734            0   -1447.1977    18.772016    22.110956    22.901816    9505.7933   -1961.7094   -586.05042   -1793.8334    318.82954    395.81865    1.6087737   -3536.2079 
 6459000    278.41837   -3839.3354   -3362.1359   -3839.3354            0   -1332.6402    18.720633    22.050433    22.839128    9427.9475   -2551.3416   -448.70565   -997.87345    1475.7087    423.67996      292.378   -3545.3698 
 6460000    294.19031   -3833.8603   -3329.6282   -3833.8603            0   -804.05263    18.683285    22.006442    22.793564     9371.634    27.850474   -110.07747   -2329.9309   -193.47356   -453.30855    15.470791   -3439.5226 
 6461000    273.26034   -3816.6427   -3348.2838   -3816.6427            0   -1911.8251    18.754398    22.090204    22.880322     9479.054   -1713.2759   -1400.3983   -2621.8012    545.09401   -3.2832304   -1623.7568   -3612.5789 
 6462000     281.1504   -3840.3342    -3358.452   -3840.3342            0   -1335.2998    18.679855    22.002402    22.789379    9366.4729   -1681.4856   -466.21011   -1858.2038    299.45045   -1156.6095   -842.23244   -3540.8545 
 6463000    288.81777   -3812.8589   -3317.8351   -3812.8589            0   -1985.6258     18.74413    22.078109    22.867795    9463.4928   -1652.7924   -2547.9674   -1756.1177       513.43   -336.74317   -789.75022   -3591.8819 
 6464000    271.23154   -3811.6576    -3346.776   -3811.6576            0    -1244.986    18.734452     22.06671    22.855988    9448.8415   -778.02011   -1583.9042   -1373.0338   -704.38166   -1357.2676    103.01536   -3518.3372 
 6465000     263.3704   -3886.1831   -3434.7753   -3886.1831            0   -1086.7289    18.644099    21.960285    22.745757    9312.7889   -1557.1846   -116.42628   -1586.5759    -1077.176    475.08855    482.69389   -3582.3721 
 6466000    269.06515   -3845.6733   -3384.5048   -3845.6733            0   -1791.1515    18.618646    21.930306    22.714705    9274.7004   -1289.5553   -1222.1828   -2861.7163   -991.72316    796.14439    1808.4458   -3626.7795 
 6467000    271.87612    -3837.865   -3371.8786    -3837.865            0   -2519.6793    18.792255    22.134795    22.926508    9536.5723   -2501.0892   -2202.8377   -2855.1111   -893.98112    258.26426    441.94966   -3722.3184 
 6468000    285.23301   -3823.7353   -3334.8557   -3823.7353            0   -1146.6024    18.733052    22.065061    22.854279    9446.7233   -125.02101   -1230.4305   -2084.3559    137.02911    1563.9227    636.68083    -3492.824 
 6469000    281.52762    -3790.733   -3308.2043    -3790.733            0   -2917.0521    18.738102     22.07101    22.860441    9454.3661   -2505.6837    -2471.027   -3774.4456    902.31724   -973.40188    163.91779    -3710.414 
 6470000    267.34446   -3832.9384   -3374.7191   -3832.9384            0   -661.95626    18.669118    21.989755    22.776281    9350.3314    408.56729   -659.67386   -1734.7622    361.03392   -34.063931    577.89675   -3464.9868 
 6471000    281.01735   -3832.0214   -3350.3673   -3832.0214            0   -1551.6334    18.692971    22.017851    22.805381     9386.217   -2051.3099   -208.38053   -2395.2099   -724.39941    21.354164    485.85071   -3562.7678 
 6472000    271.78432   -3827.4879   -3361.6589   -3827.4879            0    949.22931    18.453997    21.736371    22.513834     9030.815    520.56295     576.4063    1750.7187    198.33635    440.45201    637.15373   -3236.6405 
 6473000     271.8067   -3833.2283   -3367.3609   -3833.2283            0   -2044.6506     18.70659    22.033892    22.821996    9406.7473   -2378.3862   -1568.0707    -2187.495   -800.02771    14.823126    364.91436    -3647.862 
 6474000    273.72049   -3826.4445    -3357.297   -3826.4445            0   -1063.2292    18.638928    21.954195    22.739449    9305.0428   -1455.6664   -1518.2251   -215.79598   -203.92747   -187.58064   -46.612117    -3501.582 
 6475000    271.31407   -3838.2545   -3373.2315   -3838.2545            0   -2458.9117    18.699132    22.025108    22.812898    9395.5013   -2292.8517   -2190.2811   -2893.6022    298.58299    193.85942    584.98783   -3710.1608 
 6476000    287.81103   -3843.2134   -3349.9151   -3843.2134            0    -1376.318    18.639532    21.954907    22.740186    9305.9477    41.050694   -1918.8403   -2251.1643   -347.76973    -431.3615   -87.640895   -3536.7058 
 6477000    298.49091   -3784.0341   -3272.4309   -3784.0341            0   -1841.2899    18.726494    22.057336    22.846279    9436.8056    -1022.039   -3242.8846   -1258.9461    828.04514    243.86409    320.60699   -3525.8405 
 6478000    297.29656   -3830.0883   -3320.5322   -3830.0883            0   -718.87745    18.603588     21.91257    22.696334    9252.2159  -0.36771645   -2438.2781    282.01348    924.82636   -51.945845    175.11066   -3417.5333 
 6479000    288.06135   -3814.5737   -3320.8464   -3814.5737            0   -1955.3331    18.718408    22.047812    22.836414     9424.587   -2893.0264   -3226.5038    253.53089    399.59765      664.075   -343.70178   -3589.6029 
 6480000    285.40801   -3812.9429   -3323.7633   -3812.9429            0   -829.83796    18.592067       21.899    22.682279    9235.0371   -2252.3932   -897.32767    660.20696   -1097.7384    119.27171    986.53193   -3435.5288 
 6481000    281.28212   -3812.2559    -3330.148   -3812.2559            0   -37.986004    18.603178    21.912086    22.695833     9251.603   -430.69099   -248.01874    564.75173      351.455   -96.214806   -48.660369   -3335.2732 
 6482000    280.06705   -3845.3606   -3365.3352   -3845.3606            0   -1494.0298    18.632771    21.946943    22.731937     9295.825   -2883.5357   -673.97995   -924.57368   -11.195151   -604.33891   -675.63358   -3567.8809 
 6483000    265.11426   -3809.1556   -3354.7588   -3809.1556            0   -2058.7929    18.756915    22.093168    22.883392    9482.8702   -369.69794   -3223.6574   -2583.0233    873.06714    142.99202    75.339011   -3639.4856 
 6484000    293.89057   -3812.5811   -3308.8628   -3812.5811            0   -1499.0817    18.689937    22.014277     22.80168    9381.6475   -1716.7208   -1272.3125   -1508.2119    785.78813    -1581.274    308.33991   -3513.9697 
 6485000    271.46543   -3835.4176   -3370.1351   -3835.4176            0   -1352.3338    18.711035    22.039127    22.827419    9413.4538   -1462.2464   -2187.1184   -407.63669    176.85038   -681.51123   -300.77304   -3555.7911 
 6486000    277.84677   -3814.6681   -3338.4483   -3814.6681            0    -1010.026     18.71962     22.04924    22.837893    9426.4176    -1134.339   -638.65722   -1257.0818   -872.59319   -23.647288    664.16422   -3477.3012 
 6487000    280.96221   -3817.9454   -3336.3858   -3817.9454            0   -1696.7635    18.674247    21.995797    22.782538    9358.0404   -1687.5939   -2237.3142   -1165.3824    742.08116    199.96553   -14.083378   -3567.9557 
 6488000    277.48176   -3794.1843   -3318.5901   -3794.1843            0    -1417.449    18.825038    22.173409    22.966503    9586.5689   -3781.1699    107.84016   -579.01734   -793.66871    1169.9446   -531.25626    -3516.764 
 6489000    281.02737   -3808.1583    -3326.487   -3808.1583            0    -2919.436    18.676567    21.998529    22.785368    9361.5276   -2435.0277   -3117.2597   -3206.0206    -300.3866   -85.949206    37.818425   -3725.0726 
 6490000    265.87383   -3771.7865   -3316.0879   -3771.7865            0     -1358.55    18.684084    22.007383    22.794539    9372.8363   -1425.0477   -1865.4573    -785.1451   -465.71441    360.41282   -777.13138   -3501.7924 
 6491000    260.69056   -3817.6766   -3370.8619   -3817.6766            0    -2148.494    18.722802    22.052988    22.841775    9431.2255   -2570.9395   -904.13944    -2970.403    589.97489   -715.34799   -148.64047    -3666.376 
 6492000    266.85925   -3761.4177   -3304.0301   -3761.4177            0   -2483.9011    18.684363    22.007711    22.794879    9373.2558   -2900.7927   -2403.3134   -2147.5972   -834.53018    787.80253    -238.4922   -3643.5777 
 6493000    279.98937   -3778.0289   -3298.1367   -3778.0289            0    -1321.042    18.704172    22.031044    22.819046       9403.1   -2938.7929    95.984622   -1120.3177    716.42461   -1004.5668   -25.886114   -3479.2973 
 6494000    282.47155   -3781.6723   -3297.5257   -3781.6723            0   -734.77867     18.58001    21.884798    22.667569     9217.082   -1086.6842   -205.95117   -911.70062    1306.9865    11.514228   -767.59769   -3396.2959 
 6495000     299.4121   -3791.2961    -3278.114   -3791.2961            0   -1535.8648    18.786344    22.127832    22.919296    9527.5758   -1450.1015   -1237.5513   -1919.9417    426.79064    537.49117    35.340012   -3491.5223 
 6496000    281.30785   -3813.6757   -3331.5237   -3813.6757            0   -1258.6558    18.685272    22.008782    22.795988     9374.624   -356.75989    -2402.998   -1016.2096    690.84398    329.20153   -143.42271   -3503.6062 
 6497000    256.72827   -3808.7541   -3368.7306   -3808.7541            0   -871.60977    18.622599    21.934962    22.719527    9280.6085    928.59527   -1737.8224   -1805.6022   -884.09282     954.0609   -290.74514   -3486.7014 
 6498000    286.27246   -3808.0606   -3317.3994   -3808.0606            0   -1613.2319    18.740075    22.073333    22.862848    9457.3521    112.88585   -2890.7407   -2061.8408   -6.2733737   -323.32418   -1092.6477   -3539.9057 
 6499000    268.28217   -3834.5062   -3374.6797   -3834.5062            0   -2330.7393    18.803143    22.147619    22.939791    9553.1578    -1948.812   -3191.8864   -1851.5195   -741.10209      894.113   -249.13514   -3699.4053 
 6500000    284.20072     -3780.24   -3293.1297     -3780.24            0   -1737.9371    18.798144    22.141731    22.933692    9545.5404   -1995.1547   -609.22404   -2609.4327    292.24533    817.31178   -571.80986   -3535.0712 
Loop time of 351.782 on 64 procs for 250000 steps with 864 atoms

Performance: 122.803 ns/day, 0.195 hours/ns, 710.668 timesteps/s
383.8% CPU use with 16 MPI tasks x 4 OpenMP threads

MPI task timing breakdown:
Section |  min time  |  avg time  |  max time  |%varavg| %total
---------------------------------------------------------------
Pair    | 25.59      | 27.121     | 29.017     |  21.8 |  7.71
Bond    | 1.6473     | 1.8826     | 2.2222     |  11.5 |  0.54
Kspace  | 186.28     | 188.62     | 191.84     |  13.4 | 53.62
Neigh   | 3.3043     | 3.4202     | 3.4863     |   2.6 |  0.97
Comm    | 54.152     | 56.886     | 60.417     |  18.3 | 16.17
Output  | 0.4862     | 0.48664    | 0.48806    |   0.1 |  0.14
Modify  | 55.297     | 61.256     | 64.596     |  38.2 | 17.41
Other   |            | 12.11      |            |       |  3.44

Nlocal:        54.0000 ave          65 max          46 min
Histogram: 2 2 0 6 1 0 2 1 1 1
Nghost:        2457.12 ave        2499 max        2407 min
Histogram: 1 0 1 3 2 2 3 0 2 2
Neighs:        12925.5 ave       15325 max       11017 min
Histogram: 1 2 2 5 1 0 2 0 2 1

Total # of neighbors = 206808
Ave neighs/atom = 239.36111
Ave special neighs/atom = 2.0000000
Neighbor list builds = 14733
Dangerous builds = 0

unfix		3
unfix		2
unfix		1

write_data	data.final.${pid}
write_data	data.final.1
System init for write_data ...
PPPM initialization ...
  extracting TIP4P info from pair style
  using 12-bit tables for long-range coulomb (../kspace.cpp:340)
  G vector (1/distance) = 0.37127045
  grid = 24 25 27
  stencil order = 5
  estimated absolute RMS force accuracy = 0.0031867544
  estimated relative force accuracy = 9.5968161e-06
  using double precision FFTW3
  3d grid and FFT values/proc = 5700 1200
Last active /omp style is kspace_style pppm/tip4p/omp
WARNING: Not all mixed pair coeffs generated from mixing. Use write_data with 'pair ij' option to store all pair coeffs. (../write_data.cpp:312)

write_restart   restart.lmp.${pid}
write_restart   restart.lmp.1
System init for write_restart ...
PPPM initialization ...
  extracting TIP4P info from pair style
  using 12-bit tables for long-range coulomb (../kspace.cpp:340)
  G vector (1/distance) = 0.37127045
  grid = 24 25 27
  stencil order = 5
  estimated absolute RMS force accuracy = 0.0031867544
  estimated relative force accuracy = 9.5968161e-06
  using double precision FFTW3
  3d grid and FFT values/proc = 5700 1200
Last active /omp style is kspace_style pppm/tip4p/omp
Total wall time: 0:05:51
