LAMMPS data file via write_data, version 30 Jul 2021, timestep = 45750000

864 atoms
2 atom types
576 bonds
1 bond types
288 angles
1 angle types

0.1504986560090007 18.057073743988965 xlo xhi
0.20880293496424684 23.420374865041147 ylo yhi
0.17269188872535146 22.04050391127135 zlo zhi

Masses

1 1.00794
2 15.9994

Atoms # full

707 1 1 0.5897 3.1641246108346475 1.9156276647368056 3.893470173852935 0 0 0
706 1 2 -1.1794 3.1783011416549094 1.880835114743889 2.9370997984201606 0 0 0
30 1 1 0.5897 5.345391112121695 4.104371724185086 2.3923468372285406 0 0 0
708 1 1 0.5897 2.3589756582898844 2.297437062382142 2.669660586662606 0 0 0
29 1 1 0.5897 4.588715195190593 2.793110589571937 2.384593059020206 0 0 0
28 1 2 -1.1794 5.370727321890018 3.217962668977459 2.0320139628221936 0 0 0
495 1 1 0.5897 8.233304363294527 2.264933104590402 2.7847344198693307 0 0 0
1 1 2 -1.1794 0.8932479645420627 3.2027482050611504 2.1257525175926126 0 0 0
494 1 1 0.5897 6.722766497985173 2.288470388470115 2.6839657758537063 0 0 0
493 1 2 -1.1794 7.447701803544113 1.8034264359593148 3.078332975330458 0 0 0
846 1 1 0.5897 7.48867759023707 1.8707491959784472 4.839409732114774 0 0 0
3 1 1 0.5897 0.8563977143480328 4.1115454436524725 2.4239830779603277 0 0 0
136 1 2 -1.1794 5.35722937372258 5.818213748395082 2.9832132711203503 0 0 0
595 1 2 -1.1794 0.7991669772270539 5.818374132293447 2.9458233662696243 0 0 0
597 1 1 0.5897 0.8194585222153725 5.800403641121357 3.90254661425899 0 0 0
137 1 1 0.5897 5.319118568946814 5.839745175488347 3.9393197467153707 0 0 0
20 1 1 0.5897 0.7475675088172269 3.2575138974347713 0.3345809390205706 0 0 0
668 1 1 0.5897 5.32499846866178 3.216818952296785 0.27741213748072147 0 0 0
685 1 2 -1.1794 5.3543635039448745 5.79778895720029 5.774007749723398 0 0 0
176 1 1 0.5897 8.928221351894118 2.730120274773787 9.808176363553304 0 0 0
675 1 1 0.5897 3.039759382851561 1.0577884069816141 10.073127573445499 0 0 0
784 1 2 -1.1794 0.9311517460776783 3.19373504554942 6.650054026625861 0 0 0
678 1 1 0.5897 5.242653412304574 4.913959641418322 10.137678782103395 0 0 0
355 1 2 -1.1794 7.459078506093489 1.904468997177793 10.377230844990976 0 0 0
845 1 1 0.5897 7.492510290021887 1.0742973611343363 6.126740460762732 0 0 0
356 1 1 0.5897 7.407740939194984 0.9892264515289427 10.101714633456494 0 0 0
84 1 1 0.5897 6.046577104927142 2.8175286377390685 6.376643019745446 0 0 0
276 1 1 0.5897 6.002895005769418 2.7612122704025883 9.802430157902878 0 0 0
487 1 2 -1.1794 3.1242610845368137 1.9171727013084383 5.669332050188681 0 0 0
785 1 1 0.5897 0.918443441240582 3.1768775254536874 7.606929397569785 0 0 0
82 1 2 -1.1794 5.2941223267226585 3.25623281673003 6.773739881384513 0 0 0
676 1 2 -1.1794 5.212298034994574 5.806467113806146 10.482228981771197 0 0 0
674 1 1 0.5897 3.790597452600631 2.372417585809753 10.076481160461586 0 0 0
274 1 2 -1.1794 5.223397514245933 3.2308325501171056 9.505447359933312 0 0 0
419 1 1 0.5897 8.9645352841842 2.7255657578471713 6.419983911686588 0 0 0
844 1 2 -1.1794 7.490784264504178 1.9707713563560807 5.7912746420914765 0 0 0
83 1 1 0.5897 4.532876476137915 2.8053726867316393 6.408266717646535 0 0 0
181 1 2 -1.1794 0.9230420223376193 5.766656867193993 5.701053639900202 0 0 0
489 1 1 0.5897 3.1011092604563486 1.0244374945247172 6.013851146670998 0 0 0
183 1 1 0.5897 0.8973866962516094 4.87808116021222 6.055987784018938 0 0 0
488 1 1 0.5897 2.34876171719933 2.337935535144749 6.040690730218988 0 0 0
686 1 1 0.5897 5.305672735018942 4.919444098470909 6.151288106589116 0 0 0
36 1 1 0.5897 1.582916146880853 2.769390632220055 9.746054961766905 0 0 0
35 1 1 0.5897 0.8088701189836911 4.067163578219335 9.652977421020026 0 0 0
34 1 2 -1.1794 0.7933776064695657 3.154297196063992 9.365494658998983 0 0 0
112 1 2 -1.1794 0.7196839636602492 5.763986612308507 10.145028096954624 0 0 0
673 1 2 -1.1794 2.9949912894160033 1.9541870368053438 10.405802582352365 0 0 0
275 1 1 0.5897 5.302319883736225 3.247728541325218 8.551748014694926 0 0 0
113 1 1 0.5897 0.7314103729329462 5.779534780620143 11.101937025706603 0 0 0
166 1 2 -1.1794 3.0098495620868526 1.9157834795316626 13.124774697474365 0 0 0
167 1 1 0.5897 3.0091204525817723 1.9193618829308299 12.167674634513732 0 0 0
457 1 2 -1.1794 5.154010333317726 3.277157936054017 14.146515308641794 0 0 0
458 1 1 0.5897 5.914924896140173 2.814478805913675 13.79540150698145 0 0 0
459 1 1 0.5897 4.400879082859011 2.8055161214921687 13.79058330445203 0 0 0
762 1 1 0.5897 5.2315403513060135 4.9592450655378695 13.54229288658716 0 0 0
594 1 1 0.5897 8.172265682376793 2.320145288621488 13.402644851589164 0 0 0
168 1 1 0.5897 2.2076641346826023 2.378554918238945 13.367081491510675 0 0 0
71 1 1 0.5897 5.2148532247263715 3.143110017278854 15.9371809321871 0 0 0
592 1 2 -1.1794 7.3494820233550024 1.9206822596910298 13.120099737171401 0 0 0
466 1 2 -1.1794 0.7899808224852489 3.2965784853401225 13.80071344952379 0 0 0
593 1 1 0.5897 7.417226340806021 1.0079219154908052 13.400265134696626 0 0 0
468 1 1 0.5897 0.7732900571478473 3.295866722752603 14.757675032538755 0 0 0
365 1 1 0.5897 0.7181875869616499 4.95903654206368 13.190374734106609 0 0 0
761 1 1 0.5897 5.236926878763901 5.8063084742465545 12.287685516592644 0 0 0
357 1 1 0.5897 7.398614864669868 1.871422429316346 11.331855326360735 0 0 0
364 1 2 -1.1794 0.6834838169497086 5.866295868586274 12.887246619126852 0 0 0
760 1 2 -1.1794 5.249472438635102 5.868166435066828 13.24270946451597 0 0 0
737 1 1 0.5897 2.8404870101459143 0.26789314291087807 13.752943648555185 0 1 0
133 1 2 -1.1794 0.8079686679688063 3.2883156503962185 16.53095865745673 0 0 0
323 1 1 0.5897 7.370828516137653 0.3366745374425584 16.969537125986932 0 1 0
599 1 1 0.5897 9.101595800945825 2.7711137628941764 16.940117988416077 0 0 0
360 1 1 0.5897 9.03313538663862 2.7224878966935058 20.975614530925192 0 0 0
42 1 1 0.5897 7.569396766384539 1.0049763941982532 20.591250670818674 0 0 0
669 1 1 0.5897 4.486097481347596 2.7409366385959717 20.97835765748681 0 0 0
21 1 1 0.5897 0.677016176086468 4.125753896249693 20.964337532610266 0 0 0
754 1 2 -1.1794 7.618193821655192 2.0013841878597 17.54288047588151 0 0 0
144 1 1 0.5897 5.356972257458533 5.76750906741155 19.479520030703576 0 0 0
755 1 1 0.5897 7.587087824474676 1.9595512291777744 18.498567835193015 0 0 0
289 1 2 -1.1794 2.9369769904064777 2.0121464922591796 17.757249472790335 0 0 0
568 1 2 -1.1794 2.955458959892859 1.9254066260608762 20.508710120621657 0 0 0
143 1 1 0.5897 5.267695206934525 4.876832472674469 20.700310635523074 0 0 0
72 1 1 0.5897 4.4475622026712625 2.758126609452938 17.184091134325207 0 0 0
648 1 1 0.5897 0.6653804384439447 5.809922236955858 19.487416878620714 0 0 0
134 1 1 0.5897 0.7376808002901646 4.1603785843293934 16.91924336119716 0 0 0
70 1 2 -1.1794 5.259191580775995 3.173770111037341 16.892769433149788 0 0 0
569 1 1 0.5897 2.153389398197809 2.3803903093789485 20.76570088361609 0 0 0
19 1 2 -1.1794 0.6792360589630245 3.211818752411352 21.24882088477397 0 0 0
571 1 2 -1.1794 0.7219251197219803 5.739038981225 17.69755902976162 0 0 0
277 1 2 -1.1794 5.356869499472445 5.80181540239664 17.69933615237221 0 0 0
756 1 1 0.5897 6.797221171827313 2.426434559352862 17.29444883027395 0 0 0
291 1 1 0.5897 2.2143262286744307 2.465891349251633 17.323418965239192 0 0 0
142 1 2 -1.1794 5.287443386166754 5.795924387865281 20.43367715703203 0 0 0
646 1 2 -1.1794 0.6127142678389127 5.826988551331556 20.442922330228832 0 0 0
290 1 1 0.5897 2.918050829056492 1.1272519586550618 17.392823251735365 0 0 0
40 1 2 -1.1794 7.5918196123559625 1.9080150197185943 20.27466330203825 0 0 0
278 1 1 0.5897 5.314250091867703 4.893727972748928 17.399715467144247 0 0 0
667 1 2 -1.1794 5.302643973577953 3.1941624954134284 21.188646055034503 0 0 0
41 1 1 0.5897 6.783313199461416 2.298762079621722 20.606324728175913 0 0 0
570 1 1 0.5897 2.944832290184428 1.9423836370885648 19.551812681001792 0 0 0
81 1 1 0.5897 3.0014011780283716 0.2567082066476973 21.118590648514008 0 1 0
123 1 1 0.5897 3.1026675689285743 8.722334844703989 2.6933241106241543 0 0 0
121 1 2 -1.1794 3.090950185875669 9.633653049711791 2.9858514176989583 0 0 0
122 1 1 0.5897 3.0547507714978144 9.578699032115008 3.9406946140569934 0 0 0
44 1 1 0.5897 1.5773421589387895 10.473083267182876 2.4789606790263385 0 0 0
218 1 1 0.5897 5.9861885563734605 10.62015546853063 2.344509534284032 0 0 0
417 1 1 0.5897 8.255498073498526 6.695135260822401 2.4795880221528432 0 0 0
219 1 1 0.5897 4.4737679681354106 10.551349725572692 2.3614688179637997 0 0 0
254 1 1 0.5897 3.023293331825132 7.023766076998534 1.1564301998048845 0 0 0
415 1 2 -1.1794 7.512671247442664 7.191769194878501 2.13621850897476 0 0 0
217 1 2 -1.1794 5.204931978082106 11.047510479274976 1.9932881917014325 0 0 0
66 1 1 0.5897 7.41648071496498 9.764620824910972 3.9530318060243848 0 0 0
65 1 1 0.5897 7.4425452919016415 8.869764962982995 2.732312807031068 0 0 0
64 1 2 -1.1794 7.411484782733826 9.789320671826937 2.996256487712709 0 0 0
253 1 2 -1.1794 3.0724720397007106 7.039517318039683 2.1121439133929396 0 0 0
255 1 1 0.5897 2.2753431894706333 6.594949615311667 2.4007862864320035 0 0 0
416 1 1 0.5897 6.742122293007813 6.709080285878816 2.4355822474503044 0 0 0
43 1 2 -1.1794 0.7533555070035047 10.868210977547824 2.1938343923104116 0 0 0
396 1 1 0.5897 0.829445156009302 10.961325650096628 0.41869856928351923 0 0 0
138 1 1 0.5897 4.54264412437977 6.234476980736922 2.7011718273965055 0 0 0
162 1 1 0.5897 7.503464009046941 7.143162989040371 0.35686842484187875 0 0 1
773 1 1 0.5897 8.93914596459323 10.644918371909668 2.5245228448958894 0 0 0
363 1 1 0.5897 5.205355184326749 10.957964543910192 0.22386137261524883 0 0 1
45 1 1 0.5897 0.7926189758927054 11.767118510315456 2.520377289391696 0 0 0
577 1 2 -1.1794 5.1986978744145285 10.884841808446058 6.821877901633409 0 0 0
578 1 1 0.5897 5.981095418718699 10.484841953937941 6.442133098337261 0 0 0
552 1 1 0.5897 0.8736355047367235 11.689959461845195 6.407191359058987 0 0 0
793 1 2 -1.1794 3.0564323328835092 9.480933671137187 5.726245609438965 0 0 0
528 1 1 0.5897 8.270249331349014 6.577452690887476 9.801321685348661 0 0 0
714 1 1 0.5897 7.536694831629206 8.872920307544474 6.08870916821362 0 0 0
687 1 1 0.5897 4.601294553171835 6.25951330030065 6.142838203955352 0 0 0
712 1 2 -1.1794 7.46398802241442 9.765095461669342 5.749675709150264 0 0 0
582 1 1 0.5897 5.28196867811715 10.93564531472884 8.56717684928226 0 0 0
10 1 2 -1.1794 3.1338023442736382 6.986476221334024 6.821931025054291 0 0 0
257 1 1 0.5897 2.9998965156087607 8.804458449411483 10.17832726504149 0 0 0
165 1 1 0.5897 8.905666453121565 6.269076489376403 6.121612123173127 0 0 0
822 1 1 0.5897 8.27401341142089 10.09497357488855 10.056527968817683 0 0 0
649 1 2 -1.1794 2.999240254565087 7.133106813632762 9.554713372702595 0 0 0
146 1 1 0.5897 6.742425756081177 6.716663832336155 6.41314738153122 0 0 0
527 1 1 0.5897 7.539685392463314 7.902712596172603 9.756852609966037 0 0 0
256 1 2 -1.1794 2.9767857601352086 9.704405190529986 10.503551147386002 0 0 0
650 1 1 0.5897 3.0828144387458405 7.08224677836769 8.602617709832645 0 0 0
713 1 1 0.5897 8.24713804894006 10.209731466200191 6.0742215262485075 0 0 0
11 1 1 0.5897 2.388710098409973 6.520358918168617 6.4425824049963785 0 0 0
114 1 1 0.5897 1.5153801623615064 6.229838148589361 9.887699469965254 0 0 0
820 1 2 -1.1794 7.51843337087015 9.58035864938051 10.340468826569381 0 0 0
145 1 2 -1.1794 7.52001594776816 7.1851716415521505 6.716807138947642 0 0 0
580 1 2 -1.1794 5.259547057850902 10.946571263241015 9.523959245829088 0 0 0
795 1 1 0.5897 3.7766110899799306 9.997379850634427 6.088122621024955 0 0 0
12 1 1 0.5897 3.07032448416505 7.87200024061456 6.46412912308337 0 0 0
258 1 1 0.5897 3.776091614024824 10.104165083161249 10.160532924053378 0 0 0
13 1 2 -1.1794 0.7000799860051894 10.836117946028851 9.465506119740917 0 0 0
550 1 2 -1.1794 0.8315257842213839 10.776142578620423 6.688936939548307 0 0 0
551 1 1 0.5897 0.7576970972668238 10.82209180765562 7.642086800166732 0 0 0
651 1 1 0.5897 3.747629195493039 6.637985444537634 9.88805052161464 0 0 0
15 1 1 0.5897 1.5190003712324547 10.488270986213555 9.818687345890268 0 0 0
794 1 1 0.5897 2.266330120670547 9.890611593329146 6.078745366700988 0 0 0
581 1 1 0.5897 6.043291396184248 10.464429022640438 9.787869367218587 0 0 0
677 1 1 0.5897 6.005162685594848 6.221848978077924 10.142846017239147 0 0 0
147 1 1 0.5897 7.486955342637662 7.112064256669375 7.670545992987772 0 0 0
526 1 2 -1.1794 7.477704813117526 6.993983678435032 9.462601034790893 0 0 0
579 1 1 0.5897 5.195172115885665 11.778302433474849 6.478483221651484 0 0 0
14 1 1 0.5897 0.6791353120929544 11.746551132683422 9.760267013451005 0 0 0
828 1 1 0.5897 7.563826273972352 7.137247436863744 14.962406539878538 0 0 0
261 1 1 0.5897 0.8620562990683057 11.000464753317406 14.932454372406452 0 0 0
332 1 1 0.5897 2.94707015371256 7.916812829177127 13.794728064310405 0 0 0
797 1 1 0.5897 3.07538813566407 9.610070685907885 12.281805368961317 0 0 0
796 1 2 -1.1794 3.080677360715708 9.58381973753869 13.238537872919245 0 0 0
798 1 1 0.5897 2.3094899415639043 10.088771824303842 13.496709698095213 0 0 0
722 1 1 0.5897 4.563850215936515 10.430554915359092 13.6802392572075 0 0 0
259 1 2 -1.1794 0.876481068367101 10.999147001683667 13.975456646953589 0 0 0
721 1 2 -1.1794 5.368743114315129 10.888025896705969 13.923632136430383 0 0 0
723 1 1 0.5897 5.37524334684486 10.869521170910295 14.880538289225512 0 0 0
331 1 2 -1.1794 2.8840274203707637 6.996367418908434 14.049725946147147 0 0 0
225 1 1 0.5897 3.0259813650027327 6.92001555728368 15.807433023391589 0 0 0
826 1 2 -1.1794 7.584532344781855 7.150990217009621 14.005621566406917 0 0 0
475 1 2 -1.1794 7.663705527151115 9.700447193460924 13.045017443847366 0 0 0
476 1 1 0.5897 6.865277124991051 10.118784558851535 13.36730019044873 0 0 0
477 1 1 0.5897 7.627085326598924 8.81079764406759 13.396281014739058 0 0 0
827 1 1 0.5897 6.754201601694603 6.754264538163281 13.741917570720757 0 0 0
333 1 1 0.5897 3.689444405288358 6.5996348590251035 13.717657207246173 0 0 0
366 1 1 0.5897 1.4597950512641178 6.27658329474864 13.26849570291544 0 0 0
821 1 1 0.5897 7.552907587804664 9.610949138099897 11.296465892592096 0 0 0
851 1 1 0.5897 8.959224648946487 6.197621295324821 13.388111599521942 0 0 0
104 1 1 0.5897 9.09489571843846 10.527602855965537 13.729949182815673 0 0 0
4 1 2 -1.1794 2.9628415839657154 6.993692838155898 21.2683734090646 0 0 0
689 1 1 0.5897 3.7254290427369803 10.059216583461765 20.59570460036695 0 0 0
522 1 1 0.5897 7.648259780018238 7.941749085467712 17.131856939411684 0 0 0
224 1 1 0.5897 3.042193248023034 7.850649419926744 17.001281676813292 0 0 0
8 1 1 0.5897 7.625335202345705 9.731675155524288 18.65591197422531 0 0 0
361 1 2 -1.1794 5.223463220188179 10.90994089407802 21.135943162016055 0 0 0
681 1 1 0.5897 5.293361348390241 11.719760483491307 16.967194644309572 0 0 0
680 1 1 0.5897 4.597055990302594 10.37551103936814 16.954921152470433 0 0 0
445 1 2 -1.1794 0.9181743523169973 10.941637403393633 16.72678450633775 0 0 0
279 1 1 0.5897 4.549291467112579 6.199951642386562 17.374266874205667 0 0 0
647 1 1 0.5897 1.4239430614668336 6.252777646643329 20.720378889936022 0 0 0
160 1 2 -1.1794 7.556542981068138 7.110700866453261 21.2695971899675 0 0 0
679 1 2 -1.1794 5.387070603079139 10.821655380990617 16.64964871688219 0 0 0
7 1 2 -1.1794 7.6585899490617315 9.661030824235654 17.7019943712303 0 0 0
140 1 1 0.5897 6.8011045710515745 10.113938608701323 20.67657791276119 0 0 0
6 1 1 0.5897 3.003079608723721 7.877283352352737 20.902516246540387 0 0 0
520 1 2 -1.1794 7.660743811808589 7.060589069811707 16.7582210821573 0 0 0
627 1 1 0.5897 2.355236541674675 10.02439963734904 17.235955996903378 0 0 0
625 1 2 -1.1794 3.1300936578945158 9.537551602706541 17.516905212516548 0 0 0
572 1 1 0.5897 1.5038442499651725 6.196452220831729 17.388151871018188 0 0 0
223 1 2 -1.1794 3.019941682579548 6.92346902174835 16.764515076816544 0 0 0
688 1 2 -1.1794 2.9484407189030533 9.588020407653312 20.294674159694218 0 0 0
521 1 1 0.5897 6.853409376221187 6.654543418165796 17.07397875025721 0 0 0
9 1 1 0.5897 6.865988198642136 10.105300473824402 17.40071423632707 0 0 0
287 1 1 0.5897 9.060627322336174 10.598258278534763 21.083790224116704 0 0 0
690 1 1 0.5897 2.2123242983773728 10.096325792605478 20.635402191464806 0 0 0
5 1 1 0.5897 3.7553758254566736 6.564207710413932 20.94620376169521 0 0 0
141 1 1 0.5897 7.551227382585539 8.799591882684012 20.719306209545287 0 0 0
394 1 2 -1.1794 0.8384446320900919 11.00356213003738 21.33037798583799 0 0 0
161 1 1 0.5897 6.764153972603892 6.6456288747961265 21.000910915444777 0 0 0
462 1 1 0.5897 9.057550476614725 6.23097473782447 20.815013544301358 0 0 0
711 1 1 0.5897 9.05290370864264 6.163981702875123 17.41579015343205 0 0 0
626 1 1 0.5897 3.079913309665309 9.537533670321299 18.472696437110763 0 0 0
139 1 2 -1.1794 7.629852490930233 9.706727085105848 20.42411827551792 0 0 0
200 1 1 0.5897 5.256079072503259 13.436643374164596 4.936598199043212 0 0 0
173 1 1 0.5897 4.530456320933959 14.016245483266369 2.8326619917711144 0 0 0
172 1 2 -1.1794 5.301390421570593 13.535004467357457 3.1333619501084384 0 0 0
293 1 1 0.5897 3.028881727189993 16.65860379692223 2.7628259555530965 0 0 0
558 1 1 0.5897 3.065916635237631 14.95819591353006 1.2948651787593422 0 0 0
556 1 2 -1.1794 3.1089231712503578 14.961755228383458 2.250999731303963 0 0 0
557 1 1 0.5897 2.350594067722532 14.4469773041812 2.5272170245669514 0 0 0
478 1 2 -1.1794 7.47910887519295 14.836676712428108 2.002569771148777 0 0 0
174 1 1 0.5897 5.231922662180001 12.680448315837342 2.7078010871062266 0 0 0
479 1 1 0.5897 8.237888853231553 14.421764870629458 2.4129787717929987 0 0 0
449 1 1 0.5897 7.54683086411876 16.523144235283432 2.7115247141407046 0 0 0
480 1 1 0.5897 6.723875122828731 14.428081165635069 2.4256593338322965 0 0 0
373 1 2 -1.1794 0.9129162913988365 13.479093016511925 3.0308465322729528 0 0 0
374 1 1 0.5897 0.8627644555144937 13.435395561862599 3.9856404659222675 0 0 0
308 1 1 0.5897 7.42005381434933 17.368298884233194 4.805979738384651 0 0 0
448 1 2 -1.1794 7.564632320505798 17.423456837064105 3.036065972483474 0 0 0
294 1 1 0.5897 2.9382023526378473 17.51852925895253 4.005363683152531 0 0 0
292 1 2 -1.1794 2.9921774522504943 17.57058313433887 3.051197657027231 0 0 0
317 1 1 0.5897 7.464666729487071 14.855358862015384 0.22137188399840174 0 0 0
201 1 1 0.5897 6.039014757371709 13.817952220868943 6.174886726573052 0 0 0
378 1 1 0.5897 7.513867704611399 14.883166890913765 8.533762070948262 0 0 0
456 1 1 0.5897 5.269604617747624 12.664112068420016 9.977907064402986 0 0 0
239 1 1 0.5897 2.8676664772747498 16.47249542104413 6.063055802423912 0 0 0
454 1 2 -1.1794 5.251251850634213 13.575668081306022 10.269352238915456 0 0 0
199 1 2 -1.1794 5.216323571272818 13.418046084772579 5.892698698984581 0 0 0
376 1 2 -1.1794 7.576505564227734 14.913420062900165 9.488339433859553 0 0 0
186 1 1 0.5897 7.4698290807097925 16.597333005505305 10.112314605654507 0 0 0
519 1 1 0.5897 8.306010826832187 14.385275420064207 6.462691959561347 0 0 0
766 1 2 -1.1794 0.8206026153256307 13.404131501691353 10.327865405540967 0 0 0
655 1 2 -1.1794 0.758361592774498 13.391006865486403 5.786942553664845 0 0 0
811 1 2 -1.1794 2.99823913257157 14.793427515269594 9.32732884490356 0 0 0
184 1 2 -1.1794 7.408435132202615 17.490473296727494 10.451042940727934 0 0 0
59 1 1 0.5897 9.027248074289497 14.05767394490231 9.987018025084524 0 0 0
813 1 1 0.5897 2.2634351704363858 14.291532452196693 9.680173881961135 0 0 0
307 1 2 -1.1794 7.411240054752125 17.3088538651908 5.761200083300343 0 0 0
812 1 1 0.5897 3.7764669051968194 14.340162331953023 9.65177485288229 0 0 0
517 1 2 -1.1794 7.466042791083131 14.7593200346755 6.729015244091471 0 0 0
17 1 1 0.5897 2.967093131835886 14.766085728426317 7.547230874679312 0 0 0
377 1 1 0.5897 6.817095433946332 14.417503546874075 9.794462520608425 0 0 0
518 1 1 0.5897 7.489031640883722 15.65839507981027 6.401380510975035 0 0 0
656 1 1 0.5897 1.5082940139833119 13.892431153687838 6.107128293577051 0 0 0
16 1 2 -1.1794 2.9494273936607267 14.762864006289531 6.590292155796223 0 0 0
18 1 1 0.5897 3.74867379441923 14.300836571012965 6.3370930499453815 0 0 0
238 1 2 -1.1794 2.8491729086731366 17.383575503979475 5.770137001201195 0 0 0
382 1 2 -1.1794 2.756222224048698 17.330758041914073 10.371329764372446 0 0 0
384 1 1 0.5897 2.79091452277808 16.44803496331394 10.00282244970447 0 0 0
429 1 1 0.5897 5.879411753317722 13.918772684271609 13.34515194374257 0 0 0
232 1 2 -1.1794 2.9172521743349606 14.875166587914709 14.005951991172923 0 0 0
234 1 1 0.5897 2.9851502462044732 14.838877069898201 14.959958750531277 0 0 0
606 1 1 0.5897 2.940649979665549 16.60293524277204 13.40305351603689 0 0 0
427 1 2 -1.1794 5.078805998344699 13.494217015309724 13.036694817689243 0 0 0
233 1 1 0.5897 3.68542403085859 14.397725159263588 13.692402003890514 0 0 0
639 1 1 0.5897 1.4819172309558828 14.018683399607593 13.379054527505707 0 0 0
428 1 1 0.5897 5.13351151665092 12.601750352529962 13.378331514384634 0 0 0
297 1 1 0.5897 8.136062877505328 14.41961702330601 13.611689534394802 0 0 0
296 1 1 0.5897 7.388599077813788 14.817274483363864 14.866636202779137 0 0 0
295 1 2 -1.1794 7.327035577282795 14.834178907412676 13.91165803067722 0 0 0
270 1 1 0.5897 7.296116418971972 16.575115160835573 13.436180521305552 0 0 0
638 1 1 0.5897 0.7744838962008292 12.680198575519245 13.379883111142375 0 0 0
637 1 2 -1.1794 0.6851144571499546 13.583382304962404 13.075771494716372 0 0 0
455 1 1 0.5897 5.147307370109494 13.521809879107344 11.219275515909374 0 0 0
605 1 1 0.5897 2.8807978508819136 17.42555607206439 12.133685823988031 0 0 0
269 1 1 0.5897 7.385792041694752 17.515871568230935 12.253574713453569 0 0 0
604 1 2 -1.1794 2.9454449223642767 17.505805116828054 13.085231251373221 0 0 0
767 1 1 0.5897 0.7692612661588556 13.473366108758833 11.281085339235927 0 0 0
268 1 2 -1.1794 7.368984675658182 17.502450243497655 13.210440661073132 0 0 0
49 1 2 -1.1794 7.426754290039681 14.760550857318059 16.644966362716623 0 0 0
665 1 1 0.5897 2.2927458178361126 14.521902050010338 21.02553775278924 0 0 0
823 1 2 -1.1794 3.0353274941332953 14.861702176504796 16.708850687173246 0 0 0
683 1 1 0.5897 5.9456931053122135 13.99276502616779 20.562728705374887 0 0 0
316 1 2 -1.1794 7.443943206310548 14.828384536141378 21.132681260698554 0 0 0
716 1 1 0.5897 2.9783575800434354 17.48126371776867 19.446511441608187 0 0 0
125 1 1 0.5897 5.22402087483363 13.431984410120574 18.47521413337762 0 0 0
50 1 1 0.5897 7.469562194727362 15.637364652187358 17.026497046018754 0 0 0
452 1 1 0.5897 0.8504166106332844 12.664946554185052 20.74421447465368 0 0 0
126 1 1 0.5897 5.971010851144654 13.890955313292137 17.241080208608366 0 0 0
53 1 1 0.5897 0.8712595333902143 13.51276268714844 18.659651805231846 0 0 0
684 1 1 0.5897 4.435448440254385 14.050415587413127 20.653667361054175 0 0 0
117 1 1 0.5897 8.91924754836283 13.963353939194935 20.572174439708775 0 0 0
51 1 1 0.5897 8.214715329299565 14.320951463143805 16.964694900644346 0 0 0
610 1 2 -1.1794 7.482922834008855 17.345371061057683 17.681987222457415 0 0 0
157 1 2 -1.1794 7.3261351721986125 17.469976225134197 20.42370508741864 0 0 0
52 1 2 -1.1794 0.8554023915016514 13.486099708775196 17.70304753638115 0 0 0
715 1 2 -1.1794 2.940498561775172 17.48755677137226 20.402849260118565 0 0 0
451 1 2 -1.1794 0.8859671068330328 13.567941439171154 20.42870763374794 0 0 0
666 1 1 0.5897 3.019628345861131 15.849789588714787 21.04480900455564 0 0 0
159 1 1 0.5897 7.36621366492795 17.418034352521076 19.46884844377042 0 0 0
682 1 2 -1.1794 5.151543834116292 13.554940382386128 20.256134026839945 0 0 0
583 1 2 -1.1794 2.9785836310211775 17.432726920476323 17.65796707442395 0 0 0
664 1 2 -1.1794 3.071170808190987 14.953771404616209 21.377529179038085 0 0 0
124 1 2 -1.1794 5.191410548303425 13.409923975694403 17.518916026035228 0 0 0
318 1 1 0.5897 7.414037761263193 15.747565063955685 20.8672975427908 0 0 0
825 1 1 0.5897 2.280444858871133 14.384418433394579 17.053372064335413 0 0 0
824 1 1 0.5897 3.792651874053188 14.347050594003479 16.98803544206916 0 0 0
584 1 1 0.5897 3.018154947709072 16.522837191652062 17.363440938239407 0 0 0
446 1 1 0.5897 0.9338632326951862 11.826277360589094 17.091980941928334 0 0 0
362 1 1 0.5897 5.19703222642718 11.822811151657442 20.84927171957481 0 0 0
267 1 1 0.5897 6.13118093268411 21.651186796655345 2.8124884411688633 0 0 0
696 1 1 0.5897 1.5805815138650123 21.812494938013092 2.8491113402335593 0 0 0
266 1 1 0.5897 4.618672790979708 21.654532774377447 2.8813562729528033 0 0 0
265 1 2 -1.1794 5.390420344597206 21.19285502197758 3.209395996301742 0 0 0
228 1 1 0.5897 5.295492516212412 19.573994259779493 2.4959673042315824 0 0 0
343 1 2 -1.1794 0.6886058664104534 18.885802539669243 2.235326098341783 0 0 0
249 1 1 0.5897 5.378771987044556 21.146843102959608 4.990166874243991 0 0 0
226 1 2 -1.1794 5.279309216124342 18.682231668972225 2.1485462959615282 0 0 0
187 1 2 -1.1794 3.176926088226288 22.43774103614789 2.2690942899503708 0 0 0
818 1 1 0.5897 8.32070627436755 22.095409871037557 2.4897538082794286 0 0 0
189 1 1 0.5897 3.146149265384904 22.43841073685656 1.3124817144590657 0 0 0
344 1 1 0.5897 1.4742048298570394 18.42931651740583 2.5366805044840324 0 0 0
817 1 2 -1.1794 7.527471903897554 22.460968289520885 2.097967802436888 0 0 0
345 1 1 0.5897 0.7242768210209344 18.820349803878646 1.2811249784537369 0 0 0
413 1 1 0.5897 0.7172568799753364 21.450223157936257 4.916247937941404 0 0 0
695 1 1 0.5897 0.715582517439352 20.570359744102138 2.8183922808661364 0 0 0
227 1 1 0.5897 4.46470309779914 18.308406302621353 2.4847578305522395 0 0 0
694 1 2 -1.1794 0.7337927080754624 21.472329887477848 3.1382826564561603 0 0 0
450 1 1 0.5897 6.743281703169404 17.80614700091313 2.727354583682217 0 0 0
498 1 1 0.5897 7.624480922532225 22.50343626253335 0.3245974881416822 0 0 0
321 1 1 0.5897 8.989854349843347 18.34245721145223 2.456671223711834 0 0 0
602 1 1 0.5897 5.189183522920358 18.779922912467338 0.3896620734048618 0 0 0
188 1 1 0.5897 3.2171050096093277 23.363631762589748 2.5085411842588634 0 0 0
819 1 1 0.5897 7.511475975943014 23.371298707740838 2.393355515708035 0 -1 0
342 1 1 0.5897 0.6772549823904346 18.768918441521635 7.518155605658053 0 0 0
309 1 1 0.5897 8.193107622806785 17.78646346642519 6.03856851128648 0 0 0
403 1 2 -1.1794 0.5792731481905515 18.65909103409229 9.33671206080728 0 0 0
39 1 1 0.5897 3.7587619390524027 22.111548200771356 9.69256437595592 0 0 0
702 1 1 0.5897 2.2900645610774153 22.15319209605917 6.363163688578889 0 0 0
387 1 1 0.5897 5.239290746380584 19.454589616149985 6.531626011655558 0 0 0
33 1 1 0.5897 6.775710113357709 22.058961919230118 6.476312796245417 0 0 0
87 1 1 0.5897 8.166880191427834 22.159899387676067 9.789446119788392 0 0 0
553 1 2 -1.1794 5.128563527350247 21.210263863678485 10.406851717018528 0 0 0
701 1 1 0.5897 3.0453871463425557 22.595639460901612 7.598260487501547 0 0 0
555 1 1 0.5897 5.165050757340962 20.321304816577424 10.05383018196208 0 0 0
32 1 1 0.5897 8.288899759688023 22.110468464051635 6.482691712238775 0 0 0
341 1 1 0.5897 1.4220928925446867 18.29727974685537 6.287503441199977 0 0 0
248 1 1 0.5897 4.5537960534944055 21.607071402499702 6.173123579587795 0 0 0
101 1 1 0.5897 5.8817233040390775 18.191824325975357 9.869614164221343 0 0 0
37 1 2 -1.1794 3.028166934397137 22.631840997823076 9.358106800626526 0 0 0
404 1 1 0.5897 1.3264161453929322 18.199489463647026 9.719959425348161 0 0 0
247 1 2 -1.1794 5.353936780887821 21.132786659248662 5.946848480422248 0 0 0
31 1 2 -1.1794 7.513640771504371 22.598015975677868 6.7613094875735245 0 0 0
386 1 1 0.5897 5.9129120818566845 18.10305393759103 6.424017675900594 0 0 0
340 1 2 -1.1794 0.6776095508940165 18.832177559877156 6.563140464955364 0 0 0
100 1 2 -1.1794 5.061153544452177 18.580189325967183 9.565954034093066 0 0 0
85 1 2 -1.1794 7.331474815565588 22.50914957074129 9.478802147683702 0 0 0
185 1 1 0.5897 8.184792702177317 17.931797721763004 10.10629497324171 0 0 0
554 1 1 0.5897 5.9205761220685185 21.633084183541367 10.074742804836122 0 0 0
700 1 2 -1.1794 3.1121377593387516 22.55507587515026 6.644344795789315 0 0 0
385 1 2 -1.1794 5.154896543185987 18.542524696155343 6.809529135351255 0 0 0
414 1 1 0.5897 0.7100490993689461 20.550597828693597 6.133715226363262 0 0 0
102 1 1 0.5897 5.128508439210356 18.567381138233426 8.611302965397678 0 0 0
412 1 2 -1.1794 0.7250361350553861 21.471500924061797 5.873087433958829 0 0 0
405 1 1 0.5897 0.6491809598889446 19.552672994515756 9.672622399178822 0 0 0
94 1 2 -1.1794 0.7628524605028546 21.280491242067516 10.13882036263093 0 0 0
86 1 1 0.5897 7.422674549937917 22.537769625741834 8.526477877958502 0 0 0
240 1 1 0.5897 3.631201066752689 17.776336984097007 6.158101062691274 0 0 0
38 1 1 0.5897 2.246205721555874 22.160129345351468 9.645131707508874 0 0 0
383 1 1 0.5897 3.556405455952441 17.75299930261837 10.058628648748565 0 0 0
96 1 1 0.5897 0.7285619630591149 21.318426741104805 11.094561180967426 0 0 0
88 1 2 -1.1794 5.084586912210728 21.423814231758 13.144532884419558 0 0 0
381 1 1 0.5897 1.442359884747351 21.78482635716659 13.273680102143247 0 0 0
90 1 1 0.5897 5.135129999957662 20.515642782173877 13.442660965164354 0 0 0
763 1 2 -1.1794 5.1451774151814735 18.84737151712354 14.058763752868236 0 0 0
738 1 1 0.5897 3.5858931960583735 22.16194898492962 13.729762047960378 0 0 0
89 1 1 0.5897 5.0425582283628385 21.36114326261078 12.190404211308465 0 0 0
736 1 2 -1.1794 2.7947070294989724 22.578181957916268 14.0720059334751 0 0 0
789 1 1 0.5897 6.613549292639269 22.129756141725174 13.646973384415908 0 0 0
765 1 1 0.5897 5.896634331425402 18.358590284822384 13.722984733627662 0 0 0
787 1 2 -1.1794 7.446676140200896 22.5039065368581 13.933837315614417 0 0 0
503 1 1 0.5897 1.4919806246678078 18.35905255769338 13.700440398786323 0 0 0
764 1 1 0.5897 4.382713072015024 18.379820916054143 13.717603322005536 0 0 0