LAMMPS data file via write_data, version 30 Jul 2021, timestep = 22000000

864 atoms
2 atom types
576 bonds
1 bond types
288 angles
1 angle types

0.6490494359258001 17.55852296407687 xlo xhi
1.8560257731217948 21.773152026882286 ylo yhi
0.791838795831957 21.4213570041616 zlo zhi

Masses

1 1.00794
2 15.9994

Pair Coeffs # lj/cut/tip4p/long/omp

1 0 0
2 0.21084 3.1668

Bond Coeffs # harmonic/omp

1 450 0.9572

Angle Coeffs # harmonic/omp

1 55 104.52

Atoms # full

106 1 2 -1.1794 4.1491323668644515 3.020033204850006 2.0343013277199073 0 0 4
90 1 1 0.5897 3.954033101603558 5.26689942790866 5.161644087850598 9 -2 7
89 1 1 0.5897 3.6594366967078535 5.950811875034236 3.84346633778197 9 -2 7
108 1 1 0.5897 3.3870618758315025 3.331779132165868 2.522545448913439 0 0 4
255 1 1 0.5897 4.211776926191282 2.151924889688152 4.675328025579666 2 11 -6
88 1 2 -1.1794 3.2399454164816928 5.471021761550956 4.557715692774622 9 -2 7
549 1 1 0.5897 1.5056154521475937 5.256734283574317 2.545911030327268 9 3 4
547 1 2 -1.1794 1.7976459904334416 4.404188071377869 2.2231159584986497 9 3 4
554 1 1 0.5897 1.0129290564332725 3.3677290206552897 3.787837392168228 -8 -1 1
107 1 1 0.5897 3.8269091925908274 2.263918290313827 1.5436232037780568 0 0 4
548 1 1 0.5897 1.167763032649067 4.178098684906682 1.5386861281987054 9 3 4
253 1 2 -1.1794 3.302234849991144 1.9153245526197622 4.857157053122083 2 11 -6
621 1 1 0.5897 2.049056129071361 4.989793404322505 5.7214752553487624 6 -5 2
390 1 1 0.5897 3.6091552539683267 6.388790423723947 0.9381436122674325 -4 8 6
389 1 1 0.5897 2.9916512080436086 5.0072679959873145 0.9851645553804497 -4 8 5
619 1 2 -1.1794 1.6008676641394088 5.060272365152638 6.564375405232687 6 -5 2
248 1 1 0.5897 1.2977634812775762 6.446957604168811 8.509656344538197 -7 4 -2
494 1 1 0.5897 3.420949180024089 4.996697374929035 10.348178234374613 -5 -2 0
495 1 1 0.5897 2.2338563870203134 4.195429096672868 9.85740613511656 -5 -2 0
150 1 1 0.5897 4.720968741022286 2.271766247632447 7.936162010788342 -8 0 3
856 1 2 -1.1794 1.5320868902157807 2.3513728002864145 7.050338602271367 0 -1 -3
493 1 2 -1.1794 2.8744151825397006 4.848880806575437 9.57632707998551 -5 -2 0
103 1 2 -1.1794 0.8460236718772848 3.5806946327294416 10.712058228335962 -4 -1 6
620 1 1 0.5897 1.4864757141009268 4.154407772916288 6.85183074194835 6 -5 2
149 1 1 0.5897 3.9861347821105193 3.3471783716003305 8.707906845599982 -8 0 3
148 1 2 -1.1794 4.733357361112208 3.21000115940274 8.125538583592206 -8 0 3
857 1 1 0.5897 2.143028849537262 2.3153823054285825 6.314277989578021 0 -1 -3
693 1 1 0.5897 3.539858054559962 6.696839463702322 7.694322196108913 1 2 1
680 1 1 0.5897 0.8418023800629473 2.2433565716970745 15.123501709191311 -7 -5 -2
14 1 1 0.5897 1.9513523084722952 6.66215739000523 11.742854299085955 0 -5 -2
622 1 2 -1.1794 3.4254488223606994 3.2205172261255264 12.842399618803196 6 8 4
552 1 1 0.5897 3.1921177147482784 1.904438576940558 11.435123262065376 2 7 -6
623 1 1 0.5897 4.005109428508527 3.9305383637763476 12.566311718408462 6 8 4
13 1 2 -1.1794 1.3626037209815547 6.202383245395625 12.34142201393495 0 -5 -2
313 1 2 -1.1794 3.258793846325311 6.2347566498055205 14.442222692768157 -2 -1 -5
442 1 2 -1.1794 0.9435976317884628 3.6813949001580233 13.592821079582313 4 5 -1
315 1 1 0.5897 2.609355036137693 5.923929674492799 13.811412273351753 -2 -1 -5
15 1 1 0.5897 1.1240730446954728 5.401130820109845 11.87514410709119 0 -5 -2
444 1 1 0.5897 1.8850479422768496 3.5239092180917932 13.520614449461648 4 5 -1
624 1 1 0.5897 3.9961819520506565 2.614979434172594 13.315577989688252 6 8 4
679 1 2 -1.1794 0.7661068363114236 2.156265136994956 16.073767563616848 -7 -5 -2
486 1 1 0.5897 3.048573961857039 4.783701757196782 15.67766540824686 4 0 -4
314 1 1 0.5897 3.8635605888957003 6.764550734390116 13.922723915724932 -2 -1 -5
443 1 1 0.5897 0.8680616453513673 4.400993725252883 14.219563056155355 4 5 -1
588 1 1 0.5897 0.973970590950511 6.645926622911116 15.653261482798971 -2 -3 5
394 1 2 -1.1794 4.809647415164398 5.271368672143197 11.349331139520434 3 2 1
507 1 1 0.5897 3.4192997675167587 2.71918220036674 19.466869657867644 -1 4 -2
702 1 1 0.5897 1.225655846897019 3.872912404371178 19.6319285491714 2 3 -1
484 1 2 -1.1794 3.056977343388335 4.393452832334697 16.551710167286462 4 0 -4
695 1 1 0.5897 1.13462927323519 5.685566932321445 18.690601879541124 3 0 -4
700 1 2 -1.1794 1.7364980744013345 3.2307045124833698 20.124799730598955 2 3 -1
505 1 2 -1.1794 4.185737734055685 2.418472716967602 18.978481938860742 -1 4 -2
388 1 2 -1.1794 3.477762801244437 5.600027341334243 21.041415421164505 -4 8 5
485 1 1 0.5897 2.1971674272966917 3.9818592244881574 16.639051564800077 4 0 -4
207 1 1 0.5897 3.2869150664740685 6.00551936912161 17.712564204416736 -6 3 -3
701 1 1 0.5897 1.3499760614825356 2.386583107382461 19.891636131299823 2 3 -1
205 1 2 -1.1794 3.2441929160669227 6.663614425334457 18.406399471572914 -6 3 -3
206 1 1 0.5897 3.33597334416142 6.163540700915219 19.217454490211477 -6 3 -3
269 1 1 0.5897 3.9219855797347534 9.383859350808667 5.111984757812016 2 3 5
783 1 1 0.5897 1.8247138793086626 10.023492362598441 3.5881809366191435 0 -1 1
564 1 1 0.5897 3.5830197509692248 8.96898946516103 1.9860646458487616 0 5 9
781 1 2 -1.1794 1.1349605425482174 10.42313397993061 3.0582322015966112 0 -1 1
563 1 1 0.5897 2.3432205507727164 8.101603715491787 2.0378930668074986 0 5 9
291 1 1 0.5897 1.6898793719188479 8.707605433937124 5.789105181133825 -8 -8 -7
263 1 1 0.5897 4.531262144580317 7.524499940353191 2.5620841615262533 -2 -1 9
562 1 2 -1.1794 3.1805200986424005 8.19899950431792 1.584280799687121 0 5 9
270 1 1 0.5897 3.0423345129570545 10.572620485016284 5.436346453756983 2 3 5
268 1 2 -1.1794 3.0679770832379982 9.769392414245983 4.9161910216810725 2 3 5
802 1 2 -1.1794 1.365683130574522 7.077084936996792 3.2146306792375423 2 2 -4
803 1 1 0.5897 1.6256456688844279 7.007116048414348 4.133234702266714 2 2 -4
180 1 1 0.5897 4.138779771042945 10.612246217084307 7.051287522806701 -5 5 3
662 1 1 0.5897 3.8770434746847884 7.746268640542931 10.543999404093768 -4 0 -1
343 1 2 -1.1794 1.2588321121892914 10.584396733664683 9.329824403517625 3 1 2
344 1 1 0.5897 2.019951018089921 10.21081611306273 8.885482858261678 3 1 2
240 1 1 0.5897 4.418489735741167 10.90714005527841 9.550034552193134 -7 -7 5
238 1 2 -1.1794 4.641524144928001 11.451039260281913 10.305521877297373 -7 -7 5
661 1 2 -1.1794 2.9441374316122597 7.934600762039119 10.646801256350098 -4 0 -1
290 1 1 0.5897 1.0065215777381038 7.851048413358432 6.8338110583986245 -8 -8 -7
178 1 2 -1.1794 3.8310552588066016 10.153661078603115 7.833156153293629 -5 5 3
692 1 1 0.5897 4.715168081729377 7.425164230206605 8.310983552921638 1 2 1
249 1 1 0.5897 1.8293868708075878 7.512309144300601 9.444830016427796 -7 4 -2
247 1 2 -1.1794 1.342109535390143 7.3956741717018 8.629169678512842 -7 4 -2
179 1 1 0.5897 3.910149006726968 9.225304861736285 7.613609546933422 -5 5 3
691 1 2 -1.1794 4.2333754493726525 7.324211266788539 7.490011712954013 1 2 1
289 1 2 -1.1794 0.8261690290485659 8.42166382674329 6.086697979851303 -8 -8 -7
296 1 1 0.5897 0.8636961831738187 11.17316210700742 11.1019411180209 3 1 -1
843 1 1 0.5897 4.3240275715046685 8.181461654321703 16.01669124536982 -6 -1 0
687 1 1 0.5897 1.9990731172268947 8.67999855464614 14.488483030287421 12 -6 0
685 1 2 -1.1794 1.5330440114367168 8.70581204518438 15.324221841541082 12 -6 0
295 1 2 -1.1794 1.067517793570494 11.445423468382131 11.996722196404114 3 1 -1
560 1 1 0.5897 2.242862149266644 10.243189481060941 12.603227027268325 5 1 0
559 1 2 -1.1794 2.7720635458909886 9.545294797772605 12.989496910345853 5 1 0
561 1 1 0.5897 3.315441929015588 9.988720881847309 13.640979650366818 5 1 0
663 1 1 0.5897 2.903974395309837 8.561040154731337 11.369478164989827 -4 0 -1
211 1 2 -1.1794 4.854024939200831 10.946659579952614 14.755708762811688 6 2 1
456 1 1 0.5897 4.182132648391011 9.359220596271275 19.17378831626715 -6 -3 1
615 1 1 0.5897 2.6979097009376827 10.662148447106418 19.100432994551866 -4 7 7
710 1 1 0.5897 1.3676250097965945 11.441703813095497 16.66207274558543 -6 -5 -1
845 1 1 0.5897 1.4084982854205141 9.982436889576485 20.763067772116045 3 3 3
660 1 1 0.5897 1.6486075885356568 7.30838364179495 20.765375691366035 0 -1 3
709 1 2 -1.1794 2.085363783258147 10.911430745979796 17.008463485041545 -6 -5 -1
614 1 1 0.5897 3.43512280977929 10.783480880023696 20.417204867873778 -4 7 6
613 1 2 -1.1794 2.9549476268593393 10.159122113240889 19.873219585031453 -4 7 7
732 1 1 0.5897 0.8893386584685765 8.604170319225512 17.328608689617763 -1 7 -8
455 1 1 0.5897 4.54336532553995 8.12563186250106 18.37387127740186 -6 -3 1
711 1 1 0.5897 2.1230068226255137 10.150539933683492 16.428858338180284 -6 -5 -1
658 1 2 -1.1794 0.7793938342956067 7.469531777814553 20.39821726653993 0 -1 3
513 1 1 0.5897 0.8464996856497099 12.465530918126868 5.012960987568847 -1 3 -4
734 1 1 0.5897 4.751372984461234 13.097190495726382 3.941903999161574 -4 -2 -4
735 1 1 0.5897 4.2282702307081586 14.487419255376096 4.234651439505259 -4 -2 -4
725 1 1 0.5897 3.1264523193106544 12.98348025745532 5.180625409244697 3 -9 2
779 1 1 0.5897 1.8426399269772151 12.155717242869814 2.3494092334939176 -4 1 4
780 1 1 0.5897 2.81839135818956 13.277507355928952 2.635040594722165 -4 1 4
733 1 2 -1.1794 3.988097113969891 13.660913673969972 3.815704994906401 -4 -2 -4
489 1 1 0.5897 1.0239749485561669 15.379392850400583 2.9268039088598967 5 -8 4
778 1 2 -1.1794 2.2379054265228584 12.933714203869888 1.9559539439478049 -4 1 4
195 1 1 0.5897 2.989716252626755 14.752602966894738 1.1842443945149246 6 -1 5
481 1 2 -1.1794 2.4378720128297973 16.378780911149555 3.440719917911078 3 3 -4
758 1 1 0.5897 3.5208676194829196 12.544005880338112 0.9384117682112162 -2 3 0
488 1 1 0.5897 0.7723720584945708 14.090545442197612 2.1733807859121423 5 -8 4
724 1 2 -1.1794 2.604590392617237 12.342314461355068 5.66320648184268 3 -9 2
194 1 1 0.5897 3.9442573931352407 15.900863311337183 0.9343769723322843 6 -1 5
785 1 1 0.5897 4.115620971110251 15.117081256190557 7.0878231375848015 6 5 1
261 1 1 0.5897 1.6816535051968855 13.70309585028153 8.660864098717461 6 -4 7
784 1 2 -1.1794 3.6983343572798524 15.386931233730131 6.2696706357325835 6 5 1
260 1 1 0.5897 1.942962120612002 12.213853890257147 8.738012160945352 6 -4 7
406 1 2 -1.1794 0.8750805346947417 15.44999568035506 7.219020102733642 -4 -2 4
259 1 2 -1.1794 2.3246315755720097 13.034172992165908 8.425431570996786 6 -4 7
385 1 2 -1.1794 3.2437469151956395 16.58721915746088 9.643766192066545 -6 1 1
387 1 1 0.5897 2.5112853545714082 16.10480499693899 10.027306767207945 -6 1 1
375 1 1 0.5897 3.872699759708128 13.72460700956186 8.352410082218825 8 10 4
325 1 2 -1.1794 1.163608174723936 14.896027748232068 10.685205958242934 6 -7 -4
786 1 1 0.5897 2.79145467677409 15.573305181446425 6.512882184323132 6 5 1
726 1 1 0.5897 2.417933482531705 12.766377195108317 6.500846047896485 3 -9 2
373 1 2 -1.1794 4.818619206988431 13.87133439375723 8.348768240057275 8 10 4
327 1 1 0.5897 1.7427048922147128 14.196221893209 10.987249438061376 6 -7 -4
408 1 1 0.5897 0.8299174208102739 16.238146858414268 7.760390054336154 -4 -2 4
278 1 1 0.5897 4.091354373537069 14.517191724129583 14.434890554605698 1 2 1
281 1 1 0.5897 3.601529138959618 13.843325181451924 12.275908587561254 1 -1 5
277 1 2 -1.1794 4.035356298628405 15.04704567669508 13.639642843048263 1 2 1
19 1 2 -1.1794 1.59388007825038 16.53061429471302 13.622051317332533 -8 -6 -6
279 1 1 0.5897 3.2324444260982164 15.557033457177832 13.74709090601517 1 2 1
280 1 2 -1.1794 2.988758476544772 13.373053086996197 11.710518168649186 1 -1 5
595 1 2 -1.1794 3.7348497222681125 13.705327631624373 16.057746357667995 3 -6 0
282 1 1 0.5897 3.5470442377256357 12.87676611122634 11.111913550563171 1 -1 5
20 1 1 0.5897 1.2737467450955302 15.628492228860486 13.618463212774017 -8 -6 -7
650 1 1 0.5897 0.9787506439460226 13.877569738085057 15.228466473608108 8 -2 0
651 1 1 0.5897 1.346954612049367 12.984925326381573 14.062413488480068 8 -2 0
596 1 1 0.5897 3.71521154915501 12.750429004101386 16.1216625775553 4 -6 0
649 1 2 -1.1794 0.8994109625758977 13.803324982508443 14.277417598732818 8 -2 0
297 1 1 0.5897 1.616476067394522 12.22257853254623 11.891953839171403 3 1 -1
21 1 1 0.5897 1.5879208318479516 16.783674639804726 14.545246847054333 -8 -6 -6
604 1 2 -1.1794 1.0288947543001636 14.251526069671636 17.064559403704642 -1 1 1
419 1 1 0.5897 4.541187286299579 13.196775484615891 19.035264247409003 -8 -2 4
78 1 1 0.5897 4.315433858958599 16.16768124660961 18.961056261553207 -7 -3 -6
665 1 1 0.5897 2.8069302244713135 14.141126313301399 19.852408080588763 8 -2 2
76 1 2 -1.1794 3.73338226014591 16.098957882395393 18.20422500734101 -7 -3 -6
77 1 1 0.5897 2.8519365052817403 16.113518543648894 18.577244354915067 -7 -3 -6
606 1 1 0.5897 0.7585395578253116 15.091608507120892 17.435343635899656 -1 1 1
666 1 1 0.5897 1.6288615722406932 13.206556227795227 20.02832214413872 8 -2 2
605 1 1 0.5897 1.3944205952854147 13.768545543386828 17.80578977706518 -1 1 1
420 1 1 0.5897 4.747693489087661 13.840672061907192 17.680707550021893 -8 -2 4
664 1 2 -1.1794 2.372647832645306 13.38714028476732 19.453389849971813 8 -2 2
574 1 2 -1.1794 1.117090526658472 16.52952494619234 19.201469044107096 5 -5 0
757 1 2 -1.1794 4.31467374587887 12.129610759995627 21.229600745889684 -2 3 -1
193 1 2 -1.1794 3.630488607788166 15.080681016821279 21.182816887797323 6 -1 4
597 1 1 0.5897 2.954271932786795 13.993635553974862 16.530905099065507 3 -6 0
479 1 1 0.5897 2.0279518081691372 18.812005040866488 0.8382160555497786 -7 6 -3
600 1 1 0.5897 4.521583401739012 18.590521549102824 4.843493430263804 -1 -6 -7
123 1 1 0.5897 1.308208590000166 21.24888591149687 3.6086364317794506 2 -2 2
480 1 1 0.5897 0.9378982982335898 17.875410093286995 1.3142938633931007 -7 6 -3
599 1 1 0.5897 4.487994614513866 18.656894634270827 3.331348608792219 -1 -6 -7
122 1 1 0.5897 2.1708478357721592 20.55841685591188 2.5736621691030708 2 -2 2
644 1 1 0.5897 1.5803607271890452 18.96019928943081 4.7849838905071245 0 -1 2
598 1 2 -1.1794 4.093862163692922 19.04044873764186 4.114836164390169 -1 -6 -7
187 1 2 -1.1794 4.704700849209035 17.48948331663391 1.948083540319961 -5 2 6
460 1 2 -1.1794 3.2211919614596582 20.561213364432284 0.8838520042451834 2 -1 0
188 1 1 0.5897 4.741618105024601 18.087920872290262 1.2018818340077386 -5 2 6
121 1 2 -1.1794 1.4137139738108053 20.419421739786863 3.142634022513783 2 -2 2
254 1 1 0.5897 3.331799049799117 20.895048057439524 5.048789207799507 2 10 -6
483 1 1 0.5897 2.12194557576095 16.93185746903842 4.155283393644664 3 3 -4
643 1 2 -1.1794 1.3678513832440142 18.14580025233945 5.2409499678690565 0 -1 2
482 1 1 0.5897 3.1212161570510997 16.899362712904043 3.018411086820856 3 3 -4
159 1 1 0.5897 4.829585030259556 16.842248449429228 5.6683104735789875 3 2 -2
111 1 1 0.5897 2.454449920938316 18.34925228164355 6.889815766286233 -2 3 -12
416 1 1 0.5897 1.5253545516142144 21.08906879564836 8.546395949112773 -2 0 -2
386 1 1 0.5897 2.8442151206434443 17.37250266434126 9.269562960016652 -6 1 1
109 1 2 -1.1794 2.9264054080231015 18.603156598130816 7.68297160987412 -2 3 -12
415 1 2 -1.1794 1.5845040552122056 20.365716648260644 9.170563955939858 -2 0 -2
417 1 1 0.5897 2.2596858625117484 20.639184648376734 9.791575713431396 -2 0 -2
110 1 1 0.5897 2.3642081271756608 19.257596131612154 8.097642348764307 -2 3 -12
371 1 1 0.5897 4.5331930847718755 19.63643197310926 7.772928774252172 2 9 0
858 1 1 0.5897 0.7690885525690546 21.772519341451826 6.753429091549475 0 -2 -3
809 1 1 0.5897 3.8283639654364516 17.353235776925217 11.000080017298313 1 -1 -5
550 1 2 -1.1794 3.5224779214439126 21.22440788864013 10.763859365690813 2 6 -6
551 1 1 0.5897 4.4271328061386015 21.50217742314465 10.61973046473835 2 6 -6
154 1 2 -1.1794 3.165819523726336 19.161816583530303 14.009633267296559 6 1 -4
155 1 1 0.5897 3.600877213110322 18.671379691487594 14.707133842637242 6 1 -4
678 1 1 0.5897 4.0801240063461535 21.35701816201898 15.88791985720214 0 1 -6
590 1 1 0.5897 0.7429488949481722 17.93083099768638 16.214782888992026 4 1 0
156 1 1 0.5897 3.345372059307238 18.6592912570165 13.214939482761217 6 1 -4
62 1 1 0.5897 1.4337662321619329 20.105936063322588 13.696274601443761 2 -5 11
808 1 2 -1.1794 4.097404825358309 17.897928723428947 11.739828663277738 1 -1 -5
589 1 2 -1.1794 1.3892147325467628 17.225876809834247 16.2561509081481 4 1 0
793 1 2 -1.1794 1.2281945963991194 18.2497986284855 11.482861794791397 -6 0 5
795 1 1 0.5897 2.1250877838420856 18.543360916683625 11.322495944271376 -6 0 5
794 1 1 0.5897 1.3069250992842378 17.616367284390385 12.196211063564782 -6 0 5
473 1 1 0.5897 4.410986966470355 20.57606989463973 13.866507653937868 -2 1 4
583 1 2 -1.1794 4.641423723521301 17.766219495255616 16.068140556574278 3 -7 4
145 1 2 -1.1794 4.791290491713796 18.75866305947703 20.140078353296435 2 6 -3
147 1 1 0.5897 4.23436191088743 18.73954601066165 19.361753307228234 2 6 -3
763 1 2 -1.1794 2.6590966410091115 18.946750761508305 18.272370553657574 -11 -1 -2
764 1 1 0.5897 2.0381565232822316 19.48185659344307 18.766737416502853 -11 -1 -2
765 1 1 0.5897 3.059052183229394 19.55542119453571 17.651196417622046 -11 -1 -2
676 1 2 -1.1794 3.474101317240472 21.16664901430368 16.60403587345358 0 1 -6
575 1 1 0.5897 0.6625064702756511 17.117594578521782 18.598268205339703 5 -5 0
591 1 1 0.5897 1.971719607343092 17.47608009099399 16.973359603695783 4 1 0
585 1 1 0.5897 4.226477541870871 17.278723514393107 16.779806080476916 3 -7 4
7 1 2 -1.1794 0.8341024375225946 20.723266125422228 19.708689592876677 3 -1 1
462 1 1 0.5897 3.9542743782310894 20.03589952268895 21.192534572716006 2 -1 -1
576 1 1 0.5897 1.4450855618783138 17.102959959173766 19.894227527835795 5 -5 0
461 1 1 0.5897 2.637967568746898 20.645376565446732 20.758996656354153 2 -1 -1
478 1 2 -1.1794 1.728959575551079 17.904783405267693 21.40561082114864 -7 6 -4
677 1 1 0.5897 2.690767590858744 21.67665195028372 16.3975503322608 0 1 -6
506 1 1 0.5897 3.8322138476034473 21.732177868556843 18.32485075612221 -1 3 -2
218 1 1 0.5897 5.3832705699286 2.807430538964099 3.505499216471318 7 1 -7
219 1 1 0.5897 6.7858678944287645 2.9098997712073813 4.066114181282097 7 1 -7
790 1 2 -1.1794 7.552633039478684 5.190897098869657 4.618667744218822 2 6 -3
134 1 1 0.5897 8.947173431388252 2.1383126476181524 1.1421821442684603 2 -5 -3
430 1 2 -1.1794 6.5344998578294415 4.8067308250214165 1.9606495815110352 -6 1 -2
432 1 1 0.5897 5.732395040416674 4.285572418212171 1.9970395412448652 -6 1 -2
792 1 1 0.5897 6.7206533700270095 5.025636391505061 5.062375287902866 2 6 -3
787 1 2 -1.1794 8.78488559726296 2.7174955242817282 2.92331802456144 6 -4 9
791 1 1 0.5897 7.320301043101254 5.265076003832828 3.693003455639232 2 6 -3
217 1 2 -1.1794 5.911206700564276 2.5790629427366394 4.2706371813771105 7 1 -7
264 1 1 0.5897 5.672765941895518 6.530071257298937 2.5473072946759263 -2 -1 9
431 1 1 0.5897 6.967867266762114 4.524314157863001 1.1552096002195456 -6 1 -2
56 1 1 0.5897 7.450997245255648 4.9918558182370205 9.41732264112222 -1 -6 1
397 1 2 -1.1794 7.992918592197749 3.4904636054420797 6.819899794638669 5 3 -2
82 1 2 -1.1794 5.366030671440575 5.1432326389217895 6.318358351806396 5 -8 -5
603 1 1 0.5897 7.7513257463237135 6.463376699309801 6.178065448730939 4 4 -1
398 1 1 0.5897 7.602375217307564 4.116168696381099 7.430039470397671 5 3 -2
55 1 2 -1.1794 6.747150201302285 5.217699872584136 8.809121878074109 -1 -6 1
602 1 1 0.5897 7.523185504087408 6.665918539260125 7.660994805159473 4 4 -2
57 1 1 0.5897 6.148349736785401 4.471857188884648 8.847393055512573 -1 -6 1
83 1 1 0.5897 5.088075347461789 4.409180274247062 6.866271398604769 5 -8 -5
84 1 1 0.5897 5.121941991156523 5.922017236844824 6.818595646250378 5 -8 -5
100 1 2 -1.1794 8.903910018362799 4.450334471585812 10.1314903203059 1 -4 -3
399 1 1 0.5897 7.944063450633079 3.9237741636308976 5.967744353468666 5 3 -2
101 1 1 0.5897 8.960923007847656 3.5164928078462006 9.928982396454105 1 -4 -3
71 1 1 0.5897 8.591421477550188 6.148618261992057 11.9051480095417 6 4 -7
198 1 1 0.5897 6.992157129495975 4.298931726959211 13.615294599841397 -4 0 2
625 1 2 -1.1794 6.794618021450312 3.487377742954986 11.946440161799286 -6 -1 -2
68 1 1 0.5897 6.161270713385078 3.6211223351222124 15.934956583694849 0 2 -9
196 1 2 -1.1794 6.987053806551849 4.589934500909653 14.527224646216395 -4 0 2
197 1 1 0.5897 7.201294697299247 5.521854863760272 14.482978561765453 -4 0 2
209 1 1 0.5897 8.213326177063035 3.3518937861377047 14.726189681901419 0 -2 3
70 1 2 -1.1794 7.754324893402551 6.477268012632211 11.577140285781123 6 4 -7
627 1 1 0.5897 6.596432676621609 2.7441835243475987 11.376605977316107 -6 -1 -2
626 1 1 0.5897 7.427872407989843 4.0071926047790996 11.45137884813369 -6 -1 -2
396 1 1 0.5897 5.597225476096875 4.765708979849107 11.55016097353236 3 2 0
208 1 2 -1.1794 8.813814166645406 2.607487107484431 14.76592128878531 0 -2 3
395 1 1 0.5897 4.877792133927509 6.050843334517138 11.900775455815166 3 2 1
210 1 1 0.5897 9.060101408160193 2.4489133219157684 13.854588605305992 0 -2 3
776 1 1 0.5897 5.209705216327711 4.386769155629532 19.075066180032596 12 -1 3
449 1 1 0.5897 8.78230347303984 3.8993431122542335 17.12575078218359 9 7 -9
775 1 2 -1.1794 5.801129582489987 4.903374587385724 19.62248112436316 12 -1 3
448 1 2 -1.1794 8.357281968426994 3.417811223495586 17.83553759530225 9 7 -9
67 1 2 -1.1794 5.848884204111469 2.965795393251689 16.558875863502152 0 2 -9
861 1 1 0.5897 7.495689872204238 5.481038330286831 19.945247819104814 -7 -5 0
859 1 2 -1.1794 8.452142286466792 5.492938759998454 19.90829270873353 -7 -5 0
133 1 2 -1.1794 9.01285517866447 2.1083051734273 20.817188691236126 2 -5 -4
450 1 1 0.5897 7.431674935324812 3.39902102810237 17.592202961096746 9 7 -9
69 1 1 0.5897 4.9327968296571205 3.19753729502493 16.711817533117376 0 2 -9
860 1 1 0.5897 8.679699690937507 4.754391503196923 19.343431269490612 -7 -5 0
777 1 1 0.5897 5.230924159686317 5.3082214094579125 20.27614681701506 12 -1 3
447 1 1 0.5897 7.820495959248402 6.332490645263128 16.69289306895564 3 0 -1
445 1 2 -1.1794 6.957189679589517 6.520519436107358 17.061229019007413 2 0 -1
135 1 1 0.5897 8.104857716069137 2.1072673470283454 20.514054985784732 2 -5 -4
267 1 1 0.5897 5.886580377440446 11.69660794041278 4.917591199464564 -2 2 -2
64 1 2 -1.1794 5.492291337182637 8.729329630109644 5.306004545333525 3 -3 -7
359 1 1 0.5897 8.103562313215974 10.542699244777326 4.78892588255834 11 1 -1
863 1 1 0.5897 8.955192521557285 8.671032486895005 2.8874014033099806 5 -7 4
266 1 1 0.5897 5.79142718589758 11.0796410893709 3.538317697946719 -2 2 -2
358 1 2 -1.1794 8.003619306894187 10.089396715624247 5.626098372286558 11 1 -1
65 1 1 0.5897 5.589704774389794 8.154491491365073 4.546801885901388 3 -3 -7
862 1 2 -1.1794 8.360106642686038 7.921388338246267 2.902192617726365 5 -7 4
360 1 1 0.5897 7.130800109466105 9.69853470433589 5.584676930876757 11 1 -1
864 1 1 0.5897 7.727775887728059 8.103169212143701 2.206904326378586 5 -7 4
771 1 1 0.5897 5.8305148734281165 9.341463110312036 1.8577801449939868 2 -5 3
262 1 2 -1.1794 5.052129749213445 6.961417144116132 3.134746515239999 -2 -1 9
770 1 1 0.5897 5.069041220686979 10.611416258009077 1.5423773930126905 2 -5 3
769 1 2 -1.1794 5.193896368029611 9.953827218790307 2.226698909650631 2 -5 3
200 1 1 0.5897 8.447008164342353 9.095273672344579 8.75656793525537 6 -3 -2
601 1 2 -1.1794 8.130273440673468 6.879530962502071 6.952367254665814 4 4 -1
580 1 2 -1.1794 5.5264774653501805 7.856927406591799 9.90546207448716 -3 -4 -2
199 1 2 -1.1794 7.733045393956066 9.697495889809627 8.546970960644575 6 -3 -2
201 1 1 0.5897 7.930701357746238 10.005403722601862 7.6624122411075115 6 -3 -2
582 1 1 0.5897 6.195399298472981 8.46017089719853 9.581497026193109 -3 -4 -2
581 1 1 0.5897 5.993007492039243 7.032390816404301 10.0425359594687 -3 -4 -2
125 1 1 0.5897 7.541783874089201 11.322477759713301 9.51016494255789 2 5 2
66 1 1 0.5897 5.269417210965022 8.139739825965568 6.026435327248552 3 -3 -7
348 1 1 0.5897 8.953443748201074 7.323287629604549 10.143036065078656 -2 1 -3
25 1 2 -1.1794 5.82669619794207 11.748002999509435 6.665016917822487 -4 4 8
470 1 1 0.5897 7.832701416164545 10.336683217388304 12.550305864439526 2 1 2
192 1 1 0.5897 5.728474134664688 10.35038311338353 13.269716304031213 5 6 -8
191 1 1 0.5897 5.429058776432108 10.44587739039105 11.788731276384569 5 6 -8
72 1 1 0.5897 7.439697844960926 7.06255696820379 12.26616374430434 6 4 -7
761 1 1 0.5897 8.416307401585128 10.6822249192281 15.308237153882427 3 -2 0
74 1 1 0.5897 4.951752549488184 8.481717098466312 12.510668527319295 -8 -3 0
190 1 2 -1.1794 6.091279237080643 10.14089629356863 12.409025905093483 5 6 -8
704 1 1 0.5897 7.152491583170904 8.100861703188354 14.876430330993125 8 -4 0
73 1 2 -1.1794 4.942217407946394 7.601093438172285 12.88578990980151 -8 -3 0
703 1 2 -1.1794 7.684118256193155 7.603164784757482 14.255110112882074 8 -4 0
75 1 1 0.5897 5.510890042449247 7.661063311217478 13.653460881762411 -8 -3 0
760 1 2 -1.1794 8.142768986669402 9.982311058513343 15.901197218417867 3 -2 0
705 1 1 0.5897 8.572747245469781 7.937120008268141 14.378244349593091 8 -4 0
212 1 1 0.5897 5.396285002070002 11.726105202674598 14.877153110865402 6 2 1
469 1 2 -1.1794 8.776609754042099 10.449767236185822 12.66241002278428 2 1 2
471 1 1 0.5897 8.887999693170014 11.385639852179672 12.82999414025429 2 1 2
842 1 1 0.5897 5.506334120969248 7.2480606924058195 16.168288723423125 -6 -1 0
841 1 2 -1.1794 5.228437537199093 8.05279475181208 15.730705980275665 -6 -1 0
213 1 1 0.5897 5.074006226489466 10.383303436766637 15.49771239281133 6 2 1
669 1 1 0.5897 5.567187434607835 11.723735375822368 17.89054587282666 -5 -5 -3
271 1 2 -1.1794 6.563532149540209 8.123037145557433 21.16117039742117 -1 2 1
668 1 1 0.5897 5.822010366953761 10.233394827894568 17.968448338445658 -5 -5 -4
273 1 1 0.5897 6.019854312222138 8.006435110966958 20.38198952460363 -1 2 1
454 1 2 -1.1794 4.928270365819157 8.894162515014695 18.795235270187355 -6 -3 1
667 1 2 -1.1794 6.07155412952926 11.019669445433445 17.482841714878166 -5 -5 -3
272 1 1 0.5897 7.443633029857264 8.279066789642975 20.818564893891004 -1 2 1
762 1 1 0.5897 7.467413767224797 10.382241879836899 16.449152653599445 3 -2 0
186 1 1 0.5897 8.739190629459301 11.722701711983182 20.360708309793107 -4 8 2
446 1 1 0.5897 7.14100611377541 6.96347119692623 17.889670290249956 2 0 -1
706 1 2 -1.1794 9.090153757035397 8.898828430804718 20.326896369913104 -5 -2 -4
638 1 1 0.5897 6.093713380172042 14.231350153836898 1.9150054126848648 -8 5 9
307 1 2 -1.1794 8.343062645283869 13.66328736220507 4.343123790491291 5 10 -3
22 1 2 -1.1794 7.001233679847433 16.26987788356405 3.1147734846941932 -6 0 3
308 1 1 0.5897 7.545013112680875 13.2489569303996 4.014816339080009 5 10 -3
24 1 1 0.5897 7.805702527946648 15.78013334754325 2.94359746659964 -6 0 3
309 1 1 0.5897 8.83152314557217 13.901424515449094 3.5550677005315965 5 10 -3
653 1 1 0.5897 7.4346682278728915 15.011789745950535 5.500650459450113 2 -2 -5
265 1 2 -1.1794 6.056676785135699 11.878931937845941 3.9933810372178984 -2 2 -2
637 1 2 -1.1794 6.355500887437878 13.71563281219729 1.1522336367248442 -8 5 9
759 1 1 0.5897 5.031211842358459 12.642394546564613 0.9741527736975144 -2 3 0
124 1 2 -1.1794 7.347511889359561 12.05813057751756 10.091008268154686 2 5 2
752 1 1 0.5897 8.219578293094923 13.090580595567475 6.100445840599831 5 -2 3
26 1 1 0.5897 5.34261559516048 12.50278026811841 7.00010931070996 -4 4 8
27 1 1 0.5897 6.739967987114691 11.93151246018572 6.88540803010533 -4 4 8
751 1 2 -1.1794 8.319606734793588 12.883776525325088 7.029718167789983 5 -2 3
608 1 1 0.5897 7.105585352228819 15.386801069585184 9.136015292877353 5 4 6
609 1 1 0.5897 8.196453535309516 15.026267168696393 10.121975127691929 5 4 6
654 1 1 0.5897 7.168076003955456 15.268135925663222 6.968752997882052 2 -2 -5
126 1 1 0.5897 7.649752892923689 12.829225590234396 9.611022051437423 2 5 2
607 1 2 -1.1794 7.897060648114686 14.856435816721882 9.22876662837635 5 4 6
652 1 2 -1.1794 7.32267139331974 15.717401336787027 6.13774185389447 2 -2 -5
374 1 1 0.5897 5.033540652681471 14.074119506176793 9.259256882340578 8 10 4
239 1 1 0.5897 5.493705641828634 11.828077002505317 10.086591425645267 -7 -7 5
352 1 2 -1.1794 8.830950019005112 16.233442014847082 14.883146343942412 2 3 -2
119 1 1 0.5897 7.212121564857372 12.662894625079698 12.05806833554465 4 -3 -5
655 1 2 -1.1794 8.37973878173161 16.085767403996613 11.883571014093322 -4 -1 2
99 1 1 0.5897 6.155964836446746 14.142947918164067 11.871831402381398 10 -11 5
673 1 2 -1.1794 6.776418850640334 13.041802035497012 15.380768204121186 -2 -8 -2
120 1 1 0.5897 8.285631737073894 13.725118912953684 12.164587085878633 4 -3 -5
675 1 1 0.5897 7.296253077798424 13.286133357052213 14.614985087885206 -2 -8 -2
118 1 2 -1.1794 7.53035538042976 13.363036048559657 12.628015006064585 4 -3 -5
656 1 1 0.5897 8.632214794452423 16.122910584320906 12.806198110586918 -4 -1 2
674 1 1 0.5897 6.447637746613635 13.873178645907693 15.722844257211229 -2 -8 -2
98 1 1 0.5897 4.953905299658354 15.060939182693097 11.80540490158697 10 -11 5
657 1 1 0.5897 7.423737534706937 16.133747099191744 11.89427639870567 -3 -1 2
530 1 1 0.5897 7.341377033483399 16.04006942275312 15.945449565595679 -4 -3 -5
96 1 1 0.5897 6.7369827744401265 16.36316664369116 14.004400903445786 -9 2 4
97 1 2 -1.1794 5.55588419087744 14.56089322768916 11.254152344864798 10 -11 5
671 1 1 0.5897 8.075476662572886 15.590815186904711 19.8500752649142 5 4 0
630 1 1 0.5897 7.560507457972096 13.281065894237951 17.374938523486264 3 -4 2
519 1 1 0.5897 6.658332290726524 16.698296779605947 19.15537717397719 0 3 -1
517 1 2 -1.1794 6.322974943046036 15.89437632048532 19.552306638720626 0 3 -1
639 1 1 0.5897 5.967702526826745 14.175052497839086 21.03686918459421 -8 5 8
518 1 1 0.5897 6.303547273915469 15.262022111446798 18.833935623526116 0 3 -1
628 1 2 -1.1794 8.481506430285897 13.275686623050838 17.63576936962232 3 -4 2