LAMMPS data file via write_data, version 30 Jul 2021, timestep = 19000000

864 atoms
2 atom types
576 bonds
1 bond types
288 angles
1 angle types

0.3068474038628377 17.900724996138035 xlo xhi
1.4529569806132479 22.17622081938439 ylo yhi
0.3743531160065938 21.838842683990052 zlo zhi

Masses

1 1.00794
2 15.9994

Pair Coeffs # lj/cut/tip4p/long/omp

1 0 0
2 0.21084 3.1668

Bond Coeffs # harmonic/omp

1 450 0.9572

Angle Coeffs # harmonic/omp

1 55 104.52

Atoms # full

225 1 1 0.5897 4.099856055691876 4.5835367428205345 4.7497421722916116 0 1 -7
827 1 1 0.5897 2.178520888950274 6.1502565929540545 1.3815937778765068 -1 3 0
483 1 1 0.5897 0.8300527267764266 3.846376545370356 3.5425246778017683 1 2 2
35 1 1 0.5897 4.308373865732097 3.6236700653969023 2.2390454432334312 -4 5 -1
34 1 2 -1.1794 4.346522146056422 3.2773105952867314 1.3475021457156786 -4 5 -1
482 1 1 0.5897 2.2892379881784573 3.716889335204275 3.92460253988661 1 2 2
353 1 1 0.5897 0.7912668233335813 4.007301025318012 0.7092791772596283 6 0 0
481 1 2 -1.1794 1.4053088568863417 3.5187357506316848 4.233899328555182 1 2 2
36 1 1 0.5897 3.433688213244359 3.2523067361142854 1.0604850927350298 -4 5 -1
223 1 2 -1.1794 4.167138738274907 3.8486234448499115 4.140119357044197 0 1 -7
308 1 1 0.5897 1.7765944602509602 1.8809877439182867 3.65761236621412 2 3 1
828 1 1 0.5897 3.6408813567438445 5.893269879222746 1.6773550485926683 -1 3 0
826 1 2 -1.1794 2.8078143707493863 6.099859485649851 2.1011297998101304 -1 3 0
781 1 2 -1.1794 0.6065280319865652 3.954246788614319 10.958014019386486 -3 -3 0
777 1 1 0.5897 3.7562688434440643 4.851609880241063 8.539149938583288 4 -4 3
102 1 1 0.5897 3.595561643431051 5.9782530702952235 6.640655359798608 3 -2 -2
851 1 1 0.5897 3.8196541186157695 2.3422150562715647 8.426227786134737 -1 0 -2
271 1 2 -1.1794 2.3907756908404605 5.829610669079127 7.985860955349734 -3 1 4
47 1 1 0.5897 3.8886050360539777 4.053225092661146 10.46672148690005 4 -2 -1
272 1 1 0.5897 1.490141353476698 5.756996013821578 7.669877941413432 -3 1 4
850 1 2 -1.1794 3.3830401835183057 1.5151677559261674 8.630260834710418 -1 0 -2
273 1 1 0.5897 2.345144837196971 6.470124121158893 8.69573423041802 -3 1 4
775 1 2 -1.1794 4.409980320867588 4.194382515809188 8.777871319745904 4 -4 3
54 1 1 0.5897 1.7339513659135934 1.8684584222477647 8.481788829798742 -4 -3 3
53 1 1 0.5897 0.6692642515012869 2.1632059741315715 9.516939244813727 -4 -3 3
52 1 2 -1.1794 0.7892814535348638 1.9840209025220197 8.584326277110085 -4 -3 3
100 1 2 -1.1794 4.163204101942022 5.973889042429704 5.869925529355914 3 -2 -2
48 1 1 0.5897 2.4934180210379897 3.9890625544770604 11.050941425088652 4 -2 -1
432 1 1 0.5897 2.881304396756024 3.454041872309236 15.335345145942085 -6 3 -3
378 1 1 0.5897 4.254002418074396 5.423875096012407 12.27292817501896 4 4 3
430 1 2 -1.1794 2.08821989825409 2.919289963884951 15.298872941250451 -6 3 -3
376 1 2 -1.1794 4.418231195238228 5.9865003701976685 13.02972731011195 4 4 3
431 1 1 0.5897 2.1767184199292813 2.4135436980934197 14.491000743860887 -6 3 -3
13 1 2 -1.1794 4.311017008843764 4.614764276282122 15.499984005959158 -4 -5 -5
12 1 1 0.5897 0.4181925406029947 6.2398641844928555 12.67870719260982 -1 1 5
839 1 1 0.5897 0.4372448166548957 4.3775847835992465 14.39887999351995 -3 -3 -1
783 1 1 0.5897 0.38945309296612346 3.9779741291918778 11.889997837510286 -3 -3 0
542 1 1 0.5897 2.997186314348149 2.3840880944269967 12.133533676434444 -8 -2 1
46 1 2 -1.1794 3.418365342093382 3.94525911482366 11.293466496232165 4 -2 -1
14 1 1 0.5897 4.309567416331235 5.115691896930011 14.684306637551826 -4 -5 -5
541 1 2 -1.1794 2.6597458168707644 1.6560950958623315 12.65548700265945 -8 -2 1
403 1 2 -1.1794 2.953621278930034 4.56228027949496 19.642759191718028 5 -5 0
507 1 1 0.5897 3.01261690509645 1.5057404182405247 17.986391549520683 2 3 -3
493 1 2 -1.1794 0.8185129776665491 5.054799731287494 17.757685028090712 -1 -2 -1
494 1 1 0.5897 1.5997154003499365 4.7937070939285 18.24537808904917 -1 -2 -1
404 1 1 0.5897 3.449439361972418 3.829227173271717 19.277984382675974 5 -5 0
405 1 1 0.5897 2.559914222115783 4.211778633914006 20.441764254438674 5 -5 0
506 1 1 0.5897 2.2297020179062894 1.6387404371456045 16.69745382306094 2 3 -3
695 1 1 0.5897 4.101414900801883 5.831523073828305 19.199703320003678 2 -6 -3
352 1 2 -1.1794 1.4359787594358937 3.4207538515057365 21.778078628068045 6 0 -1
70 1 2 -1.1794 4.516484223326478 2.658591863868534 18.32157991842312 4 0 -7
354 1 1 0.5897 0.9151641412321155 2.80227891519581 21.265724913002103 6 0 -1
495 1 1 0.5897 0.4513865122593219 4.232059908346152 17.434283003291256 -1 -2 -1
726 1 1 0.5897 1.1330498011069106 6.624754316131458 16.904059015628384 3 -4 3
803 1 1 0.5897 1.6289651485056846 11.111234994624557 1.6618346981976706 3 4 -1
101 1 1 0.5897 3.787619320647914 6.637672891197745 5.291487296560327 3 -2 -2
804 1 1 0.5897 1.740635534513507 10.472014383063925 3.029644064943886 3 4 -1
323 1 1 0.5897 2.383804209351381 10.534352529013683 5.5501264885181865 9 1 -5
124 1 2 -1.1794 3.312060893702949 7.903284070146902 4.349415360541935 3 0 0
322 1 2 -1.1794 1.75325553342699 10.681917732508614 4.845219778029052 9 1 -5
126 1 1 0.5897 2.953054547330786 7.426312131970229 3.6011472942104565 3 0 0
125 1 1 0.5897 3.932363730144135 8.522268448616224 3.964232589349279 3 0 0
210 1 1 0.5897 3.2632116118312733 9.583580239372932 1.1809186106644118 3 -3 4
802 1 2 -1.1794 1.700837291529032 10.261534627339932 2.0967052228361993 3 4 -1
335 1 1 0.5897 1.526611138023039 7.936666531692391 5.185091940808198 5 1 3
21 1 1 0.5897 4.527117888745297 10.624721565952555 2.911914532317788 -2 -2 1
208 1 2 -1.1794 3.9771421698654184 9.404413911403692 0.5689779356115896 3 -3 4
324 1 1 0.5897 1.81221735860465 11.619762412301943 4.662918545600552 9 1 -5
334 1 2 -1.1794 0.6933605689733514 7.618402930911002 5.532466369317277 5 1 3
614 1 1 0.5897 0.4780206018793059 7.291009127306272 0.5289098787930355 -7 3 4
566 1 1 0.5897 4.443715690258558 9.55757581322512 10.428693338166358 1 4 -9
521 1 1 0.5897 2.834356723998626 7.887821683701711 10.380842475762414 -4 1 -2
341 1 1 0.5897 3.887364649585935 9.94017173899084 7.176625845392126 1 4 2
565 1 2 -1.1794 4.639537799374988 8.652907930581067 10.672599505089178 1 4 -9
620 1 1 0.5897 4.684334010825833 7.647347115637314 6.809427836809514 0 -1 6
819 1 1 0.5897 2.3014075525420328 11.79897301664451 7.983131764491279 1 -5 1
340 1 2 -1.1794 3.549190866874335 10.78290294887687 6.873793437676117 1 4 2
522 1 1 0.5897 1.4735703859100984 7.383597326652668 10.812118826089629 -4 1 -2
27 1 1 0.5897 1.0074771775157925 8.47571621333761 8.80542900971826 0 6 4
520 1 2 -1.1794 1.9875898690066465 7.604933166301529 10.035551173256525 -4 1 -2
109 1 2 -1.1794 4.168575658932179 11.469817745639736 10.244213926331815 -3 -2 -7
342 1 1 0.5897 4.320760235613906 11.249778747003436 6.552864129974909 1 4 2
25 1 2 -1.1794 0.45693962264710464 8.932023002700287 8.169067301583535 0 6 4
26 1 1 0.5897 0.6425071751679178 8.498014154877286 7.336323216223475 0 6 4
568 1 2 -1.1794 2.528485878440489 7.704254395025322 13.950249299735848 1 -1 -3
570 1 1 0.5897 1.7750346887084782 7.446345213365808 13.419149123063956 1 -1 -3
569 1 1 0.5897 3.258330555039808 7.198228206789427 13.593137083387314 1 -1 -3
581 1 1 0.5897 2.392971613922977 9.437284518308028 14.045808111133375 -6 -1 -1
582 1 1 0.5897 2.8038169471370944 10.838693733982913 13.646687365713353 -6 -1 -1
580 1 2 -1.1794 2.116253030556309 10.351979473055758 14.101254756723582 -6 -1 -1
10 1 2 -1.1794 0.45537732220790206 7.161031571253517 12.421162895146269 -1 1 5
701 1 1 0.5897 1.7166562444291444 10.453914498964973 15.829754950096197 3 -1 1
725 1 1 0.5897 1.677730934169701 7.266910762337262 15.64591178660142 3 -4 3
356 1 1 0.5897 0.982006417204923 10.946565875553732 12.914427229669432 0 0 2
355 1 2 -1.1794 0.3367033934617293 11.286935163054821 12.294746585634538 0 0 2
110 1 1 0.5897 4.097483567776219 11.690946952405824 11.172840785005073 -3 -2 -7
587 1 1 0.5897 1.4703380579007097 9.29191342584545 19.662132685234567 3 3 6
290 1 1 0.5897 0.6510071017340494 10.296578497000922 18.14701733750003 -8 -4 -8
50 1 1 0.5897 3.4478010377065513 10.824949214773357 17.807975241581445 6 4 -3
706 1 2 -1.1794 3.6552024450513443 8.46554162973426 17.542204103165176 1 -2 -6
615 1 1 0.5897 1.6605017792775982 7.318407798006363 21.048432379330414 -7 3 4
209 1 1 0.5897 3.550842137528773 9.343362336776742 21.178591597286406 3 -3 3
707 1 1 0.5897 4.126304565769703 7.754485133155055 17.97663900080009 1 -2 -6
586 1 2 -1.1794 2.2026035045258414 8.776634671753698 20.000585327378886 3 3 6
588 1 1 0.5897 2.7298018267270843 8.572626086517271 19.228110368996923 3 3 6
49 1 2 -1.1794 4.102515896731163 11.317420865370956 18.303037989845755 6 4 -3
724 1 2 -1.1794 1.2891797550763338 7.476127559235992 16.495334459200095 3 -4 3
708 1 1 0.5897 2.8485039865039763 8.059968046937088 17.224381525330166 1 -2 -6
700 1 2 -1.1794 1.3952268001396992 10.69626197905638 16.698224050350227 3 -1 1
51 1 1 0.5897 3.6056722583154057 11.740338137653325 19.003434288517802 6 4 -3
613 1 2 -1.1794 1.0108104203603867 6.728703579197229 21.431072612541442 -7 3 4
702 1 1 0.5897 1.2453639840899196 11.640110966074774 16.64389080757742 3 -1 1
809 1 1 0.5897 2.217648332130087 14.149338663316122 3.495228632163244 3 -2 1
680 1 1 0.5897 1.9433184002288593 15.614156869382576 1.5451490644870791 -6 -7 0
250 1 2 -1.1794 4.606873656624675 12.54727964160563 2.3203185695397384 6 -2 1
808 1 2 -1.1794 2.513301977382348 13.397303363578718 4.0083532613202735 3 -2 1
810 1 1 0.5897 2.806905656923094 13.773458798411509 4.838159997621927 3 -2 1
679 1 2 -1.1794 1.5021476487198775 15.174860427339658 2.272250215373475 -6 -7 0
549 1 1 0.5897 1.334249788077052 13.34022602444584 1.3257443290784416 6 -3 8
252 1 1 0.5897 4.006374217106691 12.87018619517573 2.9922106613873694 6 -2 1
681 1 1 0.5897 0.9113783950063079 15.837569655881536 2.630122039821441 -6 -7 0
491 1 1 0.5897 2.9922676751165436 16.76601016432361 5.191195127656742 3 7 5
547 1 2 -1.1794 1.0690169722473477 12.598408682112227 0.7820357377765589 6 -3 8
736 1 2 -1.1794 3.1461558433718957 16.481026064192115 0.4537951596274864 1 -2 -2
737 1 1 0.5897 3.602513264427738 16.9103906599875 1.1774304909674012 1 -2 -2
140 1 1 0.5897 4.372319981848892 13.832053721195996 0.8440347480084944 -1 -3 -1
32 1 1 0.5897 2.863560280030848 14.9236662730747 6.851255803443198 2 9 0
278 1 1 0.5897 1.0521906332948592 12.79567808462462 7.326496841691337 0 2 0
513 1 1 0.5897 2.2572276930116093 14.012607330306688 8.769333633935128 2 0 -5
512 1 1 0.5897 3.21580288072465 15.014993585118319 9.376258761949591 2 0 -5
257 1 1 0.5897 0.9354947798996529 15.908095940786696 8.393188884706248 -3 -2 -1
511 1 2 -1.1794 2.519203140856918 14.932218977719966 8.724982363959839 2 0 -5
31 1 2 -1.1794 3.3776955219421434 15.078373355160268 6.058794744279584 2 9 0
817 1 2 -1.1794 2.070734128526912 12.361884321052534 8.72217170308743 1 -4 1
33 1 1 0.5897 4.286781052889266 14.966481043753625 6.336868342550104 2 9 0
277 1 2 -1.1794 0.4011191056840825 12.925048545492023 6.636826007430879 0 2 0
111 1 1 0.5897 3.376444549439965 11.834392084477182 9.849377458784211 -3 -2 -7
818 1 1 0.5897 1.2671011834593322 11.978836018685364 9.073933492707065 1 -4 1
751 1 2 -1.1794 4.045768006036303 16.36605875698387 15.245107923144753 3 2 -2
685 1 2 -1.1794 1.8264144478514175 15.071959762584981 14.3901542547252 8 -9 -2
687 1 1 0.5897 1.1188609636985043 15.692638115988611 14.564491360047402 8 -9 -2
596 1 1 0.5897 1.830683785952786 14.184913234570333 12.8063231259812 5 -4 -1
595 1 2 -1.1794 1.6752837026749097 13.819230347659612 11.935455404328202 4 -4 -1
597 1 1 0.5897 1.3430347647686176 12.936977570675865 12.101456657456051 4 -4 -1
639 1 1 0.5897 3.7774701939179365 14.20627449055935 11.615310511031781 -5 2 4
686 1 1 0.5897 2.625372147237271 15.550477544966764 14.611414425880614 8 -9 -2
473 1 1 0.5897 1.233028381639446 13.965504022617212 15.768166537919624 2 1 -3
752 1 1 0.5897 4.083652442250653 16.75675909428559 14.37205514675634 3 2 -2
213 1 1 0.5897 0.5687696088898635 15.244816072544827 11.294837860936406 6 2 0
317 1 1 0.5897 4.069181166831486 16.338844578090114 12.068630033743961 -2 -8 0
472 1 2 -1.1794 0.8646434362318389 13.36960904207153 16.420467493768093 2 1 -3
286 1 2 -1.1794 4.077819294107881 11.98423629106949 12.865204885051487 6 -1 2
287 1 1 0.5897 4.411212053639529 12.712618769936867 13.389207039005594 6 -1 2
637 1 2 -1.1794 4.440950759229901 14.77213314166755 11.220499344838876 -5 2 4
753 1 1 0.5897 4.32604383251205 15.460078834220647 15.114996829747959 3 2 -2
853 1 2 -1.1794 2.946183659292485 12.722711875394959 20.330903379399203 -3 0 1
548 1 1 0.5897 1.7172606165067936 12.57283287345301 21.542682732300456 6 -3 7
855 1 1 0.5897 2.486668438523082 13.267165266505433 19.69161889878859 -3 0 1
854 1 1 0.5897 3.7092126969192383 13.24220841207819 20.58422969876382 -3 0 1
222 1 1 0.5897 4.570197067479283 16.405786631451086 18.77537909595611 5 -6 4
800 1 1 0.5897 2.627653270010318 15.111161589085025 18.568571276200693 0 -1 0
799 1 2 -1.1794 1.8382690802898847 14.582699224097476 18.68631924663807 0 -1 0
474 1 1 0.5897 1.0458868443736908 13.79145987377209 17.260392913303335 2 1 -3
801 1 1 0.5897 1.3581693720057744 15.021606558677755 19.388547835624756 0 -1 0
220 1 2 -1.1794 3.8101484826540872 16.274569267693263 18.208468491335438 5 -6 4
221 1 1 0.5897 4.126907459593208 16.484678347483694 17.329956328973367 5 -6 4
141 1 1 0.5897 4.516745962089294 15.190913089708399 21.656880864337385 -1 -3 -2
307 1 2 -1.1794 2.2343482551501106 21.800103532606197 3.4125254823352402 2 2 1
66 1 1 0.5897 2.753422823762608 19.16644608137283 5.4635047998609405 1 2 -4
492 1 1 0.5897 3.6713685552343245 17.406220190494942 3.999168063992516 3 7 5
96 1 1 0.5897 3.525352391956199 20.89378909582058 2.7981328281631233 -3 -3 -1
94 1 2 -1.1794 4.167035687422446 20.311319019806973 2.3916380834795854 -3 -3 -1
309 1 1 0.5897 2.1275717261761287 21.22314489627034 4.168825231851025 2 2 1
203 1 1 0.5897 0.7765136142211033 18.935804535431096 0.7293638034164511 -7 2 2
714 1 1 0.5897 1.1502971245289006 20.546896430541818 2.755639090839565 -4 -3 6
490 1 2 -1.1794 3.3094638795254654 17.607129902249845 4.862261298259506 3 7 5
216 1 1 0.5897 4.468959359553121 20.78426770122051 0.5074503870201038 0 2 3
64 1 2 -1.1794 2.36224242642028 20.024297324894803 5.628847612121246 1 2 -4
712 1 2 -1.1794 0.5523107175948956 19.852518310680704 2.479017356570664 -4 -3 6
201 1 1 0.5897 4.671833685530865 18.34139896587881 2.2912155842128694 2 -3 -1
663 1 1 0.5897 0.8057386324148328 17.406763174105826 9.9341736336718 -6 -3 1
471 1 1 0.5897 4.371580835324232 21.863042182260457 10.15723824504988 4 -3 2
852 1 1 0.5897 3.896744028599373 21.575612333415325 8.168698175069814 -1 -1 -2
658 1 2 -1.1794 4.501284613307986 18.853490701140025 9.622125335543902 2 -3 2
65 1 1 0.5897 1.7566525013808132 19.87595314228413 6.355155262719722 1 2 -4
661 1 2 -1.1794 1.1443701032395137 18.29311711914612 10.060545405378 -6 -3 1
602 1 1 0.5897 3.9028902583074587 20.14601586294367 6.823056278937224 5 0 -2
662 1 1 0.5897 0.9761177405342021 18.735228170232084 9.228378791746136 -6 -3 1
659 1 1 0.5897 3.8374498265468273 18.44817990397933 10.180073131990762 2 -3 2
532 1 2 -1.1794 0.6954477108329965 20.05146175399418 7.832159012598651 -9 -4 -1
534 1 1 0.5897 0.5885017751431416 20.94363961934588 8.162071743680572 -9 -4 -1
470 1 1 0.5897 4.462416215027455 20.602995446648496 10.991513728448787 4 -3 2
603 1 1 0.5897 4.642488925625844 19.85978436593177 8.112650804703145 5 0 -1
316 1 2 -1.1794 4.258575845364919 17.101008148270544 12.61589750091804 -2 -8 1
253 1 2 -1.1794 0.3903049888353738 17.77255766016549 13.249075143973315 3 3 -4
173 1 1 0.5897 2.5045246763792224 20.069836217679608 14.69808163759117 5 1 -2
543 1 1 0.5897 3.1291648485676284 21.61184988924583 12.328619763635972 -8 -3 1
112 1 2 -1.1794 2.8826880838478504 19.594800075627628 11.966905336891724 -4 -1 -1
174 1 1 0.5897 1.8462620641817449 18.910221506381024 15.414987786597626 5 1 -2
172 1 2 -1.1794 1.6692802338489947 19.61083378770948 14.78723027437074 5 1 -2
114 1 1 0.5897 3.3150535429575774 18.90264543025965 12.467155297554356 -4 -1 -1
255 1 1 0.5897 0.9694236763071722 18.431908398464547 13.631387946450364 3 3 -4
860 1 1 0.5897 0.9162245941499418 21.846537515253853 12.411371344651304 1 -1 -1
113 1 1 0.5897 2.1986279399553075 19.142540387493035 11.473154513272469 -4 -1 -1
626 1 1 0.5897 1.2956012423184013 20.65293578135212 18.222456685122573 -6 -2 5
505 1 2 -1.1794 2.3774409644277172 21.771047187766985 17.435841879056802 2 2 -3
627 1 1 0.5897 0.7443620367297028 19.267761203307987 17.958928194625543 -6 -2 5
181 1 2 -1.1794 1.470661492752314 17.831124053658133 17.00541496202319 -3 5 -2
265 1 2 -1.1794 3.038598155605516 18.88378655255391 20.09607103873966 -4 -4 2
414 1 1 0.5897 3.6529550739005057 20.30184222022934 17.35276747307953 1 -2 4
267 1 1 0.5897 3.215921137487136 18.813780780260434 19.15802204214745 -4 -4 2
215 1 1 0.5897 4.219639766457818 20.110217428139798 20.63947038035849 0 2 2
412 1 2 -1.1794 4.337947101493266 19.648421547837174 17.49450618059261 1 -2 4
266 1 1 0.5897 2.08607630094728 18.957642159638716 20.155402439766547 -4 -4 2
625 1 2 -1.1794 0.6976900063431062 19.99575761983063 18.578694712032338 -6 -2 5
182 1 1 0.5897 2.163019211639674 17.21987146023481 17.256962234191413 -2 5 -2
738 1 1 0.5897 2.9799861907186216 17.183016821379432 21.28910788503751 1 -2 -3
202 1 2 -1.1794 0.5260979561814616 18.405145471368193 21.437575390911157 -7 2 1
183 1 1 0.5897 0.82013465141009 17.287298802394403 16.561180617827198 -3 5 -2
142 1 2 -1.1794 7.86498529513119 5.582529968024216 1.4507337994818745 4 2 3
144 1 1 0.5897 8.049947746103587 4.705153051189635 1.1156799091797178 4 2 3
770 1 1 0.5897 5.677447481414893 5.554263303700442 4.358977642893261 2 -1 -1
76 1 2 -1.1794 6.3941351497486485 1.5759912898089496 2.3389036929158546 -4 -3 -4
769 1 2 -1.1794 6.559885802757044 5.782489061297527 4.066579631032399 2 -1 -1
333 1 1 0.5897 7.957326764953683 2.1210469483009584 1.5448177198507942 -4 -1 -3
143 1 1 0.5897 7.060109200765716 5.845221612778282 1.0041546354032453 4 2 3
161 1 1 0.5897 7.299952025634729 6.552730631432303 5.6600875747539074 6 5 3
771 1 1 0.5897 6.591040580114362 5.4982119139128 3.153082560833083 2 -1 -1
554 1 1 0.5897 7.907103040331133 4.55734515641974 4.431263967105089 -2 -7 2
544 1 2 -1.1794 6.162624449027245 2.347310216840423 4.970863084509289 -8 5 4
78 1 1 0.5897 6.465392788479488 1.94851088232133 3.217774138047658 -4 -3 -4
77 1 1 0.5897 5.608297031070042 1.9794823694174357 1.970200068562983 -4 -3 -4
331 1 2 -1.1794 8.656011693681975 2.5401586855483167 1.0423492670622996 -4 -1 -3
553 1 2 -1.1794 8.745493485639859 4.09543152897827 4.43165462164421 -2 -7 2
555 1 1 0.5897 8.905587313178753 3.8894587813377286 5.352636012742564 -2 -7 2
224 1 1 0.5897 4.789306164577569 3.2500724496361197 4.55353619290526 0 1 -7
824 1 1 0.5897 7.391339770830061 3.4406587510368145 7.998604047216575 -2 4 3
823 1 2 -1.1794 6.8160117120304555 3.7624437353798954 7.304538775735442 -2 4 3
825 1 1 0.5897 7.21720205868141 4.5843428933997705 7.0220429065788865 -2 4 3
419 1 1 0.5897 7.412597424876547 4.23391456589781 10.41463742610331 -6 0 5
418 1 2 -1.1794 6.709919581002325 4.523372712101823 10.996632200299077 -6 0 5
420 1 1 0.5897 6.219446596246606 5.163417106327092 10.480836759315677 -6 0 5
776 1 1 0.5897 5.1724260597143035 4.40781010249866 8.239913279459088 4 -4 3
157 1 2 -1.1794 8.70315186401086 3.278185023960134 9.362666645541387 7 4 -3
160 1 2 -1.1794 7.611812629881775 6.326835881605633 6.536431168225111 6 5 3
369 1 1 0.5897 6.650258212150637 6.6219633295617255 8.18009224680009 4 5 0
367 1 2 -1.1794 6.427501381554624 6.618267778559861 9.111029023408546 4 5 1
545 1 1 0.5897 6.474019002318771 2.752341823486148 5.780337073798573 -8 5 4
162 1 1 0.5897 8.52879656841381 6.601365626140865 6.543017876455664 6 5 3
260 1 1 0.5897 6.291780757714061 2.945278152146155 12.269140827259362 0 -1 6
864 1 1 0.5897 7.62315105238118 5.814892210823608 13.795048225657293 2 -2 0
259 1 2 -1.1794 6.313822682816932 2.1308190034486474 12.771566903376977 0 -1 6
410 1 1 0.5897 4.906202392867387 2.8584651935865213 15.355621461213559 6 4 -4
411 1 1 0.5897 6.110279522230959 2.2539542425405874 14.665104185523523 6 4 -4
862 1 2 -1.1794 7.246465436828486 6.319028091293804 13.073784959559937 2 -2 0
238 1 2 -1.1794 8.293358316072307 4.1493771928578 14.782686376008149 -6 -4 -3
377 1 1 0.5897 5.321651689182567 6.282251383381565 12.91735547328555 4 4 3
330 1 1 0.5897 8.222979175222891 2.1174081785287644 12.54392488155844 6 5 2
863 1 1 0.5897 7.1301029058750816 5.680793427742055 12.369952847543088 2 -2 0
240 1 1 0.5897 8.551405577033549 3.5550000237056514 14.07813319406366 -6 -4 -3
409 1 2 -1.1794 5.627461846686785 2.244004457437683 15.491597028485131 6 4 -4
15 1 1 0.5897 5.058265261116906 4.957148685370953 15.990557883576216 -4 -5 -5
261 1 1 0.5897 5.989696007031021 1.4654948045173486 12.164487716022832 0 -1 6
29 1 1 0.5897 7.140172042607793 4.662380401178314 16.049992500908118 -7 4 6
605 1 1 0.5897 6.572598762662642 3.604269796942452 20.639508510512186 -2 3 1
604 1 2 -1.1794 6.172388291217253 2.738247577453746 20.717644560951975 -2 3 1
606 1 1 0.5897 5.5023796788288495 2.843551407747565 21.393118501864564 -2 3 1
696 1 1 0.5897 5.614308875913777 5.860848639662628 19.247361439743592 2 -6 -3
196 1 2 -1.1794 7.308506972103695 5.099936741669264 19.685210679008485 0 -2 -2
830 1 1 0.5897 7.488435619743451 2.320185159764433 16.64374422783724 6 4 3
198 1 1 0.5897 8.23500445049071 5.222807834421422 19.892006832686327 0 -2 -2
197 1 1 0.5897 7.306445915679091 4.73585860334342 18.799919845269287 0 -2 -2
829 1 2 -1.1794 7.977062990289426 1.9910587040657184 17.398183791267044 6 4 3
30 1 1 0.5897 7.264097204409824 5.911720619084948 16.896045664572497 -7 4 6
28 1 2 -1.1794 6.7755832392123905 5.091705755375768 16.82396719558418 -7 4 6
71 1 1 0.5897 5.121970721524546 2.5753614778416445 19.05829069083702 4 0 -7
72 1 1 0.5897 5.079140363014215 2.657323412972443 17.547182380900324 4 0 -7
458 1 1 0.5897 8.938794980624259 2.339959385544719 20.631520621504535 -3 0 0
459 1 1 0.5897 8.796513680459594 1.981889989622238 19.167436118653022 -3 0 0
694 1 2 -1.1794 4.854577237816407 6.385990087471219 18.995778172220035 2 -6 -3
842 1 1 0.5897 5.224236192120646 6.542562533277611 21.14440722597802 -1 4 -1
127 1 2 -1.1794 7.381503747292141 9.654158030082197 2.4239536181188153 -1 0 -5
20 1 1 0.5897 5.611150966278872 9.585567597113084 3.104302975946831 -2 -2 0
98 1 1 0.5897 5.382063089561836 11.09608987997929 4.6997617908679015 6 -6 7
841 1 2 -1.1794 5.334376177015737 6.751999471882753 0.607428111757882 -1 4 0
128 1 1 0.5897 7.216205722822248 9.952174297130217 1.5294557101197628 -1 0 -5
129 1 1 0.5897 7.852353444236284 8.827469389661466 2.3183421750658404 -1 0 -5
19 1 2 -1.1794 4.761392594161476 9.865008771469599 3.445029624481087 -2 -2 1
476 1 1 0.5897 8.875463732406988 6.998265907266245 2.0328397767723168 3 -4 0
815 1 1 0.5897 8.608706339837834 10.179699200107981 3.7578680542556073 1 8 -4
843 1 1 0.5897 5.053578176644343 7.664020925325709 0.6825076161607455 -1 4 0
97 1 2 -1.1794 5.7233738172534965 11.564917814082785 5.461321562420044 6 -6 7
149 1 1 0.5897 7.94954936302424 9.428495153905864 5.642702804940523 -4 -1 3
99 1 1 0.5897 6.314134376158449 10.940519952565174 5.882602982790122 6 -6 7
621 1 1 0.5897 5.83699947966874 8.622351464064698 6.922177921164623 0 -1 6
319 1 2 -1.1794 8.48979792988337 10.664637686888325 8.58086795892555 4 -6 2
619 1 2 -1.1794 4.969370313476307 8.431492661873591 7.278621925533045 0 -1 6
150 1 1 0.5897 7.782160839443859 9.72021578234723 7.118794053058221 -4 -1 3
148 1 2 -1.1794 7.29770372984128 9.43617003371266 6.34362903931577 -4 -1 3
294 1 1 0.5897 8.12976855020146 6.773184159583903 9.578528655827721 0 0 2
368 1 1 0.5897 5.8804871880500125 7.394730418805236 9.22999620147112 4 5 1
292 1 2 -1.1794 9.086125433006568 6.796247240993507 9.611977148758472 0 0 2
321 1 1 0.5897 7.641175867124767 11.042274640941374 8.81216437993943 4 -6 2
320 1 1 0.5897 9.000770968733125 11.405000458976035 8.253674098361266 4 -6 2
821 1 1 0.5897 7.722836976093117 11.116416781815301 13.842101006054609 2 3 1
86 1 1 0.5897 6.401658141949374 10.250317516606353 12.820922043297914 3 8 0
87 1 1 0.5897 5.610172374252151 9.42563982994115 13.813613046661663 3 8 0
85 1 2 -1.1794 5.5500787366490085 9.83245093164644 12.949228159322157 3 8 0
616 1 2 -1.1794 5.437710217062714 8.768299107816539 15.441556063610461 0 5 2
822 1 1 0.5897 8.443867689962392 10.524998953939882 12.649476953984394 2 3 1
275 1 1 0.5897 8.553080238087267 7.7509490916498 12.708681838496167 -3 6 -3
175 1 2 -1.1794 7.130252573378932 10.849146466535313 15.516027347139467 -3 -2 10
820 1 2 -1.1794 7.827105242141802 11.214408152496038 12.895637097156426 2 3 1
176 1 1 0.5897 6.743025409508783 11.603570502952776 15.960067088670339 -3 -2 10
618 1 1 0.5897 5.994222042741255 9.411529742335485 15.880698209851097 0 5 2
177 1 1 0.5897 8.011270032981336 10.780324180978399 15.883901844271179 -3 -2 10
617 1 1 0.5897 4.746128171160826 8.577009395340875 16.075126617393884 0 5 2
567 1 1 0.5897 5.089108057672913 8.723334978572606 11.51473568126058 1 4 -9
767 1 1 0.5897 6.948830461926231 7.869123539771353 16.364000979725464 2 1 -1
359 1 1 0.5897 9.085221003677946 7.951642099808645 15.983129332324081 3 0 -7
288 1 1 0.5897 4.730749469516025 11.29258874656044 12.972793874681443 6 -1 2
170 1 1 0.5897 6.657653293288036 10.079714588352395 20.377800728405425 -3 4 -2
768 1 1 0.5897 7.409037585777455 8.125968858408228 17.78324415693146 2 1 -1
22 1 2 -1.1794 6.492032818559012 9.796745531502946 18.526901500502333 -5 5 1
171 1 1 0.5897 5.669838400028825 10.327991793750652 21.49786605545325 -3 4 -2
23 1 1 0.5897 7.162886442671238 10.479291969528212 18.50811326051946 -5 5 1
24 1 1 0.5897 5.681128944835252 10.250883394682159 18.297790339633274 -5 5 1
766 1 2 -1.1794 7.683832747638084 7.723031584028927 16.959597520186023 2 1 -1
169 1 2 -1.1794 6.569159676237343 10.512613425812267 21.22693851859362 -3 4 -2
515 1 1 0.5897 7.7332542901758226 16.524064719350122 1.0706691197480709 -8 -2 0
501 1 1 0.5897 6.78292349477166 12.879239479618285 4.42933599523546 -3 -1 -2
251 1 1 0.5897 5.4703747983449835 12.84421785653576 2.60747712793488 6 -2 1
499 1 2 -1.1794 7.028557905992103 13.311354611158228 3.61128687214938 -3 -1 -2
236 1 1 0.5897 7.382214510739746 15.16899923024054 4.3542828383014704 2 -3 -4
500 1 1 0.5897 7.969457190121565 13.155052517097142 3.530430394458203 -3 -1 -2
237 1 1 0.5897 8.427888694289372 15.778921522807368 5.263471837984528 2 -3 -4
509 1 1 0.5897 8.280128871774252 14.59519906087896 0.9309150074707646 7 -5 3
235 1 2 -1.1794 7.482566576397788 15.735333735389453 5.1194585737521505 2 -3 -4
508 1 2 -1.1794 9.030290979440997 15.02280434130216 1.3440397966795299 7 -5 3
380 1 1 0.5897 6.172641793203805 13.85288620478432 7.769495571361937 5 1 4
381 1 1 0.5897 6.573557956092105 14.720393191047282 6.595322482200793 5 1 4
594 1 1 0.5897 5.902117212147569 16.11462906028631 8.140074471703699 -3 -3 -1
379 1 2 -1.1794 5.845596334191703 14.541483324675639 7.190573552470792 5 1 4
441 1 1 0.5897 6.964184175929558 12.997678988911478 9.8540873444776 4 1 2
439 1 2 -1.1794 6.606918408505368 12.633424031035217 9.044180503400106 4 1 2
440 1 1 0.5897 5.807775147901399 12.182067338046616 9.316071652028652 4 1 2
234 1 1 0.5897 7.447855722744996 16.632763160746393 12.958362564510438 -4 0 -3
847 1 2 -1.1794 5.304391150445017 13.898662768207249 14.523717827271787 4 -2 6
638 1 1 0.5897 5.2607112536808 14.288751037855127 11.323446258715995 -5 2 4
657 1 1 0.5897 7.411309664558066 12.75952478207709 12.100737452880386 -2 2 -1
848 1 1 0.5897 5.480042479229898 13.55330302790587 15.399008588370169 4 -2 6
849 1 1 0.5897 6.120145336121819 14.328839690304617 14.267294454850033 4 -2 6
535 1 2 -1.1794 7.517775987558729 15.352542568696768 14.25680116841579 6 7 8
537 1 1 0.5897 8.212661624836208 14.702022810201756 14.35796696076555 6 7 8
536 1 1 0.5897 7.696687039709395 16.002482050847966 14.936392054953624 6 7 8
656 1 1 0.5897 8.002286006006404 14.016117130449564 11.497653759647363 -3 2 -1
655 1 2 -1.1794 7.1996852606367145 13.495258282916136 11.52612649985846 -3 2 -1
137 1 1 0.5897 6.446838649868846 16.63373905018303 20.54674288887537 -1 -9 3
703 1 2 -1.1794 7.322339032711945 13.275047425412595 21.44387149710787 6 -3 0
651 1 1 0.5897 7.551985722190622 13.719453685012848 19.64179476071058 3 1 0
649 1 2 -1.1794 7.380185332656941 14.161708946745199 18.810423543414757 3 1 0
486 1 1 0.5897 6.432182242161539 13.354644915725052 17.559024341400075 -4 -1 -2
650 1 1 0.5897 6.826924229256915 14.906840986803212 19.044815824399052 3 1 0
704 1 1 0.5897 7.221086283243165 12.323340763909938 21.427427152422318 6 -3 0
484 1 2 -1.1794 5.925665847257318 12.777535881974838 16.987490796727805 -4 -1 -2
705 1 1 0.5897 6.426954248670422 13.610979408200746 21.48517686223837 6 -3 0
485 1 1 0.5897 5.3194942806384855 12.328157329813417 17.57649914027155 -4 -1 -2
136 1 2 -1.1794 6.169657488159123 16.66011133283577 19.630907362789948 -1 -9 3
407 1 1 0.5897 9.06012376187473 14.6019869225321 17.941936741048707 -9 0 5
139 1 2 -1.1794 4.852379060656967 14.295138676041395 21.62196107819817 -1 -3 -2
546 1 1 0.5897 6.229105482115594 22.12943301515758 5.132406603118845 -8 4 4
454 1 2 -1.1794 6.446857766536972 20.229892989252246 4.672305394031357 1 0 -1
455 1 1 0.5897 6.309122863194004 19.35042436707929 5.024281067958619 1 0 -1
295 1 2 -1.1794 7.573267157448415 19.62921975840547 0.9557339034061698 -2 2 1
456 1 1 0.5897 7.21574739138096 20.1450466083443 4.108499793260833 1 0 -1
297 1 1 0.5897 7.933575586711666 19.677075784852857 1.8412762465213661 -2 2 1
557 1 1 0.5897 5.010548980071273 17.647486460885183 5.609436108904643 4 1 3
558 1 1 0.5897 6.404280218678929 17.06128272710294 5.532947024428861 4 1 3
516 1 1 0.5897 7.28872042917199 17.888443679493975 0.5881342054063354 -8 -2 0
200 1 1 0.5897 5.595672269403875 17.23068974392775 1.8386477465324675 2 -3 -1