LAMMPS data file via write_data, version 30 Jul 2021, timestep = 5000000

864 atoms
2 atom types
576 bonds
1 bond types
288 angles
1 angle types

0.2234896796875212 17.984082720308166 xlo xhi
1.354772592206249 22.274405207794594 ylo yhi
0.27265688721067427 21.940538912791936 zlo zhi

Masses

1 1.00794
2 15.9994

Pair Coeffs # lj/cut/tip4p/long/omp

1 0 0
2 0.21084 3.1668

Bond Coeffs # harmonic/omp

1 450 0.9572

Angle Coeffs # harmonic/omp

1 55 104.52

Atoms # full

676 1 2 -1.1794 3.8746233948566275 2.545049133711098 2.8807692379014203 1 1 -3
82 1 2 -1.1794 1.1106271961133998 6.53524979170306 2.733065377730212 -1 -2 -7
234 1 1 0.5897 3.0061861958813334 4.3194492768821 4.538834872987757 -2 2 1
232 1 2 -1.1794 3.0398534073705785 5.275998294127014 4.540122648792845 -2 2 1
631 1 2 -1.1794 3.139580397513081 4.018139750643418 0.6309537445898143 5 5 5
678 1 1 0.5897 3.9534505886023537 1.7844368656088858 2.305126925613261 1 1 -3
233 1 1 0.5897 3.7830058687601045 5.4907218231305 3.9764498870178557 -2 2 1
632 1 1 0.5897 3.6274703315594397 3.8176639892239446 1.4296315194746616 5 5 5
814 1 2 -1.1794 2.2671881276024313 1.8428488857423904 5.040477747612149 -3 7 -3
816 1 1 0.5897 2.529621379208579 1.890627589084631 4.12125948589523 -3 7 -3
83 1 1 0.5897 1.7242962129394632 5.881414043963918 3.0677951837131836 -1 -2 -7
181 1 2 -1.1794 0.7468579766867315 3.377599142707736 1.652426401667887 -5 2 -1
183 1 1 0.5897 1.6032363030788042 3.5516750841032425 1.261971183293346 -5 2 -1
182 1 1 0.5897 0.8171697515810563 2.4878752409192115 1.9982496317210676 -4 2 -1
383 1 1 0.5897 0.46611086733529206 1.693417074417563 5.2350981046185945 -8 -1 -1
84 1 1 0.5897 0.40589247578425425 6.556506999349987 3.3803925430712316 -1 -2 -7
761 1 1 0.5897 2.4796195246745243 4.452329728794343 7.920323273750399 1 -4 0
102 1 1 0.5897 3.429115377084017 4.8492722688076375 10.867445511829263 6 -4 -1
224 1 1 0.5897 1.318555084186883 5.041848420545013 10.07113258264574 3 1 -7
225 1 1 0.5897 1.5374589495767197 6.275642125387816 10.920497141340745 3 1 -7
760 1 2 -1.1794 1.7450458490764698 4.209734751643893 8.48394123148903 1 -4 0
101 1 1 0.5897 4.38456159151141 5.875347607065363 10.29654748378823 6 -4 -1
675 1 1 0.5897 1.6509282434822725 2.850256551067098 9.803119418260248 -4 -2 -4
223 1 2 -1.1794 1.5195814757381227 5.319687685833966 10.96472654187047 3 1 -7
63 1 1 0.5897 3.5764375128665153 2.772600103454636 6.162208804554357 -2 0 4
762 1 1 0.5897 1.023458423495767 4.040720344780905 7.878227281129541 1 -4 0
61 1 2 -1.1794 4.173652459706476 3.3174684461732604 6.674627401033259 -2 0 4
100 1 2 -1.1794 4.349098272647805 5.113297113602015 10.874600093788882 6 -4 -1
673 1 2 -1.1794 1.558431460275743 2.316702731814269 10.592372191786078 -4 -2 -4
62 1 1 0.5897 4.621240108353943 2.7022521356569964 7.255395660164447 -2 0 4
674 1 1 0.5897 2.1386772165770305 1.5696066794823782 10.446352266054483 -4 -2 -4
540 1 1 0.5897 2.628154347002748 6.561594620841376 6.054733783606433 -1 -3 1
270 1 1 0.5897 1.3681725224456451 1.9620729267564416 14.267375493303225 2 5 6
317 1 1 0.5897 3.4453827302765667 2.427253955608772 12.950414933419278 -4 -4 -1
316 1 2 -1.1794 2.579669636558037 2.8054384690937155 13.104145389734848 -4 -4 0
268 1 2 -1.1794 0.5579652330421765 1.5522953343414911 14.570289186475424 2 5 6
543 1 1 0.5897 2.4802333057720243 4.289032006875711 13.971297111974534 -5 1 2
542 1 1 0.5897 2.996550629429258 5.707088061733264 14.090400364542306 -5 1 2
318 1 1 0.5897 2.136866064733442 2.743123324095377 12.257859546863978 -4 -4 0
541 1 2 -1.1794 2.529706702081487 5.028143139718229 14.577437695884022 -5 1 2
741 1 1 0.5897 0.984771308452003 5.880351689875589 15.318445966004939 -1 0 2
804 1 1 0.5897 4.1208344048343015 6.116430732038929 12.400073806825734 5 2 -1
739 1 2 -1.1794 0.2820812561186982 6.447117578042854 15.63642633626273 -1 0 2
269 1 1 0.5897 0.5539688523940609 1.6988623767374527 15.516131478165452 2 5 6
774 1 1 0.5897 3.4820038683555388 4.88194652542298 16.428217478958523 1 -3 3
793 1 2 -1.1794 2.534665084110523 6.143575628631396 20.770241610886757 -3 1 4
472 1 2 -1.1794 1.9979921304659638 4.062625720392834 19.15788473622522 0 1 -2
473 1 1 0.5897 1.1225727256791047 4.123693574538757 18.775744919080054 0 1 -2
797 1 1 0.5897 4.0710592099035185 1.9245891279890346 19.660906563843717 0 -5 -3
794 1 1 0.5897 2.4051517486074214 5.3753351906261315 20.21423743050839 -3 1 4
772 1 2 -1.1794 3.994928335980695 4.29348833585728 16.982058152438917 1 -3 3
474 1 1 0.5897 1.9769673265776126 3.2599183018813775 19.678795093743837 0 1 -2
633 1 1 0.5897 3.5825323679346637 3.516269295442035 21.61468697948306 5 5 4
795 1 1 0.5897 2.735319066527836 5.7835326107030065 21.634078987808984 -3 1 4
796 1 2 -1.1794 4.372135603824882 2.185279208496148 20.531262028060397 0 -5 -3
297 1 1 0.5897 1.4315756204827366 1.3933977680960077 17.564292508921767 0 4 1
475 1 2 -1.1794 0.7337617157857717 1.766615057802607 20.365614493257915 6 -2 -1
773 1 1 0.5897 3.3642911583200545 3.948055764819731 17.61380425889884 1 -3 3
375 1 1 0.5897 4.362951816522177 6.497023819931164 19.68644930752931 4 5 -2
295 1 2 -1.1794 0.4897345593162757 1.432461672420984 17.398362779573603 0 4 1
254 1 1 0.5897 3.7104990556697874 1.4308112824030152 17.223159680723086 2 8 -8
420 1 1 0.5897 4.449351295037028 8.184835161905756 1.048163333859631 -7 -2 5
220 1 2 -1.1794 4.643449267292354 9.395868448855792 3.7651159017148745 3 -3 3
394 1 2 -1.1794 1.035312540326291 9.166942566136218 4.472032827135062 2 2 5
395 1 1 0.5897 0.9709857767574701 8.77023698686205 3.6033568522561983 2 2 5
418 1 2 -1.1794 3.791175458921259 7.770054800741762 1.6057212173477657 -7 -2 5
614 1 1 0.5897 1.2975182724054872 10.930699735424602 4.267876474427485 -4 1 3
396 1 1 0.5897 1.4665139367669302 8.501681031602251 5.008318628198001 2 2 4
419 1 1 0.5897 3.825287331703526 8.263591050460272 2.4250903959699825 -7 -2 5
66 1 1 0.5897 2.2033558387677985 8.613529496325796 1.00928739640077 4 1 -3
64 1 2 -1.1794 1.6200309157936958 9.322338538163155 0.7383020781715355 4 1 -3
221 1 1 0.5897 4.525920124994531 9.489864029972018 4.710349122551937 3 -3 3
789 1 1 0.5897 3.2751961810309096 10.52995814243848 0.3231739488899655 3 -2 6
496 1 2 -1.1794 4.181565379732863 9.147702230748443 6.7346895326889635 1 0 2
551 1 1 0.5897 2.3572570621808313 8.636082948864749 9.51716730781589 -2 7 -4
498 1 1 0.5897 3.7151209951497255 9.776411010976947 7.285385924486157 1 0 1
328 1 2 -1.1794 2.4998148750504203 10.262954917793426 8.644410209796366 4 6 0
552 1 1 0.5897 2.821570990426837 8.56136600084076 10.956088111527027 -2 7 -4
329 1 1 0.5897 1.5585151917321185 10.39387644254243 8.530722504476396 4 6 0
330 1 1 0.5897 2.7253143523130925 10.793413369128386 9.40852752394429 4 6 0
550 1 2 -1.1794 2.245524397332098 8.132429333293729 10.323401003747358 -2 7 -4
538 1 2 -1.1794 2.1542553518410683 7.34188257681284 6.342344963487859 -1 -3 1
539 1 1 0.5897 2.837887919750558 7.940878718998717 6.642283912016957 -1 -3 1
285 1 1 0.5897 0.4760556621096644 6.688561287402627 6.703221854226903 7 1 -4
561 1 1 0.5897 1.581457210913833 11.149318358245669 14.067193080823202 5 0 1
560 1 1 0.5897 2.122270450180043 9.912427652469619 14.752214607767593 5 0 1
732 1 1 0.5897 3.2263966259961587 7.6645660158911655 16.331009757505953 2 2 -5
121 1 2 -1.1794 1.7590586420497314 8.649897496866107 16.168463145952543 1 -2 -1
803 1 1 0.5897 4.260950957805254 7.573150219746981 12.78729801104342 5 2 -1
559 1 2 -1.1794 2.3733449496738097 10.619392599504161 14.157841405730162 5 0 1
123 1 1 0.5897 1.2972734010922704 7.822298761836498 16.034501767550463 1 -2 -1
489 1 1 0.5897 1.4862881472162348 9.512852033669585 12.877106894456704 0 -4 3
178 1 2 -1.1794 3.9636616129400597 9.494600997431021 11.971833117919795 -7 1 -1
802 1 2 -1.1794 3.9928159533543925 6.721025944919745 13.130963289668175 5 2 -1
179 1 1 0.5897 3.6478197034488185 9.974139215680646 12.737602814847042 -7 1 -1
487 1 2 -1.1794 0.6983446558908237 9.204027364704451 12.42997460589514 0 -4 3
488 1 1 0.5897 1.0082894158651037 8.9094729500754 11.573580207496438 0 -4 3
731 1 1 0.5897 4.568578580079893 7.022992492216478 16.05077778641131 2 2 -5
381 1 1 0.5897 1.2764728263598664 7.748265575055062 19.998714941959726 9 4 -1
704 1 1 0.5897 4.04914033628835 7.934955826033755 18.513054712682887 3 -2 -2
519 1 1 0.5897 1.4230693238141037 11.084297792201076 18.562677550960622 0 -1 -5
517 1 2 -1.1794 0.6700076582893606 10.596066443109125 18.230038772860688 0 -1 -5
703 1 2 -1.1794 3.7806707223052496 8.591252970825865 19.15599911716736 3 -2 -2
379 1 2 -1.1794 0.5446823789150858 8.358327601843225 20.09054627051018 9 4 -1
787 1 2 -1.1794 4.062482718172436 11.040397953790645 21.801980045429765 3 -2 5
65 1 1 0.5897 1.2876836874110242 9.04633948776663 21.552089332450812 4 1 -4
730 1 2 -1.1794 3.897764693556511 7.109783665653136 16.728000340166453 2 2 -5
432 1 1 0.5897 4.195538593668376 9.912983853372989 18.10164374423011 -4 -2 -4
518 1 1 0.5897 0.5651826915342254 9.869132821766776 18.843814061545714 0 -1 -5
705 1 1 0.5897 4.488817050598894 8.600178080268876 19.79987059996612 3 -2 -2
122 1 1 0.5897 1.2332567853381997 9.115568013954928 16.818687737021925 1 -2 -1
833 1 1 0.5897 3.4530043570881217 11.716345191734456 18.35826347509485 3 -2 -1
430 1 2 -1.1794 4.659940243622375 10.558891245704482 17.569435764767704 -4 -2 -4
525 1 1 0.5897 2.168111832356182 13.205566053828512 5.326981585865123 3 0 4
593 1 1 0.5897 1.5265208190512358 15.408080066952209 2.8238117522213404 0 -1 -2
616 1 2 -1.1794 1.324206533688587 16.027671274885957 4.740483314726459 1 2 1
639 1 1 0.5897 2.658747071932083 14.37273354018182 0.8556983958753372 -7 0 3
515 1 1 0.5897 2.601582188315361 16.635476118172246 1.391833989498299 -3 -4 0
594 1 1 0.5897 0.7220618467776388 15.21707485655958 1.5557571961626977 0 -1 -2
592 1 2 -1.1794 1.6167173270530344 15.19454252243976 1.895170618063044 0 -1 -2
617 1 1 0.5897 2.072855892407565 16.61809745354662 4.824372965006542 1 2 1
524 1 1 0.5897 2.0236893637063633 14.691648797778496 5.5765895046264005 3 0 4
618 1 1 0.5897 0.6425587242653028 16.426113956109855 5.281530722211734 1 2 1
638 1 1 0.5897 4.1444102257092945 14.09295050262475 0.7774373395199441 -7 0 3
615 1 1 0.5897 0.8871140271779263 12.215939864309604 3.5813461593876927 -4 1 4
52 1 2 -1.1794 4.015572828840418 12.147894656457206 2.841198437188814 -4 -2 3
53 1 1 0.5897 3.2310019215979486 11.905879838675698 3.333127546222694 -4 -2 3
300 1 1 0.5897 4.510810931042881 16.81903586560481 4.728492254916432 -3 -2 1
613 1 2 -1.1794 1.474438677638401 11.871240089649575 4.2539293812101935 -4 1 4
54 1 1 0.5897 3.7862896621412983 11.981796232212819 1.9268917072673495 -4 -2 3
637 1 2 -1.1794 3.3260255030978336 13.977596422031333 0.2946777178524656 -7 0 3
858 1 1 0.5897 2.8009068960003907 15.777837113963944 8.033798197567023 -1 0 -3
438 1 1 0.5897 0.7841037592155128 12.889136144974838 6.8030564083062455 -2 5 1
668 1 1 0.5897 4.029334057160832 12.450061980027952 9.876251443969188 -6 -3 -2
669 1 1 0.5897 2.6987140717190976 13.154170980904462 10.035302683336138 -6 -3 -1
407 1 1 0.5897 4.152053816771633 14.058693262991758 6.123679189986459 -5 -1 3
856 1 2 -1.1794 3.19457333890489 16.636090678243708 7.877063394582458 -1 0 -3
229 1 2 -1.1794 1.6466762314279266 14.529408413222557 9.239950136122063 2 4 0
231 1 1 0.5897 0.8297015434834589 14.952753090744128 9.503504739568562 2 4 0
823 1 2 -1.1794 3.0096892978713368 16.84409965962059 10.661864347448264 -2 3 3
824 1 1 0.5897 3.329890985649426 16.40558485142178 9.87363772326791 -2 3 3
299 1 1 0.5897 4.028784111712364 16.858838949445815 6.1629442233257 -3 -2 1
667 1 2 -1.1794 3.1836039153681295 12.379156626792547 10.318774954863768 -6 -3 -1
230 1 1 0.5897 1.3856704632347339 13.904039359617334 8.563979773589377 2 4 0
523 1 2 -1.1794 2.2934171290096805 13.875972882936345 5.998535191896033 3 0 4
825 1 1 0.5897 2.3818485079494565 16.228817832161237 11.040513025651697 -2 3 3
588 1 1 0.5897 3.9363027272875386 16.705977117584965 15.130028624787665 0 1 4
58 1 2 -1.1794 1.3032330241812464 14.099399548262902 16.069567954837275 4 -1 -3
612 1 1 0.5897 3.5962485179760213 12.784602084530201 12.07111640429754 3 3 -1
610 1 2 -1.1794 3.905436265291723 13.231933168164801 12.858824022156604 3 3 -1
60 1 1 0.5897 0.9181920734862413 13.447186344124292 15.484357784292937 4 -1 -3
545 1 1 0.5897 2.044875701926358 16.70453223421436 13.180955754516752 -4 4 5
289 1 2 -1.1794 1.7916458767496284 15.058094221941495 12.423133018999007 -5 -5 -7
291 1 1 0.5897 2.480080252968913 14.405169165140906 12.549062631687848 -5 -5 -7
290 1 1 0.5897 0.9769074394316649 14.581316929523823 12.581250173510854 -5 -5 -7
859 1 2 -1.1794 3.8538430366404905 13.045736972914932 16.02032831183057 -1 -2 1
586 1 2 -1.1794 3.6345626264157005 16.674902418456185 16.03782634735657 0 1 4
59 1 1 0.5897 2.2107227261791484 13.81612357700798 16.180663545830665 4 -1 -3
611 1 1 0.5897 3.3138356516064644 12.936013508631724 13.550645601571029 3 3 -1
860 1 1 0.5897 4.325094107078919 12.279247017232072 16.346719501762024 -1 -2 1
861 1 1 0.5897 4.535383741847038 13.701108544533492 15.871660404959652 -1 -2 1
309 1 1 0.5897 1.7758053352497944 16.947630358335218 16.10911050587158 -1 4 -1
308 1 1 0.5897 0.7079202818769619 15.943329070430476 15.731495632186869 -1 4 -1
307 1 2 -1.1794 0.8442038325931778 16.875289131527833 15.90174446926303 -1 4 -1
587 1 1 0.5897 4.366247660958444 16.290995267665473 16.52090020742539 0 1 4
598 1 2 -1.1794 3.6016562556841594 14.946385882151338 19.480939016964307 0 -3 -5
788 1 1 0.5897 3.7388282260267744 11.82692563179967 21.362950039853686 3 -2 5
332 1 1 0.5897 0.8364833729877903 15.791501531671553 18.93655053975418 0 -2 -3
331 1 2 -1.1794 1.5355196625460052 16.379990765507756 18.651703538843776 0 -2 -3
599 1 1 0.5897 3.532515407339006 14.69815863683539 20.402747234216285 0 -3 -5
267 1 1 0.5897 1.001568482879887 13.409246587103668 20.296761404763593 -3 -1 -2
333 1 1 0.5897 1.3178830595444138 16.589153662397987 17.743401671590817 0 -2 -3
832 1 2 -1.1794 2.817118623414712 12.24819602372467 18.836709622423058 3 -2 -1
834 1 1 0.5897 3.1505114246012154 13.14257777499089 18.76566901030678 3 -2 -1
600 1 1 0.5897 2.7854531978146033 15.410675574775361 19.295577806242612 0 -3 -5
265 1 2 -1.1794 0.4153769714646921 14.097802495424954 19.983094025363215 -3 -1 -2
723 1 1 0.5897 3.103379577612176 19.596166102393436 3.6954952760499182 1 0 -1
567 1 1 0.5897 3.8714726174185343 19.005917000670795 5.517630219340836 -1 4 -5
621 1 1 0.5897 0.9747611528164728 21.305659301342253 1.7964453446147777 1 -2 4
514 1 2 -1.1794 3.2002755662239006 17.31646500844845 1.0853378962894755 -3 -4 0
516 1 1 0.5897 2.862863841519837 18.124440264886545 1.471993777665374 -3 -4 0
722 1 1 0.5897 2.497631113242989 20.13890808955283 2.418711426477493 1 0 -1
721 1 2 -1.1794 2.61523700627213 19.329851428838403 2.9164324229636467 1 0 -1
298 1 2 -1.1794 3.8425130906205607 17.20903279439515 5.291866995544817 -3 -2 1
565 1 2 -1.1794 3.78806866026332 19.943876608582585 5.346017255627833 -1 4 -5
643 1 2 -1.1794 3.5432089860431017 21.327314859515305 1.063409372378616 4 -4 0
619 1 2 -1.1794 0.8365293810115721 21.75688704757313 2.62914765249189 1 -2 4
714 1 1 0.5897 0.8584770707445827 19.167231127394558 3.8457227316069518 -5 -1 4
645 1 1 0.5897 3.5580264833035327 21.91337232733152 0.3068079363750653 4 -4 0
644 1 1 0.5897 4.344327152522036 20.809918373140416 0.9818678933459413 4 -4 0
620 1 1 0.5897 0.5392752029828264 21.071186151277324 3.2271974102408656 1 -2 4
815 1 1 0.5897 2.435622468853263 21.854262852663595 5.291230033604247 -3 6 -3
566 1 1 0.5897 4.659747442402634 20.21335933885746 5.056717437465323 -1 4 -5
104 1 1 0.5897 0.7479856864208065 18.743282038421214 9.473638402235217 2 0 5
105 1 1 0.5897 2.0888270732673453 18.11537329152578 9.789022097058124 2 0 5
306 1 1 0.5897 0.8464957022898433 19.394597314792005 7.501185041411332 4 -2 -6
152 1 1 0.5897 4.041482673528881 21.23952068584975 8.192683570299407 2 -1 0
153 1 1 0.5897 4.29127847156687 20.89769219569598 6.739286964083277 2 -1 1
103 1 2 -1.1794 1.6163182322907657 18.586483537618594 9.102797533458276 2 0 5
844 1 2 -1.1794 2.989388568350135 21.081382533568977 9.935323819291083 -2 -1 3
151 1 2 -1.1794 4.591799719049058 21.470814712892313 7.4445101474551265 2 -1 1
77 1 1 0.5897 0.4089064252286854 22.11403215776808 9.60841638488981 -5 -4 -4
846 1 1 0.5897 2.365559440172819 20.39414856295948 9.701530306410927 -2 -1 3
845 1 1 0.5897 3.5544300504927215 20.678447580319144 10.59447653395667 -2 -1 3
857 1 1 0.5897 2.495044133545256 17.25996470989171 8.070960810670208 -1 0 -3
785 1 1 0.5897 3.1647731579741767 19.763461369367338 16.23708291957903 4 4 2
48 1 1 0.5897 2.694731496791027 19.045563643466167 13.410690059935874 3 -2 -2
47 1 1 0.5897 2.071340395970048 20.328669280491734 12.904020788578629 3 -2 -2
46 1 2 -1.1794 2.891184317079259 19.966680906558032 13.240084597082218 3 -2 -2
534 1 1 0.5897 3.441041826730957 20.941679658415556 14.504999222487053 -7 -3 -1
648 1 1 0.5897 4.076566655653792 17.276248287301783 12.664315512135337 -6 0 0
532 1 2 -1.1794 3.8750328529488822 21.197940942732814 15.318695268985257 -7 -3 -1
544 1 2 -1.1794 1.6663939391702782 17.548768651462552 13.426494402295504 -4 4 5
546 1 1 0.5897 1.3926530671899722 17.433513110474603 14.336385193744682 -4 4 5
646 1 2 -1.1794 4.6316830736896035 17.203022427828927 13.440585475519585 -6 0 0
851 1 1 0.5897 0.7785311310311493 21.163799172407337 21.276738590628888 -6 0 -3
784 1 2 -1.1794 2.8599411111206123 19.12863927389553 16.88531308779322 4 4 2
786 1 1 0.5897 3.29092248101127 18.30984958437402 16.640426656111927 4 4 2
2 1 1 0.5897 3.7125886763776315 19.52296785438968 20.000097829620735 3 -7 3
852 1 1 0.5897 1.190933739639466 19.710303481365088 21.182467543052084 -6 0 -3
255 1 1 0.5897 3.714138945539418 21.24672333261488 18.259208102172472 2 7 -8
402 1 1 0.5897 2.202214654995455 19.010836431324137 18.906131460760186 -2 -3 2
353 1 1 0.5897 0.7576369912868116 19.022579075638784 17.024125444506517 5 3 -3
400 1 2 -1.1794 1.954693952952893 18.816688595721676 19.810167506950215 -2 -3 2
401 1 1 0.5897 1.9682378030664658 17.861085744674835 19.862737954755573 -2 -3 2
1 1 2 -1.1794 4.620732183218333 19.824957306423464 20.013780119972367 3 -7 3
253 1 2 -1.1794 3.3289896949265723 22.101119406851947 18.064831790037843 2 7 -8
850 1 2 -1.1794 0.828717527012325 20.356528587445975 21.788537646739613 -6 0 -3
476 1 1 0.5897 0.4514671326574936 22.24748432891094 19.563169002218025 6 -3 -1
130 1 2 -1.1794 6.380743158321936 3.88183172798168 1.2757551821365314 -4 2 1
131 1 1 0.5897 7.1472057794200845 4.357223184402889 1.596161338030979 -4 2 1
771 1 1 0.5897 7.3499692410747715 2.1012695283341154 0.9945076521226127 4 -1 0
441 1 1 0.5897 7.692478979511579 5.588868596733847 5.647325980770562 0 -1 -2
399 1 1 0.5897 6.873186992360405 3.596034294367244 4.908460937356656 5 3 -5
397 1 2 -1.1794 6.341526548652587 2.808551976926796 4.793050934644485 5 3 -5
127 1 2 -1.1794 5.143944113541667 5.838527289082682 3.052735877503802 -2 1 -4
398 1 1 0.5897 5.568169492622542 2.9593683775846946 5.336448857259892 5 3 -5
129 1 1 0.5897 4.7594374616781225 6.416043832112209 2.393387965058743 -2 1 -4
128 1 1 0.5897 5.5170201300713995 5.114794181469945 2.549605972800084 -2 1 -4
345 1 1 0.5897 8.867892191623563 5.6386444644904685 2.7725490503902583 -2 1 -1
344 1 1 0.5897 8.869471534189977 6.368598362939461 1.446370343398311 -2 1 -1
343 1 2 -1.1794 8.283661417560012 6.031413215473624 2.124055979937652 -2 1 -1
677 1 1 0.5897 4.758054081356393 2.6788664334611862 3.2239282199136468 1 1 -3
769 1 2 -1.1794 8.065183399593522 1.4662850581774034 0.957008283404037 4 -1 0
132 1 1 0.5897 6.4430852529637805 3.940666863856047 0.32245782520114996 -4 2 1
440 1 1 0.5897 8.868005518541104 4.8182331782326 5.085324955072546 0 -1 -2
404 1 1 0.5897 6.185766760972861 2.9770482953358144 9.528692612806108 5 -3 0
89 1 1 0.5897 7.92253340917818 3.645119539982664 10.587198556165347 7 -1 4
510 1 1 0.5897 6.634583095918947 5.977273033696117 8.810304834020675 5 -1 2
117 1 1 0.5897 4.890834884290265 4.743345994001509 7.6639270295382405 -2 -2 4
508 1 2 -1.1794 7.042862376258403 6.413231398391735 9.558215165575795 5 -1 2
90 1 1 0.5897 8.623628118529624 3.476676376048127 9.256145129701345 7 -1 4
116 1 1 0.5897 5.275472134119033 6.055252721083614 7.013895241611068 -2 -2 4
403 1 2 -1.1794 5.26973701131283 2.7111477821223136 9.608098512844292 5 -3 0
88 1 2 -1.1794 7.992308300209437 3.053573214084952 9.83798325756898 7 -1 4
509 1 1 0.5897 6.92341593601733 5.803265637694127 10.286089665537569 5 -1 2
115 1 2 -1.1794 5.0434069207301455 5.668115746530643 7.857921660412968 -2 -2 4
405 1 1 0.5897 4.814606698411112 3.5017738006601986 9.897737124401775 5 -3 0
187 1 2 -1.1794 8.516083212309685 1.5540089761737352 6.008496248987681 -2 4 1
189 1 1 0.5897 7.740407888945465 2.087426515334424 5.835488996287694 -2 4 1
439 1 2 -1.1794 8.164677900904952 4.760627873382558 5.73194753868679 0 -1 -2
301 1 2 -1.1794 7.173756168941812 2.9455190972169074 13.834990292673533 -2 3 7
302 1 1 0.5897 6.407421886195727 2.4193813668354185 13.606898399585443 -2 3 7
177 1 1 0.5897 8.049906862209653 5.5028513866489925 12.221647705545122 0 -3 6
176 1 1 0.5897 7.354640029341577 4.1825761941399975 12.476815349153329 0 -3 6
303 1 1 0.5897 6.949102407581143 3.345008798360559 14.67525580725002 -2 3 7
313 1 2 -1.1794 5.078311485179103 1.5966163846841985 12.369235549270996 -2 0 -1
175 1 2 -1.1794 7.555358630071285 4.810618479094996 11.782996341431366 0 -3 6
347 1 1 0.5897 9.051192154903672 3.362080522775473 14.210933981001677 -2 3 -2
356 1 1 0.5897 5.344066631852109 6.536308944986576 14.239036202787416 1 -1 3
4 1 2 -1.1794 8.747114479610458 6.423953999126041 13.79658144430638 1 0 -1
314 1 1 0.5897 5.3272327799454615 2.1122681695671166 11.602223741913528 -2 0 -1
160 1 2 -1.1794 6.935717631432749 3.975859691744698 16.28769895857971 2 8 2
5 1 1 0.5897 7.8860585083157195 6.471903601987491 14.211782050821427 1 0 -1
156 1 1 0.5897 8.3320943198507 1.5604915667064057 13.471102739639527 3 3 -4
162 1 1 0.5897 6.106758708043857 4.454233174284319 16.277798599808506 2 8 2
374 1 1 0.5897 4.706372358404514 5.590622328582195 18.52365645630104 4 5 -2
505 1 2 -1.1794 6.591219658910925 3.9438367318517007 20.27906076716512 3 1 -4
798 1 1 0.5897 5.227799165633505 2.586266226081425 20.379069174237557 0 -5 -3
507 1 1 0.5897 7.437711458255845 3.8545164280351427 19.841334544338643 3 1 -4
650 1 1 0.5897 7.170663642950703 2.3506297613742695 17.333536784075044 1 -1 -1
373 1 2 -1.1794 5.100237827303865 6.063824006881386 19.25649970342087 4 5 -2
506 1 1 0.5897 6.155504402814061 4.65880038284334 19.815278660432796 3 1 -4
649 1 2 -1.1794 7.032258833266091 1.4220366244690092 17.51977613922881 1 -1 -1
161 1 1 0.5897 7.582962289778382 4.623095273638604 16.567470906795897 2 8 2
799 1 2 -1.1794 7.97656964249077 11.400341664422735 4.3963796114025975 -1 -2 4
555 1 1 0.5897 7.228152765062922 10.044087000451754 5.415278954577203 -4 -7 4
68 1 1 0.5897 7.993324624111228 9.458450972119524 1.4270412927494522 5 -2 -3
701 1 1 0.5897 7.682837522229147 7.910603511188153 2.809741664356994 3 1 3
700 1 2 -1.1794 7.544721521918033 8.825880893656038 3.053281620092615 3 1 3
702 1 1 0.5897 6.652202920562887 8.850385592214577 3.3981390508353218 3 1 3
462 1 1 0.5897 8.795876038325577 8.275654222646846 4.267328555305641 3 3 0
801 1 1 0.5897 8.723249189104777 11.404627359467352 4.995181900900675 -1 -2 4
800 1 1 0.5897 8.208094904225462 10.754721285150717 3.7287403254569327 -1 -2 4
581 1 1 0.5897 6.492720564222952 7.6619043207519955 5.652135679088787 -3 -3 0
67 1 2 -1.1794 7.915268030917267 9.678392760836934 0.4987890974387946 5 -2 -3
580 1 2 -1.1794 6.35079328431945 6.7236478198736656 5.526981783015544 -3 -3 0
69 1 1 0.5897 7.765595127731508 10.62371148131029 0.48793621841035595 5 -2 -3
582 1 1 0.5897 5.96641278209706 6.653546878585739 4.653215212182073 -3 -3 0
222 1 1 0.5897 4.685331851418183 10.29438985865767 3.4379714871996 3 -3 3
554 1 1 0.5897 7.082121916384938 9.910744098256778 6.916127550887717 -4 -7 4
553 1 2 -1.1794 6.8593705430923615 9.477039844408253 6.092479589847657 -4 -7 4
349 1 2 -1.1794 6.929757092438953 10.609954338895522 8.64770042019085 -10 1 -2
350 1 1 0.5897 6.7254964220972475 9.934547306326786 9.294396053213928 -10 1 -2
143 1 1 0.5897 6.95975906633774 8.084772050708644 10.388291632429286 -1 4 2
497 1 1 0.5897 5.1048610144839115 9.378807678821925 6.835808607260086 1 0 2
351 1 1 0.5897 7.659367017867741 11.096519486685033 9.03114928752858 -10 1 -2
142 1 2 -1.1794 6.753499510916524 8.90307529311381 10.83990384792489 -1 4 2
107 1 1 0.5897 8.71304513641549 6.827289044379205 9.388502098497321 -2 0 4
862 1 2 -1.1794 5.86133472161959 9.424466828652244 15.09914375807237 0 -2 1
357 1 1 0.5897 6.051386820074933 7.664634917302913 14.958872557343554 1 -1 3
864 1 1 0.5897 5.809063050116031 10.187497351232546 14.523645786252732 0 -2 1
805 1 2 -1.1794 5.894383008668772 11.369186134635326 13.06059125219524 1 -1 -4
863 1 1 0.5897 5.525850323665433 9.734767109819003 15.940147719700535 0 -2 1
262 1 2 -1.1794 9.10048843826572 9.173214107618248 12.59451292853873 3 -4 5
848 1 1 0.5897 9.017503422074679 10.316013577582625 15.162128854505035 2 -3 4
355 1 2 -1.1794 6.030238967692188 6.710735813761864 14.883125207088188 1 -1 3
807 1 1 0.5897 6.76861013025869 11.679621960404994 12.825024612863475 1 -1 -4
6 1 1 0.5897 8.935866877505921 7.3238956387844025 13.530899929069895 1 0 -1
849 1 1 0.5897 7.568543646718453 10.003170808295332 15.469195040461587 2 -3 4
180 1 1 0.5897 4.883598720593097 9.746945228421573 11.893281618823389 -7 1 -1
847 1 2 -1.1794 8.293834311866837 10.568044935637948 15.73563606038473 2 -3 4
144 1 1 0.5897 7.397038029723954 8.95604843416763 11.54641777133473 -1 4 2
727 1 2 -1.1794 7.1402697460246864 7.523205634651279 17.891645639283716 -1 3 1
821 1 1 0.5897 7.979144395799424 8.914015500038262 18.267451868676808 1 1 4
728 1 1 0.5897 6.352468753943831 7.094156795025873 18.225412230007066 -1 3 1
729 1 1 0.5897 7.792491593647025 6.824279537042143 17.844485307849673 -1 3 1
368 1 1 0.5897 6.440460593215972 8.977611308296211 21.44748521988391 4 6 -2
820 1 2 -1.1794 8.592722329199752 9.648593008285056 18.262253372679048 1 1 4
367 1 2 -1.1794 5.526499998888581 8.706383041009556 21.362283528529453 4 6 -2
822 1 1 0.5897 8.542367237479901 9.997046584124348 17.3721484092908 1 1 4
495 1 1 0.5897 7.477895188975933 10.92940897986563 18.874702376460647 -3 -1 -1
431 1 1 0.5897 5.342725176740251 10.89963053589995 18.14719980221006 -4 -2 -4
369 1 1 0.5897 5.025450696511628 9.515263374040455 21.466231751294515 4 6 -3
493 1 2 -1.1794 6.907122849348087 11.676430961063677 19.054443862730203 -3 -1 -1
140 1 1 0.5897 6.456138566249813 15.707626464129717 4.1857793165892545 0 -1 0
408 1 1 0.5897 5.480962505296079 13.858365959555869 5.426884980027584 -5 -1 3
173 1 1 0.5897 6.121178171388945 14.185529513072405 2.0337014114671237 1 2 -1
28 1 2 -1.1794 6.269202889313986 13.635818065744974 3.7742284620201385 -7 1 6
34 1 2 -1.1794 8.258581589760674 15.289307362374041 5.63049632508977 -4 2 -1
172 1 2 -1.1794 5.824402650634551 14.340873521081985 1.1370947020762694 1 2 -1
30 1 1 0.5897 5.653809082203563 13.037493840465643 3.350664573777738 -7 1 6
29 1 1 0.5897 7.034864833892134 13.09507529005271 3.967929937941925 -7 1 6
174 1 1 0.5897 5.928245401036419 15.283832593762487 1.0099342062747014 1 2 -1
139 1 2 -1.1794 6.1442721821668 16.518423450363848 3.7839295684799072 0 -1 0
720 1 1 0.5897 6.024367681114758 16.924988160675454 2.075550454754862 4 4 0
261 1 1 0.5897 6.604064862042613 15.289518320458908 10.077691094608433 1 -2 6
35 1 1 0.5897 7.598238867388582 15.840100175507613 6.050836376565659 -4 2 -1
755 1 1 0.5897 5.94670592293009 12.104194408551534 8.717259524958221 -3 -2 -3
80 1 1 0.5897 5.643139377431377 15.986483478995348 6.827570735844267 0 0 -4
756 1 1 0.5897 5.312803602646275 13.242292957144453 7.946225425189431 -3 -2 -3
81 1 1 0.5897 6.0978203433138365 16.892530487468868 7.9518477409268575 0 0 -4
79 1 2 -1.1794 6.228224448983451 16.719291951357754 7.019594771087523 0 0 -4
754 1 2 -1.1794 5.453870040885073 12.916212469448627 8.834977991763443 -3 -2 -3
36 1 1 0.5897 8.957657079085017 15.214746469262822 6.279994128742746 -4 2 -1
260 1 1 0.5897 6.590784318528535 13.81190904947834 9.748812740712488 1 -2 6
406 1 2 -1.1794 5.085210495414965 14.256725949956234 6.202010233818925 -5 -1 3
837 1 1 0.5897 8.79601716178607 15.054062755351142 9.663228699681383 -1 1 -1
259 1 2 -1.1794 7.076829831546305 14.47346246740151 10.24100077321459 1 -2 6
537 1 1 0.5897 6.593444696245224 15.411592506250313 16.156156016486648 6 6 4
212 1 1 0.5897 6.9911993693036685 15.285022862748717 12.148309290208111 2 2 2
134 1 1 0.5897 8.52559004040286 12.400426914134014 13.232012077415602 0 -6 -1
288 1 1 0.5897 8.438380282343081 12.349842505108342 15.266384168059737 2 1 1
213 1 1 0.5897 6.135147795026089 16.303003176773302 12.871138118286892 2 2 2
211 1 2 -1.1794 7.04122923148468 16.11051250545751 12.630151953295458 2 2 2
135 1 1 0.5897 8.561534234689697 12.660213988478427 11.741091710490117 0 -6 -1
589 1 2 -1.1794 7.851485698110821 16.531330203718227 15.243315818498525 2 4 2
590 1 1 0.5897 7.705495485478293 16.24132130084538 14.342921684856629 2 4 2
806 1 1 0.5897 5.376572715210826 12.167270205795296 13.165683019201667 1 -1 -4
286 1 2 -1.1794 8.42538237718141 13.194106046799979 14.815653394418181 2 1 1
133 1 2 -1.1794 8.548715447719376 11.953160608852983 12.386123619969492 0 -6 -1
287 1 1 0.5897 9.083699524453586 13.719218166337876 15.270661546544897 2 1 1
377 1 1 0.5897 9.080755268292682 15.43914435579948 16.295933963904872 1 2 3
854 1 1 0.5897 8.261140998892081 12.847392551814435 18.360868682553082 -3 1 0
699 1 1 0.5897 8.741648742310188 15.802654958958705 21.353979372532407 -2 3 -4
698 1 1 0.5897 7.985256246403448 14.92039818330954 20.38387862887808 -2 3 -4
742 1 2 -1.1794 6.398119077142265 15.509281824871955 19.475385974154797 -2 -1 0
697 1 2 -1.1794 8.800393831379825 14.971504315809177 20.88295816539118 -2 3 -4
744 1 1 0.5897 5.516479864167132 15.15696270049447 19.354079500804197 -2 -1 0