LAMMPS data file via write_data, version 30 Jul 2021, timestep = 13750000

864 atoms
2 atom types
576 bonds
1 bond types
288 angles
1 angle types

0.39344427624999945 17.81412812374012 xlo xhi
1.5549566577511662 22.074221142250543 ylo yhi
0.4800010980468379 21.733194701960066 zlo zhi

Masses

1 1.00794
2 15.9994

Pair Coeffs # lj/cut/tip4p/long/omp

1 0 0
2 0.21084 3.1668

Bond Coeffs # harmonic/omp

1 450 0.9572

Angle Coeffs # harmonic/omp

1 55 104.52

Atoms # full

756 1 1 0.5897 2.7317699472222876 4.829688647343394 2.721311126770374 -5 -2 -1
348 1 1 0.5897 3.614230606951734 1.656216243631516 1.4286453703066233 2 2 -1
80 1 1 0.5897 0.8495305336169643 5.937273690630128 1.7666606826814852 2 1 -3
755 1 1 0.5897 3.967773182904075 5.645922706063115 2.408697784399809 -5 -2 -1
754 1 2 -1.1794 3.421220465905924 5.3482773513802115 3.1359077529767165 -5 -2 -1
296 1 1 0.5897 2.625611781328631 2.859447319555893 4.560487841719027 -1 4 3
295 1 2 -1.1794 2.9430443339136425 1.980054866376456 4.3554194053943505 -1 4 3
216 1 1 0.5897 1.0270827618678298 3.3754666183549054 1.7966352280550164 -2 3 2
214 1 2 -1.1794 1.559360166102739 4.095649844398319 1.4587609345998542 -2 3 2
215 1 1 0.5897 1.9880131083418875 3.733903750794897 0.6831546977270657 -2 3 2
347 1 1 0.5897 3.6955228708857972 2.6954828817393564 2.5263688316885613 2 2 -1
499 1 2 -1.1794 1.6224794762090646 4.397773183994322 5.349316039901439 0 -1 -3
501 1 1 0.5897 2.102553277239739 5.22517613035809 5.382221787216826 0 -1 -3
346 1 2 -1.1794 4.163030611534095 2.3678537483458797 1.758087948459712 2 2 -1
5 1 1 0.5897 1.3525015957790392 4.36878420544331 8.38127508620973 -1 -1 -3
675 1 1 0.5897 0.6588386319196178 2.6957467367296086 11.0031344434643 -5 -1 -5
258 1 1 0.5897 2.4139643787027834 2.4340055149500333 7.783802312349595 2 -4 -1
257 1 1 0.5897 3.7012592192550606 3.1955644997752986 7.550214619293169 2 -4 -1
4 1 2 -1.1794 0.5583417800747434 4.652607538892645 8.83393297827375 -1 -1 -3
256 1 2 -1.1794 2.767786911681664 3.3211078590598513 7.720546842587208 2 -4 -1
831 1 1 0.5897 3.8966545903970013 2.7198352868369904 9.49516763698651 5 4 6
829 1 2 -1.1794 4.579525675051633 2.8819623392029197 10.145970357927945 5 4 6
500 1 1 0.5897 1.8262363605870957 3.9689054830830752 6.180407467191773 0 -1 -3
830 1 1 0.5897 4.473022660501275 3.803673103167403 10.381035095283044 5 4 6
843 1 1 0.5897 3.9223520608488838 6.326860985773843 8.76687109401635 -2 0 3
90 1 1 0.5897 1.4769864926105747 6.25970895428137 8.615985815478616 7 -1 5
6 1 1 0.5897 0.5997599845260447 4.218706822099778 9.686092946837482 -1 -1 -3
702 1 1 0.5897 2.9429462986745896 5.650339710585375 11.79639887502621 4 1 3
471 1 1 0.5897 1.8341588492098913 2.559932263816648 14.666750607211693 0 -3 0
74 1 1 0.5897 4.386801924080512 4.390054430395374 13.124479724870161 4 0 2
470 1 1 0.5897 2.406802645895472 2.4776798152713706 13.267799335522543 0 -3 0
698 1 1 0.5897 4.091385625490102 1.894489622197395 11.869936484180899 -5 1 -3
75 1 1 0.5897 3.7415741515244907 3.750400318785423 14.335343614868412 4 0 2
469 1 2 -1.1794 1.6829191306800564 2.8538515129458 13.768469671530758 0 -3 0
271 1 2 -1.1794 3.2430718428338294 2.935364545750499 16.30839035248334 -1 3 2
700 1 2 -1.1794 3.7836472067861036 5.261566888748058 11.55509450437118 4 1 3
655 1 2 -1.1794 1.5347657740012226 6.6597239986105645 12.478833653607822 -1 3 -1
626 1 1 0.5897 0.4390832808496006 6.218893213173442 15.340688349997741 -3 -2 4
627 1 1 0.5897 0.6141099827644392 5.418352964761014 14.067829504313794 -3 -2 4
701 1 1 0.5897 4.372318567647888 6.008942145285097 11.450030217090076 4 1 3
73 1 2 -1.1794 4.549559404803771 3.755394723172093 13.82223590816409 4 0 2
365 1 1 0.5897 1.6272630524076348 5.079768901529047 18.047310995764803 0 5 2
812 1 1 0.5897 3.772316950971192 5.997752529849357 17.588135987031126 -1 4 -5
587 1 1 0.5897 2.00458746556855 3.4613839019962316 19.692982262274324 1 2 1
588 1 1 0.5897 3.4024236288648524 3.6912036995878283 20.226841344579135 1 2 1
364 1 2 -1.1794 1.0784881534782247 4.403746586704129 18.44477965845308 0 5 2
272 1 1 0.5897 4.07428391022318 3.037503081887923 16.771849251929936 -1 3 2
366 1 1 0.5897 0.6684634629204884 3.9602498646641653 17.702258557062596 0 5 2
586 1 2 -1.1794 2.6531637555906644 3.099719455393357 20.29691349536776 1 2 1
811 1 2 -1.1794 2.8744633558609056 6.113673724019303 17.27739105989079 -1 4 -5
401 1 1 0.5897 3.7760430977869457 5.818857003084258 20.426774385962723 -3 -2 3
400 1 2 -1.1794 4.439745543714579 5.150721462643837 20.597779755840175 -3 -2 3
495 1 1 0.5897 4.077637584046118 1.6907201609410556 20.00673051111157 -4 -2 -1
273 1 1 0.5897 2.6211399722926405 3.4598443197907516 16.812634979364695 -1 3 2
703 1 2 -1.1794 1.362242841496748 9.139975863000881 1.618773371623878 1 -3 -3
854 1 1 0.5897 4.3338028663791075 9.196837309613144 3.139533335834776 -3 5 0
112 1 2 -1.1794 4.4925235581591165 9.601522310284967 5.069634425733845 -2 -3 1
378 1 1 0.5897 1.6473813593820121 10.582526390805615 5.444797855074274 3 4 3
57 1 1 0.5897 0.9001860265392009 7.474349762805583 5.039508564646273 0 2 2
704 1 1 0.5897 1.1154801201814637 8.244565334972485 1.850046370789196 1 -3 -3
308 1 1 0.5897 0.8348747441829263 10.842601458730838 2.991397234792213 1 4 -1
853 1 2 -1.1794 4.023990726073019 9.091652995838466 2.2400270470695753 -3 5 0
307 1 2 -1.1794 1.1932623629491728 11.18650392917737 3.809625280160368 1 4 -1
705 1 1 0.5897 2.1508612892251158 9.312049570725605 2.133245263443501 1 -3 -3
414 1 1 0.5897 3.8172649777836765 10.21894749924734 0.7570121433512236 5 1 2
114 1 1 0.5897 3.58446042763211 9.752434302582598 5.331972279274665 -2 -3 1
855 1 1 0.5897 4.390170107230604 8.253988896005334 1.9565043981408146 -3 5 0
226 1 2 -1.1794 4.0026910448588415 10.340474391285802 9.276306569739027 5 -3 0
89 1 1 0.5897 1.596002867812653 7.536849518677937 9.419990574696017 7 -1 5
228 1 1 0.5897 4.465620195373696 9.7316527069874 8.700814708312972 5 -3 0
280 1 2 -1.1794 1.488275555433402 9.360986050289453 10.148620172095894 1 -1 1
227 1 1 0.5897 3.1099720651109917 9.997933799668672 9.31970064411163 5 -3 0
836 1 1 0.5897 0.8698170045858258 10.167135231375363 7.369445582110995 -1 4 0
281 1 1 0.5897 0.9346224084827705 9.742764973638714 9.467547948594262 1 -1 1
88 1 2 -1.1794 2.002785536454763 7.05510180760777 8.699858956035543 7 -1 5
377 1 1 0.5897 2.737319101062044 11.044615342914717 6.388324074565491 3 4 3
645 1 1 0.5897 2.38701597689386 7.135781937109787 7.013891523240723 3 -5 1
376 1 2 -1.1794 2.2049712709883584 10.28191228784419 6.1623436534337 3 4 3
643 1 2 -1.1794 2.5622510398711547 7.058901647375851 6.076056363538022 3 -5 1
282 1 1 0.5897 1.2040029167932347 9.788344919474122 10.956514827331873 1 -1 1
644 1 1 0.5897 3.463254316794692 7.36550723966397 5.974350343243995 3 -5 1
283 1 2 -1.1794 3.0313919310019997 8.943411022084526 13.032682213706321 4 2 -3
488 1 1 0.5897 0.447684819103664 9.134500810574359 15.55215986558381 0 -4 3
657 1 1 0.5897 2.023544626505737 7.468872773318781 12.629006096146957 0 3 -1
285 1 1 0.5897 2.8147809661788084 9.849155152976275 13.253790473053048 4 2 -3
857 1 1 0.5897 3.474631583137203 8.504575224182435 14.742016812340001 0 -1 -3
856 1 2 -1.1794 3.651513376268331 8.546175229207588 15.681766819335078 0 -1 -3
284 1 1 0.5897 3.7522843765996288 9.01489700209065 12.407075960698457 4 2 -3
26 1 1 0.5897 2.4928213053568875 10.936241694564819 14.93484972793622 2 4 6
27 1 1 0.5897 3.898784429808173 11.284932566616298 14.495134589187021 2 4 6
858 1 1 0.5897 4.606354818394857 8.564840467918998 15.74562817313206 0 -1 -3
487 1 2 -1.1794 0.5418907756924681 10.00756635511086 15.171332158766601 0 -4 3
25 1 2 -1.1794 2.9786629040163173 11.439625573260832 14.281624597711652 2 4 6
656 1 1 0.5897 0.7792205725015239 6.929153170652394 11.956597410147628 -1 3 -1
325 1 2 -1.1794 0.6856906978906494 7.767546554876742 19.129313268071915 3 -1 -6
806 1 1 0.5897 3.456487295741182 8.073129915894773 20.271227287639523 1 0 -4
783 1 1 0.5897 4.482524439941441 9.52927361946422 18.462602777522505 -2 -4 2
695 1 1 0.5897 0.48752940981975573 7.663733392591874 17.409036108682315 1 -1 -3
807 1 1 0.5897 2.709799429990876 8.339033556547628 21.56096966379299 1 0 -4
222 1 1 0.5897 2.5150493127872897 10.21373379202396 18.255093217679107 2 -6 3
805 1 2 -1.1794 2.793151196478165 7.701043344852433 20.852330891628075 1 0 -4
326 1 1 0.5897 1.3322944971970883 7.408194025426892 19.736715609021484 3 -1 -6
396 1 1 0.5897 0.7401539929025553 9.577275955095821 19.52221693669205 1 1 3
781 1 2 -1.1794 4.539323221598149 8.665073870788397 18.870156783233696 -2 -4 2
220 1 2 -1.1794 2.9731314661187938 10.513572200035158 17.469974279771765 2 -6 3
221 1 1 0.5897 3.1149163277615273 9.718372921112955 16.956458032600942 2 -6 3
395 1 1 0.5897 1.6511082218549251 10.435698532485674 20.37366943038334 1 1 4
394 1 2 -1.1794 1.1654589817700585 10.434340482038285 19.54886860752694 1 1 4
412 1 2 -1.1794 3.5854023047400996 10.7027200583221 21.217476225094664 5 1 1
413 1 1 0.5897 3.5910369717465387 11.621248762003733 21.486627753999276 5 1 1
813 1 1 0.5897 2.931405169566073 6.824402160391251 16.638827943966024 -1 4 -5
389 1 1 0.5897 1.3771691484829691 15.452867822716835 2.348640636480509 2 6 3
565 1 2 -1.1794 3.112280150453628 14.5995728560686 5.476559847738407 -1 7 -4
566 1 1 0.5897 2.330941855692214 15.060076315834893 5.170616488623731 -1 7 -4
309 1 1 0.5897 1.8417724774132445 11.834288739103357 3.5340360014484915 1 4 -1
277 1 2 -1.1794 0.7137330057219752 15.665220109285071 4.195766703839816 0 1 3
242 1 1 0.5897 3.634230452933989 13.590232641969923 1.0322427007909958 0 0 3
237 1 1 0.5897 2.8657015790129416 13.616891639784658 3.088671713078114 0 -3 -5
390 1 1 0.5897 2.599358180196192 15.85620530995592 1.5516230368495398 2 6 4
388 1 2 -1.1794 1.8428523288364456 15.270136043150806 1.5326206371624937 2 6 4
236 1 1 0.5897 4.047863445346868 12.672463836168905 3.041475523752974 0 -3 -5
235 1 2 -1.1794 3.1595578146357255 12.790616037793772 2.705181365348304 0 -3 -5
567 1 1 0.5897 3.702386374641386 15.294973350288295 5.766982466084091 -1 7 -4
278 1 1 0.5897 0.4461349578469389 16.55660902753487 4.419314179259253 0 1 3
33 1 1 0.5897 0.8856437925875199 13.81097673244893 0.8811646265513275 5 8 0
31 1 2 -1.1794 0.42401056766062284 13.06141744066013 0.5053267485189304 5 8 0
770 1 1 0.5897 1.41298917813573 12.801446941179975 9.01198005722645 6 0 0
435 1 1 0.5897 3.611118939083948 12.40723116767258 10.438936555341266 -3 3 -3
771 1 1 0.5897 1.8253529393041001 14.058136405048023 8.275526597256288 6 0 0
769 1 2 -1.1794 1.640939273458625 13.12848557983016 8.141791617453169 6 0 0
194 1 1 0.5897 3.9931248563732717 12.980296382922491 5.985656189151355 0 -4 3
265 1 2 -1.1794 4.314908855942548 15.824629349400595 10.216184544385431 -2 -1 -1
291 1 1 0.5897 1.2976098554460387 15.943632697740911 8.966033826103507 -7 -5 -9
195 1 1 0.5897 3.6286633255082195 12.580448244298283 7.399506769867509 0 -4 3
193 1 2 -1.1794 4.05126549390193 12.253251173335599 6.605470538670884 0 -4 3
289 1 2 -1.1794 2.019247159521076 15.970659502184493 8.33781585511499 -7 -5 -9
290 1 1 0.5897 2.773932600797969 16.258327037651433 8.851472901213471 -7 -5 -9
267 1 1 0.5897 4.254966213324645 14.900030674500517 10.45639179782531 -2 -1 -1
433 1 2 -1.1794 3.819159276508714 13.27062250972439 10.795888619931358 -3 3 -3
472 1 2 -1.1794 0.44862265006693747 12.833527962607036 10.865770011177345 2 2 0
288 1 1 0.5897 0.7374745171375281 15.02787281970806 10.729732532648258 3 1 2
690 1 1 0.5897 0.4744466411311379 13.50026620434478 6.805318174286492 4 -2 3
287 1 1 0.5897 0.748412889791263 16.515296248260334 11.01103730823128 3 1 2
658 1 2 -1.1794 0.7462614378479555 13.914631473131793 16.338434840005725 1 -1 0
109 1 2 -1.1794 2.367384302606363 14.016436965539826 13.298249261888866 -1 -1 -6
329 1 1 0.5897 4.205439828836009 16.3241835366445 13.215857778203318 1 5 0
110 1 1 0.5897 2.4644858490186423 13.10349480867862 13.568980660365307 -1 -1 -6
84 1 1 0.5897 2.8780428923064534 15.385766629807883 14.652019055828607 -1 -3 -6
111 1 1 0.5897 1.4279562662341643 14.187619485005031 13.364028760439206 -1 -1 -6
82 1 2 -1.1794 3.2515599097184156 16.11507978337928 15.146719438714898 -1 -3 -6
83 1 1 0.5897 2.4962995363574865 16.544094891998995 15.548797645367069 -1 -3 -6
434 1 1 0.5897 3.1158366050446475 13.447928505818805 11.420419313171434 -3 3 -3
330 1 1 0.5897 4.67160533116488 16.446414970341642 11.780787485896647 1 5 0
594 1 1 0.5897 0.9313731613444104 15.88514027793113 16.672791263108955 -2 -2 0
670 1 2 -1.1794 2.981356330202635 15.045429238680656 19.416489456600303 4 3 1
671 1 1 0.5897 3.269812022736217 14.585130479028061 20.204562100781533 4 3 1
735 1 1 0.5897 2.453629388879597 13.591310032749913 16.740891745223063 2 -1 -3
672 1 1 0.5897 3.055808710787802 14.39524887146467 18.71801802069234 4 3 1
592 1 2 -1.1794 1.0526907386245403 16.82766479655448 16.787200074748643 -2 -2 0
455 1 1 0.5897 2.4896022881666138 16.918067428204907 19.559152491539294 0 -2 0
733 1 2 -1.1794 3.2956114770297624 13.41433559493022 17.160330906600915 2 -1 -3
734 1 1 0.5897 3.3709753950072656 12.46016799097873 17.15413161837657 2 -1 -3
102 1 1 0.5897 4.1795907271457295 16.374336091875257 16.864185431039566 6 -3 -1
241 1 2 -1.1794 3.9597323058814684 13.53183147584482 21.38720034092152 0 0 2
101 1 1 0.5897 4.093501818345274 16.02785725825151 18.335312276802604 6 -3 -1
441 1 1 0.5897 0.900451440008483 16.369501785228312 21.718456960341232 0 -2 -2
243 1 1 0.5897 4.742847955804528 14.082142528749467 21.37945531728148 0 0 2
100 1 2 -1.1794 4.688079214388477 16.3838820369784 17.675079563400953 6 -3 -1
32 1 1 0.5897 1.0667322658925769 12.648177744671054 21.182049280971505 5 8 -1
297 1 1 0.5897 2.1486988701366396 21.97501889499583 4.254084699842796 -1 3 3
386 1 1 0.5897 1.4864264609754199 18.711897044090286 2.8377581368698683 -2 -1 0
707 1 1 0.5897 2.5347018458715582 20.254774239975035 1.5644747462531357 0 -3 -4
181 1 2 -1.1794 3.8821195052647 16.968608295791 1.667417041814411 -4 2 0
244 1 2 -1.1794 0.6739780757366749 20.891057353311442 4.709243889772549 -1 4 -1
385 1 2 -1.1794 2.4291612649906096 18.84401295116446 2.9375111443951205 -2 -1 0
182 1 1 0.5897 3.6000584971634364 17.738391205237154 2.1614065513324165 -3 2 0
262 1 2 -1.1794 3.5718666156149643 18.456216491313903 5.557684081927121 1 -3 6
387 1 1 0.5897 2.5615960249855254 18.924305130251618 3.8820649798087326 -2 -1 0
93 1 1 0.5897 0.7917605692668199 21.813418946729122 1.8214455799893063 3 -6 0
183 1 1 0.5897 4.388096043640781 17.324370981841717 0.9369580344980857 -4 2 0
706 1 2 -1.1794 2.274922085102868 20.93944800216633 0.9480968585187906 0 -3 -4
153 1 1 0.5897 4.057041570935036 21.559410101372887 5.387500109143505 2 -1 1
264 1 1 0.5897 4.151528086089758 17.713140619351556 5.7249986130768855 1 -3 6
729 1 1 0.5897 4.092023279167317 19.57557742875204 9.851270761894368 -2 3 1
87 1 1 0.5897 1.87563342552469 20.68926296979021 7.881343904050351 -3 3 2
151 1 2 -1.1794 4.460418017867949 21.024185312675687 6.0708495136588985 2 -1 1
339 1 1 0.5897 1.0897476798706145 18.875465393786996 9.037450882339398 -1 -1 2
337 1 2 -1.1794 0.6495541231834034 19.28559241455966 9.781882782155467 -1 -1 2
85 1 2 -1.1794 1.6538843524161013 21.49676688678792 7.417765364340704 -3 3 2
727 1 2 -1.1794 4.0685284532960795 19.752577127154545 8.910909404560895 -2 3 1
152 1 1 0.5897 4.1052835485120776 21.371834491563344 6.888886933980951 2 -1 0
820 1 2 -1.1794 1.5196644165909559 18.428965914929137 7.343859753666457 1 0 5
86 1 1 0.5897 1.5657348700852032 21.23147686880489 6.502342973531087 -3 3 2
821 1 1 0.5897 1.5104693440657155 17.51919454664008 7.641139023256041 1 0 5
822 1 1 0.5897 2.298728326449787 18.493061396838574 6.791493060093585 1 0 5
800 1 1 0.5897 1.0789116356432777 21.1361961407028 10.1050283347428 -2 -3 4
728 1 1 0.5897 4.704683371469988 19.14349509329527 8.536084459793093 -2 3 1
799 1 2 -1.1794 1.527812671673272 21.957613947434204 10.304808185294648 -2 -3 4
62 1 1 0.5897 0.418084090601063 18.206734107732782 5.9734232012475585 0 3 3
204 1 1 0.5897 1.4393388461800405 18.371377897238478 11.073943651747637 -3 3 1
263 1 1 0.5897 4.026887459470171 19.206405960369256 5.940190064570126 1 -3 6
490 1 2 -1.1794 2.799972905081161 20.718868650689096 16.09124928869307 0 2 3
699 1 1 0.5897 3.9792359051347836 21.638062272973446 13.165081923429417 -5 0 -3
596 1 1 0.5897 3.515039884520862 18.802707053766568 11.913820421327154 3 -6 0
597 1 1 0.5897 4.044685070926656 20.216995734442623 11.809286097787657 2 -6 0
203 1 1 0.5897 1.329181783559013 18.414501665305405 12.583152332485989 -3 3 1
484 1 2 -1.1794 1.204854047442042 19.283737040919345 14.437496374245223 -2 1 -3
202 1 2 -1.1794 1.6696902115130197 17.882544010439506 11.863973655095284 -3 3 1
534 1 1 0.5897 4.241489339596628 20.850892113092176 15.053642198162688 -8 -2 -2
486 1 1 0.5897 1.6827715361357842 19.669340688252515 15.171702414884255 -2 1 -3
697 1 2 -1.1794 3.49137701472984 21.86319552199452 12.372956393605286 -5 0 -3
485 1 1 0.5897 0.5010679659924411 18.78052243965318 14.847003727439105 -2 1 -3
595 1 2 -1.1794 4.237261321085917 19.31562216594199 11.551255586052502 2 -6 0
491 1 1 0.5897 2.6633331531000466 21.626165542008774 16.363795998783456 0 2 3
801 1 1 0.5897 2.0091907211192463 21.77778085855288 11.112335366883185 -2 -3 4
54 1 1 0.5897 3.633026504000098 20.385992797239822 19.422691484874093 -5 -2 1
53 1 1 0.5897 2.5790507921967394 19.305428442283798 19.307791739172142 -5 -2 1
52 1 2 -1.1794 2.721268772006781 20.191813781291 19.639813933354652 -5 -2 1
708 1 1 0.5897 2.567483869350842 20.618180146321432 21.348445909645683 0 -3 -5
492 1 1 0.5897 3.301593378084626 20.326592932028724 16.805840951657615 0 2 3
336 1 1 0.5897 1.172053054059294 19.96684067249158 17.366985979100004 8 0 3
456 1 1 0.5897 1.941487192314695 17.4215032840248 18.240898006985798 0 -2 0
454 1 2 -1.1794 2.1762866660647067 17.710251747844925 19.122751232782772 0 -2 0
72 1 1 0.5897 1.0128611125583675 21.554221537689344 19.755839055774494 3 4 -9
440 1 1 0.5897 0.8342490888996053 17.30856760729285 20.532925153548764 0 -2 -2
94 1 2 -1.1794 4.565097167744158 19.35506344170314 17.722270304114904 -4 -1 1
95 1 1 0.5897 4.531630581440927 18.401412347849817 17.647583078314405 -3 -1 1
646 1 2 -1.1794 5.758828785470595 4.792073723391375 4.3285148676973435 -9 -1 1
760 1 2 -1.1794 8.923594519656604 4.197719771760768 3.9617379584579187 1 -4 1
761 1 1 0.5897 8.537733365829785 4.206871234447714 3.085848263808029 1 -4 1
301 1 2 -1.1794 6.765460235616277 2.9065137716007063 2.5411920357299236 -1 2 7
302 1 1 0.5897 5.8469505051715 2.748948374233173 2.3228575804076312 -1 2 7
590 1 1 0.5897 7.172046265898225 3.254071555264254 0.7168839027596182 3 5 3
648 1 1 0.5897 6.1409493741502095 4.0287342565480495 3.8955700686763706 -9 -1 1
303 1 1 0.5897 7.11014682676137 2.0424842328771113 2.766671164206382 -1 2 7
149 1 1 0.5897 6.546999415683501 6.379675908389004 4.195655181586071 -4 2 1
468 1 1 0.5897 6.569187544873482 6.370824938737509 1.684521413986996 2 -4 7
410 1 1 0.5897 8.751518046464819 2.278173325535289 4.5980302245219375 4 1 -9
647 1 1 0.5897 4.891034347883787 4.88187692316518 3.9347986681977214 -9 -1 1
531 1 1 0.5897 8.45652224628175 4.067481735054734 5.685146985622938 -4 0 -6
860 1 1 0.5897 8.84269681225582 5.410469662989751 7.609527188907988 -2 -2 3
841 1 2 -1.1794 4.79837166950317 6.044228501494582 8.504469697842545 -2 0 3
842 1 1 0.5897 5.357183423027198 6.2745432032852175 9.24664735672643 -2 0 3
861 1 1 0.5897 8.822858803586318 5.776878597797647 9.078221406679496 -2 -2 3
229 1 2 -1.1794 5.619413372869124 3.9298562899749645 6.921041484102304 4 7 0
231 1 1 0.5897 5.591223683243206 4.180243533130378 5.99763968493294 4 7 0
230 1 1 0.5897 5.411441637591793 4.7352704281327584 7.394536349888309 4 7 0
529 1 2 -1.1794 8.427494964726225 3.9607282464417404 6.635887861076108 -4 0 -6
530 1 1 0.5897 7.514296170898806 3.7456023893204082 6.825447936610655 -4 0 -6
859 1 2 -1.1794 9.015125642339775 6.134453746194725 8.211434134874366 -2 -2 3
155 1 1 0.5897 6.47094678973356 2.795157749837379 9.95484411557091 3 4 -3
154 1 2 -1.1794 7.3730643112950425 2.6804487207223793 9.656228761745526 3 4 -3
156 1 1 0.5897 7.305595393263877 2.080070576328954 8.913844902595619 3 4 -3
757 1 2 -1.1794 8.824600757084118 4.700111965873436 10.964802431061237 -2 3 4
758 1 1 0.5897 8.3227986507435 3.9165114044739586 10.74051130597267 -2 3 4
104 1 1 0.5897 8.5520149234253 2.1361972194821846 15.507443590420804 -2 0 6
64 1 2 -1.1794 6.655206486207826 5.008090167654666 15.138728616183828 5 1 -4
420 1 1 0.5897 8.663357712988928 4.929493636350357 12.662481955143654 -8 -2 4
418 1 2 -1.1794 8.927657391995472 4.927485229391138 13.582419591055785 -8 -2 4
784 1 2 -1.1794 7.041299985832636 2.338787772742254 13.016884992170525 4 4 1
65 1 1 0.5897 5.950774749849222 4.54882784185927 14.681568787765862 5 1 -4
66 1 1 0.5897 7.433669230761292 4.844057648079336 14.606451581580243 5 1 -4
419 1 1 0.5897 8.99435691244542 4.000400197484203 13.810913569151946 -8 -2 4
786 1 1 0.5897 6.212116904660691 2.503046622644148 13.465907446534304 4 4 1
275 1 1 0.5897 8.183045131045336 6.413373387231709 15.003256957048912 -3 2 -3
134 1 1 0.5897 6.205225305827139 2.7932927434703387 17.305406221425088 -1 -5 0
790 1 2 -1.1794 8.66950601716449 2.223912559163184 19.27463483326697 2 5 1
146 1 1 0.5897 6.0361619238994635 6.168068775752782 16.799987456858382 -1 2 -5
147 1 1 0.5897 6.498881860559242 6.170084298126579 18.241397463173495 -1 2 -5
135 1 1 0.5897 5.932241021485153 4.271446428644276 17.484919120308174 -1 -5 0
792 1 1 0.5897 9.080510419646478 2.9968563050714923 18.887629751905372 2 5 1
791 1 1 0.5897 7.873417227150971 2.5572681306816714 19.688483596627638 2 5 1
145 1 2 -1.1794 5.749937104711082 6.387785232507754 17.686551065090484 -1 2 -5
133 1 2 -1.1794 5.605646720430709 3.4060553204590893 17.731052693267724 -1 -5 0
833 1 1 0.5897 7.387315801732124 5.003315781863774 20.08171060610197 3 -1 -2
834 1 1 0.5897 8.599311563029879 5.740013478258448 19.55251037448612 3 -1 -2
832 1 2 -1.1794 7.651713500080104 5.663635465133713 19.441225734414022 3 -1 -2
589 1 2 -1.1794 6.977674415125797 3.649605653824483 21.12041433243871 3 5 2
402 1 1 0.5897 5.049873837177726 5.568563501070834 21.205482843477583 -3 -2 3
591 1 1 0.5897 6.023470867062796 3.7224514049188153 21.10227350469227 3 5 2
494 1 1 0.5897 5.096786724962416 2.1344940602532883 18.97907084090561 -4 -2 -1
353 1 1 0.5897 6.56532141509493 11.529590962382047 3.0950529284647623 4 5 -4
299 1 1 0.5897 8.813228065770534 7.612982138036823 1.7555047844052387 -4 -3 1
466 1 2 -1.1794 5.7653835658955455 6.707173860553109 1.2883863789315262 2 -4 7
148 1 2 -1.1794 6.954751998583853 7.245231130068627 4.222486723925982 -4 2 1
150 1 1 0.5897 7.571215791600781 7.1975307174460665 4.953136144602411 -4 2 1
664 1 2 -1.1794 7.499232723553358 10.409930127293219 4.138364851134213 0 4 2
467 1 1 0.5897 6.064625373385047 7.360198718794757 0.655803081387893 2 -4 7
666 1 1 0.5897 8.425957142439133 10.340748714596346 4.367575933065029 0 4 2
665 1 1 0.5897 7.15476101403692 9.52548716468609 4.2620130457127505 0 4 2
300 1 1 0.5897 8.057144573002937 6.886933836671135 2.8477079245955568 -4 -3 1
298 1 2 -1.1794 8.544922479061471 6.73858434716037 2.037633825657939 -4 -3 1
208 1 2 -1.1794 8.17309007074397 8.122058024129895 6.549390932746213 1 -1 0
209 1 1 0.5897 8.375350048247784 7.414682133981106 7.161647833272839 1 -1 0
738 1 1 0.5897 4.862046924201783 9.742754843637593 10.73181683171304 1 1 3
360 1 1 0.5897 7.9569687269212785 10.174044996519092 10.434333458547144 4 2 -4
211 1 2 -1.1794 5.392290889736057 8.566407701833942 7.373093242545849 4 1 3
213 1 1 0.5897 5.248928208989399 7.689316451931091 7.728476116688077 4 1 3
210 1 1 0.5897 9.000930787425098 8.590366974402565 6.4418565771876155 1 -1 0
212 1 1 0.5897 6.338167457322969 8.618153541641897 7.236048020976916 4 1 3
124 1 2 -1.1794 6.5952615345350285 11.417240113216307 6.6364676806034435 3 0 4
538 1 2 -1.1794 8.419662556788383 10.68412539523017 8.692563453058913 2 -3 2
540 1 1 0.5897 8.212828324156227 11.067895971888644 7.840455551052795 2 -3 2
125 1 1 0.5897 5.639520861775893 11.467921246818966 6.623052736425244 3 0 4
113 1 1 0.5897 4.937109978894843 9.348328031447327 5.8785941863988755 -2 -3 1
126 1 1 0.5897 6.821677592249305 10.9426180152612 5.836695261743071 3 0 4
358 1 2 -1.1794 7.893856813637337 10.23922090455464 11.38718129663905 4 2 -4
685 1 2 -1.1794 6.445054796827895 9.038394337444092 15.557573167677466 8 -7 -5
463 1 2 -1.1794 5.861607688043028 11.534543506772454 14.612193955452181 3 3 -2
449 1 1 0.5897 8.429442052788932 7.595562384869129 13.156590856748414 3 1 -2
464 1 1 0.5897 6.167231144405991 10.631407821661455 14.696401292345895 3 3 -2
448 1 2 -1.1794 8.454592995749264 7.801123682964207 12.222101342877663 3 1 -2
359 1 1 0.5897 8.161678113853895 9.376992405595217 11.704953964884995 4 2 -4
737 1 1 0.5897 6.0998203146309855 9.772994630749748 11.60284298052365 1 1 3
736 1 2 -1.1794 5.240980056674236 9.358210784118363 11.52218411817535 1 1 3
274 1 2 -1.1794 8.467151132200271 7.325703921009603 14.947764811054768 -3 2 -3
687 1 1 0.5897 7.169705748079963 8.472846323548174 15.290764684236235 8 -7 -5
465 1 1 0.5897 6.059818847120837 11.771460077158093 13.7062373838073 3 3 -2
372 1 1 0.5897 6.838241907834122 6.6965363615841245 11.39498159562665 5 7 0
371 1 1 0.5897 5.656596447741577 7.6382060727194565 11.30179040144265 5 7 0
370 1 2 -1.1794 5.912682677821347 6.7279956973323705 11.153115833975269 5 7 0
561 1 1 0.5897 8.887305158428468 11.796407592518808 12.816876605975976 5 -1 1
686 1 1 0.5897 6.737811090594524 9.431873585697188 16.37952656006096 8 -7 -5
809 1 1 0.5897 6.693287395263227 10.643419123166922 18.428780582994087 3 -3 -3
810 1 1 0.5897 7.99260216310964 10.789077440390546 17.665715383038417 3 -3 -3
166 1 2 -1.1794 8.857957180210313 8.66971594378915 19.53428254176139 -2 2 3
782 1 1 0.5897 5.020829471222769 8.13245035563282 18.23721974938887 -2 -4 2
168 1 1 0.5897 8.142980690116975 8.527952779392926 20.154653338841847 -2 2 3
808 1 2 -1.1794 7.231506591598665 10.216725142785908 17.762131602685077 3 -3 -3
578 1 1 0.5897 6.528864263682755 9.630426339296207 21.034762433744245 3 0 -3
577 1 2 -1.1794 6.434026155523979 8.693855657380567 20.861591424941796 3 0 -3
167 1 1 0.5897 8.459685435885756 9.164230296634438 18.818038176981 -2 2 3
579 1 1 0.5897 5.74148810558845 8.640500051273582 20.203041980019428 3 0 -3
189 1 1 0.5897 7.698629418996864 11.56020454808702 21.53998856721636 -1 4 3
187 1 2 -1.1794 6.788063767604763 11.343882430886085 21.339347633209837 -1 4 3
368 1 1 0.5897 7.2912365123549545 14.406557400389266 4.3924867748851 0 8 -2
369 1 1 0.5897 6.345441091041429 13.836478443484376 3.3570377818006647 0 8 -3
219 1 1 0.5897 6.62855562122257 16.196223594302772 2.7984430000793927 4 1 -1
9 1 1 0.5897 6.901337493001087 15.38429035059906 0.820643764964068 4 0 1
367 1 2 -1.1794 6.7097438599192145 14.661968427988226 3.6764035266032757 0 8 -2
217 1 2 -1.1794 6.66568241139114 16.938936604056515 2.1958325132926237 4 1 -1
352 1 2 -1.1794 5.953178494938515 12.18261311194639 2.7559596338249843 4 5 -4
120 1 1 0.5897 8.506163593787253 14.281098496775192 2.6938415416655626 1 -4 -1
354 1 1 0.5897 5.930525149007628 12.023179905230284 1.8124504711762126 4 5 -4
717 1 1 0.5897 7.5951125204335455 16.088838913084786 8.569453998400673 6 -7 -3
765 1 1 0.5897 7.02513338895256 14.52510384348701 7.173165290651396 -4 0 -4
764 1 1 0.5897 7.137219498376928 13.1802125396823 6.487323149921862 -4 0 -4
266 1 1 0.5897 5.172691887190786 15.909345926909428 9.800031454167693 -2 -1 -1
716 1 1 0.5897 7.329488001516854 14.725238938795266 9.170897558499645 6 -7 -3
715 1 2 -1.1794 6.927128975118746 15.406137811052734 8.631799507903153 6 -7 -3
848 1 1 0.5897 5.991349409990545 15.542203892788413 5.906553475066017 0 -3 5
545 1 1 0.5897 8.049512849000841 12.289903407653394 9.646368969580807 -4 4 5
849 1 1 0.5897 5.476816036569561 16.312006192912857 7.104188868443977 0 -3 5
50 1 1 0.5897 8.996590143856597 13.702007340712221 6.488852518835627 6 2 0
763 1 2 -1.1794 7.366121828641469 14.103863478940953 6.384220272910508 -4 0 -4
544 1 2 -1.1794 7.865359532372804 13.118585236949496 10.088560181582421 -4 4 5
847 1 2 -1.1794 5.340829861237862 16.195440101431494 6.16394228790824 0 -3 5
546 1 1 0.5897 7.363400035391951 12.870063277155555 10.864715483155022 -4 4 5
654 1 1 0.5897 5.291060036429168 12.844262691986296 11.784400571691181 1 0 -1
328 1 2 -1.1794 4.9787009184386 16.514424634325664 12.684789507942547 1 5 0
48 1 1 0.5897 6.169395324511319 12.75511997666584 16.03207885853782 2 -4 -1
129 1 1 0.5897 7.422177897899155 15.07812718430471 13.7987115696307 -3 1 -3
128 1 1 0.5897 6.3542524469003 15.53134323269838 12.826183638614586 -3 1 -3
653 1 1 0.5897 6.454154128846739 13.574217957004764 12.421613830035538 1 0 -1
121 1 2 -1.1794 8.014817506700624 15.162003294971102 15.500922541298232 0 -1 -3
127 1 2 -1.1794 7.164384943424747 15.02428399297739 12.878502034549044 -3 1 -3
652 1 2 -1.1794 6.192058216005903 12.718594581703906 12.081972693334283 1 0 -1
122 1 1 0.5897 7.403706967766964 14.517569667892113 15.85787561340067 0 -1 -3
123 1 1 0.5897 8.837132906505413 14.68268207537027 15.399876414269373 0 -1 -3
405 1 1 0.5897 8.228865008613814 16.32275310758373 12.208821047180066 4 -7 -1
403 1 2 -1.1794 8.905032738790112 16.932155769407707 11.912900751596785 4 -7 -1
141 1 1 0.5897 5.886661448903541 12.92413976118658 18.066033388144145 -1 -1 -2
248 1 1 0.5897 8.812366191119896 13.703329939750239 19.980449422063135 -7 2 -3
47 1 1 0.5897 5.18298555571271 13.725763869496879 16.645711163223577 2 -4 -1
7 1 2 -1.1794 6.573953208244114 14.606896134083277 21.621482496083466 4 0 0
249 1 1 0.5897 7.615872064524264 13.568911528243408 19.062812810098638 -7 2 -3
247 1 2 -1.1794 8.232408095850598 14.211616659402557 19.413488127165827 -7 2 -3
140 1 1 0.5897 4.906441482055173 12.572659042526668 19.16480446857246 -1 -1 -2
569 1 1 0.5897 8.26082203214111 16.323066820494148 20.51118994273796 2 -2 0
46 1 2 -1.1794 6.119483737733794 13.58454851187488 16.5071906710906 2 -4 -1