LAMMPS data file via write_data, version 30 Jul 2021, timestep = 36500000

972 atoms
2 atom types
648 bonds
1 bond types
324 angles
1 angle types

1.2996746884041954e-05 19.99998800322267 xlo xhi
0.05829238223503985 19.941708617745995 ylo yhi
-0.053312280214457886 20.75331028020595 zlo zhi

Masses

1 1.008
2 15.999

Pair Coeffs # lj/cut/tip4p/long/omp

1 0 0
2 0.21084 3.1668

Bond Coeffs # harmonic/omp

1 450 0.9572

Angle Coeffs # harmonic/omp

1 55 104.52

Atoms # full

10 4 2 -1.1794 1.1812890234620321 4.081035896927441 3.7684299445302045 0 0 0
11 4 1 0.5897 1.0130723630101146 3.383151117012983 3.1352454342270386 0 0 0
12 4 1 0.5897 2.133672655378055 4.093825662249481 3.8641530078184543 0 0 0
33 11 1 0.5897 1.5878960350150004 2.186900139432734 1.2003797609444207 0 0 0
31 11 2 -1.1794 0.9278418854649098 2.0180603551874747 1.872773730872952 0 0 0
18 6 1 0.5897 4.099686671559605 3.073529435330429 3.420893603299828 0 0 0
4 2 2 -1.1794 4.02188807864777 1.2506670916051874 3.413477245119485 0 0 0
16 6 2 -1.1794 4.008775018803857 4.005623958597168 3.618957767615128 0 0 0
23 8 1 0.5897 2.682590182865507 0.8715700292679005 4.438984248142052 0 0 0
5 2 1 0.5897 4.186850744238743 0.6326608096940274 2.701357527930741 0 0 0
17 6 1 0.5897 4.299660182070284 4.449726052004108 2.822453461474744 0 0 0
53 18 1 0.5897 9.947158860057717 4.080527280147702 3.614857478661625 0 0 0
32 11 1 0.5897 0.09121877285290787 2.1217241270775555 1.4192894360089912 0 0 0
58 20 2 -1.1794 8.674522724694054 0.8043672774498218 4.956267553598128 0 0 0
6 2 1 0.5897 4.732672073694159 1.0952847257515108 4.035509901316225 0 0 0
273 91 1 0.5897 7.307523656566233 0.3292480452526511 1.9305096776180373 0 1 0
236 79 1 0.5897 0.8828677314337691 0.2544076218172584 1.9586876507230415 0 1 0
68 23 1 0.5897 8.15475004400772 2.2617379206587844 1.4377903263929035 0 0 0
69 23 1 0.5897 6.64184947711893 2.210782204775069 1.4103263960246168 0 0 0
47 16 1 0.5897 7.845375043583677 3.265230120739898 3.2249999472521518 0 0 0
34 12 2 -1.1794 5.276222607366355 2.4419355832578895 0.23347477626594598 0 0 0
46 16 2 -1.1794 8.085848164406137 4.025443873962704 3.7546510202754493 0 0 0
67 23 2 -1.1794 7.392879748034357 2.0912206315686643 1.9916805565108486 0 0 0
48 16 1 0.5897 7.353157456445932 4.1373101164437145 4.360419875302871 0 0 0
9 3 1 0.5897 5.247556392558191 4.315566689249689 4.864744099160754 0 0 0
29 10 1 0.5897 6.811641631269212 0.7814142009498904 5.139741664905869 0 0 0
102 34 1 0.5897 0.08399294840887044 0.8039333187492881 4.844830296860588 1 0 0
22 8 2 -1.1794 1.9670089254081276 0.7542125269181109 5.063858785708416 0 0 0
37 13 2 -1.1794 9.314091844749688 2.668723083358119 0.0366922750233698 0 0 0
325 109 2 -1.1794 2.5425711396819 2.6311318898850935 6.994679810083911 0 0 0
326 109 1 0.5897 2.308710205288572 1.9488472509124526 6.3653400286142805 0 0 0
327 109 1 0.5897 3.493384375527704 2.5619404916063107 7.081422886514023 0 0 0
355 119 2 -1.1794 0.8593642560088798 2.2136196956015524 9.045066059891843 0 0 0
356 119 1 0.5897 1.5092789048019017 2.3417010341601507 8.35405646794078 0 0 0
27 9 1 0.5897 2.3950976510400652 4.495547996405111 6.468740888678344 0 0 0
329 110 1 0.5897 4.249319740023424 0.7208257374314334 9.573729719164 0 0 0
342 114 1 0.5897 4.1298647859100095 4.806085907469717 9.759526656785962 0 0 0
358 120 2 -1.1794 5.373289675419879 2.5412425354166306 7.168425217682366 0 0 0
393 131 1 0.5897 7.282064995968845 1.147804684161794 8.850318431927047 0 0 0
335 112 1 0.5897 1.042643331314174 3.572028059880626 10.25012256640665 0 0 0
392 131 1 0.5897 8.171009497334248 2.2450295525505264 8.304481045423522 0 0 0
328 110 2 -1.1794 4.188445654772197 1.4989380867282107 10.127905424662648 0 0 0
7 3 2 -1.1794 5.975624951918056 4.51597551429477 5.453016246238723 0 0 0
362 121 1 0.5897 9.2531419956594 3.662700358049469 6.740172094007848 0 0 0
59 20 1 0.5897 8.900930552738735 1.5015420983323253 5.5718630482756355 0 0 0
391 131 2 -1.1794 7.462316237200225 2.0847051861203068 8.927662947495357 0 0 0
361 121 2 -1.1794 9.28671259732382 2.7151929492792073 6.872079523207231 0 0 0
360 120 1 0.5897 5.512751067931078 1.7827715928742083 6.6013720668168805 0 0 0
359 120 1 0.5897 6.070217173268616 2.4835433683963974 7.822080410531372 0 0 0
8 3 1 0.5897 5.916680371667387 3.8540332177718244 6.141943802203699 0 0 0
28 10 2 -1.1794 5.881934720337464 0.6561122416951044 5.33023534675065 0 0 0
561 187 1 0.5897 0.8366038284199823 0.36616184826320575 8.96581224797591 0 1 0
371 124 1 0.5897 7.769436074883239 3.557266187365546 9.91802485212149 0 0 0
357 119 1 0.5897 0.02357001827868288 2.430089511932069 8.631647651732914 0 0 0
341 114 1 0.5897 3.9333382414154445 3.391776794516714 10.262666888944501 0 0 0
377 126 1 0.5897 9.85207162050862 4.113711740936823 10.317333650105933 0 0 0
370 124 2 -1.1794 8.042114917565359 4.368107577191331 10.347528432605548 0 0 0
649 217 2 -1.1794 2.599816503929397 2.721954157059877 13.943276730970652 0 0 0
650 217 1 0.5897 2.4217273539943025 2.1079173237065976 13.230888728036696 0 0 0
651 217 1 0.5897 1.9996960184338803 2.4600097077110625 14.641510097005769 0 0 0
348 116 1 0.5897 2.715427064324122 1.179804024467403 11.246440137632494 0 0 0
346 116 2 -1.1794 2.135583101553055 0.9192320744649503 11.962096152651531 0 0 0
350 117 1 0.5897 2.5507037659272784 4.49162200361993 13.57359143733878 0 0 0
347 116 1 0.5897 1.2528759463996353 1.0411486674673975 11.612373708045688 0 0 0
683 228 1 0.5897 4.45254365810749 2.960850297172198 14.237201480785613 0 0 0
336 112 1 0.5897 2.1475251163179316 4.466165736302715 10.771547245512284 0 0 0
332 111 1 0.5897 5.24036103161222 4.574184878824566 11.663629480674507 0 0 0
717 239 1 0.5897 6.777183207876051 2.4091431521725304 15.285348970970412 0 0 0
330 110 1 0.5897 4.7518812079673545 1.3047350942427254 10.876971748063195 0 0 0
386 129 1 0.5897 9.214723408004874 4.679391844742551 13.665442700910441 0 0 0
331 111 2 -1.1794 6.020718115688095 4.729574679683617 12.195812959012361 0 0 0
372 124 1 0.5897 7.386586599012294 4.510081429157387 11.030479857953951 0 0 0
682 228 2 -1.1794 5.402990813668514 2.924756919224005 14.1290349666298 0 0 0
382 128 2 -1.1794 8.429566724196365 0.7441049628047058 11.87844781961507 0 0 0
684 228 1 0.5897 5.613454126637215 3.692928025203364 13.598094106849441 0 0 0
354 118 1 0.5897 5.65834197958818 1.585289308086585 12.991734318886113 0 0 0
384 128 1 0.5897 9.041353164703414 0.8271389199329523 11.146948016185066 0 0 0
353 118 1 0.5897 6.693235990086026 0.9470734517547219 12.089650354015568 0 0 0
686 229 1 0.5897 8.782865100102088 2.4544084206807337 14.428838666818722 0 0 0
383 128 1 0.5897 8.673073141053472 1.4508751108373952 12.47632539000447 0 0 0
352 118 2 -1.1794 5.773321060888685 0.8867416185992973 12.347467405562316 0 0 0
685 229 2 -1.1794 9.239425863251912 2.6411304491430916 13.608505524847423 0 0 0
340 114 2 -1.1794 3.8826043842679225 4.30712232056327 10.538087688318202 0 0 0
334 112 2 -1.1794 1.1946582979009075 4.396771080790928 10.711615555678598 0 0 0
653 218 1 0.5897 3.321360979332676 1.051357689914342 17.418143708370565 0 0 0
652 218 2 -1.1794 4.186186995914552 1.2255012639376484 17.046542713807433 0 0 0
664 222 2 -1.1794 4.012813639899177 3.948027779154789 17.16793902561585 0 0 0
671 224 1 0.5897 2.1369643387519672 1.6011880274394867 19.26599962002605 0 0 0
666 222 1 0.5897 4.194297704046527 3.013977109342555 17.063522005604128 0 0 0
670 224 2 -1.1794 1.974036546432507 0.9149361073944349 18.618868286917518 0 0 0
665 222 1 0.5897 3.0776102037084256 3.9899247318042965 17.36793037922157 0 0 0
681 227 1 0.5897 0.8186077115285201 2.6866600467225354 16.558279878388667 0 0 0
672 224 1 0.5897 1.0229508344082219 0.9081964483610054 18.510459772953915 0 0 0
658 220 2 -1.1794 1.2473072424519172 4.132660346023124 17.528129640075 0 0 0
659 220 1 0.5897 0.6768388841027807 4.335391108159607 18.269580458289276 0 0 0
654 218 1 0.5897 4.306078021180839 0.5421147005966549 16.38709742938262 0 0 0
696 232 1 0.5897 7.684573291107453 4.984934229638943 17.266137516753815 0 0 0
660 220 1 0.5897 1.034369636553439 4.797124415572017 16.87283204924914 0 0 0
884 295 1 0.5897 0.854213289169482 0.19756368141267555 15.696272259839569 0 1 0
35 12 1 0.5897 5.542551959808043 1.7508597581532541 20.43367180269295 0 0 -1
656 219 1 0.5897 5.093765497233056 4.335356305648302 18.572933644948954 0 0 0
677 226 1 0.5897 5.272130761702126 0.7121556715766383 18.392710114598906 0 0 0
679 227 2 -1.1794 0.6743507806731213 2.019682226507723 15.887014655567462 0 0 0
695 232 1 0.5897 7.846995644935146 3.4797859683231716 17.28038368946107 0 0 0
708 236 1 0.5897 7.695077467798985 0.7288416156671296 18.745675331558722 0 0 0
715 239 2 -1.1794 7.5554256976533996 2.3113004497743983 15.834053368171471 0 0 0
655 219 2 -1.1794 5.7187120967184155 4.525005524618029 19.2727672643597 0 0 0
657 219 1 0.5897 6.576499797403801 4.370330977941384 18.877032867250065 0 0 0
706 236 2 -1.1794 8.644256900858318 0.8454428241144799 18.702988304770876 0 0 0
716 239 1 0.5897 7.627548997551412 1.368370907967412 15.982303914689686 0 0 0
676 226 2 -1.1794 5.880560595728738 0.537574725394664 19.110773258104636 0 0 0
694 232 2 -1.1794 7.989027388655299 4.261571267130403 17.814159549052732 0 0 0
38 13 1 0.5897 9.054581524049107 2.1756230546028195 20.065004717330005 0 0 -1
707 236 1 0.5897 8.990432254481806 0.2368500762043657 19.355714513877565 0 0 0
702 234 1 0.5897 9.679064683738902 4.241356094410131 17.867000498279907 0 0 0
36 12 1 0.5897 5.476934655061725 3.25639108199567 20.578951108098437 0 0 -1
2 1 1 0.5897 2.3412986164504765 3.672339023257769 20.595448128896862 0 0 -1
689 230 1 0.5897 9.971924141841097 1.089038861164456 17.34707385051594 0 0 0
3 1 1 0.5897 3.480644384815541 2.6801388587503605 20.69315597943143 0 0 -1
1 1 2 -1.1794 2.531620984931215 2.734342110657057 20.580213293012193 0 0 -1
710 237 1 0.5897 9.450060739334972 4.44991524143912 20.605762724857208 0 0 0
20 7 1 0.5897 0.8661958212686794 5.394377392072388 2.5824641860336985 0 0 0
110 37 1 0.5897 2.1512484345050713 9.359681074779962 0.5939544871524827 0 0 0
13 5 2 -1.1794 4.870727118649144 5.620304650499509 1.5748737999451763 0 0 0
674 225 1 0.5897 1.9812778351611127 5.718368979629352 0.4331453003586714 0 0 1
114 38 1 0.5897 3.3525613551354567 7.589349240875752 3.7344179143432887 0 0 0
111 37 1 0.5897 3.6179119755078615 9.386295782588668 0.21928736264888138 0 0 0
142 48 2 -1.1794 5.497432263152008 9.09293399276522 0.42141505780020644 0 0 0
14 5 1 0.5897 4.322514940247772 5.6238973029424475 0.7902074487705805 0 0 0
139 47 2 -1.1794 0.992597833864778 8.824283450000905 1.9750838103759638 0 0 0
711 237 1 0.5897 8.747823270882659 5.580643600839337 0.5205009190415059 0 0 1
141 47 1 0.5897 0.951405837686984 7.882317931831134 2.1403079264036937 0 0 0
112 38 2 -1.1794 4.18255262093717 7.711038243723742 3.273291262479985 0 0 0
140 47 1 0.5897 1.1494064021974528 9.212321078286136 2.8359472877307863 0 0 0
15 5 1 0.5897 4.575553431648278 6.379716783614153 2.077312627608815 0 0 0
19 7 2 -1.1794 0.7669000316421843 5.943989817899459 1.805082494170564 0 0 0
132 44 1 0.5897 0.9831044724508516 7.5517829350169805 4.814757768932224 0 0 0
113 38 1 0.5897 4.852108748550224 7.56604221780387 3.9418454418549955 0 0 0
176 59 1 0.5897 7.58792297695992 7.845650738091205 2.2033895025079033 0 0 0
177 59 1 0.5897 8.267603075450427 8.961165734741225 1.438081290742485 0 0 0
143 48 1 0.5897 6.112117474058714 8.91700299333708 1.1338049037570093 0 0 0
57 19 1 0.5897 7.754040299034642 5.354352402826864 2.4819676028351756 0 0 0
130 44 2 -1.1794 1.938641005727309 7.494758810355339 4.821925050081407 0 0 0
55 19 2 -1.1794 7.571971260964877 6.014545789599133 1.8131896931125235 0 0 0
175 59 2 -1.1794 7.617381452117485 8.798922952861485 2.1215874395634806 0 0 0
56 19 1 0.5897 6.630282851102622 5.943951326216025 1.6563512525742385 0 0 0
126 42 1 0.5897 4.2143378282536235 9.591790102219766 3.202896374232364 0 0 0
166 56 2 -1.1794 8.638091903920047 7.349104657626468 4.763180914225351 0 0 0
145 49 2 -1.1794 9.39180698828304 9.296088436995614 0.1963747365093419 0 0 0
138 46 1 0.5897 6.914612520842038 7.361930487275912 5.013787486037961 0 0 0
155 52 1 0.5897 7.96140062764664 9.955248287105142 3.493076133662056 0 0 0
63 21 1 0.5897 9.968358483888364 5.6080170395733555 6.907771809224784 0 0 0
344 115 1 0.5897 0.9285156413504606 5.5360444734634005 9.332695660122836 0 0 0
137 46 1 0.5897 5.917521321990439 6.342387230804715 5.522172376626117 0 0 0
501 167 1 0.5897 6.76715072202502 9.038623166632025 8.35141393296757 0 0 0
433 145 2 -1.1794 2.7569544203987952 9.063803566846744 7.073210016595994 0 0 0
345 115 1 0.5897 0.820372423430971 6.958536078450602 8.825877291174892 0 0 0
435 145 1 0.5897 2.4736726738714627 8.587862656206479 6.2925108396887675 0 0 0
468 156 1 0.5897 4.492559713626561 9.084774053512534 7.245599332273646 0 0 0
339 113 1 0.5897 3.9314656152030105 5.778262279116832 7.662425512805536 0 0 0
437 146 1 0.5897 4.347079491811397 7.506331508651835 9.555006825599323 0 0 0
463 155 2 -1.1794 0.7769710933799282 8.73284235722132 9.026102182601186 0 0 0
464 155 1 0.5897 1.5129652221251149 8.850578607755942 8.425476070684134 0 0 0
343 115 2 -1.1794 0.7539138159086795 6.046739197907739 8.542155539734816 0 0 0
26 9 1 0.5897 1.8592870256985796 5.6930930103365585 7.224265300629852 0 0 0
337 113 2 -1.1794 4.461155492188183 5.974964341808091 8.435091279605205 0 0 0
466 156 2 -1.1794 5.444944497856566 9.140996074331232 7.167090048280902 0 0 0
131 44 1 0.5897 2.125946963803455 6.657902847242829 5.247219932314806 0 0 0
338 113 1 0.5897 5.363614882128775 5.966534034867401 8.115959392307433 0 0 0
381 127 1 0.5897 7.428053266095651 5.458117218841767 9.144931944433496 0 0 0
379 127 2 -1.1794 7.189050626106924 6.023927200065634 8.410764967077753 0 0 0
25 9 2 -1.1794 2.4726435677991905 5.4475592906589805 6.53159620497918 0 0 0
380 127 1 0.5897 7.416710068639244 6.906316395729748 8.703763798233203 0 0 0
467 156 1 0.5897 5.673288681158533 8.466299647642401 6.5276257213116375 0 0 0
500 167 1 0.5897 7.661084799233224 9.288968947876352 9.547329590437121 0 0 0
470 157 1 0.5897 8.833752205224883 9.030507713593707 7.520616606827904 0 0 0
168 56 1 0.5897 8.807669100231914 8.016223931772139 5.428353019555691 0 0 0
499 167 2 -1.1794 7.569537417810236 8.732247413187647 8.774067589083803 0 0 0
62 21 1 0.5897 8.4812279663709 5.54221760491915 7.184038348680169 0 0 0
469 157 2 -1.1794 9.318921772843535 9.176370624339842 6.708465129285255 0 0 0
61 21 2 -1.1794 9.138084974391049 5.330021649133161 6.520860032683296 0 0 0
438 146 1 0.5897 4.308474426040525 8.924424456906914 10.083725738182808 0 0 0
167 56 1 0.5897 8.734687789263317 6.517468106995041 5.227212376916191 0 0 0
465 155 1 0.5897 0.0038869781502085367 8.944886206719449 8.50293916880097 0 0 0
434 145 1 0.5897 2.6478259684055168 9.986850901918046 6.844366176772138 0 0 0
136 46 2 -1.1794 5.998052987674392 7.262703703524028 5.2715201398529254 0 0 0
533 178 1 0.5897 0.3798127463258834 7.6420146789102965 11.92119708593157 1 0 0
668 223 1 0.5897 1.1430032919021336 5.754334220553686 14.83822398012311 0 0 0
455 152 1 0.5897 3.0491368688212233 7.732712681336713 11.48442310989727 0 0 0
387 129 1 0.5897 9.143166216925884 6.16698715785649 13.393430482486586 0 0 0
456 152 1 0.5897 2.3128359709910655 6.815429179149515 12.437570054209939 0 0 0
454 152 2 -1.1794 2.24489212594006 7.663525788033451 11.998938071343662 0 0 0
792 264 1 0.5897 4.354644199202141 9.238212849003345 14.320930275841501 0 0 0
349 117 2 -1.1794 2.505172718992856 5.441095054046726 13.686393825514921 0 0 0
757 253 2 -1.1794 2.5209782885705962 9.38451423433368 14.150079075401836 0 0 0
759 253 1 0.5897 2.4328202872942386 8.867972405213585 13.349046008368 0 0 0
351 117 1 0.5897 3.3098435448268613 5.666139471006008 14.153491341657144 0 0 0
333 111 1 0.5897 6.0798782119352905 5.682649609241229 12.262461148261394 0 0 0
789 263 1 0.5897 1.3171176404172222 8.81754269862029 15.282076410291193 0 0 0
385 129 2 -1.1794 9.13845136500642 5.526439473198286 14.10472435579565 0 0 0
460 154 2 -1.1794 6.36088643875653 7.465056231107095 12.145028655737732 0 0 0
793 265 2 -1.1794 9.418817389248142 9.213917289608428 14.431018965416078 0 0 0
462 154 1 0.5897 5.752734165369132 7.668828476070846 11.434455939084131 0 0 0
492 164 1 0.5897 8.183556452467505 7.507875301024277 11.977279401961392 0 0 0
490 164 2 -1.1794 9.12228441724458 7.4343508153187425 12.149732029240502 0 0 0
491 164 1 0.5897 9.537177596425046 7.643441318423685 11.3128331751405 0 0 0
794 265 1 0.5897 9.29304948763035 8.647575365411962 13.66963952158283 0 0 0
461 154 1 0.5897 6.028239399388877 7.958829372888605 12.894561711559444 0 0 0
790 264 2 -1.1794 5.2522278481269655 9.111387982653243 14.013345915874728 0 0 0
791 264 1 0.5897 5.777937012765269 9.0815128626131 14.812720269923135 0 0 0
705 235 1 0.5897 7.834147971956436 6.024779485802057 15.296392347769958 0 0 0
661 221 2 -1.1794 4.658925664684551 5.811771976744939 15.243551992816213 0 0 0
824 275 1 0.5897 7.9298164157719855 8.94979513357228 15.353628668397882 0 0 0
436 146 2 -1.1794 4.473696501888544 8.020630454827726 10.352322569562359 0 0 0
778 260 2 -1.1794 2.107642235170027 7.6270612866852865 18.804310046694795 0 0 0
663 221 1 0.5897 4.46674009028586 6.612909469202948 15.730914424865473 0 0 0
858 286 1 0.5897 0.27576474446181076 7.633077912273053 18.659006663252583 1 0 0
704 235 1 0.5897 6.373003333814361 5.975500534562773 15.689877331577955 0 0 0
669 223 1 0.5897 0.552164812024708 6.792389867516005 15.768460251427479 0 0 0
779 260 1 0.5897 2.287766051953643 8.35947726748697 19.39371424786303 0 0 0
675 225 1 0.5897 2.3874020277295296 6.169622502634757 19.852910528508843 0 0 0
787 263 2 -1.1794 0.6281400465049104 8.576185451775233 15.901231167556327 0 0 0
760 254 2 -1.1794 4.133701341263388 7.886526193900596 17.00459780634494 0 0 0
780 260 1 0.5897 2.817390170221351 7.6552892574867695 18.16262156627598 0 0 0
788 263 1 0.5897 0.7557649236517979 9.16609233401029 16.644181227310703 0 0 0
761 254 1 0.5897 4.002106012035498 8.834598114087166 16.99299322358305 0 0 0
762 254 1 0.5897 4.792002574270324 7.7439035438996635 17.684741729807037 0 0 0
785 262 1 0.5897 5.741565765137647 6.351760504295088 19.152909670225142 0 0 0
703 235 2 -1.1794 7.240217330553426 6.202328767017806 16.025781341575367 0 0 0
816 272 1 0.5897 8.861327935914085 8.282560129761352 19.49571601191012 0 0 0
823 275 2 -1.1794 7.170758840714405 8.834169603986147 15.925270072791632 0 0 0
144 48 1 0.5897 5.689102765298292 8.420608628772458 20.574194230694125 0 0 -1
784 262 2 -1.1794 5.904846582401641 7.28513558185792 19.017093518551484 0 0 0
786 262 1 0.5897 6.8478387506141365 7.343926460341546 18.86324496383748 0 0 0
814 272 2 -1.1794 8.653008963735829 7.510924418503182 18.968969999984388 0 0 0
825 275 1 0.5897 7.132193558901689 7.891179595184224 16.085188410355613 0 0 0
815 272 1 0.5897 8.906806906391134 6.769461920507329 19.518601302873776 0 0 0
709 237 2 -1.1794 9.38917436943594 5.404640367183381 20.638663434629947 0 0 0
662 221 1 0.5897 4.445948901675275 5.103929460381522 15.851725445899927 0 0 0
673 225 2 -1.1794 2.580401272200086 5.512905660666204 20.522047322585486 0 0 0
667 223 2 -1.1794 0.5404799683505042 5.854961663524271 15.575193889356145 0 0 0
109 37 2 -1.1794 2.742372713771734 9.53343457569927 20.66800290846822 0 0 -1
120 40 1 0.5897 1.116602478220272 11.236858853920584 3.3534778409453576 0 0 0
129 43 1 0.5897 0.7631758846926731 13.52936020294879 2.110242098793274 0 0 0
118 40 2 -1.1794 1.391701160816288 10.620060378998778 4.031820671029593 0 0 0
119 40 1 0.5897 2.346253718967701 10.59792460392271 3.9632735859824386 0 0 0
240 80 1 0.5897 2.6863593085165878 13.929243502897721 4.493677694576351 0 0 0
127 43 2 -1.1794 0.5350014685706149 12.60017082830219 2.0812191506587387 0 0 0
123 41 1 0.5897 3.9976034769859043 12.288792450774938 0.8198730764826845 0 0 0
222 74 1 0.5897 4.448141373963878 13.792796307877653 2.523351839250086 0 0 0
124 42 2 -1.1794 4.024632031702272 10.511623970239619 3.387866444775783 0 0 0
783 261 1 0.5897 1.684035645901164 12.372854385491568 0.5997589637389898 0 0 1
220 74 2 -1.1794 4.0817353256003 14.232897165110744 3.2903744754088238 0 0 0
121 41 2 -1.1794 4.75675442944611 12.249081131412451 1.4016049099072483 0 0 0
122 41 1 0.5897 4.500764827139556 11.633502306011675 2.0884770311720913 0 0 0
125 42 1 0.5897 4.618263651564953 10.739934362435964 4.1032377598014165 0 0 0
165 55 1 0.5897 7.701072676168669 12.029327429848264 2.898934406051066 0 0 0
246 82 1 0.5897 5.460178627505151 14.155917638575474 4.411713994111736 0 0 0
285 95 1 0.5897 7.723510931811829 14.51641843470725 1.9630996333808408 0 0 0
164 55 1 0.5897 6.606312218552599 12.354180037236485 1.9049354794315176 0 0 0
276 92 1 0.5897 9.342523014336448 13.965697987116842 4.519640552830674 0 0 0
154 52 2 -1.1794 8.15863789617244 10.725778333570183 4.025674572503235 0 0 0
819 273 1 0.5897 8.513102630975865 12.316067886796686 0.6778487196883132 0 0 1
163 55 2 -1.1794 7.467191242323547 12.645914642079937 2.205112736676318 0 0 0
156 52 1 0.5897 9.105386149106032 10.839650574234339 3.941699862924713 0 0 0
317 106 1 0.5897 0.24702932674605194 13.964920460645988 5.025960949679688 1 0 0
275 92 1 0.5897 7.90568045315056 13.895361282108302 4.991580231971924 0 0 0
116 39 1 0.5897 6.712829985989486 11.000121191666432 5.0372420787798395 0 0 0
244 82 2 -1.1794 6.0829093412804855 13.947400261572682 5.1081467460587415 0 0 0
817 273 2 -1.1794 9.13647989941553 12.070091307078036 -0.005660923791360517 0 0 1
146 49 1 0.5897 9.219099664096186 10.218116432042308 0.0057605605558705975 0 0 0
133 45 2 -1.1794 2.6503151737458706 11.761990668592595 6.789855166463059 0 0 0
134 45 1 0.5897 1.9350502699472347 11.957071160669898 7.395355719628949 0 0 0
135 45 1 0.5897 3.443608230397542 11.994030713782346 7.272714319595763 0 0 0
453 151 1 0.5897 0.8734321053545051 11.917633031312194 9.390152112947586 0 0 0
451 151 2 -1.1794 0.7932006691450537 12.537348947389209 8.665049958156821 0 0 0
450 150 1 0.5897 4.193114774249549 11.340829666857166 9.720287804671363 0 0 0
446 149 1 0.5897 4.508910253270811 13.314763463606203 8.901993699929971 0 0 0
573 191 1 0.5897 0.9241397148327785 14.627867595320968 9.41648324749367 0 0 0
445 149 2 -1.1794 4.6801758879784705 12.464111024479374 8.497849121998195 0 0 0
239 80 1 0.5897 2.3171630615135266 13.14133728868051 5.732571756932337 0 0 0
480 160 1 0.5897 7.793128344401722 11.267449968357775 10.220089856699053 0 0 0
115 39 2 -1.1794 5.829434604025504 11.150709973318373 5.37377647028688 0 0 0
443 148 1 0.5897 1.104760190836582 10.036856551446894 10.2808498070989 0 0 0
117 39 1 0.5897 5.709260977344235 10.47656372008785 6.042619655088729 0 0 0
487 163 2 -1.1794 7.437669265275391 12.475768136840088 9.059670098647672 0 0 0
171 57 1 0.5897 9.303567593486967 11.046046501871297 6.890708280987959 0 0 0
170 57 1 0.5897 9.145147964663833 12.495245772968477 6.4823411187364 0 0 0
447 149 1 0.5897 5.630486475125693 12.360982407020964 8.549170597511127 0 0 0
489 163 1 0.5897 7.413280866814857 13.42610795146731 9.171714542515039 0 0 0
488 163 1 0.5897 8.071077377026404 12.333221466321051 8.356275790385103 0 0 0
169 57 2 -1.1794 9.332263944797575 11.937744021286289 7.237611062574298 0 0 0
245 82 1 0.5897 5.8653799744962125 13.051047908778704 5.364118386884359 0 0 0
544 182 2 -1.1794 4.179437229967019 14.646792582775456 10.089648566055521 0 0 0
274 92 2 -1.1794 8.80873860755801 13.837296363344963 5.303772268933336 0 0 0
575 192 1 0.5897 5.593373685690449 14.919100785306005 6.497286046901138 0 0 0
238 80 2 -1.1794 2.1023309780053605 13.940827595996584 5.252004579725554 0 0 0
457 153 2 -1.1794 2.439545955319973 12.063934150504513 13.356679104718184 0 0 0
458 153 1 0.5897 1.6811086233471775 12.191115714098933 13.926685705721576 0 0 0
459 153 1 0.5897 3.1931144914354803 12.267236299129122 13.910860778218817 0 0 0
562 188 2 -1.1794 2.0215732760351623 14.171569651173234 11.685409972658666 0 0 0
563 188 1 0.5897 2.1847916854001177 13.340065353488725 12.130655707920843 0 0 0
449 150 1 0.5897 4.540088398667921 10.96241072929785 11.144485504216776 0 0 0
642 214 1 0.5897 0.27749045573617226 14.322293631294817 11.825150061921724 1 0 0
442 148 2 -1.1794 1.2916083480715461 10.833386763291857 10.777747261812443 0 0 0
545 182 1 0.5897 3.380442519675805 14.46183513682605 10.583333882118051 0 0 0
770 257 1 0.5897 5.457818757964409 12.41660979210495 15.195362182057098 0 0 0
478 160 2 -1.1794 7.984871098959773 10.495738099803699 10.752982395904525 0 0 0
444 148 1 0.5897 2.2468639321922113 10.864210294244403 10.8314982638964 0 0 0
546 182 1 0.5897 4.886212960510557 14.531430829054363 10.724824858882 0 0 0
758 253 1 0.5897 2.3867005886148505 10.289375101693526 13.868178414419049 0 0 0
769 257 2 -1.1794 4.506439294122761 12.465059885012588 15.289647052640776 0 0 0
479 160 1 0.5897 8.923151930527503 10.555495275209342 10.93302511724576 0 0 0
569 190 1 0.5897 5.864340882917667 13.06643248549854 12.275569940474048 0 0 0
795 265 1 0.5897 9.436234172282605 10.100469503709263 14.07044865560596 0 0 0
599 200 1 0.5897 8.890993961754798 13.214631300149295 12.511671713414401 0 0 0
439 147 2 -1.1794 5.842876421675718 11.275525076090595 12.36477373081066 0 0 0
570 190 1 0.5897 6.962446012226433 14.057037433062236 11.951538463147399 0 0 0
494 165 1 0.5897 8.548717389039794 12.018781755499997 14.230553518805733 0 0 0
493 165 2 -1.1794 9.282337000831703 11.923398272434165 13.623096008750032 0 0 0
440 147 1 0.5897 6.645368250780572 10.975958533672719 11.93745955780987 0 0 0
598 200 2 -1.1794 8.777896147162508 14.03188682022632 12.026306672097048 0 0 0
441 147 1 0.5897 5.615371366540066 10.569667523646427 12.969971560074466 0 0 0
568 190 2 -1.1794 6.01193348457041 13.981420403046982 12.036189757447486 0 0 0
564 188 1 0.5897 2.3136824467497537 14.838152253986314 12.307186982311705 0 0 0
600 200 1 0.5897 8.950647531696397 14.719113042946393 12.669847179724178 0 0 0
512 171 1 0.5897 0.05168743137445764 11.359779083859433 11.927562652039718 1 0 0
811 271 2 -1.1794 7.285703194188564 12.630831698734163 15.425090353844702 0 0 0
775 259 2 -1.1794 0.6442501049421558 12.559970980828545 15.493063499609057 0 0 0
448 150 2 -1.1794 3.9403188047291637 10.749667405094122 10.429431683103394 0 0 0
768 256 1 0.5897 0.9399418476875536 11.397625096991524 16.830890731791996 0 0 0
888 296 1 0.5897 2.0741008624074917 13.37293454351831 19.321379756291563 0 0 0
766 256 2 -1.1794 1.1293422897449363 10.752119390503378 17.5118571920734 0 0 0
773 258 1 0.5897 2.887392496560622 10.800393485428213 17.343619720336264 0 0 0
886 296 2 -1.1794 1.8671437613298938 14.06322892139996 18.691365590753705 0 0 0
774 258 1 0.5897 4.057850585781201 11.14130709230176 16.44590003542403 0 0 0
772 258 2 -1.1794 3.8196842103743367 10.624762651801351 17.215781056158207 0 0 0
869 290 1 0.5897 3.296245269517573 14.31563908177709 17.62056170969482 0 0 0
767 256 1 0.5897 0.5629928919852244 11.000785862560532 18.242400335830418 0 0 0
868 290 2 -1.1794 4.0951377291491164 14.399552162220536 17.099933028090696 0 0 0
965 322 1 0.5897 0.03321626098710954 14.186129620060319 18.8153758973694 1 0 0
812 271 1 0.5897 7.401979469854018 13.558590415852475 15.63011717551756 0 0 0
781 261 2 -1.1794 2.3474816146888684 12.266150925770102 20.724655069804875 0 0 0
870 290 1 0.5897 4.805089313416871 14.243925855968058 17.72287412614952 0 0 0
782 261 1 0.5897 2.4652079260360567 11.319084721388533 20.650469260290414 0 0 0
810 270 1 0.5897 9.690406773616512 10.709653324829569 17.64569550280529 0 0 0
804 268 1 0.5897 7.743993305861691 10.076469446008579 17.14383429812377 0 0 0
764 255 1 0.5897 5.015595650711503 10.895757080097288 18.603448606410183 0 0 0
818 273 1 0.5897 9.03164394905618 12.742140863423938 20.127446080273636 0 0 0
765 255 1 0.5897 5.5004115591566665 10.606554341086657 20.008166706375725 0 0 0
922 308 2 -1.1794 8.769704842317946 14.13082130103462 18.942467798743508 0 0 0
803 268 1 0.5897 7.3502508696142925 10.948493183101007 18.31708550545148 0 0 0
893 298 1 0.5897 6.864890301545895 14.03012841337773 18.91221381711474 0 0 0
894 298 1 0.5897 5.842338412686312 12.956336766462343 19.21795395184492 0 0 0
802 268 2 -1.1794 7.994911907421879 10.871833559649936 17.613644785217176 0 0 0
924 308 1 0.5897 9.358124614486634 14.208176285403404 18.191430233687726 0 0 0
763 255 2 -1.1794 5.715043031544961 11.107961252562006 19.22154969887068 0 0 0
892 298 2 -1.1794 5.93513280455937 13.901787156519507 19.100457898884713 0 0 0
813 271 1 0.5897 7.457898516996271 12.179049434359092 16.251222198371025 0 0 0
771 257 1 0.5897 4.361325040700743 13.201644795976229 15.8834944750854 0 0 0
923 308 1 0.5897 8.89128833438361 14.946976594301884 19.42763394980279 0 0 0
252 84 1 0.5897 5.425532239589079 14.834954223574126 20.476452184262378 0 0 -1
887 296 1 0.5897 2.0474629548274814 14.878046704578098 19.16023766923837 0 0 0
777 259 1 0.5897 0.8571665884139354 13.488799722961112 15.583843664546821 0 0 0
233 78 1 0.5897 4.326218881395118 17.622913553530694 2.7650366825840162 0 0 0
890 297 1 0.5897 2.003836637871266 19.090351013284952 0.4102458699175161 0 0 1
227 76 1 0.5897 1.2550419067930385 18.061392360146606 3.0938415539231823 0 0 0
235 79 2 -1.1794 0.7540278715091867 19.223655506580933 1.7057360560410828 0 0 0
234 78 1 0.5897 3.2446423633990364 17.00429736411065 3.6250354481998603 0 0 0
221 74 1 0.5897 4.118260061888896 15.164370113246958 3.0728926545521253 0 0 0
249 83 1 0.5897 1.7020859314383976 15.493238144327167 1.2950714603525644 0 0 0
229 77 2 -1.1794 4.600809777588543 18.949193380526395 1.692366290106029 0 0 0
230 77 1 0.5897 4.070885209080151 18.884284620094427 0.8978624330046386 0 0 0
247 83 2 -1.1794 1.0435089345726223 15.307434012882382 1.9644360483868848 0 0 0
248 83 1 0.5897 1.2222208025333645 15.941062786744537 2.6593018675674616 0 0 0
226 76 2 -1.1794 1.525579924861575 17.38985148598939 3.7200301107362654 0 0 0
228 76 1 0.5897 0.8904433496097468 17.456816728553463 4.433057797850926 0 0 0
232 78 2 -1.1794 4.176649108239175 16.938069223783558 3.4168696957131557 0 0 0