LAMMPS data file via write_data, version 30 Jul 2021, timestep = 8750000

864 atoms
2 atom types
576 bonds
1 bond types
288 angles
1 angle types

0.40642571432940855 17.801146685671114 xlo xhi
1.5702470771002108 22.058930722904734 ylo yhi
0.49583842218393137 21.717357377807037 zlo zhi

Masses

1 1.00794
2 15.9994

Pair Coeffs # lj/cut/tip4p/long/omp

1 0 0
2 0.21084 3.1668

Bond Coeffs # harmonic/omp

1 450 0.9572

Angle Coeffs # harmonic/omp

1 55 104.52

Atoms # full

580 1 2 -1.1794 1.4237749816074823 4.808489249670547 4.262653048127405 -4 1 1
416 1 1 0.5897 1.180214463270166 3.236328641139754 3.29583776274084 -1 -2 0
582 1 1 0.5897 2.1133255565616027 5.4128610315690615 3.9878485227593643 -4 1 1
415 1 2 -1.1794 1.4090679618718895 2.3865107140696087 2.9194171172323893 -1 -2 0
791 1 1 0.5897 1.942470576119879 3.8659922733041006 5.671881836576254 1 6 0
581 1 1 0.5897 0.6100170463643295 5.233978762697799 3.992384307732059 -4 1 1
437 1 1 0.5897 4.542839896496276 4.800968549921279 1.3984531782968113 -3 6 -1
503 1 1 0.5897 1.8967918750415638 3.0237300224817334 1.3050443554569615 -3 1 5
417 1 1 0.5897 0.5763978981441856 1.918064197941839 2.8604758640769017 -1 -2 0
594 1 1 0.5897 4.151709733520009 6.458873737060579 4.555914365302146 -3 -2 0
592 1 2 -1.1794 3.521825138123224 6.507678045589749 3.836783760289382 -3 -2 0
90 1 1 0.5897 3.9531722175431443 5.11058967842196 8.351908833854537 5 0 4
88 1 2 -1.1794 3.908326744025025 5.9062644942264635 7.821653598765391 5 0 4
785 1 1 0.5897 4.23180209851472 3.408050371022939 6.380772678371513 3 5 5
89 1 1 0.5897 2.9802400934837094 6.140620736310198 7.8185742311762825 5 0 4
91 1 2 -1.1794 2.9592031728593393 4.021640195488513 9.877815816336689 2 -4 2
92 1 1 0.5897 2.0592182356109996 3.9151798302867116 9.569653311996031 2 -4 2
95 1 1 0.5897 4.07740174635622 2.515861891448526 10.10684353204968 -3 -3 0
93 1 1 0.5897 2.9317583550604485 4.799788756933523 10.434579974521327 2 -4 2
835 1 2 -1.1794 1.1772174592962905 6.4572994482457435 7.603023184623449 -1 0 1
792 1 1 0.5897 1.7009776861262957 3.47498116249041 7.114365232353294 1 6 0
790 1 2 -1.1794 2.340378245281551 3.398221396725314 6.406131838175524 1 6 0
53 1 1 0.5897 2.5807271670335825 1.5988897839655263 6.380132338914354 -4 -3 5
589 1 2 -1.1794 0.5814528888417618 3.436160162823137 8.610713251981155 3 5 0
94 1 2 -1.1794 4.597703490573319 1.7414686573783882 10.320976114403516 -4 -3 0
836 1 1 0.5897 0.43883182389115855 5.84816697416739 7.603248063830427 -1 0 1
195 1 1 0.5897 3.6794349209873634 6.684004700369027 10.990901431083296 4 -1 2
737 1 1 0.5897 3.637761580294603 1.8694553750312621 13.783019265012362 1 -1 -2
393 1 1 0.5897 3.9769551227140236 4.524321039904877 13.819612391409153 3 -3 0
391 1 2 -1.1794 4.123716111355349 5.461807012209075 13.693718713576736 3 -3 0
629 1 1 0.5897 1.7214305005268575 3.01349042686063 13.806414744353711 -2 -2 1
628 1 2 -1.1794 0.9835273628752864 3.0700242704410954 13.199309465041306 -2 -2 1
767 1 1 0.5897 1.9027742360603421 5.6608376663796465 15.820889229331371 1 -1 -2
671 1 1 0.5897 3.8584947969413 6.293128277730709 15.299880343127464 6 2 -1
368 1 1 0.5897 0.7879143146440126 3.5928025054307193 16.407626578952353 3 6 -1
766 1 2 -1.1794 1.1129807370646225 5.1419813227274505 15.668149940047705 1 -1 -2
392 1 1 0.5897 3.5587725823416094 5.696407752564748 12.957473373827153 3 -3 0
738 1 1 0.5897 4.100229159867951 2.709822636163774 14.954280220943307 1 -1 -2
242 1 1 0.5897 1.1701012551268062 1.7122212623527042 12.056134657502435 0 -3 1
193 1 2 -1.1794 2.7968917132773616 6.416860072697425 11.247874072693447 4 -1 2
369 1 1 0.5897 0.639212524592947 2.1032246002442263 16.18176540729607 3 6 -2
736 1 2 -1.1794 3.5548591483576626 2.7417996366312996 14.168257780308172 1 -1 -2
669 1 1 0.5897 0.41809739893715303 5.309941626483576 13.489370828694978 -9 -2 0
504 1 1 0.5897 2.0437882061562793 2.6312249807229593 21.071818111538832 -3 1 4
168 1 1 0.5897 3.7801416031192074 2.9707126928694034 19.6358721072506 0 1 2
769 1 2 -1.1794 2.9293315864360383 3.5896031508908677 18.14132388138094 1 -3 -1
273 1 1 0.5897 2.2563847714156484 6.427569768360451 18.807659407102896 -3 2 3
271 1 2 -1.1794 3.1656031701221736 6.159310619648434 18.674762945737257 -3 2 3
861 1 1 0.5897 3.376970466913553 5.9669843324951986 20.62873641230319 1 -1 1
770 1 1 0.5897 2.7888140753382915 4.530811382958675 18.037873953093566 1 -3 -1
108 1 1 0.5897 4.161577094655195 2.881472544192559 17.033999261451406 -5 -1 5
272 1 1 0.5897 3.3804559979254405 6.467478666403151 17.794328539079608 -3 2 3
166 1 2 -1.1794 4.4257456536602815 2.6536783460993365 20.26750160733502 0 1 2
771 1 1 0.5897 2.199641233146727 3.1850727195771418 17.67207293858482 1 -3 -1
502 1 2 -1.1794 1.8181231112775624 3.369675379340616 21.637523536098954 -3 1 4
167 1 1 0.5897 4.398280521390835 1.7007774869730472 20.180980813703123 0 1 2
859 1 2 -1.1794 2.881970864056737 5.98286274445746 21.447912593197586 1 -1 1
367 1 2 -1.1794 0.6616101633986883 2.7655874419069195 16.872435605384027 3 6 -1
311 1 1 0.5897 0.5590537502715698 4.290959497753734 20.778312966818127 -2 2 3
860 1 1 0.5897 2.482539279400696 5.114752354065565 21.50377091222712 1 -1 1
211 1 2 -1.1794 4.346012731930473 9.684093770484232 4.6743022581790905 4 1 2
461 1 1 0.5897 1.272816815132428 7.620494099191193 5.76091235871374 3 6 -2
218 1 1 0.5897 1.4449176263676402 9.990560513420373 5.289866913877963 6 0 -3
474 1 1 0.5897 1.7722670026237497 10.583447570663015 1.831121675294874 2 1 -3
472 1 2 -1.1794 2.5176710132328273 9.985637508756552 1.7741404473413176 2 1 -3
212 1 1 0.5897 3.743039605963062 9.435951897822097 3.973514913974245 4 1 2
219 1 1 0.5897 1.9158470797083578 11.346559895758329 4.808621515407197 6 0 -3
217 1 2 -1.1794 1.5007140315398186 10.909423031184495 5.552231428837384 6 0 -3
473 1 1 0.5897 3.273049253581539 10.556606706408077 1.6339342392773433 2 1 -3
460 1 2 -1.1794 1.5726596941518016 8.001281701853898 4.935475004428712 3 6 -2
462 1 1 0.5897 2.291412006760152 7.433955498344192 4.656545228276051 3 6 -2
755 1 1 0.5897 1.6181007868352613 8.70584161044869 1.083204097536123 -5 -3 -3
593 1 1 0.5897 4.012420818344964 6.899428260538502 3.1142197299965146 -3 -2 0
760 1 2 -1.1794 4.735471221928148 11.295890689291031 1.1641401359262957 3 -4 -1
213 1 1 0.5897 4.613614171980805 10.576777527907002 4.455765306868095 4 1 2
754 1 2 -1.1794 1.0928433783503555 8.123502643521594 0.5343347640928897 -5 -3 -3
698 1 1 0.5897 3.4515196095616467 8.945640452963083 6.367358679450284 -4 3 -4
97 1 2 -1.1794 1.8584231986395678 9.179774959699301 9.841778769538868 5 -6 5
697 1 2 -1.1794 3.1994103739844992 8.92561034619126 7.290554866147877 -4 3 -4
699 1 1 0.5897 3.941624238186892 9.317724560441619 7.75057811822929 -4 3 -4
98 1 1 0.5897 1.037739622052821 8.71558814311146 10.006967047513815 5 -6 5
759 1 1 0.5897 0.7170495792819895 9.538666464758943 7.169177221952714 3 0 1
837 1 1 0.5897 0.7843246561469119 7.310756997548512 7.786080742233808 -1 0 1
509 1 1 0.5897 2.3461166124492414 11.04041425712413 9.923299447464698 5 -5 3
99 1 1 0.5897 2.1435940775926685 8.86519786070884 8.983891519718847 5 -6 5
396 1 1 0.5897 4.432738971633644 7.052668425347395 9.09002299092684 4 2 3
138 1 1 0.5897 3.0812005798417923 11.363236204062122 6.660611782947232 2 -9 3
194 1 1 0.5897 2.2216965744876043 7.063064523848702 10.838203323630776 4 -1 2
205 1 2 -1.1794 3.605379677408361 9.510383303475594 15.446898416465391 -6 4 -3
112 1 2 -1.1794 0.9346627290575976 10.203565469027774 16.357285101609435 -3 0 -1
863 1 1 0.5897 4.469013877279228 9.616825696668833 12.410084367152509 -1 -3 -1
175 1 2 -1.1794 2.8532319042404968 8.664854814421766 13.034548503307892 -2 -3 9
207 1 1 0.5897 3.374089543333364 9.446340766369023 14.520243099705882 -6 4 -3
206 1 1 0.5897 2.774905628126492 9.684001022421326 15.89011397479503 -6 4 -3
177 1 1 0.5897 1.9163957762380144 8.806935748808048 13.170321947068784 -2 -3 9
176 1 1 0.5897 2.9029445748272513 7.844063380075865 12.544554439993233 -2 -3 9
672 1 1 0.5897 3.6314931127555394 7.663426039441655 15.902165880866233 6 2 -1
114 1 1 0.5897 0.9327371497011779 11.156892748442694 16.271153785790734 -3 0 -1
42 1 1 0.5897 3.500767561334444 11.795010725985442 12.665804110943581 0 0 6
670 1 2 -1.1794 3.4146241184139936 6.738764922497707 16.021458698384087 6 2 -1
113 1 1 0.5897 0.7262418920478118 10.045368073429712 17.27804418381136 -3 0 -1
102 1 1 0.5897 4.455308172467535 9.03749139134515 20.58870446248809 3 -4 -2
468 1 1 0.5897 2.5280249649563395 10.338692455332891 19.99134802547985 4 -3 5
467 1 1 0.5897 2.4167333752213596 8.84907807056669 20.23759123923992 4 -3 5
254 1 1 0.5897 1.1397351448706856 9.595217804638493 18.903888174105788 5 3 -5
466 1 2 -1.1794 2.823828381337181 9.491989391836444 19.656903444536283 4 -3 5
756 1 1 0.5897 1.6563989045282093 7.365080440510142 21.60268669677867 -5 -3 -4
178 1 2 -1.1794 2.671030174196653 12.812215102933337 3.7654672147286252 -6 1 -1
179 1 1 0.5897 2.299728374483478 12.838734823685904 2.8836007363731797 -6 1 -1
640 1 2 -1.1794 2.021003725827673 13.749234647899701 1.2308790172786548 5 3 -4
86 1 1 0.5897 0.6870901386279549 16.389321020705257 3.6142774190058278 3 7 1
642 1 1 0.5897 2.8293304694726573 14.175773421738972 0.9463866500352296 5 3 -4
180 1 1 0.5897 2.0218142774479526 13.254301232161591 4.312594530111153 -6 1 -1
51 1 1 0.5897 3.8947199012787848 15.54041932066067 3.8718852702704876 6 2 -1
49 1 2 -1.1794 4.512577125784175 14.812440842490691 3.9394684710226766 6 2 -1
641 1 1 0.5897 1.3220291703665539 14.289634661680877 0.8625258306046149 5 3 -4
50 1 1 0.5897 3.970372701922957 14.028508318035318 3.8514966103652775 6 2 -1
329 1 1 0.5897 0.5516967287568717 14.946999838343148 5.1866600288894675 6 4 0
734 1 1 0.5897 3.517621825187512 16.299360701545126 0.6527185878119388 2 1 -5
328 1 2 -1.1794 1.143555175915306 14.332869162121227 5.621170994655274 6 4 0
330 1 1 0.5897 1.7423588746088252 14.88873547479115 6.119869188746513 6 4 0
389 1 1 0.5897 0.9196116496101235 13.45430257455653 7.676225248905608 4 5 4
390 1 1 0.5897 1.2654545007519316 12.925434830720087 9.051958751505401 4 5 5
586 1 2 -1.1794 3.4276125860936606 14.733336993286537 7.612347258123753 1 1 5
588 1 1 0.5897 2.9930774871150745 15.581479576135623 7.522263584911297 1 1 5
136 1 2 -1.1794 3.6525140235858524 11.875891729850581 7.232484955471463 2 -9 3
563 1 1 0.5897 3.02839492114856 14.282440733616168 10.731644495229801 3 1 2
564 1 1 0.5897 4.470972559193991 13.88417754008388 10.960560262193852 3 1 2
137 1 1 0.5897 3.3535274343729142 12.778675227930473 7.1235766528795175 2 -9 3
587 1 1 0.5897 3.5990009876228233 14.649931482256017 8.550390511860858 1 1 5
562 1 2 -1.1794 3.927043802045148 14.58622708972135 10.60339407180716 3 1 2
638 1 1 0.5897 0.9637786948591003 16.319788760135683 9.134449809578575 -5 3 3
666 1 1 0.5897 4.534301450528502 12.18974645101223 10.138972613915655 1 -1 3
637 1 2 -1.1794 0.43208114114490215 16.328567629080872 9.930376233759196 -5 3 3
388 1 2 -1.1794 0.5791767661045008 13.385025538061814 8.568164612780572 4 5 5
607 1 2 -1.1794 1.6787060229604047 16.73549093339213 7.394620078700005 7 1 3
508 1 2 -1.1794 2.712837367270102 11.914519932151359 9.790053679836287 5 -5 3
510 1 1 0.5897 3.0516809192366785 11.898744835041798 8.894954394107538 5 -5 3
805 1 2 -1.1794 0.5051053150336184 12.874429381438857 15.898622214405817 -1 -2 -3
548 1 1 0.5897 0.498617746710156 15.428049737955504 14.210581089394198 5 0 6
498 1 1 0.5897 3.443617494377019 15.066971723513872 14.607260267543904 -2 1 0
820 1 2 -1.1794 1.4695938231161758 13.774594472789056 11.692088588785623 4 3 3
40 1 2 -1.1794 3.366745799362601 12.574962792436581 13.204293750270855 0 0 6
41 1 1 0.5897 2.62220472063611 13.020599842239028 12.80012219449948 0 0 6
16 1 2 -1.1794 1.8709620293236624 15.22633902671888 15.441190220758317 -3 2 2
18 1 1 0.5897 1.441105001826348 14.417031581438536 15.717790054151113 -3 2 2
497 1 1 0.5897 4.232286592089874 14.18825289246586 13.659722118918133 -2 1 1
821 1 1 0.5897 1.0175275026637993 14.518487356063261 12.090233392883624 4 3 3
334 1 2 -1.1794 2.7873686294897517 16.849507873250793 11.605046577362021 5 2 3
496 1 2 -1.1794 4.279485285930514 15.01259110523485 14.143975533239118 -2 1 1
17 1 1 0.5897 2.061428393858411 15.68810255410553 16.257743897935388 -3 2 2
822 1 1 0.5897 0.8091163356352897 13.082588079581921 11.658133016978121 4 3 3
109 1 2 -1.1794 4.7149226330027 12.47129546582492 16.309198298436854 -3 -2 -6
110 1 1 0.5897 4.098488780771007 12.372574717592055 15.58357456199504 -3 -2 -6
336 1 1 0.5897 3.2966352278332747 16.097797923020366 11.301993360993464 5 2 3
335 1 1 0.5897 1.912445118116906 16.708181877053462 11.243381559432711 5 2 3
729 1 1 0.5897 1.1241096042173506 12.908336424455037 19.735278918303827 -2 0 -1
129 1 1 0.5897 4.0903539692872615 14.47072511609173 20.186105514447902 1 0 -5
127 1 2 -1.1794 4.060765606492407 14.93872440944629 21.02058538450818 1 0 -5
365 1 1 0.5897 3.1769354342963774 15.364632222677868 18.18993790883016 3 5 1
727 1 2 -1.1794 1.813689243028486 12.366973433622816 20.119557620590356 -2 0 -1
745 1 2 -1.1794 3.6116111709040672 13.620218091084496 18.59405735065109 1 2 -7
364 1 2 -1.1794 2.796990627659804 16.1650685172513 17.82770055396731 3 5 1
747 1 1 0.5897 3.987185071214641 13.072644293833516 17.90453888175255 1 2 -7
366 1 1 0.5897 2.3753069546350183 16.58993884255144 18.574642894781675 3 5 1
746 1 1 0.5897 2.99734169950936 13.044639912822717 19.049791962199784 1 2 -7
728 1 1 0.5897 1.9678791780896856 12.751607618308219 20.982454928089886 -2 0 -1
806 1 1 0.5897 0.43123363569791096 13.06523254830855 16.83371037328697 -1 -2 -3
44 1 1 0.5897 2.978615681293085 21.766330145023062 3.067498747209718 2 4 -2
455 1 1 0.5897 3.4209956000312993 17.66351395506733 4.29384492161571 2 -1 0
45 1 1 0.5897 4.460866323008534 21.839897520245948 3.3668224320705744 2 4 -2
326 1 1 0.5897 1.6351037588604354 20.285253467135647 4.655329113588722 1 1 -2
327 1 1 0.5897 1.4602200631842193 19.435783221422703 3.4144428879500808 1 1 -2
43 1 2 -1.1794 3.760904069311432 21.221867733527162 3.1561107575766045 2 4 -2
325 1 2 -1.1794 1.1553951377816378 19.529145680238933 4.317006373791322 1 1 -2
214 1 2 -1.1794 1.5399205857867775 19.363056169263267 1.4968206705617568 2 2 3
216 1 1 0.5897 1.6778924222894573 19.77625516094396 0.6444784810522435 2 2 3
531 1 1 0.5897 4.023902943210629 19.885513261567255 4.571624846460566 -3 -1 -3
215 1 1 0.5897 0.8065934531433459 18.763890194990054 1.357167280449027 2 2 3
529 1 2 -1.1794 4.496293053427441 19.140376698459598 4.9429353890687775 -3 -1 -3
546 1 1 0.5897 0.416755567557132 18.85668390552594 5.759241852347078 -5 3 4
561 1 1 0.5897 4.306366728299496 20.09043735376674 1.5664924697748193 5 -1 2
560 1 1 0.5897 4.346063070760281 18.75497371116191 0.8544990519456688 5 -1 2
733 1 2 -1.1794 3.3386065273609042 17.169791885265965 1.008493526473956 2 1 -5
454 1 2 -1.1794 2.9402920527325076 16.974911286034605 3.8344931254217403 2 -1 0
456 1 1 0.5897 2.97890221094388 17.229378100550928 2.9125302325758207 2 -1 0
421 1 2 -1.1794 2.9092788007535093 20.352228550617333 8.901576427503084 -5 0 5
30 1 1 0.5897 4.234797141050845 18.588263006555565 6.566016078571746 -6 2 7
749 1 1 0.5897 3.919358204065205 18.688842175787578 10.612467513992693 1 3 0
28 1 2 -1.1794 3.8455787001425548 18.35816693225471 7.409727243324367 -6 2 7
609 1 1 0.5897 0.9276701072158179 17.264936680135293 7.126505740519784 7 1 3
423 1 1 0.5897 2.077628721732161 19.908226960368097 9.067327700433147 -5 0 5
52 1 2 -1.1794 2.4351065704440176 21.142012916422587 6.348963546232294 -4 -4 5
96 1 1 0.5897 4.127408878104573 21.504168211308276 9.911051157440104 -4 -4 0
422 1 1 0.5897 3.463238879214402 19.68236645038379 8.500737803165489 -5 0 5
29 1 1 0.5897 4.507021051398713 17.81564136407826 7.839184881985407 -6 2 7
204 1 1 0.5897 0.9128207581852792 21.12295253842477 7.055037407821239 -6 3 2
54 1 1 0.5897 2.651041347451612 20.836752683839066 7.2301352919505675 -4 -4 5
650 1 1 0.5897 0.699586176790727 18.099199485257465 9.735374954361275 4 1 0
608 1 1 0.5897 2.4333461589450684 17.312501336565134 7.276980948823087 7 1 3
243 1 1 0.5897 2.0530638122450884 21.763040504999935 10.906949722097657 0 -4 1
649 1 2 -1.1794 0.7207076532816084 19.056179408322144 9.73291482209511 4 1 0
346 1 2 -1.1794 0.9736236909570588 19.04135322324725 16.15276912665393 -6 4 -5
188 1 1 0.5897 1.0814751660323236 18.410965918824658 13.485678729393468 -3 3 0
241 1 2 -1.1794 1.1495047713275912 21.732748380725518 11.221457608296308 0 -4 1
718 1 2 -1.1794 2.6696754894971892 18.369047539853405 13.976232370917067 6 5 2
833 1 1 0.5897 4.172206631543769 20.30387545027704 12.243526611392799 3 -1 -1
719 1 1 0.5897 3.142637987170104 19.171360293301987 13.755194912476787 6 5 2
275 1 1 0.5897 0.4145738331533888 20.975769273464557 13.814222454134596 -4 3 -3
347 1 1 0.5897 1.7717733865666931 18.87578169074377 15.650971237749163 -6 4 -5
720 1 1 0.5897 2.8548950881885666 17.77349321699935 13.25009818067791 6 5 2
832 1 2 -1.1794 4.002842456045327 20.695840408789984 13.100229678899176 3 -1 -1
348 1 1 0.5897 0.6014291563315765 19.830105221328516 15.758308470404847 -6 4 -5
748 1 2 -1.1794 4.624025554430891 19.008519240195568 11.175977914436448 1 3 0
159 1 1 0.5897 2.0448057210731614 20.134021250415792 17.26610379735368 6 1 -4
257 1 1 0.5897 0.7178765681463208 21.52731752471213 20.650613042678046 -3 -2 -2
158 1 1 0.5897 3.038005047163939 20.613081393384633 18.303441620935054 6 1 -4
157 1 2 -1.1794 2.220722888913252 20.856655602220613 17.868707754734167 6 1 -4
256 1 2 -1.1794 1.6526596353347978 21.378271342666118 20.508205080136825 -3 -2 -2
302 1 1 0.5897 4.295493385691332 17.312467629843972 17.425889822640627 -3 1 8
258 1 1 0.5897 1.7358275696753374 21.262979559777087 19.561607980892596 -3 -2 -2
583 1 2 -1.1794 1.2846974314009754 17.61403092466582 20.06280590047927 4 -5 0
735 1 1 0.5897 2.6433291578168254 17.51870438681864 21.672236546261182 2 1 -6
584 1 1 0.5897 0.7850181362608972 18.19604116185156 19.49022771665195 4 -5 0
79 1 2 -1.1794 4.510319709476686 20.484510614465137 19.521890432483744 2 -1 -4
81 1 1 0.5897 4.511532571978082 19.986227931513312 20.339184157840116 2 -1 -4
585 1 1 0.5897 0.651223066981564 16.955046510134103 20.347005612235733 4 -5 0
479 1 1 0.5897 5.637337760525982 3.3295518954597823 2.9178647454135525 -2 3 0
478 1 2 -1.1794 5.761849345926122 2.731688592282401 3.6549609542347024 -2 3 0
438 1 1 0.5897 4.982653684853407 3.599983595826737 0.5884252830886076 -3 6 -1
632 1 1 0.5897 8.184480546914497 6.364622372780523 5.355741706622054 2 7 6
436 1 2 -1.1794 5.257715608447911 4.17121369829213 1.305577614034529 -3 6 -1
370 1 2 -1.1794 8.241706713964202 3.1831236542070642 5.170151525879173 6 6 0
480 1 1 0.5897 6.574108928182864 3.025333493526217 4.067584878764617 -2 3 0
371 1 1 0.5897 8.359774000497307 4.04407762998239 5.571526330046957 6 6 0
322 1 2 -1.1794 7.276262700712643 5.857820158864369 0.7103881529809233 9 1 -5
323 1 1 0.5897 6.555598018572775 5.227950016030327 0.6976240633525906 9 1 -5
786 1 1 0.5897 5.429975834151233 3.1941406991154437 5.480384309237354 3 5 5
458 1 1 0.5897 9.059002173522277 5.481502460870757 1.126064113203907 -1 0 -1
372 1 1 0.5897 8.769685245946683 2.593124367608095 5.708126891140366 6 6 0
13 1 2 -1.1794 6.599776349717882 3.6214147288921086 8.705906588755843 -1 -5 -4
15 1 1 0.5897 6.248626749856742 3.7504633195343247 7.824829111215739 -1 -5 -4
824 1 1 0.5897 7.307695633953273 5.584627223382922 9.611407995727559 -2 2 3
14 1 1 0.5897 5.966065066138939 3.046475642120355 9.13499024118894 -1 -5 -4
169 1 2 -1.1794 9.013497765581867 3.718274845165293 9.941832589056846 -3 5 -2
823 1 2 -1.1794 7.4167456213894685 6.496452575771705 9.881473898808014 -2 2 3
171 1 1 0.5897 8.157467830956676 3.648194931451051 9.519240907580341 -3 5 -2
170 1 1 0.5897 8.817293469782694 3.745704973123299 10.878319964612507 -3 5 -2
631 1 2 -1.1794 7.879152116483101 5.875280715282333 6.119690271985966 2 7 6
633 1 1 0.5897 6.97937103660564 6.173890609925706 6.25203191481489 2 7 6
784 1 2 -1.1794 5.160328130998178 3.175994681122467 6.398666632669343 3 5 5
9 1 1 0.5897 5.971845918975579 1.6244439462613656 6.8849081053859225 6 0 -3
855 1 1 0.5897 4.9001851680204505 6.623051995750144 6.619630834591418 -3 1 2
825 1 1 0.5897 8.272871621043343 6.51936578756216 10.309009841603745 -2 2 3
376 1 2 -1.1794 6.638534046172318 5.66223886390412 12.705821467045709 3 6 2
602 1 1 0.5897 7.86917200913777 2.903893808378089 12.35336577346136 5 1 -1
673 1 2 -1.1794 8.7052138359217 3.293527172386465 15.407529920304984 -3 -3 -1
674 1 1 0.5897 8.477391273229513 4.152886349279124 15.7623351127885 -3 -3 -1
601 1 2 -1.1794 8.441089600355069 3.6222850838963288 12.623705909199394 5 1 0
603 1 1 0.5897 7.8514773444761286 4.367065662615802 12.741653726452547 5 1 0
675 1 1 0.5897 8.401915480651985 3.3204923267973423 14.500039980323823 -3 -3 -1
402 1 1 0.5897 8.034515333202087 1.5780332758299305 15.76851239850075 -3 -1 0
377 1 1 0.5897 5.8144190817191 5.609757878528422 13.189921558486713 3 6 2
378 1 1 0.5897 6.720554914416555 6.586605696522613 12.471104432665218 3 6 2
795 1 1 0.5897 7.038441414945167 6.35075312174975 15.91475734628883 -4 3 2
793 1 2 -1.1794 7.750856970758554 5.715669179197187 15.988148103409433 -4 3 2
794 1 1 0.5897 8.46989941618742 6.206521065281359 16.38602115916454 -4 3 2
648 1 1 0.5897 7.491366859040864 5.192738623739098 19.07695255219312 -7 -1 -4
773 1 1 0.5897 5.945242988651845 3.550012400942726 17.833648577849793 -1 -2 3
646 1 2 -1.1794 8.130361497949433 5.846536442910407 19.360685267849448 -7 -1 -4
647 1 1 0.5897 7.76373928324604 6.681961956986068 19.070976553450805 -7 -1 -4
772 1 2 -1.1794 6.314248100466048 3.7766070793487914 18.687319931165447 -1 -2 3
324 1 1 0.5897 7.544255752873068 5.934468376893446 21.016177632509248 9 1 -6
146 1 1 0.5897 6.621516420879915 1.7438925567888048 18.620842485562427 -1 2 -3
774 1 1 0.5897 5.706482827729042 3.3945881144438355 19.32053615774197 -1 -2 3
106 1 2 -1.1794 4.960271176413597 2.636063566353271 16.566827936439154 -5 -1 5
107 1 1 0.5897 5.022023126817241 1.6874501692364097 16.679007666424887 -5 -1 5
239 1 1 0.5897 6.630929721319822 11.0997954793467 3.491793568856126 -7 -4 -3
465 1 1 0.5897 6.361066281150801 8.656501552735081 3.2723173961342695 8 4 -1
6 1 1 0.5897 8.733475576505207 8.073585996243455 1.1573676415067653 2 0 0
463 1 2 -1.1794 7.023782649301632 9.123449069752633 3.7812606413790135 8 4 -1
5 1 1 0.5897 8.585673674479194 9.54036869772155 0.8128994455048402 2 0 0
574 1 2 -1.1794 5.43410092201513 7.486443237303938 2.1135004918498854 2 2 0
604 1 2 -1.1794 7.84018422760954 11.234726643009715 1.0187788422897248 -3 2 2
464 1 1 0.5897 6.679462314200774 9.130655159211699 4.674371075067801 8 4 -1
762 1 1 0.5897 5.4092364926644825 11.43739319482733 1.82917385336352 3 -4 -1
576 1 1 0.5897 5.273238201030151 7.906064320521786 1.2683301010820829 2 2 0
575 1 1 0.5897 6.293894227946696 7.076600510193486 2.01820106437779 2 2 0
297 1 1 0.5897 8.572629840901339 7.961694399451646 3.9307012535618457 -1 3 0
162 1 1 0.5897 7.801706715113034 8.80739414899773 7.259104136321703 5 5 3
435 1 1 0.5897 5.78368032169669 10.627343933170515 9.408118710931276 2 2 -1
652 1 2 -1.1794 8.011539808891806 9.630919657057909 9.715772425819706 -2 3 2
433 1 2 -1.1794 5.320292117302993 10.102040037394326 8.755752424906746 2 2 -1
654 1 1 0.5897 8.120894371175236 10.430512352499958 10.230559651059753 -2 3 2
653 1 1 0.5897 7.856937604769106 8.945935522129671 10.366294108473218 -2 3 2
161 1 1 0.5897 6.517224776243983 9.604935423392027 7.181237482633175 5 5 3
854 1 1 0.5897 5.663361448409896 7.725889059262871 5.917292815260448 -3 1 2
434 1 1 0.5897 5.20604481375185 9.247931649404885 9.17252877179647 2 2 -1
160 1 2 -1.1794 7.148077375877584 9.131117088036326 6.639219152856985 5 5 3
395 1 1 0.5897 5.715895534050298 7.249011546352981 9.869063471056352 4 2 4
394 1 2 -1.1794 4.837283460581191 7.611017679472305 9.753983513659241 4 2 4
853 1 2 -1.1794 5.38846705440316 6.81429412699113 5.818840175457064 -3 1 2
528 1 1 0.5897 8.607255689204221 10.127142800465418 6.1467994935096515 -2 -4 -1
845 1 1 0.5897 8.07189035946272 8.139815916112486 15.210620233004512 -2 1 4
616 1 2 -1.1794 7.072228256385797 8.452178517427441 12.517667907832307 1 3 2
617 1 1 0.5897 6.43253576803161 9.149726055847117 12.374504439144111 1 3 2
196 1 2 -1.1794 6.373617876259842 8.165425179727146 15.794208748926104 0 -2 -1
686 1 1 0.5897 5.8990778688768355 11.458403671263701 15.446318473225821 9 -8 -3
618 1 1 0.5897 7.610814258487403 8.765885924304463 13.244150180338197 1 3 2
687 1 1 0.5897 6.518212853961568 11.76538231756909 14.099315390245918 9 -8 -3
197 1 1 0.5897 5.76826171620769 8.845331823110492 15.49836338965891 0 -2 -1
862 1 2 -1.1794 5.120677034186322 10.3163495169247 12.458094003167085 -1 -3 -1
864 1 1 0.5897 5.386617330279318 10.333908698681672 13.377458487347624 -1 -3 -1
844 1 2 -1.1794 8.903931229114086 8.487106787371161 14.88910331234824 -2 1 4
685 1 2 -1.1794 6.408930518443093 11.062299093107688 14.73962434297941 9 -8 -3
234 1 1 0.5897 9.078584111811443 10.944163380706694 11.930468440712767 -4 2 -2
665 1 1 0.5897 5.4366204020805755 11.578993043152968 11.190045865188642 1 -1 3
232 1 2 -1.1794 8.575211307707566 11.650410929025162 11.525391107803271 -4 2 -2
677 1 1 0.5897 7.576098343668536 9.284141504142966 18.73479904331908 3 -2 -2
676 1 2 -1.1794 7.264374009909698 8.466938023625122 19.123731833051387 3 -2 -2
678 1 1 0.5897 6.705834297683182 8.744498282071664 19.849866559107355 3 -2 -2
198 1 1 0.5897 6.421438233713326 8.28296708866138 16.743004994909676 0 -2 -1
407 1 1 0.5897 4.825504952247414 9.923439042206724 18.59597999537263 -6 -1 3
408 1 1 0.5897 5.110222986138635 10.916341233984811 17.489131784722467 -6 -1 3
714 1 1 0.5897 9.018671478494383 10.767721331141166 17.456132041743338 -5 -3 2
712 1 2 -1.1794 8.704689727192475 10.73325862715856 18.35972462155852 -5 -3 2
101 1 1 0.5897 5.455345463648277 9.797772817402375 21.43359840839343 3 -4 -2
406 1 2 -1.1794 5.516180986024666 10.482082636179074 18.239395997006625 -6 -1 3
100 1 2 -1.1794 5.301450877715823 8.945164932046298 21.026622755387173 3 -4 -2
708 1 1 0.5897 6.197471827110324 11.81288298296243 19.396520549596893 0 -1 -6
606 1 1 0.5897 8.33357620912663 11.821855319785309 1.5915767406728214 -3 2 2
228 1 1 0.5897 5.21991139735084 15.15043476947019 5.499928890857135 1 -3 -2
619 1 2 -1.1794 7.384914104166884 16.547805618120904 0.503732647115175 2 -1 4
384 1 1 0.5897 6.563057263295993 15.01113373268898 1.5783460512248266 -8 -2 -2
383 1 1 0.5897 5.451365760466933 14.398752096996631 2.403626041094341 -8 -2 -2
382 1 2 -1.1794 5.947251096385823 14.278469293263454 1.5937542763260382 -8 -2 -2
814 1 2 -1.1794 8.660928576567487 13.873317771356852 1.8051187753583289 -2 8 -3
815 1 1 0.5897 7.711205469368239 13.774226024764417 1.871931520440877 -2 8 -3
404 1 1 0.5897 8.380168827799558 15.979572601847417 4.532490500646324 4 -6 0
104 1 1 0.5897 6.458773469942935 16.407217791122655 4.483829009496666 1 1 4
103 1 2 -1.1794 7.039240624185448 16.782838882684672 3.8218318915256035 1 1 4
816 1 1 0.5897 8.979141949406317 13.744394516956666 2.698686274856493 -2 8 -3
240 1 1 0.5897 6.35703985418071 12.185514150055692 4.510708462077138 -7 -4 -3
238 1 2 -1.1794 6.1732309068656415 11.932706758415977 3.6059619096768656 -7 -4 -3
664 1 2 -1.1794 5.406059492501621 12.268201665590574 10.52648450630351 1 -1 3
23 1 1 0.5897 7.937011334716933 14.550807312665999 8.22379010426146 -5 4 3
227 1 1 0.5897 5.2278328506256955 15.229722118518245 7.011753717196535 1 -3 -2
513 1 1 0.5897 5.309467637813401 12.261885414373136 6.536199721780707 0 0 -5
192 1 1 0.5897 5.825103307060811 16.13425253153935 9.56699158962417 1 5 -4
726 1 1 0.5897 7.017555993551245 12.892483091691755 9.157762520434277 3 -6 4
725 1 1 0.5897 7.159789455909208 12.588535466352026 7.681495310981056 3 -6 4
724 1 2 -1.1794 7.670550804171582 12.791621780642863 8.465169520012164 3 -6 4
226 1 2 -1.1794 5.806100942130081 15.255147083090518 6.249375632643065 1 -3 -2
512 1 1 0.5897 6.1273132517847895 13.4361816148938 6.041999883107476 0 0 -5
22 1 2 -1.1794 8.199208068123712 15.40766477023654 7.887155855954023 -5 4 3
24 1 1 0.5897 7.502266545279394 15.649357479450511 7.277108206534933 -5 4 3
511 1 2 -1.1794 6.187364776421456 12.501410818835891 6.239154635344276 0 0 -5
190 1 2 -1.1794 5.632351392075072 16.84519858643325 8.955718582842815 1 5 -4
541 1 2 -1.1794 6.965683231758821 15.309842496287787 11.014213325065 -7 -3 1
723 1 1 0.5897 6.927538305500186 14.65538571029458 16.179778975710985 1 3 -3
117 1 1 0.5897 6.3471481241450975 16.632317207590212 12.331847658270835 -5 0 5
543 1 1 0.5897 7.083092786944556 14.46897644303161 11.456290715983286 -7 -3 1
116 1 1 0.5897 5.229339941818241 16.488931870502626 13.34274204836715 -5 0 5
306 1 1 0.5897 8.973834501769966 13.415519330008184 15.301918935638778 1 -5 -7
305 1 1 0.5897 8.794406899354202 14.917752269386853 15.357185257230675 1 -5 -7
692 1 1 0.5897 7.378577552764177 13.433357845967558 13.725432385895049 2 -1 4
722 1 1 0.5897 5.669064587801383 15.468245492389308 15.961924008453076 1 3 -3
693 1 1 0.5897 7.2770555262583505 12.585976990601562 12.474993022652972 2 -1 4
691 1 2 -1.1794 6.784816196274193 13.20977442907523 13.008685874210327 2 -1 4
184 1 2 -1.1794 9.072121300771203 16.685352669929834 15.644354956360177 -1 6 4
304 1 2 -1.1794 8.315747889620907 14.10344450076022 15.20211218375733 1 -5 -7
111 1 1 0.5897 5.09468729105326 13.34110397446391 16.184814718778092 -3 -2 -6
542 1 1 0.5897 7.787004116986979 15.777468610591056 11.165938203051097 -7 -3 1
707 1 1 0.5897 6.185847991535272 13.243694929518872 19.891129519662726 0 -1 -6
247 1 2 -1.1794 6.766540701910678 14.846117090500025 19.24634492733278 -1 2 -1
249 1 1 0.5897 6.581106370750831 14.880222880125467 18.30788322969714 -1 2 -1
828 1 1 0.5897 8.090784742270333 13.682684325560725 19.05604778119053 -3 2 2
706 1 2 -1.1794 6.157905627172674 12.336940471211935 20.196565875780003 0 -1 -6
248 1 1 0.5897 6.612274838168167 15.739294410859594 19.55407091993702 -1 2 -1
826 1 2 -1.1794 8.949982947738036 13.350456486264468 18.795903063253164 -3 2 2