#include		in.partitions
include		in.temp
variable        temperature equal 61.47
variable	tempDamp equal 100.0
include		in.pressure
variable        pressure equal 6821.1
variable        pressureDamp equal 1000.0 # This is 1 ps
include		in.seed
variable        seed equal 745823

units		real
atom_style	full
read_restart    restart.lmp.${pid}
read_restart    restart.lmp.0
Reading restart file ...
  restart file = 30 Jul 2021, LAMMPS = 30 Jul 2021
  restoring atom style full from restart
  triclinic box = (-3.0972974 -0.098681331 0.064443258) to (14.707296 22.678680 19.165555) with tilt (-0.094459521 -6.7994540 0.068093086)
  2 by 4 by 4 MPI processor grid
  restoring pair style lj/cut/tip4p/long/omp from restart
  restoring bond style harmonic/omp from restart
  restoring angle style harmonic/omp from restart
  1008 atoms
  672 bonds
  336 angles
Finding 1-2 1-3 1-4 neighbors ...
  special bond factors lj:    0        0        0       
  special bond factors coul:  0        0        0       
     2 = max # of 1-2 neighbors
     1 = max # of 1-3 neighbors
     1 = max # of 1-4 neighbors
     2 = max # of special neighbors
  special bonds CPU = 0.002 seconds
  read_restart CPU = 0.006 seconds

include 	in.setup
variable	out_freq equal 1000
variable	out_freq2 equal 10000
variable	out_freq3 equal 1000

timestep	2.0

neigh_modify    delay 7 every 1

include		in.tip4p
# This is TIP4P/Ice

# create groups ###
group ox type 2
336 atoms in group ox
group hy type 1
672 atoms in group hy

# set charges - beside manually ###
set group ox charge -1.1794
Setting atom values ...
  336 settings made for charge
set group hy charge 0.5897
Setting atom values ...
  672 settings made for charge

# ### TIP3P Potential Parameters ###
pair_style lj/cut/tip4p/long/omp 2 1 1 1 0.1577 8.5
pair_coeff 1 1*2 0.000 0.000
pair_coeff 2 2 0.21084 3.1668
bond_style  harmonic
bond_coeff  1 450 0.9572
angle_style harmonic
angle_coeff 1 55 104.52
kspace_style pppm/tip4p/omp 1.0e-5
pair_modify tail yes

thermo          ${out_freq}
thermo          1000
thermo_style    custom step temp pe etotal epair emol press lx ly lz vol pxx pyy pzz pxy pxz pyz enthalpy

restart 	${out_freq3} restart.lmp.${pid} restart2.lmp.${pid}
restart 	1000 restart.lmp.${pid} restart2.lmp.${pid}
restart 	1000 restart.lmp.0 restart2.lmp.${pid}
restart 	1000 restart.lmp.0 restart2.lmp.0


include         in.dump
dump            myDump all atom ${out_freq2} dump.water.${pid}
dump            myDump all atom 10000 dump.water.${pid}
dump            myDump all atom 10000 dump.water.0
dump            myDump2 all dcd ${out_freq2} dump.dcd
dump            myDump2 all dcd 10000 dump.dcd
dump_modify     myDump append yes
dump_modify     myDump2 append yes


variable natoms 	equal  "count(all)"                        # NUMBER ATOMS
variable H      	equal  "enthalpy/v_natoms"                 # ENTHALPY-per-atom
variable Vol      	equal  "vol/v_natoms"                 # volume-per-atom
fix AVG all 		ave/time ${out_freq} 1 ${out_freq} v_Vol v_H file vol_enthalpy.dat
fix AVG all 		ave/time 1000 1 ${out_freq} v_Vol v_H file vol_enthalpy.dat
fix AVG all 		ave/time 1000 1 1000 v_Vol v_H file vol_enthalpy.dat



fix 		1 all shake 1e-6 200 0 b 1 a 1
       0 = # of size 2 clusters
       0 = # of size 3 clusters
       0 = # of size 4 clusters
     336 = # of frozen angles
  find clusters CPU = 0.001 seconds
fix             2 all nph tri ${pressure} ${pressure} ${pressureDamp}
fix             2 all nph tri 6821.1 ${pressure} ${pressureDamp}
fix             2 all nph tri 6821.1 6821.1 ${pressureDamp}
fix             2 all nph tri 6821.1 6821.1 1000
fix             3 all temp/csvr ${temperature} ${temperature} ${tempDamp} ${seed}
fix             3 all temp/csvr 61.47 ${temperature} ${tempDamp} ${seed}
fix             3 all temp/csvr 61.47 61.47 ${tempDamp} ${seed}
fix             3 all temp/csvr 61.47 61.47 100 ${seed}
fix             3 all temp/csvr 61.47 61.47 100 745823


run             250000
PPPM initialization ...
  extracting TIP4P info from pair style
  using 12-bit tables for long-range coulomb (../kspace.cpp:340)
  G vector (1/distance) = 0.37958437
  grid = 24 27 32
  stencil order = 5
  estimated absolute RMS force accuracy = 0.0024354321
  estimated relative force accuracy = 7.3342315e-06
  using double precision FFTW3
  3d grid and FFT values/proc = 5355 672
Last active /omp style is kspace_style pppm/tip4p/omp
Neighbor list info ...
  update every 1 steps, delay 7 steps, check yes
  max neighbors/atom: 2000, page size: 100000
  master list distance cutoff = 10.8154
  ghost atom cutoff = 10.8154
  binsize = 5.4077, bins = 5 5 4
  1 neighbor lists, perpetual/occasional/extra = 1 0 0
  (1) pair lj/cut/tip4p/long/omp, perpetual
      attributes: half, newton on, omp
      pair build: half/bin/newton/tri/omp
      stencil: half/bin/3d/tri
      bin: standard
Per MPI rank memory allocation (min/avg/max) = 10.31 | 10.32 | 10.33 Mbytes
Step Temp PotEng TotEng E_pair E_mol Press Lx Ly Lz Volume Pxx Pyy Pzz Pxy Pxz Pyz Enthalpy 
40250000    61.837425   -5258.2271   -5134.5446   -5258.2271            0    6271.0368    17.804594    22.777362    19.101111    7746.2967     6351.063    5807.2679    6654.7796    124.46901   -548.55661    1279.4977   -4426.0944 
40251000    59.961319   -5259.5234   -5139.5934   -5259.5234            0     6985.029    17.765711    22.618891    19.174576    7705.1248    7961.0022     6957.159    6036.9256   -122.29575   -891.06856    324.07475   -4354.6763 
40252000    63.601701    -5263.227   -5136.0157    -5263.227            0    7144.7625    17.762304    22.685382    19.081707    7688.8715    7225.1993    7594.2356    6614.8524   -569.06707    9.2272838   -1141.7525   -4334.8428 
40253000    59.209012   -5261.7402   -5143.3149   -5261.7402            0    6360.5704    17.825541    22.684401    19.103225     7724.613      6749.25    6204.8738    6127.5875    209.13424   -231.13803   -599.03407   -4426.7613 
40254000    61.451256   -5269.0227   -5146.1126   -5269.0227            0    7083.7305    17.870184    22.639511    19.030728    7699.3038    7129.3959    6393.4334    7728.3622   -269.76232    -573.6692   -545.72226   -4350.7056 
40255000    58.393764   -5256.1109   -5139.3162   -5256.1109            0    6894.4406    17.849446    22.662579     19.08342    7719.5198    6359.2448    7185.0449     7139.032    171.17532   -246.16374    659.42805   -4363.1312 
40256000    62.617098   -5260.7256   -5135.4837   -5260.7256            0    6939.3184    17.869826     22.59937    19.109828     7717.443    7152.5754    7089.3791    6576.0008   -248.95546    325.16998   -209.45796   -4354.4565 
40257000    60.438249   -5262.9826   -5142.0986   -5262.9826            0    6490.9625     17.91068    22.719377     19.00053    7731.6861    5844.5655    6058.6573    7569.6648     -15.6316    110.89934   -192.17587   -4410.1861 
40258000    63.246835   -5264.6627   -5138.1613   -5264.6627            0    7131.2026    17.760386    22.756385    19.068923    7706.9374    7410.1144    7389.2799    6594.2133   -123.02691    98.813876    275.33737   -4336.6299 
40259000    64.369457   -5260.1442   -5131.3973   -5260.1442            0    7215.8593    17.851427    22.592361    19.125794    7713.5451     7611.294    7350.0563    6686.2275    -1161.029   -87.300319   -885.46682   -4319.6554 
40260000    61.746509   -5258.1432   -5134.6426   -5258.1432            0    6839.8538    17.891085    22.584939    19.097354    7716.6504    6632.5617    6607.3317    7279.6679    266.48376    336.07827    22.784609   -4364.8893 
40261000    62.810313   -5267.3634    -5141.735   -5267.3634            0    6753.9281    17.764585    22.669023    19.181632    7724.5542    6696.2538    6884.8172    6680.7133   -395.00061   -335.53389    696.77362   -4380.8733 
40262000    65.386377    -5259.299   -5128.5182    -5259.299            0    7245.0302    17.767277    22.662023    19.166461    7717.2306    7523.9858    6950.0563    7261.0484   -461.29213   -157.57948    628.40784   -4313.1053 
40263000    62.017194   -5253.8458   -5129.8038   -5253.8458            0    6849.9482    17.830741    22.698699    19.097118     7729.265    6251.6152    6692.4983     7605.731   -148.14173    177.74659    28.408088   -4357.6543 
40264000    64.921704   -5267.0478   -5137.1964   -5267.0478            0    7403.2801    17.715182    22.645873     19.16277    7687.6392    8247.9486    7411.3577    6550.5339    261.59063     347.6782   -788.20473   -4307.1677 
40265000    63.802261   -5267.0277   -5139.4153   -5267.0277            0    6999.4801    17.843237    22.641926    19.111486    7721.1408    6779.3542    6719.7829    7499.3033    561.05384    359.65239   -618.18854   -4351.2394 
40266000    61.741391   -5262.7134    -5139.223   -5262.7134            0    6096.7212    17.803323    22.688374    19.133876    7728.7171    6576.5925    5333.3711       6380.2   -118.06134   -922.51765    10.100228   -4452.0286 
40267000    61.363529   -5259.8587   -5137.1241   -5259.8587            0    7227.9115    17.842041    22.544045    19.159222    7706.4477    6077.9229    7788.5265    7817.2853    -186.8368    186.89164    174.54911   -4324.7745 
40268000    60.497473   -5266.9428   -5145.9404   -5266.9428            0    6332.2173    17.869212    22.599049    19.152208    7734.1826    6029.0945    6708.6708    6258.8864   -692.63297    354.16705   -585.06846   -4431.6972 
40269000     60.95219   -5262.8669    -5140.955   -5262.8669            0    6275.5002    17.806239    22.774817    19.075167    7735.6255    6693.9198    5979.7188     6152.862   -174.73261   -562.51831    1012.0224   -4432.9772 
40270000    64.012845   -5268.4915   -5140.4579   -5268.4915            0    6702.4799     17.69443    22.861463    19.080095    7718.2907    6925.5477    6312.3875    6869.5045     106.5681   -208.20391    1016.5867   -4386.0043 
40271000     60.44595   -5263.7769   -5142.8776   -5263.7769            0    7715.9846    17.776448     22.70805    19.060599    7694.1629    7603.6912    7396.9041    8147.3586   -18.309263    463.91593    413.31158   -4277.0556 
40272000    61.966536   -5262.6667    -5138.726   -5262.6667            0    6874.5546    17.772719    22.819462    19.021318    7714.3594    6324.9369    6608.2637    7690.4631   -135.67474   -120.57347   -379.42949   -4365.2972 
40273000    60.907153   -5267.9231   -5146.1012   -5267.9231            0    6221.6039    17.763575    22.828182    19.059403    7728.7806    6518.5039    5428.9774    6717.3304    80.481988    -810.4644    272.26887   -4444.8248 
40274000    63.075683   -5256.3458   -5130.1867   -5256.3458            0    6778.3734    17.734483    22.891125    19.040667    7729.7921    6835.6148    6506.6245     6992.881    887.31444    787.51755    194.35999   -4366.0533 
40275000    61.637163   -5257.3733   -5134.0914   -5257.3733            0    6122.9674    17.860727     22.76934    19.019554    7734.8144    6222.8403    5842.9982    6303.0636    993.74238   -441.01661    1039.2214   -4443.3941 
40276000    63.001778   -5262.6274   -5136.6161   -5262.6274            0    6616.5777    17.824265    22.710363     19.07329    7720.7822    7756.0414    5857.8345    6235.8571   -425.06611   -25.103015   -268.03611   -4391.5915 
40277000    63.460197    -5257.859   -5130.9307    -5257.859            0    6657.0772    17.862596     22.61251    19.127392    7725.9004    6473.0256    6844.1289    6654.0772   -362.80345    272.26618   -440.34913    -4380.849 
40278000    61.093279   -5265.1673   -5142.9732   -5265.1673            0    6480.5155    17.991178    22.517063    19.092282    7734.4451    6006.9086    6725.4544    6709.1836   -800.22905    85.029378   -974.80453   -4411.9779 
40279000    62.498175   -5263.3218   -5138.3178   -5263.3218            0    7030.7989    17.794456    22.684198    19.103393    7711.1411    7187.9955    7337.1341    6567.2672   -411.68044    512.14447    -303.2929   -4347.6406 
40280000    65.646531    -5267.411   -5136.1099    -5267.411            0    6260.1362    17.827834    22.789604    19.036986    7734.5236    5226.2536    5978.5383    7575.6168   -593.73247   -23.193889   -448.93126   -4429.9659 
40281000    63.252773   -5259.6721   -5133.1587   -5259.6721            0    6597.3094    17.847849    22.598551    19.182065    7736.8082     6196.792     6859.665    6735.4714   -637.75244   -401.06606    599.13701   -4388.7618 
40282000     64.00412   -5262.6314   -5134.6153   -5262.6314            0    6469.7813    17.802568    22.669375    19.134646    7722.2282    6904.2814    6868.6461    5636.4165   -85.170618   -74.115259   -355.12074   -4405.9835 
40283000    62.066415   -5264.1765    -5140.036   -5264.1765            0    6351.9587    17.796983    22.772513    19.086166      7735.28    6511.5473    6168.3541    6375.9748   -527.37371    245.30731    5.5545522   -4423.4644 
40284000    59.081107    -5262.452   -5144.2825    -5262.452            0    6386.8163    17.716136     22.82252    19.125304    7732.8741    7016.8322    5962.1261    6181.4907   -570.84274   -99.179861   -334.06367   -4424.0027 
40285000    60.746221   -5269.6595   -5148.1596   -5269.6595            0    6307.2317    17.838486    22.736631    19.096998    7745.4958    5923.0738    6166.1173    6832.5038   -125.43481     406.0545    299.74477    -4435.694 
40286000    59.847853    -5265.186   -5145.4829    -5265.186            0     6503.526    17.745496    22.793549    19.094902    7723.5599    7401.3985    6079.6869    6029.4926    110.19288     351.3464    35.682753   -4412.9244 
40287000     62.42185    -5265.005   -5140.1536    -5265.005            0     6385.606    17.752253     22.74624    19.148625    7732.1577    6870.8802    5875.6883    6410.2496    608.89722   -395.91906    231.15786    -4420.077 
40288000    60.422252   -5260.1204   -5139.2685   -5260.1204            0    7242.4869    17.862215    22.656713     19.07218    7718.4936    6561.8681    7029.1548    8136.4378   -405.59332    278.05674    1012.1977   -4324.0084 
40289000    60.245213   -5260.1955   -5139.6977   -5260.1955            0    7079.3157    17.774239     22.66185    19.147516    7712.5645    8127.7199    6945.1556    6165.0717    554.86528    288.94597    358.96648   -4343.4174 
40290000    59.568796   -5255.6132   -5136.4682   -5255.6132            0    7041.9029    17.854473    22.654255    19.034838    7699.2071    6915.8614    7167.9099    7041.9373   -647.91269    664.53275   -172.68108   -4345.7679 
40291000    59.557366   -5255.4055   -5136.2835   -5255.4055            0    6809.2084    17.880731    22.582607    19.120327    7720.6643    6974.2148    6925.9143    6527.4961     20.66447   -343.71991    860.86824   -4369.5804 
40292000    63.526344   -5262.1993   -5135.1388   -5262.1993            0    7817.3029    17.726055      22.6706    19.147525    7694.6302    8199.4194    7747.9274    7504.5618   -260.26178     37.71417   -1230.2215   -4257.8944 
40293000    63.970529    -5263.736   -5135.7871    -5263.736            0    6713.5298    17.835115    22.589661    19.172247    7724.2915    6384.6818    6552.2202    7203.6874    677.81307   -405.93949    616.29188   -4379.5021 
40294000    60.930734   -5263.7799   -5141.9109   -5263.7799            0    7999.5801    17.819349    22.508735    19.154352    7682.6385    8377.2164    8277.0056    7344.5183    73.910919    193.47994   -244.07812   -4245.6107 
40295000    60.335151   -5267.4934   -5146.8157   -5267.4934            0    6577.2057    17.792131    22.634797    19.181514    7724.8039    5509.0249    7165.7677    7056.8244    797.53207   -268.79352    718.13908   -4405.8386 
40296000    60.718419    -5265.042   -5143.5977    -5265.042            0     6387.644    17.795809    22.634424     19.15692    7716.3666    6635.7102    6916.0614    5611.1604   -269.84601   -298.06651    -111.5767   -4424.7623 
40297000    63.667323   -5267.7699   -5140.4274   -5267.7699            0    6775.5946    17.872356    22.631969    19.077701    7716.6743    7263.0659    6407.4608     6656.257    151.81811    208.31354    943.14266   -4377.9035 
40298000    59.434731   -5262.5814   -5143.7046   -5262.5814            0    7254.7426    17.822455     22.59029    19.126557    7700.6276    6772.6309     7476.721     7514.876    77.584329    72.994909    777.49445   -4328.9553 
40299000    62.086099   -5261.9135   -5137.7337   -5261.9135            0    6751.8594    17.898794    22.542713    19.212342    7751.9371    6269.5997    7124.5896    6861.3889   -179.14695    389.98575   -353.24414   -4374.4086 
40300000    58.796838   -5261.8871   -5144.2862   -5261.8871            0    6853.8162    17.837162    22.686251    19.060976    7713.1825    6611.5527    6857.6492    7092.2466   -1245.7093     137.3059    602.43943   -4373.3083 
40301000    64.297657   -5253.0934   -5124.4901   -5253.0934            0    7060.0525    17.694885    22.800962    19.125093    7716.2177    8199.0117    6213.1825    6767.9635   -334.89396    -1.729378   -664.27631   -4330.0004 
40302000    59.916395   -5263.3029   -5143.4627   -5263.3029            0    6715.8469    17.747696    22.766641    19.096535    7716.0586     6927.248    6657.5772    6562.7154    221.42691    90.765184    456.00631   -4387.7231 
40303000    57.174465   -5262.0432   -5147.6872   -5262.0432            0     6935.164    17.775132    22.736264    19.088388     7714.383    6995.1879    6974.1456    6836.1584   -218.32178    210.90477    253.58376   -4367.4371 
40304000    62.268327   -5254.2598   -5129.7155   -5254.2598            0    7631.8753    17.762613    22.762617    19.055773    7704.6981    7494.4553    7097.9513    8303.2195     299.7011    31.319688    147.01088   -4272.1589 
40305000    62.338276   -5259.6133   -5134.9291   -5259.6133            0    6207.8358    17.749419    22.895456    19.019919    7729.3346    6702.0144    5482.6162    6438.8769     1471.008    -329.4729    1209.5482   -4435.1544 
40306000    63.396882   -5254.0141   -5127.2126   -5254.0141            0    7512.3219    17.807198    22.657379    19.073767    7695.5863     7479.241    8013.5714    7044.1534    414.79955    207.94471    236.85161   -4284.0879 
40307000     59.26864   -5264.1121   -5145.5675   -5264.1121            0     6817.967    17.864898    22.652464    19.057807    7712.3889    6704.4964    6916.3822    6833.0224   -243.89378    57.774298    5.2652474   -4378.7011 
40308000    63.274674   -5265.8894   -5139.3322   -5265.8894            0    7040.7077    17.745126    22.722438    19.103908    7702.9349    6989.9493    7047.8195    7084.3541    338.57228    -187.7918   -763.41125   -4348.3833 
40309000    61.386749     -5263.22   -5140.4389     -5263.22            0     6743.018    17.781217     22.72118    19.105217     7718.703    8030.6539    6371.9479    5826.4521    44.461521    -11.51639   -797.31329   -4381.3817 
40310000    64.332626   -5270.1465   -5141.4733   -5270.1465            0    6608.5706    17.882026    22.658872    19.061859    7723.6088    6260.7717    6824.8202    6740.1198   -3.1462899   -116.12223    -1209.567   -4397.0779 
40311000    62.719979   -5259.2541   -5133.8063   -5259.2541            0    6398.8903    17.861163    22.657045    19.097415    7728.3643    6082.2444    6143.8451    6970.5813   -222.28523      54.4429   -601.61659   -4412.5857 
40312000    64.802879   -5256.7315   -5127.1177   -5256.7315            0    7034.2474    17.778059    22.695787    19.112289    7711.5609    7131.8629    6808.1851    7162.6941   -578.39248   -224.92466    315.18348   -4336.0097 
40313000    62.602722   -5258.9642    -5133.751   -5258.9642            0    7474.7782    17.827578    22.599186    19.148377    7714.6655      6886.02    8321.3769    7216.9377   -203.70735    6.1538749   -806.59842   -4292.7601 
40314000    62.957263   -5264.2114   -5138.2891   -5264.2114            0    7495.7815    17.839304    22.548644    19.139778    7699.0165    7339.8684    8228.7449    6918.7314   -429.30867    352.69604   -315.26395   -4296.6458 
40315000    59.824657   -5265.9553   -5146.2986   -5265.9553            0    6929.6385     17.83941    22.717895    19.051715    7721.1616    6695.2026     6448.525    7645.1879    502.67418   -67.834765    243.09648   -4365.9851 
40316000    65.115665   -5262.6467   -5132.4074   -5262.6467            0    6070.1543    17.747197    22.764648    19.168158    7744.1022     7069.906    5677.5182    5463.0387    572.78886   -317.80738     363.8604   -4446.8454 
40317000    59.879052   -5263.0745    -5143.309   -5263.0745            0    6496.0985    17.849351    22.663886    19.116943     7733.485    5599.3436    6907.8196    6981.1321   -227.21117   -247.41165    323.60508   -4410.6469 
40318000    65.312139   -5269.5941   -5138.9618   -5269.5941            0    6661.3518    17.865044    22.679015    19.061482    7722.9802    6798.0897    6403.0243    6782.9414   -297.42467   -23.085232   -500.64661   -4388.6821 
40319000    61.470097   -5269.5178     -5146.57   -5269.5178            0     6949.447    17.804549    22.650062    19.130357    7714.7781    6722.0982      7644.79    6481.4528   -3.7389099    309.91049   -1047.4293    -4364.673 
40320000    64.763251   -5267.3104   -5137.7758   -5267.3104            0     6598.215    17.872076    22.528087    19.160339    7714.4063    7077.5054    6696.0583    6021.0814    20.642582   -278.96982   -10.360705   -4395.4324 
40321000    62.935705   -5266.3349   -5140.4557   -5266.3349            0    6515.2123    17.837144    22.620516    19.166358    7733.3457     6591.811    6941.5587    6012.2672   -745.44248    662.84226   -768.61017   -4405.6511 
40322000    67.996164   -5262.4261   -5126.4254   -5262.4261            0    7034.9254    17.797039    22.727317    19.100065    7725.5744    7762.6161    6674.7739    6667.3862   -1086.5377    158.23192   -564.82375   -4333.8033 
40323000    59.757562   -5268.2044   -5148.6819   -5268.2044            0     6835.056    17.856575    22.609124    19.102003    7711.8895    7209.6211    7278.3534    6017.1934    350.19732    205.50854    713.10856   -4379.9432 
40324000    61.157645   -5272.2464   -5149.9235   -5272.2464            0    6051.9061    17.827576    22.655631    19.165114    7740.6934    5800.6193    6014.6542     6340.445   -1126.1123   -45.461619     341.7322   -4466.7234 
40325000    59.765355   -5262.2034   -5142.6653   -5262.2034            0    7099.9983    17.882055    22.536325    19.149651    7717.2287    6681.0718    7764.9147    6854.0085   -398.56607    228.07474   -14.938806   -4343.5756 
40326000    62.536124   -5263.3469   -5138.2669   -5263.3469            0    7099.9394     17.85181    22.518136    19.173232    7707.4378    7564.3778    6974.9635     6760.477    305.62265   -255.17326    376.21596   -4340.1977 
40327000    59.642674   -5269.9807    -5150.688   -5269.9807            0    6585.5245    17.894494    22.577003    19.119243    7724.2516    6465.8395    6747.4556    6543.2784   -432.45341   -761.15413    779.15039   -4408.8268 
40328000    63.954534   -5253.5885   -5125.6715   -5253.5885            0    8296.9431    17.818397    22.503201    19.176449    7689.1995    8396.4696    8584.8326    7909.5272    172.81788      48.4286   -145.87171   -4195.2599 
40329000    58.118165    -5263.856   -5147.6125    -5263.856            0    5645.9266    17.899317    22.616862    19.159051    7756.0894    4634.8236     5644.821    6658.1353   -318.45374   -453.78755    146.81461   -4508.9757 
40330000    63.321789   -5259.1212   -5132.4698   -5259.1212            0    7334.1118    17.880318    22.567319    19.111026    7711.5062    6674.0024    7763.4876    7564.8455    66.034869   -198.28926   -869.87117   -4307.6432 
40331000     63.09547   -5263.8715   -5137.6728   -5263.8715            0    6337.1656    17.986593    22.574996    19.013248    7720.2773    4436.2879    7334.1138    7241.0952     69.68246     354.0922   -237.37729   -4424.1566 
40332000    59.842132   -5262.8919   -5143.2002   -5262.8919            0    7542.5275    17.754694    22.572813    19.207609    7697.8986    8429.5769    7186.0619    7011.9439   -366.00163   -417.30314   -489.24053   -4296.4312 
40333000    60.260624   -5254.9493   -5134.4206   -5254.9493            0    6928.1069    17.857492    22.568156    19.136416    7712.1794    6992.6194    7211.0679    6580.6334    841.13379    79.692546    240.49306   -4355.1871 
40334000    62.608116   -5257.0427   -5131.8187   -5257.0427            0     6569.303    17.832977    22.571389    19.206574    7730.9354    6855.5182    6605.4337    6246.9572    465.16848   -305.71726    802.31516   -4391.1445 
40335000    56.950027   -5258.4601    -5144.553   -5258.4601            0    6815.2961    17.831679    22.615323    19.153803    7724.1385    7245.7065    7194.8375    6005.3441   -153.35238    394.00207     200.1292   -4376.8192 
40336000    62.789982   -5266.8461   -5141.2583   -5266.8461            0    7389.8252    17.810103    22.591705     19.16376    7710.7421     7764.106    7233.2318    7172.1377   -475.41105    78.940672   -320.41415   -4310.2484 
40337000    61.014675   -5266.4308   -5144.3939   -5266.4308            0    6233.8483    17.796896     22.71098     19.13127    7732.5712    6372.3064    6068.3148    6260.9237    304.68322   -217.34044    224.98691   -4441.3927 
40338000    63.349684   -5261.2042    -5134.497   -5261.2042            0    7233.6631    17.783578    22.813831    18.981678     7701.086    6954.2497     6712.314    8034.4256   -55.336586   -70.964823   -793.56776   -4322.0666 
40339000    57.736127   -5268.2567   -5152.7773   -5268.2567            0    6197.6182    17.781583    22.767648    19.092923    7729.6713    6501.0426    6222.9087    5868.9032   -501.47085    -41.97248   -546.15489    -4454.124 
40340000    60.503461   -5261.5906   -5140.5762   -5261.5906            0    7211.1295    17.757891    22.661368    19.140374     7702.433    7427.1046    7345.4815    6860.8022    1107.8285     703.7021     265.6371    -4330.535 
40341000    58.462966   -5258.6602   -5141.7271   -5258.6602            0    7017.4078    17.786596    22.725121    19.082453    7713.1762    6140.9339    7344.2572    7567.0324    58.683953    163.02993   -867.65026   -4352.3475 
40342000     61.80708    -5264.449   -5140.8272    -5264.449            0    6685.4259     17.74814    22.827487    19.045763    7716.3039    6589.1604    6471.7663    6995.3511    689.36023    376.21106   -895.09068    -4388.487 
40343000    61.476645   -5253.1446   -5130.1837   -5253.1446            0    7967.0624    17.767265    22.546171    19.195427    7689.3768    8333.3502    8160.3258    7407.5111    407.03662    344.47301    278.87388    -4236.744 
40344000    64.097828   -5267.4381   -5139.2345   -5267.4381            0    6756.3106    17.750306    22.691196    19.169976    7721.1999    8384.7761    6040.4782    5843.6777    516.06048    -774.2363   -418.21981   -4378.4349 
40345000    59.719626   -5271.6666     -5152.22   -5271.6666            0    6349.8428    17.858595    22.686332    19.097436    7737.2501    7561.3782    5591.4269    5896.7234    243.04206    -599.0134   -858.40558   -4435.7046 
40346000    63.062219    -5263.823   -5137.6907    -5263.823            0    6788.8971    17.888824    22.530191    19.161799    7722.9454    6575.9621    6882.1048    6908.6244    541.49384    70.502984   -633.59572   -4373.0489 
40347000     65.45654      -5271.5   -5140.5788      -5271.5            0    6626.2915     17.82448    22.665302    19.081432    7708.8457    5998.6613    6914.4481    6965.7652    146.57801   -140.49986    733.48502    -4395.614 
40348000    60.370254   -5260.0761   -5139.3281   -5260.0761            0    7041.3696    17.723301    22.656868    19.209531    7713.6733    7595.5422    7188.5835     6339.983     187.0689    123.09239    -442.0008   -4347.2021 
40349000    62.286266   -5264.5033   -5139.9231   -5264.5033            0    7238.2505    17.856747    22.651954    19.052882    7706.7042    6942.9172    7141.0632    7630.7711     71.27186   -160.63386   -145.17876   -4326.3844 
40350000    60.154112   -5263.1122   -5142.7965   -5263.1122            0    6544.5033    17.890444    22.608543    19.134772    7739.5728    5337.4326    6923.2502    7372.8271     44.92763    213.27922    1233.1227    -4404.094 
40351000    58.819723   -5270.1981   -5152.5514   -5270.1981            0    6771.5909     17.82822    22.608067    19.179052    7730.3391    7530.5747    6353.7662    6430.4317    696.97444   -83.750638    291.00543   -4389.1286 
40352000     61.09497   -5261.4713   -5139.2738   -5261.4713            0     6267.122    17.857866    22.623813    19.135864    7731.1386    7235.2036    5877.5165    5688.6461   -252.38688   -99.958799   -110.13834   -4432.6513 
40353000     63.81714    -5263.378   -5135.7358    -5263.378            0    7182.4168    17.789859    22.688798    19.101386    7709.9022    7115.0766    6898.2597    7533.9141     28.43841   -142.37582    389.28462   -4328.1375 
40354000    63.256308   -5264.2025   -5137.6821   -5264.2025            0    6407.5853    17.808441    22.768049    19.074766    7734.1206    6765.5828    5817.7558    6639.4171   -91.981283   -523.53798    555.13527   -4414.9435 
40355000    62.998792   -5254.0664    -5128.061   -5254.0664            0    7554.5578    17.773729    22.662961    19.138502    7709.0909    7914.9807    7645.8569    7102.8358    269.65356    8.1442391   -294.99762   -4278.7082 
40356000    59.235364   -5264.7844   -5146.3064   -5264.7844            0    6507.4573    17.786177    22.767699    19.045317    7712.4073    5915.4897    6658.5907    6948.2914    336.87633    152.79619   -312.16067   -4414.3635 
40357000    60.882598   -5258.1597    -5136.387   -5258.1597            0    7528.2307    17.766059      22.8116    19.029235    7712.0207    6929.3004    7653.8309    8001.5608    251.56122    1258.7658    824.10221   -4289.6725 
40358000    61.124017   -5256.7604   -5134.5048   -5256.7604            0    7275.0599    17.730519    22.706179    19.139781    7705.5289     6956.849     7637.245    7231.0856   -393.90842   -41.944223   -827.03024   -4316.9537 
40359000    59.609281   -5258.8345   -5139.6086   -5258.8345            0    7473.1283    17.826948    22.630052    19.116881    7712.2234    6273.4463    8090.9926    8054.9459   -42.430272    37.454775    1470.6628   -4299.0695 
40360000    62.159172   -5259.4663   -5135.1402   -5259.4663            0    7023.6389    17.875571    22.663772    19.045059    7715.6842     6122.802    7168.5568    7779.5579      159.164    576.80272    181.36663   -4344.8029 
40361000    64.080661   -5258.7689   -5130.5997   -5258.7689            0    6764.5195    17.778867    22.727574    19.131535    7730.4892    7791.7454    5763.5183    6738.2947    -455.1049   -533.98511   -405.17479   -4367.9592 
40362000    61.725859   -5263.6101   -5140.1508   -5263.6101            0    5669.5035    17.806162     22.75934    19.112898    7745.6263    5499.1367    5379.9263    6129.4476    86.900415   -437.72925    625.31767   -4499.7122 
40363000    61.523947   -5262.5832   -5139.5277   -5262.5832            0    7830.8434    17.870013    22.578739    19.064599    7692.2297    6786.1361    8372.3397    8334.0542   -487.74787   -80.277914   -592.29077    -4261.038 
40364000    64.682428   -5264.6456   -5135.2728   -5264.6456            0    7073.5034    17.790524    22.665805    19.135745    7716.2315     7789.428    6342.2645    7088.8176    -277.3028   -532.14752   -1106.3642   -4339.2679 
40365000    62.575826   -5269.6492   -5144.4898   -5269.6492            0    4916.5985    17.865433    22.784159    19.090416     7770.732    4706.2489    4932.5414    5111.0052    448.25421     499.3075    93.006238   -4587.3008 
40366000    58.633643   -5262.6319   -5145.3574   -5262.6319            0    7016.0164    17.818671    22.640437     19.11376     7710.921     7200.429    6872.3326    6975.2876   -127.52695   -392.00324    -239.9479   -4356.3651 
40367000    57.674209   -5263.9744   -5148.6188   -5263.9744            0    6261.8182    17.881533    22.632666    19.104247    7731.6182    5916.5809    6885.5151    5983.3586    552.56987    676.16817    1416.5422   -4442.5505 
40368000    59.009404   -5262.5869   -5144.5608   -5262.5869            0     6740.022    17.835229    22.628129    19.115209    7714.4756    7108.3352    6806.6974    6305.0335    182.34151    193.32896   -72.131934   -4386.2563 
40369000    59.290203   -5264.8232   -5146.2355   -5264.8232            0    6463.1418    17.869057    22.641304    19.107582    7730.5216    6880.3726    6176.1641    6332.8888   -144.09592   -811.31018    416.39388   -4417.5697 
40370000    64.174096   -5267.6241    -5139.268   -5267.6241            0    6726.7152    17.872205    22.568344    19.126199    7714.4768    5754.0906    6904.2987    7521.7564    1213.1532   -542.63024    477.76011   -4382.4605 
40371000    61.320685   -5269.1351   -5146.4861   -5269.1351            0    6797.7514    17.790609    22.655096    19.166006    7724.8197     6749.689    7058.2051    6585.3601   -278.92614    324.51994    62.679675   -4380.6612 
40372000    62.687997   -5261.0396   -5135.6559   -5261.0396            0    6039.0633    17.897629    22.609962    19.133456    7742.6339    6444.1255    6147.3968    5525.6677    65.105216    272.64037    637.16265   -4453.7347 
40373000    61.210457   -5265.0604   -5142.6319   -5265.0604            0     6221.491    17.868377    22.581457    19.170116    7735.0266    5905.8661    6629.3002    6129.3068    74.815846    130.45683     550.8018   -4440.8015 
40374000    59.527318    -5257.737    -5138.675    -5257.737            0    6564.1768    17.881885    22.676327     19.08696    7739.6761    6772.3965    5948.3697    6971.7641   -947.54519    33.199996    366.71984    -4397.742 
40375000    63.882116   -5262.2954   -5134.5233   -5262.2954            0    6811.6809    17.848319    22.653853    19.102182    7723.6464    7903.4018    6516.9876    6014.6534   -300.11047   -238.78176    418.74955   -4367.2456 
40376000    61.228493   -5264.4565    -5141.992   -5264.4565            0    6557.0736    17.774143    22.700611    19.143093      7723.93    6198.2743    6803.4412    6669.5051     288.4167   -76.366948    359.70927   -4403.3665 
40377000    61.037832   -5268.4004   -5146.3172   -5268.4004            0    5347.8133    17.814136    22.668601    19.184569    7747.1421    5691.3098    5414.8269     4937.303   -239.54803   -425.90547    451.10737   -4542.0992 
40378000    59.117232    -5260.787   -5142.5452    -5260.787            0    7498.3368    17.775176    22.746186    19.064931    7708.2845    7342.7322    7386.8846    7765.3937    719.23967   -86.752793   -336.22388   -4299.6015 
40379000    65.475106   -5259.1507   -5128.1924   -5259.1507            0    7542.9662    17.757526    22.788494    19.043386    7706.2348    7262.6932    6940.6195    8425.5859    76.537565   -227.78046    489.60004    -4280.457 
40380000    60.261681   -5265.3674   -5144.8366   -5265.3674            0    7726.4609    17.788609    22.650845    19.088671    7691.3413    7136.0415    8159.9762    7883.3651   -344.39273    601.88272   -397.51136    -4278.157 
40381000    58.401259   -5265.7192   -5148.9095   -5265.7192            0    6443.2211    17.739892    22.832454    19.073736    7725.7262    6083.2336     6771.295    6475.1347   -368.37655    468.13535    325.27021   -4422.9402 
40382000    62.345053   -5257.5668    -5132.869   -5257.5668            0    6667.9969    17.787416    22.781856    19.032386    7712.5006    5938.2272    6988.2418    7077.5217    216.02869    293.18823    372.30365     -4382.86 
40383000    64.156483    -5261.341   -5133.0201    -5261.341            0     7032.342    17.812226    22.713255    19.065866    7713.5467    6674.5777    7759.0466    6663.4016   -532.72366    357.46791   -460.87588   -4341.9227 
40384000    59.273554   -5264.3824    -5145.828   -5264.3824            0    6130.4645    17.749176    22.785115    19.107198    7727.2761     7043.421     5812.502    5535.4705   -315.01856    297.17746    595.63879    -4454.959 
40385000    62.641252   -5270.9735   -5145.6832   -5270.9735            0     6262.667    17.870107    22.688306    19.073568    7733.2343    4983.1536    7291.7976    6513.0499   -332.94627    638.03176    148.05314   -4439.3716 
40386000    64.286632   -5262.5283   -5133.9471   -5262.5283            0    6400.7175    17.757148     22.73654    19.131618    7724.1251    6972.3521    5997.0693    6232.7311    47.182973   -219.50097    323.86214   -4412.9162 
40387000    60.307639   -5263.5839   -5142.9612   -5263.5839            0    7385.6978    17.761544    22.701532    19.129327    7713.2173    8122.3591     7125.079    6909.6553    484.42526   -269.26679    290.79039   -4312.1488 
40388000    58.692809   -5259.2133   -5141.8204   -5259.2133            0    6565.9871    17.768554    22.747958    19.106363    7722.7596    7300.6508    6118.1869    6279.1237   -629.30954    448.13638    345.30032    -4402.303 
40389000    56.710725   -5262.7977   -5149.3693   -5262.7977            0    6170.5635     17.85439    22.797076    19.017177    7740.5212    5698.4328    5323.8998     7489.358   -353.11414   -436.88907     121.0003   -4452.7894 
40390000     63.40518   -5265.3355   -5138.5173   -5265.3355            0    6284.6147    17.810205     22.77385     19.07541    7737.1188    6812.3625     5986.031    6055.4505   -310.35632    366.68733   -998.64467   -4429.3743 
40391000    60.090704   -5260.3672   -5140.1783   -5260.3672            0    7354.6029      17.7793    22.744916      19.0598    7707.5672     6835.542    7164.0512    8064.2155   -573.33397    438.17318     1103.011   -4313.4698 
40392000    65.150666   -5270.7702   -5140.4608   -5270.7702            0    6796.6936    17.797627    22.777975    19.043087    7719.9514     7252.932      6335.34    6801.8088    329.79008   -435.35037   -319.00669   -4375.2376 
40393000    59.771974   -5265.1172   -5145.5658   -5265.1172            0     6197.254    17.699306    22.806532    19.162676    7735.2016    6939.6449    5442.0385    6210.0785    136.49284   -13.352777    239.29121   -4446.4537 
40394000    63.537166   -5266.9145   -5139.8323   -5266.9145            0    7144.9424    17.781332    22.656236    19.148466     7714.114    7603.2941    7202.7069    6628.8261     -331.109    136.63029    -1223.476   -4336.0088 
40395000    62.080489   -5266.4971   -5142.3285   -5266.4971            0    5933.6061    17.820693    22.801582    19.023379    7729.9594    6753.0732    5009.8094    6037.9358    136.66692    -595.9981   -125.90245   -4473.4121 
40396000    59.370549   -5260.9095    -5142.161   -5260.9095            0    6488.2481    17.821095    22.702536    19.085349    7721.6277    5730.8394    6794.8527    6939.0522   -268.40139    433.69777   -48.677127   -4411.5063 
40397000    56.620155   -5259.8494   -5146.6021   -5259.8494            0    7238.5716    17.836152    22.640875    19.122598    7722.2038    7704.0152    7082.1308    6929.5688    603.49225    171.61561    1228.1699   -4331.3911 
40398000     58.74222   -5261.9037    -5144.412   -5261.9037            0    6162.1472    17.755533    22.755643    19.125832    7727.5739    7250.4036    6049.8047    5186.2333    591.65757   -305.04093   -250.41471   -4449.9458 
40399000    62.517568    -5259.155   -5134.1121    -5259.155            0    6653.0891    17.849342    22.668136    19.096433    7726.6326    6464.7493    7000.8308    6493.6873    648.09379    238.47851    151.54732   -4384.4087 
40400000    60.774025     -5261.69   -5140.1344     -5261.69            0    7234.3109    17.833648    22.600383    19.096384    7696.7451    7107.6313    7379.8184     7215.483     233.3646   -333.72733    158.66522   -4328.0893 
40401000    62.756265   -5252.3397   -5126.8195   -5252.3397            0    7695.1839    17.830858    22.615276    19.098457    7701.4485    7420.1617    7289.0761     8376.314   -415.95136    306.84764   -833.90928   -4262.5139 
40402000    61.294338   -5263.1543    -5140.558   -5263.1543            0    6314.5283    17.803585    22.739725    19.118209    7739.9806    6928.6337    6004.8247    6010.1265   -491.54151    -769.3909   -29.587677   -4427.7761 
40403000    61.234269   -5257.4758   -5134.9997   -5257.4758            0    6466.6986    17.829045    22.730678    19.049624    7720.1704    6259.5785    6388.3335    6752.1839     478.4945    87.717273    26.899221   -4406.9092 
40404000    61.121113   -5261.4795   -5139.2297   -5261.4795            0    6830.1799    17.854506    22.622176    19.078969    7706.1439    7548.0426     6852.351    6090.1462     359.9638    73.128867   -1380.7648   -4371.6117 
40405000    61.611976   -5269.3118   -5146.0802   -5269.3118            0    5870.2482    17.867017    22.599059    19.175211    7742.5241    6054.8372    6093.3462    5462.5614    987.12687   -177.22646   -216.30686   -4483.2307 
40406000    60.827103   -5269.1076   -5147.4458   -5269.1076            0    6882.9564    17.858642    22.580329      19.1102    7706.2646    6188.0872    6919.0424    7541.7397    334.08683   -825.37922   -604.66739   -4373.8844 
40407000    63.253381   -5268.3031   -5141.7886   -5268.3031            0    6198.4257    17.815966    22.547852    19.242181    7729.8102    6855.1471    6789.7045    4950.4256   -256.59035    106.92594   -1904.7159   -4443.0316 
40408000    60.267696   -5266.0377   -5145.4948   -5266.0377            0    6868.4678    17.782616    22.597946    19.166138    7701.9242    7170.1792    6922.2789    6512.9455    613.10815   -287.21063    286.69207   -4373.9965 
40409000    59.867312   -5264.8086   -5145.0666   -5264.8086            0    6546.2595    17.836583    22.648329    19.106222    7718.3174    6870.3921    6296.3205     6472.066   -280.59322   -691.23978   -401.40803   -4408.1951 
40410000     62.44564   -5258.9802   -5134.0812   -5258.9802            0    7679.0345    17.827706    22.658093     19.02892    7686.5765    7075.9882     7373.066    8588.0491     332.5674    114.51887   -138.55586    -4273.255 
40411000    61.417951   -5270.0564   -5147.2129   -5270.0564            0    6296.0312    17.847482    22.643348    19.130052    7730.9655    7349.7757    5847.7202    5690.5979    213.54477   -15.728725   -344.87024   -4437.3467 
40412000    61.561905   -5262.3307   -5139.1992   -5262.3307            0     6898.756    17.786641    22.771516     19.06615    7722.3394    7335.4385    6730.6734    6630.1561    93.941505    4.9310114    1450.6393   -4362.2448 
40413000     59.66721   -5260.8009   -5141.4591   -5260.8009            0    6965.7041    17.773722    22.725491    19.098124    7714.0486    7872.8519    6519.0004      6505.26   -49.493511   -319.54297   -195.50921    -4357.807 
40414000    62.105443   -5268.1095    -5143.891   -5268.1095            0    6274.6415    17.839935    22.667363    19.088145     7718.946    6175.2839     6699.293    5949.3476    289.33159    139.05575    503.55495   -4437.5363 
40415000     61.29631   -5261.7823   -5139.1821   -5261.7823            0    7222.4323     17.75326    22.793168    19.025901    7698.8885    7678.9981    6631.5772    7356.7215   -410.73193     6.070154    214.22015   -4328.2445 
40416000    65.094471   -5256.6068   -5126.4098   -5256.6068            0    7746.5497    17.729972     22.66386    19.129652    7686.8606    7873.1393    7609.9389    7756.5708    818.10042    143.57898    334.47828   -4257.9831 
40417000    60.605054   -5262.4182   -5141.2006   -5262.4182            0    7696.9831    17.813954    22.699242    19.019682    7690.8607     7346.852    7015.6995    8728.3977    105.83677   -545.79914    115.33563   -4277.8815 
40418000     61.25397   -5258.5111   -5135.9956   -5258.5111            0    6715.2187    17.790955    22.686969    19.160733    7733.7095    6914.5182    7173.5576    6057.5802    202.70581    513.23828    31.535408   -4378.5981 
40419000    63.377501   -5253.3332   -5126.5703   -5253.3332            0    7858.0734    17.820391    22.688029    19.022305    7690.8997    8332.9003    7670.8065    7570.5133    888.12647     673.5993    450.52181   -4245.1783 
40420000    59.861338   -5257.5983   -5137.8683   -5257.5983            0    7121.7281    17.835341    22.610573    19.093132    7699.6353    6671.9621    7575.8043    7117.4179    446.33282    -34.27037     359.3588   -4338.1603 
40421000    63.215739   -5263.1312   -5136.6919   -5263.1312            0    6441.2865    17.784347    22.734408    19.099081    7722.0754    6123.5437    6332.1684    6868.1474   -332.87365   -191.20703    725.71438   -4411.2835 
40422000    60.127749   -5265.7987   -5145.5358   -5265.7987            0      6583.07    17.779778    22.728978    19.112297    7723.5884    6988.3799    6231.9238    6528.9063    597.61286    369.61314    271.07178   -4404.0148 
40423000    58.923985   -5264.7306   -5146.8754   -5264.7306            0    6016.6739    17.823781    22.675001    19.138982     7735.101    6019.2143    6221.1472    5809.6603   -557.23074   -766.80866   -1243.3867   -4468.1433 
40424000    62.245801   -5266.8938   -5142.3945   -5266.8938            0    7524.1181    17.776072    22.674801    19.124734    7708.5851    8367.1784    7323.1154    6882.0605    743.73704    288.53796    20.963417   -4296.5195 
40425000    62.311156   -5265.6607   -5141.0307   -5265.6607            0    6932.7715     17.73588    22.781867    19.073506    7706.7732    7325.5045    6545.7253    6927.0847   -310.02408    150.13355     446.9185   -4361.8192 
40426000    61.162277   -5265.9464   -5143.6143   -5265.9464            0    6060.7217    17.752242    22.739202    19.169389    7738.1421    6796.9024    5953.8553    5431.4076   -201.33942    60.505115    492.71161   -4459.6445 
40427000    63.649265   -5262.7234    -5135.417   -5262.7234            0    6915.3725    17.843657    22.643251    19.116019    7723.6059    6674.4453    6605.0666    7466.6057    103.41193   -692.32624    -93.95566   -4356.4634 
40428000    63.220835   -5261.7497   -5135.3002   -5261.7497            0    7002.9616    17.743326    22.773063    19.053564    7698.9713    7081.0422    7090.1396    6837.7032    792.62877    500.60299    733.91977   -4348.9964 
40429000     64.03916   -5265.4297   -5137.3434   -5265.4297            0    6915.8487    17.819024    22.777221    19.017253    7718.4914    6357.8761    7061.1442    7328.5259     452.9373    67.952322   -282.12304   -4358.8521 
40430000     60.40924   -5261.2295   -5140.4036   -5261.2295            0    6208.0901      17.8415     22.69274    19.106737    7735.7928    6028.3517    6061.1481    6534.7705     333.3249   -272.68027   -910.96827   -4440.0155 
40431000    60.803816   -5263.7834   -5142.1683   -5263.7834            0    7630.9248    17.765599    22.739671    19.061219    7700.4247     7327.329    7380.6781    8184.7672    178.71521    271.15799   -128.23528   -4285.1941 
40432000    61.160558     -5260.51   -5138.1813     -5260.51            0    7168.0983    17.843448     22.62853    19.114206    7717.7618    6895.1698    7174.3743    7434.7506   -9.1979213   -112.53335   -1115.7114   -4331.3714 
40433000    58.634713   -5261.7998   -5144.5231   -5261.7998            0    7453.1618    17.917005     22.57044    19.064892    7709.7406    8116.7934    7410.2564    6832.4357    655.20312    24.297038    785.42222   -4306.4996 
40434000     59.68354   -5269.0953   -5149.7208   -5269.0953            0    6197.2142     17.82664    22.629257     19.20331    7746.6849    6811.0966    6026.7511    5753.7949     28.20749   -253.83707    1166.4942   -4449.5753 
40435000    65.440403   -5263.0063   -5132.1174   -5263.0063            0    7519.0943    17.887975    22.519756    19.135318    7708.3347    8214.3322    7341.5348     7001.416   -714.87015    427.73348   -877.37445   -4286.8347 
40436000    61.938702   -5256.3632   -5132.4782   -5256.3632            0    8295.1491    17.927666      22.4932    19.057322     7684.876    7736.2397    8732.9947    8416.2127   -303.81533    55.910735    369.05009   -4202.7907 
40437000     62.15048   -5269.3592   -5145.0505   -5269.3592            0    6550.6787    17.792752    22.683545    19.134899    7722.8967    6309.5951    6437.4247    6905.0163   -45.885124    17.460259     577.7728   -4407.2441 
40438000    65.764737   -5265.2966    -5133.759   -5265.2966            0    6815.2249    17.755569    22.625693    19.197992    7712.4486    7459.1713    7446.5253    5539.9783   -392.61864    375.92604   -56.478076    -4367.195 
40439000    59.029149    -5268.325   -5150.2594    -5268.325            0    5965.1526    17.920865    22.539649    19.163193    7740.5887    4999.0439    6462.9538      6433.46   -1215.8523   -238.41715    137.92848    -4476.862 
40440000    64.504015   -5257.2998   -5128.2838   -5257.2998            0    7322.7265    17.863482    22.619553    19.072823    7706.6407    7012.6944    7146.0797    7809.4052    25.394582   -81.166789   -57.392118   -4305.2573 
40441000    61.186141   -5262.3179   -5139.9381   -5262.3179            0    6757.3591    17.811762    22.696547    19.126601     7732.225    6669.2565    6563.3983    7039.4227    550.64608   -23.269097    -475.4622   -4377.9339 
40442000    62.090424   -5264.5441   -5140.3556   -5264.5441            0    5936.3888     17.87356    22.635154    19.152786    7748.6574    5872.2524    6268.7132    5668.2008    317.89998    931.37539    1120.1117   -4469.5068 
40443000    60.959857    -5264.192   -5142.2648    -5264.192            0    6619.4097    17.825963     22.62783    19.174991    7734.4792    6989.6495    6692.1231    6176.4566    724.31556   -457.14197    1253.6723    -4395.599 
40444000    62.298823   -5263.5333    -5138.928   -5263.5333            0    6673.2671    17.814917    22.772533    19.043238    7725.6661    6490.9299    6569.8483    6959.0231   -823.89031    131.37967   -337.89998   -4387.0448 
40445000    59.543327   -5258.8149   -5139.7209   -5258.8149            0    7064.6173    17.731751    22.725975     19.13513    7710.9087    7955.2737    6954.4169    6284.1612    92.282934    408.27763     142.0363   -4345.2645 
40446000    58.914341   -5261.3749    -5143.539   -5261.3749            0    7314.2442    17.803056    22.645587    19.116037    7706.8338    7746.1883    7108.8434    7087.7009   -611.97273    162.47922   -678.28627   -4321.4452 
40447000    60.807864   -5259.9545   -5138.3313   -5259.9545            0     7275.247    17.778625    22.727588    19.086322    7712.1196    6860.4535    7316.6171    7648.6703    678.01886    408.86453   -586.69881   -4320.0599 
40448000    61.143587   -5263.0021   -5140.7074   -5263.0021            0    6800.6871     17.82385    22.706316    19.090155    7726.0524    7420.5126     6964.403    6017.1455    -721.0084    121.54679   -787.35448   -4374.4294 
40449000     63.66592   -5262.8293   -5135.4896   -5262.8293            0    6972.4467    17.773027    22.616919    19.211729      7722.56    7513.2573    6948.7318    6455.3509   -362.16931    -310.3707   -358.43801   -4350.2135 
40450000    62.153269    -5266.817   -5142.5028    -5266.817            0    6373.6213    17.816722    22.832036    19.011843    7733.8663    6846.7292    5598.1047    6676.0299    243.48315    -265.5898    838.65402   -4423.6188 
40451000    60.452069   -5262.7001   -5141.7885   -5262.7001            0     6383.789    17.778397    22.782268    19.089296      7731.78    7121.2786    5646.6597    6383.4285   -256.58172    -89.72069     439.2542   -4421.9519 
40452000    60.997801   -5264.4213   -5142.4181   -5264.4213            0    6528.7798     17.75837    22.783063    19.076071    7717.9884    7156.3177    6400.6509    6029.3708   -80.646158     106.1609   -235.01069   -4407.5456 
40453000    61.400601   -5268.3833   -5145.5745   -5268.3833            0      6410.96    17.803384     22.67812    19.122057    7720.4786    6875.5548    6134.6897    6222.6354    227.58047   -563.81046    171.38518   -4423.7308 
40454000     59.19649    -5267.607   -5149.2067    -5267.607            0    6916.0436    17.835025    22.583202    19.148048    7712.2973    6303.1612    7101.3997    7343.5701   -108.35106   -477.46268   -751.84684   -4371.3182 
40455000    61.071806   -5270.4017   -5148.2506   -5270.4017            0    6218.3692    17.951371     22.56496     19.08361    7730.2352     5922.596    6257.7776    6474.7339    158.67306     283.2116    367.30591   -4447.2069 
40456000    60.252896   -5264.1335   -5143.6203   -5264.1335            0    7022.3404    17.782885    22.655435    19.149451    7714.9115    6212.1664    7992.9144    6861.9406     225.2048    257.01923    66.062033   -4353.5082 
40457000    63.168617   -5262.2279   -5135.8828   -5262.2279            0    8320.2461    17.712472    22.664289    19.124661    7677.4148    8962.7631    8225.9644    7772.0106    808.62991    248.61448   -86.494024    -4204.288 
40458000    60.993759   -5257.5838   -5135.5887   -5257.5838            0    6733.8214    17.960611    22.590285     19.04777    7728.3529    5847.0104    6549.3841    7805.0697    295.17055    209.10319    199.84112    -4376.619 
40459000     62.23376   -5263.8746   -5139.3994   -5263.8746            0    6573.2699    17.881886    22.568544    19.137146     7723.142    6237.7047    7093.0868    6389.0183   -780.02505   -103.24726   -260.14362   -4399.0251 
40460000     61.05519    -5257.887   -5135.7691    -5257.887            0    6705.5129    17.834185    22.633628    19.141731    7726.6042    7498.9375    6649.6806    5967.9207    305.61174     41.74407   -84.107017   -4380.1611 
40461000    61.824516   -5259.5975   -5135.9408   -5259.5975            0    7232.0584    17.775717     22.65502    19.119973    7699.7899    7870.3966    6761.8002    7063.9785   -386.39285    269.78228    574.10458   -4323.8274 
40462000    60.102492   -5261.2993   -5141.0869   -5261.2993            0    7484.0832    17.887733    22.645659     19.05458      7718.62    7301.6579    6947.3184    8203.2734    593.82146    139.36317    891.88774   -4298.6175 
40463000    60.618063   -5263.1618   -5141.9182   -5263.1618            0    6090.8522    17.760858    22.730454    19.151513    7731.7026    7296.9178    5808.6556    5166.9831    -765.0044   -479.82675   -462.79773   -4455.1201 
40464000    62.132655   -5265.7055   -5141.4325   -5265.7055            0    6584.1971    17.821696    22.682759    19.096584    7719.7031    7138.5491    6061.3459    6552.6964   -555.16085    -437.4599   -688.17163   -4400.1576 
40465000    55.504477   -5259.9065   -5148.8907   -5259.9065            0    7638.0853    17.848603    22.698738      19.0034    7699.0519    6526.5043    7858.1832    8529.5683    202.99037    206.08301    324.05719   -4291.2653 
40466000    63.403233   -5268.5486   -5141.7343   -5268.5486            0    6687.7412    17.825513    22.653503    19.118795    7720.3666    6224.1779    6702.4203    7136.6253   -803.89792    26.406952   -75.616393   -4388.7373 
40467000     61.59545   -5274.0743   -5150.8758   -5274.0743            0    6230.6044    17.855388    22.732568    19.038772     7727.815    5974.1135    6476.2701    6241.4296     66.49853   -75.494856     646.3507   -4448.6726 
40468000    61.764385   -5259.7673   -5136.2309   -5259.7673            0    6547.6146    17.750449    22.667325    19.180896    7717.5334    7317.1414    7055.5145    5270.1879    47.756107    22.210557   -580.23613   -4399.2818 
40469000    63.324872   -5270.5352   -5143.8776   -5270.5352            0    6771.1456    17.812604    22.643389    19.151439    7724.4977    7782.6084    6975.4242    5555.4043   -616.40579    17.409065   -1635.3262   -4381.0818 
40470000    58.997146   -5265.5657   -5147.5641   -5265.5657            0    6907.2954    17.894818    22.584701    19.105336    7721.4043    6864.3393    6727.0323    7130.5145    434.57852   -260.01869   -85.304449   -4369.7421 
40471000    60.439062   -5265.3758   -5144.4902   -5265.3758            0    7034.8215    17.847443    22.618271    19.103163    7711.5324    5925.8321    6913.0344    8265.5981    86.121356   -121.33209    566.04897   -4353.3205 
40472000     58.69424   -5268.1227    -5150.727   -5268.1227            0    6464.9759    17.777141    22.619994    19.243278    7738.0844     6264.169      6953.26    6177.4988   -658.98643    21.413549   -490.20536   -4421.1414 
40473000    58.255216   -5263.3972   -5146.8796   -5263.3972            0    7211.3597    17.750364    22.687671    19.135782    7706.2553    7697.4536    7014.4619    6922.1636   -188.94858    61.417846   -313.53579   -4336.4106 
40474000    63.955329   -5265.9831   -5138.0645   -5265.9831            0    7322.0709    17.786293    22.756382      19.0169    7697.1222    8096.4689    6230.1122    7639.6314    817.25191   -990.23868   -572.25207   -4316.1281 
40475000     61.43475   -5267.7388   -5144.8618   -5267.7388            0    6658.3194    17.843019     22.62328    19.129083    7721.7916    7171.8519    6309.2776    6493.8289    228.31055   -447.35914   -63.337266    -4395.039 
40476000    61.352866   -5266.2318   -5143.5185   -5266.2318            0    6442.4095    17.764474    22.662262    19.167873     7716.663     6610.777    6120.8208    6595.6307   -286.13465   -317.77984   -276.17914   -4418.4922 
40477000    65.175837   -5257.4008   -5127.0411   -5257.4008            0     7002.811    17.784491    22.709818    19.146679    7733.0097    7590.9975    6602.4815    6814.9538  -0.92312873   -6.4380429   -336.24658    -4337.278 
40478000    61.407065   -5252.2294   -5129.4077   -5252.2294            0    7894.8795    17.793312     22.62332    19.067286    7675.4179     8326.498    7878.3149    7479.8256    112.24294     369.5163   -85.354103   -4245.6699 
40479000    65.035949   -5262.6757   -5132.5958   -5262.6757            0    7605.9881    17.746581    22.672109     19.09252    7681.9215    8057.8262     8101.812    6658.3262    327.69427    620.64484   -840.07954   -4280.4745 
40480000    64.847452   -5262.9526   -5133.2496   -5262.9526            0    6138.8454    17.814562    22.643935    19.172406    7733.9908    5140.8337    7215.1913    6060.5111    449.11739    292.71409   -38.752373    -4440.835 
40481000    63.913582   -5262.4925   -5134.6574   -5262.4925            0    6855.2302    17.927695    22.571314     19.08428    7722.4848    6334.3924    6940.8101    7290.4882    230.93237   -143.36787    431.24819   -4362.5904 
40482000    61.905954   -5258.3005    -5134.481   -5258.3005            0    7902.7772    17.796153    22.687586    19.035217    7685.5019    7510.8666    7914.2613    8283.2036    59.729156   -35.835727    1034.6947   -4248.6969 
40483000    57.799017   -5258.7222   -5143.1171   -5258.7222            0    7324.2091    17.801197    22.586318    19.153297    7700.8413    6799.1454    8452.2033    6721.2785    483.66327   -88.199261     230.3281   -4320.5434 
40484000    62.457503   -5257.7991   -5132.8764   -5257.7991            0    7101.4101    17.842396    22.736864    19.020275    7716.1476    6991.4683    6408.1608    7904.6011    391.11096    214.02442    413.24879   -4333.7398 
40485000    60.767692   -5267.5499   -5146.0071   -5267.5499            0    6721.3907     17.79352    22.755117    19.061481    7717.8724    5829.7477    6648.8496    7685.5748   -162.70404   -345.71949    565.52384   -4389.4658 
40486000    60.309185   -5264.1664   -5143.5406   -5264.1664            0    6715.0285    17.778117    22.717577    19.111967    7718.8599    6902.6198    6922.3429    6320.1229   -752.50741    303.57551   -238.72189   -4387.6188 
40487000    58.697277   -5259.7402   -5142.3384   -5259.7402            0    6936.8178    17.749836    22.792944    19.079174     7718.881    6849.4821    6699.2332    7261.7381    533.71461    986.26869    289.03908   -4361.4472 
40488000    63.424705    -5261.946   -5135.0887    -5261.946            0    6868.6079     17.79258    22.817905    18.999033    7713.4056     6006.386    6723.0739    7876.3637   -787.49935    124.82851    64.181553   -4362.4245 
40489000    60.275949   -5257.8879   -5137.3285   -5257.8879            0    6693.9022    17.819867    22.746354    19.006729    7704.1308    6216.8705    6807.9676    7056.8686    302.58117    443.99498   -527.99161   -4385.2228 
40490000    61.886662   -5261.1224   -5137.3415   -5261.1224            0     6243.221    17.846747    22.738223    19.037569    7725.5088    5741.6748     6276.754    6711.2341   -519.06429    244.11736   -550.00649   -4433.9264 
40491000    60.363781   -5265.2864   -5144.5514   -5265.2864            0    6468.7593    17.781998    22.737447    19.097483    7721.4416    5712.3637    6892.3357    6801.5785    507.19451    110.06278    122.49426   -4416.1089 
40492000    61.371242   -5266.3002   -5143.5501   -5266.3002            0    6981.6566    17.761778    22.724536    19.105777      7711.63    7180.5677    6594.3197    7170.0825   -563.77246     280.4051   -1652.8706   -4358.3496 
40493000    63.593586   -5260.1025   -5132.9074   -5260.1025            0    6959.5492    17.794591    22.630735    19.173366    7721.2037    7569.0437    6631.9727    6677.6312    503.80284   -672.59927    202.64509   -4349.2216 
40494000    63.774604   -5260.7025   -5133.1454   -5260.7025            0    7133.6622    17.738337    22.880331    18.995041    7709.3091    6978.2058     6578.988     7843.793     506.6651    -421.3092    405.22686   -4331.0909 
40495000    65.063467   -5262.0884   -5131.9534   -5262.0884            0    7036.2902    17.782454    22.724588    19.066342    7704.6883    6624.8273    7349.0818    7134.9614    416.68974    620.88669    227.03334   -4341.3208 
40496000    59.368176   -5258.7056   -5139.9619   -5258.7056            0    7104.7109    17.896918    22.569926    19.085744     7709.345    6513.6184    7558.8614    7241.6529    96.327301     431.7556   -622.10303   -4341.1588 
40497000    60.139946   -5259.7528   -5139.4654   -5259.7528            0    7214.6238    17.869726    22.764543    18.960889    7713.2168    6190.3564     7014.945    8438.5698    531.32589   -309.66075   -574.17463   -4327.8971 
40498000    67.800761   -5271.1908   -5135.5809   -5271.1908            0    6324.1206    17.811186    22.880119     18.97078    7731.0111    5718.3716    5862.0273     7391.963    130.37742    253.41242    461.46537   -4422.5435 
40499000    60.681503   -5265.2643   -5143.8938   -5265.2643            0    6859.5667    17.710344    22.720933    19.173637    7715.3862    8254.6209    6427.3836    5896.6955    -346.3048    33.084243   -9.1341885   -4372.0485 
40500000    62.500219   -5256.6696   -5131.6614   -5256.6696            0    7035.3578    17.723102    22.694974    19.174006    7712.2708    7972.2874     6728.356    6405.4301   -242.43558    -228.0723   -459.38845   -4340.3556 
Loop time of 428.846 on 64 procs for 250000 steps with 1008 atoms

Performance: 100.735 ns/day, 0.238 hours/ns, 582.960 timesteps/s
194.8% CPU use with 32 MPI tasks x 2 OpenMP threads

MPI task timing breakdown:
Section |  min time  |  avg time  |  max time  |%varavg| %total
---------------------------------------------------------------
Pair    | 37.217     | 39.995     | 43.903     |  27.0 |  9.33
Bond    | 1.0523     | 1.2124     | 1.493      |   9.4 |  0.28
Kspace  | 209.66     | 214.02     | 224.72     |  27.4 | 49.91
Neigh   | 0.45617    | 0.50124    | 0.58925    |   5.0 |  0.12
Comm    | 61.02      | 71.808     | 77.298     |  44.6 | 16.74
Output  | 0.53131    | 0.53243    | 0.53394    |   0.1 |  0.12
Modify  | 84.991     | 87.13      | 89.057     |  11.2 | 20.32
Other   |            | 13.64      |            |       |  3.18

Nlocal:        31.5000 ave          36 max          28 min
Histogram: 2 1 7 5 0 9 5 1 1 1
Nghost:        2970.75 ave        2985 max        2954 min
Histogram: 2 0 3 3 4 8 3 4 4 1
Neighs:        10822.6 ave       12433 max        9618 min
Histogram: 2 1 7 5 6 4 4 1 1 1

Total # of neighbors = 346323
Ave neighs/atom = 343.57440
Ave special neighs/atom = 2.0000000
Neighbor list builds = 1151
Dangerous builds = 0

unfix		3
unfix		2
unfix		1

write_data	data.final.${pid}
write_data	data.final.0
System init for write_data ...
PPPM initialization ...
  extracting TIP4P info from pair style
  using 12-bit tables for long-range coulomb (../kspace.cpp:340)
  G vector (1/distance) = 0.38001717
  grid = 24 27 32
  stencil order = 5
  estimated absolute RMS force accuracy = 0.0023835245
  estimated relative force accuracy = 7.1779133e-06
  using double precision FFTW3
  3d grid and FFT values/proc = 5355 672
Last active /omp style is kspace_style pppm/tip4p/omp
WARNING: Not all mixed pair coeffs generated from mixing. Use write_data with 'pair ij' option to store all pair coeffs. (../write_data.cpp:312)

write_restart   restart.lmp.${pid}
write_restart   restart.lmp.0
System init for write_restart ...
PPPM initialization ...
  extracting TIP4P info from pair style
  using 12-bit tables for long-range coulomb (../kspace.cpp:340)
  G vector (1/distance) = 0.38001717
  grid = 24 27 32
  stencil order = 5
  estimated absolute RMS force accuracy = 0.0023835245
  estimated relative force accuracy = 7.1779133e-06
  using double precision FFTW3
  3d grid and FFT values/proc = 5355 672
Last active /omp style is kspace_style pppm/tip4p/omp
Total wall time: 0:07:08
