LAMMPS data file via write_data, version 30 Jul 2021, timestep = 7000000

1920 atoms
2 atom types
1280 bonds
1 bond types
640 angles
1 angle types

-0.18658047741295647 24.91658147740712 xlo xhi
-0.059435132739606544 24.78943613273348 ylo yhi
-0.10850462154894025 22.918504621556036 zlo zhi

Masses

1 1.008
2 15.999

Pair Coeffs # lj/cut/tip4p/long/omp

1 0 0
2 0.21084 3.1668

Bond Coeffs # harmonic/omp

1 450 0.9572

Angle Coeffs # harmonic/omp

1 55 104.52

Atoms # full

1 1 2 -1.1794 4.299476785315117 1.519270316471393 4.058955044770942 0 0 0
2 1 1 0.5897 4.371437065758042 2.19200054162621 4.736037859699424 0 0 0
3 1 1 0.5897 5.193444028299306 1.4073501112832618 3.735889475772075 0 0 0
4 2 2 -1.1794 2.631774691292991 1.241300338812505 1.771091553041574 0 0 0
5 2 1 0.5897 3.095733777136013 1.3521907380372864 2.600894302337438 0 0 0
6 2 1 0.5897 1.7122878387770222 1.1499764190011248 2.02063800386059 0 0 0
9 3 1 0.5897 4.865991195218924 4.647258644874171 3.125708348109835 0 0 0
10 4 2 -1.1794 3.1193985815278045 4.624750512577855 3.1981129792152525 0 0 0
11 4 1 0.5897 2.977058290028304 5.456550726957695 3.649829641535567 0 0 0
12 4 1 0.5897 2.476125405047425 4.623405509013921 2.489375819803686 0 0 0
13 5 2 -1.1794 1.3821017809931617 2.812956325445079 4.875359451686206 0 0 0
14 5 1 0.5897 2.1440119316221704 3.0555995927443282 4.349322318524858 0 0 0
22 8 2 -1.1794 1.2170805938076223 4.244907757618139 1.2555527469619818 0 0 0
24 8 1 0.5897 1.1551040392587342 4.9556382935812895 0.6174203197042979 0 0 0
20 7 1 0.5897 3.5451396057748545 2.737662165465389 0.935614754583465 0 0 0
23 8 1 0.5897 0.6234331938192103 4.503007704396742 1.960596814942149 0 0 0
21 7 1 0.5897 5.012665470922493 2.8684399822576006 1.2831164048296853 0 0 0
15 5 1 0.5897 1.265858475204667 1.8770092053541239 4.711943268176523 0 0 0
19 7 2 -1.1794 4.3680021351762095 3.1091827326024077 0.6178601931952817 0 0 0
27 9 1 0.5897 4.761992290100942 5.168096037574751 0.3675366152346137 0 0 0
150 50 1 0.5897 1.218204265587391 5.968191838639879 5.632201137906424 0 0 0
16 6 2 -1.1794 -0.04606864828910631 1.2850571315255492 2.104427958318909 0 0 0
28 10 2 -1.1794 1.397634304747031 0.18156234445341007 4.650021168941169 0 0 0
25 9 2 -1.1794 4.837389839550061 6.087022709049259 0.11043450626868676 0 0 0
99 33 1 0.5897 0.1873483950584962 4.127660914775983 3.85261076094273 1 0 0
98 33 1 0.5897 0.24908407016504808 5.631586762294391 3.690563208098984 1 0 0
387 129 1 0.5897 4.150835875956335 0.163683433579097 0.9916461646972357 0 1 0
7 3 2 -1.1794 5.801231333899261 4.663076881973995 2.9228689126228176 0 0 0
1470 490 1 0.5897 1.7018374150427535 -0.0177698259911665 0.10009344314139218 0 0 1
487 163 2 -1.1794 5.494733942130985 4.654725211191266 9.11821313781608 0 0 0
495 165 1 0.5897 0.9059483134767532 2.9097777750820706 11.158604823848304 0 0 0
528 176 1 0.5897 5.574706398867157 2.135713536894469 7.133468161274463 0 0 0
504 168 1 0.5897 0.9657083362573451 3.994362913369357 6.350171606602621 0 0 0
527 176 1 0.5897 5.638040703191524 0.6260994999424258 7.0389919449534775 0 0 0
493 165 2 -1.1794 1.1753455088913745 2.5512697835016147 10.312987823816062 0 0 0
503 168 1 0.5897 0.3152171416100984 4.602450924805107 7.574416404976628 0 0 0
526 176 2 -1.1794 6.023100385946089 1.3726287791154943 7.49792063508185 0 0 0
488 163 1 0.5897 5.763751156437419 3.8355823424559614 9.533939605891137 0 0 0
505 169 2 -1.1794 4.442789549065374 6.08787896785237 6.153383394728905 0 0 0
486 162 1 0.5897 2.9598868474270636 1.1215858203613303 7.123273324959148 0 0 0
485 162 1 0.5897 3.093626423506132 1.5846180361168989 8.558339139484548 0 0 0
484 162 2 -1.1794 2.615340311181129 1.7597221105300285 7.747962071377132 0 0 0
629 210 1 0.5897 1.5333988665577913 5.697699622914475 9.995713385211879 0 0 0
498 166 1 0.5897 0.7313408189894314 1.8912755400147263 7.779692725429706 0 0 0
490 164 2 -1.1794 2.855575743310658 4.734973460205713 9.105330166846135 0 0 0
492 164 1 0.5897 2.579318227705163 3.967346544022173 9.605948531953066 0 0 0
500 167 1 0.5897 3.5652156940133244 2.9144854505853512 6.668465540759881 0 0 0
494 165 1 0.5897 1.5227738828730835 1.683686992019605 10.519842687687913 0 0 0
501 167 1 0.5897 4.087049091332642 4.280237259215273 6.275758832813114 0 0 0
483 161 1 0.5897 4.426975871284141 1.9238676660023348 10.409131191914032 0 0 0
482 161 1 0.5897 5.028094470779699 1.249954577661834 9.194149592849959 0 0 0
491 164 1 0.5897 2.3626584989176904 4.67783027702269 8.28686188639538 0 0 0
489 163 1 0.5897 4.549171176102692 4.564761545024306 9.000375334986416 0 0 0
502 168 2 -1.1794 0.999842554141849 4.759523890703928 6.924244256520066 0 0 0
481 161 2 -1.1794 4.372546188863914 1.1276087347399255 9.880733330234905 0 0 0
499 167 2 -1.1794 4.354056495643138 3.365685977964179 6.368019686538165 0 0 0
1347 449 1 0.5897 4.502170153054818 -0.05498093255313758 11.342185319685791 0 1 0
961 321 2 -1.1794 4.295011102084965 1.327676426851342 15.690415147581 0 0 0
962 321 1 0.5897 5.018827317307141 1.3587795598533725 15.064937175786145 0 0 0
964 322 2 -1.1794 2.603871277969444 1.6602270755978075 13.460497004989003 0 0 0
965 322 1 0.5897 2.9673155068083066 1.7356504352945743 14.34274347352237 0 0 0
966 322 1 0.5897 1.6819790398022307 1.4431061699065921 13.598511785686517 0 0 0
970 324 2 -1.1794 3.144501143798372 4.562743749215092 14.832398639337162 0 0 0
971 324 1 0.5897 4.046997912482768 4.276569267571713 14.692101071616761 0 0 0
972 324 1 0.5897 2.775034358499744 3.9090490338388357 15.42598952195636 0 0 0
973 325 2 -1.1794 1.4474501566178941 3.042856404919461 16.46324051280856 0 0 0
975 325 1 0.5897 0.6427232477335725 3.389476757377194 16.078059027554268 0 0 0
982 328 2 -1.1794 1.245189613823639 4.1994580133337935 12.668331915697502 0 0 0
983 328 1 0.5897 1.464753725148083 4.929698831738552 12.089772036276013 0 0 0
984 328 1 0.5897 1.8857767702307555 4.254068842804512 13.377399301154265 0 0 0
990 330 1 0.5897 1.2988060351655648 1.2244619884115406 16.897174084074734 0 0 0
980 327 1 0.5897 3.644512575483908 2.5373597172774103 12.276012279753813 0 0 0
981 327 1 0.5897 5.149605935426343 2.5331267391043384 12.43772338377364 0 0 0
979 327 2 -1.1794 4.436425108070192 3.0002250561188206 12.002621557334612 0 0 0
963 321 1 0.5897 4.583480021227035 0.7082498954701377 16.360692615481412 0 0 0
987 329 1 0.5897 4.262102523111889 4.931213013134064 12.162158320549624 0 0 0
988 330 2 -1.1794 1.453985351008535 0.31424469204764716 16.64490770623126 0 0 0
1346 449 1 0.5897 3.8067873500929155 0.2284302479300433 12.656637658686977 0 1 0
976 326 2 -1.1794 -0.13517664062138052 1.3802504783495273 13.336500144591357 0 0 0
985 329 2 -1.1794 4.410851234672761 5.876023481183426 12.124458543708974 0 0 0
1109 370 1 0.5897 0.8055635384520835 5.861139418365236 16.01799556564648 0 0 0
967 323 2 -1.1794 5.883520544552069 4.103806299652122 14.777462738458903 0 0 0
1460 487 1 0.5897 4.169783933376192 2.7607841589880064 17.0462853088168 0 0 0
1058 353 1 0.5897 0.04906142847139802 4.3986510497625195 14.123255921829008 1 0 0
1008 336 1 0.5897 5.84504149577534 0.5484405582229196 13.146171052628368 0 0 0
1468 490 2 -1.1794 1.6610082162757418 -0.017995851828503467 22.1708192492026 0 0 0
1538 513 1 0.5897 0.2414413757983631 3.7684201123515364 20.81019220086676 1 0 0
1487 496 1 0.5897 6.048345662458569 1.5041758537603678 19.89989152190803 0 0 0
386 129 1 0.5897 4.848796782196811 0.25944209176548866 22.67876139090788 0 1 -1
1488 496 1 0.5897 5.994360855043972 0.6208241884956291 18.671673663130832 0 0 0
1826 609 1 0.5897 4.000687763326356 0.014667683814807514 18.241793083973924 0 1 0
1449 483 1 0.5897 6.038503860834499 3.85927350388216 21.130158755745008 0 0 0
1462 488 2 -1.1794 1.357205448412634 4.683003947378135 18.62445358216462 0 0 0
1466 489 1 0.5897 4.4089790137474 5.130463991648861 17.57216646455292 0 0 0
974 325 1 0.5897 1.5779173132609245 3.563696372863652 17.255630240936142 0 0 0
1464 488 1 0.5897 0.5162466160873171 4.7155150784415545 19.08032193870128 0 0 0
1463 488 1 0.5897 1.3424394065954441 5.440380399538723 18.039340130310542 0 0 0
1590 530 1 0.5897 1.8901283916336475 5.944120101821982 21.778774356110908 0 0 0
1447 483 2 -1.1794 5.936399321330529 4.57920450944593 20.507691520438733 0 0 0
1452 484 1 0.5897 2.6054904456398176 4.881048867030142 19.98329042680019 0 0 0
1450 484 2 -1.1794 3.0455919097562876 4.8900307181541205 20.833207464800985 0 0 0
1441 481 2 -1.1794 4.804975659629516 1.3908805152229693 21.383116483380114 0 0 0
1446 482 1 0.5897 3.389321052079068 2.3318693286749865 18.94044181866544 0 0 0
1459 487 2 -1.1794 4.506921563596502 3.293696488649178 17.766359289998668 0 0 0
1445 482 1 0.5897 2.166538820127729 1.551390006849271 19.37316030197693 0 0 0
1442 481 1 0.5897 3.971807054743757 1.434919433643826 20.914093908317774 0 0 0
1454 485 1 0.5897 2.3215480475420502 3.3423291027322075 21.768063441323584 0 0 0
1469 490 1 0.5897 1.5970755162051204 0.9070081340940822 21.93313585515186 0 0 0
1451 484 1 0.5897 3.9657044847926217 4.723743240861958 20.6287270014732 0 0 0
1444 482 2 -1.1794 3.121960865078241 1.5540010131460988 19.42995804469777 0 0 0
1453 485 2 -1.1794 1.5890400825460742 2.794852471797659 22.050633247479226 0 0 0
1461 487 1 0.5897 5.210194722250438 2.766916124872768 18.145875845454903 0 0 0
1443 481 1 0.5897 4.710850370984319 2.019174320346814 22.099057029916146 0 0 0
1465 489 2 -1.1794 4.35620636180264 6.085078201798138 17.61849673531904 0 0 0
1539 513 1 0.5897 -0.049724413283907865 5.0967899837786685 21.47537544410553 1 0 0
1456 486 2 -1.1794 0.3208515973686077 1.5819885960711804 19.372888536044726 0 0 0
1458 486 1 0.5897 -0.10865268427578911 1.0765605115532138 18.68279753060329 0 0 0
1455 485 1 0.5897 1.2665889769884315 3.217601630074075 22.846534316553033 0 0 0
121 41 2 -1.1794 4.294169886425729 7.862089210887596 4.0242732913803625 0 0 0
122 41 1 0.5897 3.469593353482327 7.936329539316034 3.54401587315743 0 0 0
123 41 1 0.5897 4.943339174301928 7.647035550614742 3.354615397329117 0 0 0
124 42 2 -1.1794 2.893768350515303 7.858339021631525 1.614953468761662 0 0 0
126 42 1 0.5897 3.41262549316171 8.559551223895955 1.2209368046836733 0 0 0
130 44 2 -1.1794 3.3441523581432486 10.863134876100636 3.6503728015411285 0 0 0
132 44 1 0.5897 3.2712153729965707 10.011403743958576 4.080998090199274 0 0 0
133 45 2 -1.1794 1.2140873467170592 9.157552119335508 4.9984787646314155 0 0 0
137 46 1 0.5897 1.0293174589470255 7.9269817163923335 1.8108371742427303 0 0 0
139 47 2 -1.1794 4.686154212136017 9.618936000844142 0.6067511041516359 0 0 0
142 48 2 -1.1794 1.6110347965482759 10.686425887893751 1.58170395832263 0 0 0
143 48 1 0.5897 2.2902748878396544 10.75684644440363 2.252358554688118 0 0 0
149 50 1 0.5897 1.478191471634931 7.385161800081486 5.166969209004438 0 0 0
125 42 1 0.5897 3.2024482643930896 7.060752846984306 1.1851158666091388 0 0 0
135 45 1 0.5897 0.6145740046665922 9.678054185480724 4.463875275752252 0 0 0
131 44 1 0.5897 2.744821997886628 11.429748671986575 4.136063056922373 0 0 0
129 43 1 0.5897 5.1547891915921955 10.86439088516443 3.5450139706357335 0 0 0
144 48 1 0.5897 1.8140706696198672 11.385457511392303 0.9601634119063445 0 0 0
140 47 1 0.5897 4.444552803126678 10.535294942643722 0.47213207173914096 0 0 0
621 207 1 0.5897 4.851439548028104 9.126967863829803 5.570271826810511 0 0 0
138 46 1 0.5897 -0.16078613670323572 7.063998890680917 1.4495478136352167 0 0 0
148 50 2 -1.1794 1.3674273458162938 6.49082613974596 4.844319850139144 0 0 0
507 169 1 0.5897 4.629054192669463 6.609146955731124 5.372519087022193 0 0 0
1574 525 1 0.5897 1.3904834865690832 9.488556339535481 0.02006549550743808 0 0 1
218 73 1 0.5897 -0.07599961223838379 10.707837610083383 2.6929796523605978 1 0 0
26 9 1 0.5897 5.191876267305459 6.524490579970243 0.8844584521551175 0 0 0
270 90 1 0.5897 0.7747874590464484 12.046922803295438 4.493351051058827 0 0 0
136 46 2 -1.1794 0.0722574280778463 7.917683413697723 1.8143971447662917 0 0 0
168 56 1 0.5897 5.8546567536652665 8.427446249886948 1.705483744512328 0 0 0
166 56 2 -1.1794 6.069753186109233 7.546887721394287 2.0129809750177827 0 0 0
145 49 2 -1.1794 4.229521175026428 12.263881071532015 0.5937607256749378 0 0 0
506 169 1 0.5897 3.6709051932532977 6.501602963899973 6.539558726214679 0 0 0
607 203 2 -1.1794 5.710349979846059 10.94160669718211 9.424215160136482 0 0 0
619 207 2 -1.1794 4.660793804296841 9.39938667850348 6.467822335762227 0 0 0
134 45 1 0.5897 1.2227721386951933 9.598706623075833 5.847874421871162 0 0 0
1101 367 1 0.5897 4.47912591601438 9.038461899727466 11.161277636094354 0 0 0
601 201 2 -1.1794 4.27629449863054 7.429324687892059 9.815200820570078 0 0 0
614 205 1 0.5897 2.0573146889125993 9.414660942237484 10.084106645411795 0 0 0
603 201 1 0.5897 3.502845465236016 7.224257937062128 9.290014809117519 0 0 0
624 208 1 0.5897 1.3446459962219002 11.579931639922624 6.593229517087953 0 0 0
606 202 1 0.5897 1.6376358839947773 7.622988472734449 7.595845565320548 0 0 0
626 209 1 0.5897 4.759731546190794 11.391001031682247 6.537705479955117 0 0 0
698 233 1 0.5897 -0.14384610361732866 11.267908402095959 10.134778375100586 1 0 0
625 209 2 -1.1794 4.631680392671924 12.324641052607847 6.369976475205793 0 0 0
610 204 2 -1.1794 3.082747188154204 10.727463882014337 9.332810311837994 0 0 0
602 201 1 0.5897 4.264037355163648 6.784422998312153 10.522399592728206 0 0 0
604 202 2 -1.1794 2.5804056232771875 7.577777249897724 7.437065197049249 0 0 0
611 204 1 0.5897 4.035904212125656 10.729954495930572 9.419711131855225 0 0 0
612 204 1 0.5897 2.7983606153407434 11.52092987183139 9.786388326811515 0 0 0
615 205 1 0.5897 0.5473062510168176 9.329984348753053 10.148748545679899 0 0 0
630 210 1 0.5897 1.1479747854811064 7.085363146512984 10.46225642411003 0 0 0
613 205 2 -1.1794 1.3431037777227206 8.86136207821843 10.400155394936185 0 0 0
623 208 1 0.5897 1.891936202160224 10.919715516957769 7.840739605638392 0 0 0
620 207 1 0.5897 5.054771270695137 8.719111952195734 7.013878368009359 0 0 0
622 208 2 -1.1794 1.1373088371488673 10.917185104295156 7.251986845201675 0 0 0
605 202 1 0.5897 2.8592980637220666 8.492020861246955 7.386210925125934 0 0 0
648 216 1 0.5897 5.6986850857121905 6.92540694906277 7.402147590397481 0 0 0
699 233 1 0.5897 0.02741681073964769 11.05477626793031 8.645839269022332 1 0 0
647 216 1 0.5897 5.696057659785046 7.613147492842314 8.7507498707234 0 0 0
646 216 2 -1.1794 6.088902007238237 7.657831901889656 7.879075137535793 0 0 0
628 210 2 -1.1794 1.0043327426659374 6.157340959291866 10.647603806251153 0 0 0
1106 369 1 0.5897 4.635432414169754 12.266559095199804 11.328925824634071 0 0 0
1081 361 2 -1.1794 4.38869108344831 7.804279837245256 15.747328125308938 0 0 0
1082 361 1 0.5897 4.35156424978267 8.614378389644731 16.255817334343178 0 0 0
1083 361 1 0.5897 4.514356641841216 7.116268480204846 16.400808553508206 0 0 0
1084 362 2 -1.1794 2.615933500365807 7.533860478193776 13.663606680232178 0 0 0
1086 362 1 0.5897 3.0659286311529796 8.204715058729898 13.150166834169436 0 0 0
1089 363 1 0.5897 4.711053024499265 10.863854383408452 14.997323381101966 0 0 0
1090 364 2 -1.1794 2.7422877068481917 10.917496387880677 14.821754880043835 0 0 0
1092 364 1 0.5897 2.186188059816343 10.314025574297212 15.314426958778975 0 0 0
1097 366 1 0.5897 0.7936049554561688 7.5877754208648085 13.54844146989102 0 0 0
1099 367 2 -1.1794 4.44242606445335 9.399588780376275 12.04694171184219 0 0 0
1102 368 2 -1.1794 1.0193937442087668 10.701484080363347 12.682968301657027 0 0 0
1103 368 1 0.5897 1.3297111039319138 10.064462179912095 12.039479690366841 0 0 0
1104 368 1 0.5897 1.728927247189326 10.761676528193236 13.32253566345129 0 0 0
1100 367 1 0.5897 5.156310288938838 8.96471172564497 12.513173424761353 0 0 0
1091 364 1 0.5897 2.619065537177861 11.763373754981703 15.252477438633695 0 0 0
1095 365 1 0.5897 0.3497575248571444 9.334554011285006 16.051730190551112 0 0 0
1093 365 2 -1.1794 1.2190793826453719 9.240177442505395 16.440896972881298 0 0 0
1085 362 1 0.5897 3.092673586942579 7.506524246005064 14.493123000121814 0 0 0
1107 369 1 0.5897 4.279542720786443 11.105797088328892 12.233234636259587 0 0 0
1094 365 1 0.5897 1.3247299281457725 8.29715098378353 16.566414951244454 0 0 0
1127 376 1 0.5897 5.729407041744563 7.7085464166236335 14.340821878357541 0 0 0
1105 369 2 -1.1794 4.352821214335024 12.060092379899714 12.219794181024707 0 0 0
1128 376 1 0.5897 5.7469396007840405 6.990029997468242 13.008474189793468 0 0 0
1108 370 2 -1.1794 1.4963978392646364 6.406483689716546 16.394132161255676 0 0 0
750 250 1 0.5897 1.5156178602485961 12.154479783304426 11.627398064344344 0 0 0
1087 363 2 -1.1794 5.652834937708634 10.833188298577712 15.165171377448813 0 0 0
1088 363 1 0.5897 5.772687698343017 11.357583438765843 15.956885846634764 0 0 0
1096 366 2 -1.1794 -0.15816640367938817 7.646811391919208 13.630360024840138 0 0 0
1178 393 1 0.5897 -0.17688284338813176 11.530595789502275 15.46150376996237 1 0 0
1110 370 1 0.5897 2.2680677428225677 6.218394872378117 15.860048988550451 0 0 0
986 329 1 0.5897 3.8250229975584986 6.2379302038857105 12.789254197403586 0 0 0
1710 570 1 0.5897 2.2893192131938855 12.052094670770096 21.767676255483266 0 0 0
1576 526 2 -1.1794 -0.13421684983436677 7.57881687497956 19.47789703668451 0 0 0
1567 523 2 -1.1794 5.910249948389108 10.822925701293874 20.66748935632043 0 0 0
1608 536 1 0.5897 5.791364332364537 7.775188990403731 19.88711021870278 0 0 0
1588 530 2 -1.1794 1.1017631559240697 6.2834984731732 22.202331162236 0 0 0
1563 521 1 0.5897 3.841976602240739 8.066005469758075 20.76140621026815 0 0 0
1575 525 1 0.5897 2.003642737675588 9.454780273352764 21.663403734773652 0 0 0
1709 570 1 0.5897 0.7823437364587864 12.195292594343611 21.768394621360173 0 0 0
1585 529 2 -1.1794 4.547882940735131 12.203573283487936 17.800618191769786 0 0 0
141 47 1 0.5897 4.849321621244154 9.28186991434429 22.752900384003098 0 0 -1
1581 527 1 0.5897 5.049046095400508 8.872778749604574 18.457522095223467 0 0 0
1572 524 1 0.5897 4.05014928235635 10.795463011731378 20.783097595910455 0 0 0
1587 529 1 0.5897 4.42575288249115 11.255854299581614 17.85656201654477 0 0 0
1584 528 1 0.5897 1.4524658637823495 10.244221361835017 17.933388786720364 0 0 0
1658 553 1 0.5897 -0.019307624522204414 10.17004077126711 21.01897656522516 1 0 0
1570 524 2 -1.1794 3.1008294729234733 10.744051120863135 20.89361838166191 0 0 0
1566 522 1 0.5897 2.6804463956657547 7.03087060485656 18.62522131468655 0 0 0
1589 530 1 0.5897 1.234791643273382 7.230900504352404 22.23320489501299 0 0 0
1579 527 2 -1.1794 4.359896354361736 9.391805106574667 18.04302245837968 0 0 0
1580 527 1 0.5897 3.5539676271885563 9.1092593486823 18.47516365629545 0 0 0
1583 528 1 0.5897 0.9060595716533046 10.939085874084586 19.162334718460585 0 0 0
1561 521 2 -1.1794 4.683356529660396 8.108179358985636 21.215699275686568 0 0 0
1564 522 2 -1.1794 2.5376187518534854 7.685527439442968 19.308744717616634 0 0 0
1562 521 1 0.5897 4.636137933260218 7.414162362284689 21.87319026564571 0 0 0
1573 525 2 -1.1794 1.246632381525717 9.149870377221626 22.163473708046915 0 0 0
1571 524 1 0.5897 2.7451787990461396 11.052442932194273 20.060221971573796 0 0 0
1565 522 1 0.5897 1.6167217403714023 7.5844305584187115 19.54915881209731 0 0 0
1582 528 2 -1.1794 1.703885334976556 10.833944916644143 18.64415507047203 0 0 0
1467 489 1 0.5897 5.0853223470862465 6.338561064892069 18.184395274944308 0 0 0
241 81 2 -1.1794 4.787283975381095 14.179741327488507 4.3540773019021115 0 0 0
242 81 1 0.5897 4.59027542262167 13.541689960195963 5.039831582232914 0 0 0
243 81 1 0.5897 3.9443715488542646 14.347141922918757 3.932696091439796 0 0 0
244 82 2 -1.1794 2.859920972090138 14.061543489798453 2.218407097850571 0 0 0
245 82 1 0.5897 1.938720673199506 14.25594430882411 2.0461498373248896 0 0 0
246 82 1 0.5897 3.340162947080279 14.594458137029955 1.5847505897239604 0 0 0
250 84 2 -1.1794 3.224608974999954 17.050838097928413 3.6646249735219083 0 0 0
251 84 1 0.5897 2.912542534456298 17.0938695254288 2.7608000658254115 0 0 0
252 84 1 0.5897 4.178755575669711 17.050166766751566 3.5892571559662705 0 0 0
253 85 2 -1.1794 1.5748267487086922 15.304495705594762 4.766985013780539 0 0 0
255 85 1 0.5897 2.233246007732305 15.914249390381908 4.434076961784131 0 0 0
259 87 2 -1.1794 4.553985974054141 15.478353655134304 0.5763341201722417 0 0 0
262 88 2 -1.1794 1.6188973693140414 17.0163714888751 1.466141038600049 0 0 0
263 88 1 0.5897 1.5272788199104526 16.26269431037951 0.8832458397030531 0 0 0
264 88 1 0.5897 1.3886527824003299 17.769714092572002 0.9224024344870283 0 0 0
269 90 1 0.5897 1.4366134421391856 13.387275140127773 4.732567276726284 0 0 0
254 85 1 0.5897 0.7920918698533237 15.489897247161718 4.248288214971892 0 0 0
287 96 1 0.5897 5.929834546891901 13.943058655013873 2.825487219674516 0 0 0
260 87 1 0.5897 4.674915992679718 16.389226165425825 0.3081978521777772 0 0 0
268 90 2 -1.1794 1.4651693341096756 12.469794594346673 5.0039086082715585 0 0 0
247 83 2 -1.1794 5.942156570048153 17.268423760568126 3.671008027207086 0 0 0
338 113 1 0.5897 0.1200329052355999 16.982513669125012 2.887852336537742 1 0 0
147 49 1 0.5897 3.6428218104231322 12.595234003853239 1.2735515724107018 0 0 0
389 130 1 0.5897 1.901982950089082 18.388731184657495 4.6575081543072665 0 0 0
256 86 2 -1.1794 -0.14849942757168677 14.022680423783177 2.162835583697492 0 0 0
265 89 2 -1.1794 4.633209421285845 18.469004104378243 0.6949982853372862 0 0 0
146 49 1 0.5897 5.102224905266768 12.537930859383838 0.8755508587981495 0 0 0
339 113 1 0.5897 -0.1041226777048685 17.58486513857539 4.258486032679356 1 0 0
288 96 1 0.5897 5.977394655498997 14.495211818697198 1.416739884751168 0 0 0
388 130 2 -1.1794 1.1049291227117217 18.525224547840843 5.169527634730889 0 0 0
742 248 2 -1.1794 1.494288799836988 17.08933775015207 7.378153272344997 0 0 0
730 244 2 -1.1794 3.3093328792122105 17.09846923963015 9.309545356034059 0 0 0
725 242 1 0.5897 3.107106529847937 13.28143003641191 7.359392737790903 0 0 0
740 247 1 0.5897 4.435776652686527 15.411878512609391 5.74581453463472 0 0 0
627 209 1 0.5897 5.391713147765928 12.746851442325092 6.770223875211868 0 0 0
870 290 1 0.5897 2.4894488199752645 18.277923488611528 10.533326908123264 0 0 0
736 246 2 -1.1794 0.029736880983781272 13.916534141050409 7.846751444660783 0 0 0
869 290 1 0.5897 0.976658135271173 18.22651129083698 10.550651601799716 0 0 0
818 273 1 0.5897 0.09285615548701642 17.206132766274024 8.672555260491068 1 0 0
732 244 1 0.5897 2.9218685562485853 16.33057870503719 9.729540927048776 0 0 0
748 250 2 -1.1794 1.459731694804809 12.579439265522387 10.771567917602074 0 0 0
721 241 2 -1.1794 4.5858143766794015 13.687339347821919 10.01050251813193 0 0 0
723 241 1 0.5897 5.273941332673215 13.997232740932517 9.42180984297692 0 0 0
724 242 2 -1.1794 2.7343910461134855 14.099799721194294 7.687333895112143 0 0 0
731 244 1 0.5897 2.7649523745761857 17.249749843860513 8.53696104120866 0 0 0
743 248 1 0.5897 1.3804115307900082 17.760146636764603 6.704929648344776 0 0 0
728 243 1 0.5897 5.188568238905316 16.98410356498958 9.37550895983623 0 0 0
733 245 2 -1.1794 1.8988984630063315 15.269700290241813 10.960655948011306 0 0 0
726 242 1 0.5897 3.390565420289658 14.763941125529971 7.4763687473485 0 0 0
741 247 1 0.5897 4.566968609094035 16.742672187901114 6.455465543672239 0 0 0
744 248 1 0.5897 1.731460030179459 16.2994892517669 6.892269229978457 0 0 0
735 245 1 0.5897 1.0306910199874904 15.427102675786264 10.589816227580977 0 0 0
739 247 2 -1.1794 4.547518882382096 15.798911549560883 6.6140760967453485 0 0 0
722 241 1 0.5897 3.7696078556914054 13.945307229086966 9.582309377347016 0 0 0
749 250 1 0.5897 1.8263536430494907 13.452300662842212 10.91261989612546 0 0 0
737 246 1 0.5897 0.9863522937569758 13.918160269990501 7.815975200877255 0 0 0
738 246 1 0.5897 -0.18095994206528587 14.066123220343648 8.768365760647772 0 0 0
1201 401 2 -1.1794 4.563792379688259 14.03516603307713 15.746872199230612 0 0 0
1204 402 2 -1.1794 2.8449436750933836 13.943842572189928 13.54523138820286 0 0 0
1205 402 1 0.5897 3.369762673363964 14.162866541833637 14.315113528091365 0 0 0
1206 402 1 0.5897 3.333539973852677 13.243375958836923 13.113043715955516 0 0 0
1210 404 2 -1.1794 3.171247575129183 16.932066709658415 15.295948433112157 0 0 0
1212 404 1 0.5897 4.087829926660151 17.16363709010323 15.146525515084832 0 0 0
1213 405 2 -1.1794 1.1021043622842204 15.646739542347625 16.70635463995807 0 0 0
1214 405 1 0.5897 0.5230586447488921 16.129906611546907 16.11695736662913 0 0 0
1215 405 1 0.5897 1.9443935424330094 15.626884852991987 16.252214281765788 0 0 0
1218 406 1 0.5897 1.0572541345727926 13.778217097060333 13.947252139032134 0 0 0
1222 408 2 -1.1794 1.5676585312725093 16.89565101076454 13.054580382807126 0 0 0
1224 408 1 0.5897 2.135373077512066 17.173695829329716 13.773269204370616 0 0 0
1202 401 1 0.5897 5.2573194256810485 13.74146960576765 15.156212909117254 0 0 0
1229 410 1 0.5897 1.213020592742313 13.79307245886596 16.705900639186737 0 0 0
1211 404 1 0.5897 2.8169054136677443 17.666401440509453 15.79731722950724 0 0 0
1203 401 1 0.5897 4.494901851793584 13.339527691473322 16.400726455250947 0 0 0
1220 407 1 0.5897 3.9389511771429184 15.331662436894106 12.732836415593662 0 0 0
1227 409 1 0.5897 4.848292479413458 17.52673134742834 12.38111763783652 0 0 0
1223 408 1 0.5897 1.6391596550596859 17.597027099698145 12.40716751572604 0 0 0
1219 407 2 -1.1794 4.733150215682636 15.560350382619726 12.250092340943423 0 0 0
1298 433 1 0.5897 0.04490622317580578 17.019051682145722 14.25128154789977 1 0 0
734 245 1 0.5897 1.9098435130849807 15.779413914844602 11.770741933795101 0 0 0
1207 403 2 -1.1794 5.877780410585304 17.469349666689098 14.803656507126886 0 0 0
1248 416 1 0.5897 5.903749355521087 12.915453045002693 13.271282960843301 0 0 0
1216 406 2 -1.1794 0.10014376409066406 13.777328425898666 13.951164324312824 0 0 0
1228 410 2 -1.1794 1.4064741027035195 12.896955062725658 16.430648491966473 0 0 0
1225 409 2 -1.1794 4.602931504392686 18.43155440630352 12.187948943130994 0 0 0
1247 416 1 0.5897 5.868648724043268 14.427189113015668 13.344000736564142 0 0 0
1217 406 1 0.5897 -0.14325085769963752 14.377645885689208 13.246494222627128 0 0 0
1221 407 1 0.5897 4.706661933738037 15.007800897135255 11.46896675892406 0 0 0
1705 569 2 -1.1794 4.51291175389306 18.352369710083373 18.01311049007458 0 0 0
1687 563 2 -1.1794 5.652981999461101 16.95970289980327 20.8978854211039 0 0 0
1700 567 1 0.5897 4.460608312026016 15.48781454101352 17.219014898504817 0 0 0
1702 568 2 -1.1794 1.2589475122254796 17.38966897199567 18.86721141228736 0 0 0
1779 593 1 0.5897 -0.0676994860938976 17.452819238960117 21.391242312435025 1 0 0
1830 610 1 0.5897 1.6268697363948148 18.097353200543274 21.822190873385594 0 0 0
1701 567 1 0.5897 3.637233404719785 15.368808546356702 18.48373566611152 0 0 0
1708 570 2 -1.1794 1.5707753766954395 12.489204884988 22.224563496311276 0 0 0
1692 564 1 0.5897 2.5672503466996974 17.363751630100104 20.104702258298403 0 0 0
1691 564 1 0.5897 2.4710771001357514 16.471342510989643 21.32376062152712 0 0 0
1685 562 1 0.5897 3.1931885709087684 13.49607267389995 18.68758755925431 0 0 0
261 87 1 0.5897 4.5466776716145265 14.985571522406795 22.78280800429988 0 0 -1
1728 576 1 0.5897 5.888117225752319 14.554485614901894 18.857483058611585 0 0 0
1694 565 1 0.5897 0.6059827576321736 15.427809012145515 21.805276964588977 0 0 0
1699 567 2 -1.1794 4.456234602462113 15.730171468097714 18.14497243099955 0 0 0
1686 562 1 0.5897 3.0743361789087738 13.990851211343323 20.113338421418796 0 0 0
1704 568 1 0.5897 1.367700915146677 18.150632000393493 18.29686216613571 0 0 0
1682 561 1 0.5897 5.045241468019018 13.830740998183703 20.90011077472807 0 0 0
1703 568 1 0.5897 1.2609239859817587 16.6407272130796 18.271155244891688 0 0 0
1683 561 1 0.5897 4.365879534394145 13.112037221334793 22.04624397182785 0 0 0
1693 565 2 -1.1794 1.3884011806720111 15.245194958897365 22.325436756027877 0 0 0
1695 565 1 0.5897 1.4232129270716876 14.290157490146754 22.3793883954623 0 0 0
1681 561 2 -1.1794 4.312289924103368 13.90395960336398 21.51127540377822 0 0 0
1690 564 2 -1.1794 2.868259618814002 17.283643539782133 21.009751087628146 0 0 0
1684 562 2 -1.1794 2.6036554035278843 13.962049528448372 19.2804188514325 0 0 0
1689 563 1 0.5897 4.709383688868249 17.082885448450206 20.795311567004745 0 0 0
1697 566 1 0.5897 0.7717653582054088 14.009363946844065 19.35063407609789 0 0 0
1707 569 1 0.5897 4.66890389384028 17.408248744636374 17.990391115868675 0 0 0
1696 566 2 -1.1794 -0.17756688965388143 13.892356831789993 19.384583667424515 0 0 0
1688 563 1 0.5897 5.973995432232431 16.81333770099019 20.008126349083113 0 0 0
1586 529 1 0.5897 5.245257591485448 12.39312327474384 18.428189113668786 0 0 0
1828 610 2 -1.1794 0.9377593992793452 18.544741357123783 22.31321257526414 0 0 0
1230 410 1 0.5897 1.5833228497811638 12.428263948678776 17.246262634000885 0 0 0
361 121 2 -1.1794 4.565407437700607 20.3591917225965 4.181857313799109 0 0 0
362 121 1 0.5897 3.8295161141055214 20.18035839411909 3.596552458425817 0 0 0
364 122 2 -1.1794 2.836879054410009 19.989289598140047 2.011625550423329 0 0 0
365 122 1 0.5897 3.2088607319367357 20.590341939326898 1.3662236832467431 0 0 0
370 124 2 -1.1794 3.396524121811996 23.381640443701507 3.590605327724349 0 0 0
371 124 1 0.5897 4.287748984478896 23.3381361768543 3.2443354579410775 0 0 0
372 124 1 0.5897 3.332045751811202 22.631913254079336 4.182166005977728 0 0 0
373 125 2 -1.1794 1.4583724673482452 21.56196571797662 5.055248587196382 0 0 0
375 125 1 0.5897 0.9461674103060431 22.06577534339319 4.422821319839276 0 0 0
382 128 2 -1.1794 1.4436429324167008 22.911741743754703 1.567103443095156 0 0 0
383 128 1 0.5897 2.257375052878373 23.003308290545483 2.062626016184475 0 0 0
390 130 1 0.5897 1.0497689844917888 19.474510711635034 5.279215102475541 0 0 0
384 128 1 0.5897 1.706467328513188 22.487602642686987 0.7502887456832793 0 0 0
379 127 2 -1.1794 4.457271249023094 21.8618579577863 0.7139326372117452 0 0 0