LAMMPS data file via write_data, version 30 Jul 2021, timestep = 21500000

1920 atoms
2 atom types
1280 bonds
1 bond types
640 angles
1 angle types

-0.0630958696021704 24.793096869600944 xlo xhi
-0.017968974665079074 24.747969974656613 ylo yhi
0.03240239155010727 22.77759760845141 zlo zhi

Masses

1 1.008
2 15.999

Pair Coeffs # lj/cut/tip4p/long/omp

1 0 0
2 0.21084 3.1668

Bond Coeffs # harmonic/omp

1 450 0.9572

Angle Coeffs # harmonic/omp

1 55 104.52

Atoms # full

1 1 2 -1.1794 4.420881175427597 1.4331316200537008 4.43800151548035 0 0 0
2 1 1 0.5897 4.542122974133989 2.2589944330907876 4.906490140642383 0 0 0
3 1 1 0.5897 5.108964428645838 1.4314420650381687 3.7726018122375606 0 0 0
4 2 2 -1.1794 2.9023934755352383 1.4366424419775496 1.9966837430419515 0 0 0
5 2 1 0.5897 3.122505725315026 1.6802128597147215 2.8958075929783043 0 0 0
6 2 1 0.5897 1.9459138386970256 1.4013455595815136 1.9849101689886437 0 0 0
10 4 2 -1.1794 3.3013671120172954 4.4418538113195805 3.6058883672883204 0 0 0
11 4 1 0.5897 2.931407628732782 5.163619814472937 4.1142308336327815 0 0 0
12 4 1 0.5897 2.7791857862972433 4.420755772799274 2.803962643969564 0 0 0
13 5 2 -1.1794 1.361272765929007 2.9709343145407345 5.081084212803672 0 0 0
14 5 1 0.5897 2.096940550215287 3.295455484503139 4.561751804811425 0 0 0
15 5 1 0.5897 1.399526876698564 2.019527030551038 4.983100168924766 0 0 0
22 8 2 -1.1794 1.5622689159376493 4.4184089415916405 1.3317039828019333 0 0 0
24 8 1 0.5897 1.4677026635701669 5.132396062136726 0.7012308124102017 0 0 0
23 8 1 0.5897 0.8342336642363536 4.538652230176311 1.941395944551757 0 0 0
20 7 1 0.5897 3.822757763531857 2.8279940764025344 1.1423567028548187 0 0 0
9 3 1 0.5897 5.109301993794714 4.364276470404794 3.5867963111781904 0 0 0
19 7 2 -1.1794 4.497736005151734 3.3579937705358893 0.7184079473709932 0 0 0
21 7 1 0.5897 5.309847421667568 3.1110726386670278 1.160824920497658 0 0 0
27 9 1 0.5897 4.428171492249539 5.205125309450086 0.686252115445846 0 0 0
28 10 2 -1.1794 1.6049151607993681 0.31494593250944475 4.795260730166146 0 0 0
47 16 1 0.5897 6.07474067339769 0.846932688513798 1.8361163089291146 0 0 0
25 9 2 -1.1794 4.482201233051181 6.160733261870025 0.6747006951133354 0 0 0
387 129 1 0.5897 4.1085054907772145 0.35813185492301064 1.3039044499322536 0 1 0
16 6 2 -1.1794 0.1120197233568764 1.4444630173850845 1.7665773496985064 0 0 0
7 3 2 -1.1794 6.065392383954545 4.37010949683382 3.541004765732596 0 0 0
98 33 1 0.5897 0.1279904997406561 5.33830349592923 3.9101663612629056 1 0 0
150 50 1 0.5897 1.4432944273471904 5.89432468557215 5.677599451271339 0 0 0
99 33 1 0.5897 -0.00016288312124441984 3.830605766769863 3.9585609630234804 1 0 0
270 90 1 0.5897 0.7526699638404603 12.361440361338953 4.429638622995184 0 0 0
26 9 1 0.5897 5.2833407044854575 6.3616740790144855 1.1584599138918128 0 0 0
148 50 2 -1.1794 1.530869742181098 6.256473163352695 4.795910981649913 0 0 0
121 41 2 -1.1794 4.713712736408148 7.635195502348148 4.1596246449445 0 0 0
122 41 1 0.5897 4.076189182908481 7.570796747369576 3.4485487593932027 0 0 0
123 41 1 0.5897 5.560829871270738 7.694135948294755 3.717871991801478 0 0 0
124 42 2 -1.1794 2.7988146518815267 7.820216848313163 2.106031796353363 0 0 0
125 42 1 0.5897 3.0432707333095466 6.976944617521433 1.724760395093005 0 0 0
126 42 1 0.5897 3.4502725206960143 8.434485284282486 1.7676386238157589 0 0 0
129 43 1 0.5897 5.00163385037561 10.898148046927373 3.526134719807523 0 0 0
130 44 2 -1.1794 3.240756123905823 10.857507223430565 3.676308923342741 0 0 0
132 44 1 0.5897 2.7048386457631377 10.104229171942455 3.9245050788728624 0 0 0
133 45 2 -1.1794 1.2867473961810383 8.97833555761353 4.876769789363065 0 0 0
135 45 1 0.5897 0.6203845115055869 9.526154857396152 4.461938511947137 0 0 0
137 46 1 0.5897 0.9448318365301029 7.874261590170229 2.3518474794622724 0 0 0
139 47 2 -1.1794 4.706882332525908 9.552902739018243 0.7630475228578603 0 0 0
142 48 2 -1.1794 1.4053459323181194 10.789233243466281 1.4218115106768041 0 0 0
143 48 1 0.5897 2.1819138517775754 10.793729733316331 1.9814024722403758 0 0 0
144 48 1 0.5897 1.5055252606641474 11.562132976489357 0.8661011252051074 0 0 0
149 50 1 0.5897 1.4977727705935495 7.204811685140505 4.921598113489242 0 0 0
131 44 1 0.5897 2.8352250477525023 11.599037595385752 4.125647877884572 0 0 0
140 47 1 0.5897 4.8605580186387485 10.49140671149262 0.6542697244802931 0 0 0
145 49 2 -1.1794 4.9368325729657885 12.327130616583938 0.7446969299764524 0 0 0
127 43 2 -1.1794 5.958778365732568 10.896344598479882 3.515720653638504 0 0 0
218 73 1 0.5897 0.07384507687750053 10.955504994303215 2.6610972494987752 1 0 0
507 169 1 0.5897 4.580967253442471 6.497788316626683 5.643285400318161 0 0 0
621 207 1 0.5897 4.66762142405847 8.962784024587712 5.513193598239138 0 0 0
136 46 2 -1.1794 -0.007954673894734449 7.796121588945581 2.4001606830888074 0 0 0
1574 525 1 0.5897 1.476514711516215 9.490863421193428 0.07653237960004589 0 0 1
508 170 2 -1.1794 1.3002877854265187 0.18485232743944924 10.430592082128708 0 0 0
1347 449 1 0.5897 4.4520076082528055 0.39909961598271304 11.260290778516174 0 1 0
578 193 1 0.5897 0.3912313227678354 3.9131543489911547 9.751247820068771 1 0 0
527 176 1 0.5897 5.80324976798635 0.8392435986586783 7.51454653192624 0 0 0
496 166 2 -1.1794 0.13519951811410164 1.7013724422252456 7.670624220447435 0 0 0
487 163 2 -1.1794 5.9636461921510495 4.775800073796944 9.194268819807855 0 0 0
494 165 1 0.5897 1.449208642565752 2.0909173048289036 10.706712184096206 0 0 0
504 168 1 0.5897 1.5256690305628335 3.952040435247841 6.583380899266975 0 0 0
501 167 1 0.5897 4.662412228156874 4.325203003522636 6.341422951360708 0 0 0
499 167 2 -1.1794 4.651301246888118 3.3755988152801115 6.221531954638918 0 0 0
483 161 1 0.5897 4.619126610000309 2.2653902908033654 10.518747068297827 0 0 0
492 164 1 0.5897 2.7741233307832953 4.137550964382212 9.705632425730219 0 0 0
493 165 2 -1.1794 1.6179163596314967 3.0310141419493344 10.643503373521881 0 0 0
491 164 1 0.5897 2.7779047344710874 4.838421929934262 8.363777119263018 0 0 0
485 162 1 0.5897 3.314761683702528 1.994229582104123 8.745965757705642 0 0 0
481 161 2 -1.1794 4.502201313210593 1.4938123512949224 9.964471421245662 0 0 0
482 161 1 0.5897 5.211984395636707 1.5482309522243471 9.32457666347664 0 0 0
502 168 2 -1.1794 1.6062419358967197 4.749497721459441 7.1066347845913675 0 0 0
500 167 1 0.5897 3.9032855718086785 3.0771265273249226 6.738841742311336 0 0 0
490 164 2 -1.1794 3.1979447216308334 4.847803476226805 9.223820801562765 0 0 0
503 168 1 0.5897 0.9049257483030818 4.683172446697048 7.754686876548414 0 0 0
498 166 1 0.5897 1.0900647066496518 1.6396149703093426 7.644969254231425 0 0 0
484 162 2 -1.1794 2.9463470982850897 1.9722952993108047 7.86279813439992 0 0 0
489 163 1 0.5897 5.010190136539029 4.748557300757483 9.114142095277296 0 0 0
486 162 1 0.5897 3.368284971749532 1.2213348860940343 7.445353347929023 0 0 0
629 210 1 0.5897 2.0757702274065375 6.011278682939576 10.239921844434484 0 0 0
528 176 1 0.5897 5.90474764729475 2.3423217927004187 7.364989354499959 0 0 0
505 169 2 -1.1794 4.622991166003205 6.016233468875462 6.46944577520402 0 0 0
579 193 1 0.5897 0.14175359586887382 5.400459169085194 9.618572852546768 1 0 0
867 289 1 0.5897 4.500165262106812 0.2146324871995795 5.759142978354528 0 1 0
619 207 2 -1.1794 4.4922241908615534 9.297705154733158 6.392546526262917 0 0 0
616 206 2 -1.1794 0.04045029592432531 7.634347387020606 7.806437971804095 0 0 0
625 209 2 -1.1794 4.428061796705648 12.030297381560487 6.398732929648855 0 0 0
1101 367 1 0.5897 4.6194981526568455 8.892955942976291 11.303677938866574 0 0 0
615 205 1 0.5897 0.7803098940694237 9.190114111444137 10.416963793100656 0 0 0
603 201 1 0.5897 3.8901356103569604 7.357513446458469 9.404716018263615 0 0 0
134 45 1 0.5897 1.3972361680929295 9.354628732063874 5.749925745960985 0 0 0
628 210 2 -1.1794 1.363457405592546 6.3475585799918015 10.783749895583803 0 0 0
611 204 1 0.5897 4.111547148839997 10.873984212569365 9.313501316994282 0 0 0
613 205 2 -1.1794 1.5950613440228074 9.017758609969212 10.888879502670589 0 0 0
607 203 2 -1.1794 5.902105716121803 10.826711803367973 9.290463139623116 0 0 0
612 204 1 0.5897 2.7136541118454622 11.377649027258991 9.603557464746794 0 0 0
605 202 1 0.5897 2.975142287006491 8.271280948400207 7.454775163908995 0 0 0
622 208 2 -1.1794 1.574842977199965 10.61958949312208 7.019555433259026 0 0 0
610 204 2 -1.1794 3.190299167626141 10.617894541831525 9.269168012775518 0 0 0
604 202 2 -1.1794 2.7962680087099754 7.417963226773142 7.849856456575092 0 0 0
624 208 1 0.5897 1.5688716592159115 11.375427982698776 6.432279756461064 0 0 0
614 205 1 0.5897 2.2855983416847847 9.262897118134992 10.273019035703895 0 0 0
699 233 1 0.5897 0.3241832793312771 10.75659351793474 8.42429743509759 1 0 0
648 216 1 0.5897 5.793264500036287 7.109219450129372 7.4229556662136185 0 0 0
698 233 1 0.5897 0.3117392030562591 11.241091617062265 9.85849174654363 1 0 0
506 169 1 0.5897 3.850976409153623 6.305889946573356 6.955581925089131 0 0 0
601 201 2 -1.1794 4.515590634561366 7.608884588266451 10.084299722675325 0 0 0
626 209 1 0.5897 4.424128983870279 11.074208391914198 6.444750034810702 0 0 0
630 210 1 0.5897 1.4766640003254958 7.297894255459654 10.766792785439876 0 0 0
606 202 1 0.5897 1.8567658731526993 7.28655842103369 7.722133584849019 0 0 0
602 201 1 0.5897 4.537504831756527 6.859437917285965 10.679336376247262 0 0 0
623 208 1 0.5897 2.3527026666902353 10.744280795164226 7.563253671766837 0 0 0
620 207 1 0.5897 5.137103996176058 8.860751057281556 6.948804076736516 0 0 0
647 216 1 0.5897 5.970511655133256 7.751708106821033 8.782224743545981 0 0 0
627 209 1 0.5897 5.120605351091454 12.296819185263534 7.003353941223343 0 0 0
697 233 2 -1.1794 -0.033270092214905844 10.553656668549394 9.288732234934523 1 0 0
961 321 2 -1.1794 4.456424662810737 1.5979450696992934 15.58374639018871 0 0 0
962 321 1 0.5897 5.205668222003262 1.649391356899169 14.99027553654561 0 0 0
963 321 1 0.5897 4.665219949565173 0.8718341264726206 16.17144261994864 0 0 0
964 322 2 -1.1794 2.7360395870915157 1.663755168780853 13.426790080652017 0 0 0
965 322 1 0.5897 3.1040988289478966 1.5106301775659867 14.297020033027923 0 0 0
966 322 1 0.5897 1.7889800946196373 1.6060094421130868 13.553202160745077 0 0 0
970 324 2 -1.1794 3.2109672783613235 4.600806790148114 14.943015564162573 0 0 0
971 324 1 0.5897 4.16340251916828 4.508103269447252 14.965652972320653 0 0 0
972 324 1 0.5897 2.8861819280465224 3.8706086420489676 15.46984563201719 0 0 0
973 325 2 -1.1794 1.5280579610521847 2.905538694319191 16.302147613358983 0 0 0
975 325 1 0.5897 0.8899885527328535 3.4632866718655158 15.857160067624527 0 0 0
982 328 2 -1.1794 1.2561591042964335 4.366692691228128 12.871475190557348 0 0 0
983 328 1 0.5897 1.4319239062382711 5.1400098201615565 12.335461150308994 0 0 0
984 328 1 0.5897 2.0050836083284316 4.310796331057335 13.464944781223371 0 0 0
980 327 1 0.5897 3.806915902538599 2.8021399637461957 12.557610731576572 0 0 0
981 327 1 0.5897 5.294780036691003 2.5782864589763745 12.725118147399783 0 0 0
979 327 2 -1.1794 4.658998912505005 3.161836188368004 12.311016082181311 0 0 0
990 330 1 0.5897 1.4591012345536958 1.0558159669765794 16.17267517856418 0 0 0
986 329 1 0.5897 4.509844738304524 4.922594672874511 12.255653519828632 0 0 0
1109 370 1 0.5897 0.7194900762425793 5.993147712465323 16.090391646339015 0 0 0
1110 370 1 0.5897 2.232087627761347 5.979943236177886 16.02888072299045 0 0 0
1346 449 1 0.5897 3.7138395636047155 0.45063921733971357 12.580996755372347 0 1 0
985 329 2 -1.1794 4.426752013527908 5.875626100681809 12.222942894337677 0 0 0
988 330 2 -1.1794 1.3744308282313902 0.10562336461965097 16.093901638866544 0 0 0
987 329 1 0.5897 3.6634839518900613 6.068804886080324 12.767301513658781 0 0 0
1460 487 1 0.5897 4.526437608704301 2.7862629308051305 16.883024617962146 0 0 0
967 323 2 -1.1794 5.950320318212181 4.464241883316228 14.959242764966213 0 0 0
976 326 2 -1.1794 0.05914387330704306 1.6838675292016902 13.358521586925031 0 0 0
495 165 1 0.5897 1.525295753266193 3.3522969272663454 11.540382628667501 0 0 0
1058 353 1 0.5897 0.1869346864660555 4.796582717702409 14.246507383329647 1 0 0
1008 336 1 0.5897 6.05635615256225 0.7057582078369501 13.179988307780329 0 0 0
1179 393 1 0.5897 0.39252663570618246 10.749508132180333 14.195621920440999 1 0 0
1105 369 2 -1.1794 4.67241718041651 12.11533152221107 12.179688157394237 0 0 0
1108 370 2 -1.1794 1.4968999851302378 6.3784650273016865 16.49461137606779 0 0 0
1081 361 2 -1.1794 4.720932793639868 7.889819132873693 15.74175510470025 0 0 0
1082 361 1 0.5897 4.8678858878682405 8.607451003521883 16.357893854448097 0 0 0
1083 361 1 0.5897 4.660969877661541 7.10918030229003 16.2924190882756 0 0 0
1084 362 2 -1.1794 2.860679887469274 8.031062649209726 13.762059777813008 0 0 0
1085 362 1 0.5897 3.4057092220659024 7.8438893918039305 14.526334864256535 0 0 0
1086 362 1 0.5897 3.4262115968613673 8.542590312282437 13.18349712060396 0 0 0
1089 363 1 0.5897 4.994622958230017 11.00624739630983 15.08746658607071 0 0 0
1090 364 2 -1.1794 3.1859111583245485 10.968508442196647 15.071466609013669 0 0 0
1091 364 1 0.5897 2.7501990897617046 11.699673616547953 15.509393891113668 0 0 0
1092 364 1 0.5897 2.8393537298503624 10.18840207826033 15.50454870326023 0 0 0
1095 365 1 0.5897 0.8977746421818091 9.612779291558924 15.967638378964224 0 0 0
1097 366 1 0.5897 1.0913782341658596 8.081399570764917 13.6619394376367 0 0 0
1099 367 2 -1.1794 4.710936564033448 9.345300298475724 12.142261739437568 0 0 0
1102 368 2 -1.1794 1.5472646941435395 10.834307584261214 12.80765439528997 0 0 0
1104 368 1 0.5897 2.282917380278625 10.670034727822083 13.397614687440456 0 0 0
1093 365 2 -1.1794 1.616758920381465 9.173925727191415 16.42228742795922 0 0 0
1103 368 1 0.5897 1.6110887530708924 10.144844574344923 12.146750966909933 0 0 0
1100 367 1 0.5897 5.162677704964275 8.71711231489494 12.705760687760176 0 0 0
1094 365 1 0.5897 1.4369899404194104 8.240390726968691 16.3107171786025 0 0 0
1107 369 1 0.5897 4.665124779340438 11.167362684486077 12.047237668102596 0 0 0
1096 366 2 -1.1794 0.1856203789484126 7.882084075097583 13.425060388841478 0 0 0
1087 363 2 -1.1794 5.934279423687431 10.840276262568798 15.01169743000149 0 0 0
1178 393 1 0.5897 0.37456557056999 11.566752675906598 15.469832610316612 1 0 0
1127 376 1 0.5897 5.809141228316042 7.6942824333143465 14.385015847687733 0 0 0
1128 376 1 0.5897 5.705503310466357 6.879745097915834 13.113162645292253 0 0 0
750 250 1 0.5897 1.396374585824012 12.162939748468874 11.473616168973011 0 0 0
1468 490 2 -1.1794 1.5031656386140255 0.16869329002871056 21.78156975397564 0 0 0
1456 486 2 -1.1794 0.14277945864892036 1.5615636004870879 19.049468295712384 0 0 0
1826 609 1 0.5897 3.972640658567043 0.1367026994132892 18.240293557486318 0 1 0
974 325 1 0.5897 1.6823614513480498 3.339631243583714 17.141166716436906 0 0 0
1455 485 1 0.5897 1.3548826983071547 3.2765288447687717 22.67859733344643 0 0 0
1454 485 1 0.5897 2.3909073690143683 3.448835198674631 21.588266878702377 0 0 0
1464 488 1 0.5897 1.07803410732897 4.49181863562902 19.18712582954127 0 0 0
1443 481 1 0.5897 4.430988411626414 2.3193069586808046 21.855391802012146 0 0 0
1450 484 2 -1.1794 3.374556497632393 4.799167011269631 20.735926848224455 0 0 0
1469 490 1 0.5897 1.7661539153397692 1.0854819172872028 21.86268359159645 0 0 0
1442 481 1 0.5897 3.7388548782968765 1.6748410160503429 20.67325447605045 0 0 0
1453 485 2 -1.1794 1.6382185829751432 2.913489629460024 21.839476637243898 0 0 0
1444 482 2 -1.1794 2.8744694896513314 1.4395979978219593 19.05731584740229 0 0 0
1463 488 1 0.5897 1.692578657719524 5.250793659459593 18.030350747501277 0 0 0
1452 484 1 0.5897 3.0401568181978025 4.6302392108314026 19.855112016783327 0 0 0
1441 481 2 -1.1794 4.544028701033513 1.6408169749637311 21.189743092802225 0 0 0
1451 484 1 0.5897 4.308604247517928 4.966351971230372 20.61006091035194 0 0 0
1445 482 1 0.5897 1.92084091198187 1.4373230268115735 18.97469127901352 0 0 0
1446 482 1 0.5897 3.1565822702846216 2.2075184360822426 18.560389348486 0 0 0
1461 487 1 0.5897 5.269042015540726 2.6963719682045073 18.19918330027008 0 0 0
1459 487 2 -1.1794 4.604277187995259 3.2083778188662624 17.738570562327286 0 0 0
1462 488 2 -1.1794 1.797766334220049 4.458440704468364 18.55697760867348 0 0 0
1466 489 1 0.5897 4.489702627060595 4.927115882286804 17.639833640555082 0 0 0
1465 489 2 -1.1794 4.4074724927157565 5.8788372193512854 17.700711098973176 0 0 0
386 129 1 0.5897 4.606481006920705 0.43124604693098806 22.62134815059859 0 1 -1
1487 496 1 0.5897 5.776480865400519 1.4929051841297587 19.979533691769408 0 0 0
1539 513 1 0.5897 0.2581541906039388 5.374670836537458 20.81572939011195 1 0 0
1488 496 1 0.5897 5.912464877797353 0.7806561044504807 18.650616272986362 0 0 0
1590 530 1 0.5897 2.2832811304192466 6.00916731241476 21.36309147867661 0 0 0
1467 489 1 0.5897 5.170524290404966 6.153615046913852 18.209112557644975 0 0 0
1447 483 2 -1.1794 6.125029541124941 4.966780883925318 20.424394364729995 0 0 0
1538 513 1 0.5897 0.2002219232165634 3.87259279302023 20.995516417709087 1 0 0
141 47 1 0.5897 4.547513167796547 9.231371835623824 22.620877936906545 0 0 -1
1709 570 1 0.5897 0.9885153461566778 12.247275353843738 21.404707041858487 0 0 0
1581 527 1 0.5897 5.362766541288634 8.965366176533385 18.2614944959248 0 0 0
1564 522 2 -1.1794 2.937924337702776 7.815872059657171 19.293038344807258 0 0 0
1579 527 2 -1.1794 4.798947427278151 9.569001571142607 17.777799791612928 0 0 0
1565 522 1 0.5897 1.987667804456417 7.869020177598898 19.19090992609485 0 0 0
1587 529 1 0.5897 4.642506160053002 11.296490494635703 17.881366126216 0 0 0
1608 536 1 0.5897 5.893618197853221 7.781607136255911 19.961288183734503 0 0 0
1230 410 1 0.5897 1.6704691603255029 12.122018678102103 17.29660555359773 0 0 0
1571 524 1 0.5897 2.9092167021065123 11.002418948442548 20.204305740284177 0 0 0
1658 553 1 0.5897 0.3019740076384061 10.285112714658743 21.05154305114452 1 0 0
1588 530 2 -1.1794 1.5337925625188364 6.341285317473089 21.857255515700814 0 0 0
1573 525 2 -1.1794 1.594328288051913 9.054402759014433 21.978024591427516 0 0 0
1566 522 1 0.5897 3.198054248894423 7.079949478418625 18.73898771598525 0 0 0
1561 521 2 -1.1794 4.695616034619975 7.953585791929242 21.31567277358907 0 0 0
1562 521 1 0.5897 4.510791065833802 7.204150867941825 21.881718563977213 0 0 0
1570 524 2 -1.1794 3.4234625535084193 10.787768745645481 20.982562589282626 0 0 0
1582 528 2 -1.1794 1.7827706450817997 10.952847190478892 18.684570634738233 0 0 0
1710 570 1 0.5897 2.4836723352137415 12.289387630168982 21.638469497886913 0 0 0
1576 526 2 -1.1794 0.21156618213489542 7.579083282819424 19.27298499516373 0 0 0
1563 521 1 0.5897 3.972108854199659 7.965248349337417 20.68908145014221 0 0 0
1572 524 1 0.5897 4.305671635908373 10.623433677051517 20.649491196916312 0 0 0
1580 527 1 0.5897 3.9088384753164753 9.286235145635466 17.987542061664282 0 0 0
1575 525 1 0.5897 2.2837950443857937 9.555752001360798 21.54269416814633 0 0 0
1583 528 1 0.5897 1.0320521943351804 11.005843085677242 19.27603601259732 0 0 0
1584 528 1 0.5897 1.5880416115552192 10.208001672091434 18.115794020467234 0 0 0
1589 530 1 0.5897 1.7119979700981274 7.275627182979661 21.964447136363322 0 0 0
1585 529 2 -1.1794 4.639250221721792 12.245757535596265 17.758394220653802 0 0 0
1567 523 2 -1.1794 6.147926212588739 10.81371846816622 20.450788685101323 0 0 0
1657 553 2 -1.1794 -0.06302422666873783 11.063898209121396 20.631424361772325 1 0 0
241 81 2 -1.1794 4.755609856805207 14.043322798056247 4.510456351218625 0 0 0
242 81 1 0.5897 4.579082370910897 13.300048706770083 5.087176000511043 0 0 0
243 81 1 0.5897 4.039348164408411 14.02989345906999 3.8756293974779132 0 0 0
244 82 2 -1.1794 2.935589783336165 13.838979772260686 2.4220303223141997 0 0 0
245 82 1 0.5897 2.01292967729154 14.083754090458966 2.351163972119321 0 0 0
246 82 1 0.5897 3.3964594512837323 14.4815371861971 1.882639606098854 0 0 0
250 84 2 -1.1794 3.166835922553649 17.32545258245834 3.796910810656361 0 0 0
251 84 1 0.5897 2.7877587579308782 17.17949408961295 2.93019562387659 0 0 0
252 84 1 0.5897 4.110663228109649 17.365180252837696 3.6424699118832944 0 0 0
253 85 2 -1.1794 1.4661619569699342 15.421426041413772 4.940413766955184 0 0 0
255 85 1 0.5897 2.2360135268648236 15.939949718848663 4.70653478368658 0 0 0
259 87 2 -1.1794 4.661512771065205 15.60317437914419 0.9428960796131768 0 0 0
262 88 2 -1.1794 1.5130484575623313 17.164125086240013 1.5807439734751214 0 0 0
263 88 1 0.5897 1.4769605411418667 16.571245975075733 0.8301446112946802 0 0 0
264 88 1 0.5897 1.4149327819859494 18.037554669353547 1.2016297557640359 0 0 0
269 90 1 0.5897 1.527463276201936 13.55745978094705 4.940658148442799 0 0 0
254 85 1 0.5897 0.7296386867848835 15.90073030229121 4.560896843260609 0 0 0
260 87 1 0.5897 4.756096214841495 16.555677065440236 0.9485812081142276 0 0 0
265 89 2 -1.1794 4.703144911674903 18.38719592399155 0.8661496153295278 0 0 0
288 96 1 0.5897 6.000546287040591 14.820220659592671 1.7400656347939147 0 0 0
247 83 2 -1.1794 5.881136579956112 17.07451632283057 3.3882230153088018 0 0 0
147 49 1 0.5897 5.645464952227897 12.675500845265974 1.2857152321855654 0 0 0
338 113 1 0.5897 0.19634595556434403 17.207739501989934 2.8255404170228915 1 0 0
268 90 2 -1.1794 1.389172056467029 12.622955269839306 5.094989830789168 0 0 0
287 96 1 0.5897 6.061306958582616 14.127448188076293 3.0847539622485862 0 0 0
389 130 1 0.5897 1.9450260630390064 18.532520607265035 4.521283191044858 0 0 0
339 113 1 0.5897 0.05669467601861666 17.99331136257434 4.112083594694019 1 0 0
146 49 1 0.5897 4.1381683906795415 12.548591610351446 1.2235704611282077 0 0 0
256 86 2 -1.1794 -0.03452068489216159 14.189382617194074 2.0390491765346845 0 0 0
376 126 2 -1.1794 0.14825809048446564 20.130772621621695 2.160739394662772 0 0 0
29 10 1 0.5897 2.263397966554311 24.610766243794593 4.283779656488795 0 -1 0
459 153 1 0.5897 0.5408484041467583 23.202171081683453 2.662614077478649 1 0 0
388 130 2 -1.1794 1.2308399968353545 18.977965398282144 4.977077660708721 0 0 0
267 89 1 0.5897 3.9732560797332273 18.771179161372267 1.3519927647674241 0 0 0
361 121 2 -1.1794 4.713883665145258 20.439026933946458 4.296262018974641 0 0 0
362 121 1 0.5897 4.056581395284602 20.177756393196795 3.6513544745581066 0 0 0
364 122 2 -1.1794 2.9834204030056584 19.983825565235797 2.1732096196117645 0 0 0
365 122 1 0.5897 3.2134989044681186 20.76346984699621 1.6677933075664384 0 0 0
370 124 2 -1.1794 3.325649216801097 23.227894785887045 3.3599508443175714 0 0 0
371 124 1 0.5897 4.240983780929234 23.294082306940027 3.6320144126282132 0 0 0
372 124 1 0.5897 2.9733363773573926 22.503576097195385 3.8771204043559626 0 0 0
373 125 2 -1.1794 1.8401725023099371 21.624660456991762 4.812950318672094 0 0 0
382 128 2 -1.1794 1.578309850135643 23.199257791571824 1.2203119547168986 0 0 0
383 128 1 0.5897 2.437716965657646 23.24418288765039 1.6393992479432795 0 0 0
375 125 1 0.5897 1.0560820879214596 21.980061178574495 4.3944762020795505 0 0 0
366 122 1 0.5897 2.028019952707935 20.006308088410123 2.2274812875039505 0 0 0
384 128 1 0.5897 1.6651266708843036 22.503433164497892 0.5687704697654968 0 0 0
381 127 1 0.5897 5.174642213738985 21.57910449919749 1.125241740202489 0 0 0
379 127 2 -1.1794 4.406171025445168 21.96431171627495 0.704176708114187 0 0 0
390 130 1 0.5897 1.485683439250944 19.900621134957895 4.978683128399775 0 0 0
363 121 1 0.5897 4.765464064639723 19.69807377904653 4.900038810818514 0 0 0
380 127 1 0.5897 4.541671210626107 22.909172523244862 0.7757094853139923 0 0 0
458 153 1 0.5897 0.4377566594789425 24.014805016083443 3.9357303910182915 1 0 0
457 153 2 -1.1794 0.05678488204234089 23.260403800433174 3.4863206630682226 1 0 0
385 129 2 -1.1794 4.666390984899912 24.669688394146206 0.6726206645879423 0 0 0
374 125 1 0.5897 1.8506330432392981 22.02506521089297 5.682296238977521 0 0 0
861 287 1 0.5897 4.366421581659588 21.58466711013788 5.645260869603045 0 0 0
30 10 1 0.5897 1.594041542877558 24.63360470645273 5.64144377504422 0 -1 0
367 123 2 -1.1794 5.951395337547519 23.25137135904712 3.957245983843098 0 0 0
407 136 1 0.5897 5.882595112042844 19.642440996142376 1.5202119062369612 0 0 0
408 136 1 0.5897 5.7566922261693545 20.34750682923992 2.8539496239555926 0 0 0
748 250 2 -1.1794 1.5282573618953947 12.539304361386424 10.603470261439865 0 0 0
740 247 1 0.5897 4.579629055352364 15.25032433214285 5.820013987288302 0 0 0
727 243 2 -1.1794 6.064798967636938 16.846373485084392 9.155341539691642 0 0 0
736 246 2 -1.1794 -0.023010214740473697 14.11858539174108 7.920885212639879 0 0 0
737 246 1 0.5897 0.9234398318164765 14.01606517011692 8.020683692539123 0 0 0
732 244 1 0.5897 3.0131411686149625 16.49645220881728 9.726630790185833 0 0 0
725 242 1 0.5897 3.2364265377289656 14.525433676941116 7.502887261921152 0 0 0
726 242 1 0.5897 3.010751681905244 13.046310106982501 7.2722902576650315 0 0 0
730 244 2 -1.1794 3.313692242239369 17.270721203849533 9.250812376701548 0 0 0
728 243 1 0.5897 5.109019533808219 16.869126784740956 9.108377260279505 0 0 0
733 245 2 -1.1794 1.6191676010528775 15.365942024536746 10.766786985536948 0 0 0
724 242 2 -1.1794 2.692710707200991 13.789722020312647 7.784553267094291 0 0 0
742 248 2 -1.1794 1.577752987500528 17.088986412695554 7.2317830933648075 0 0 0
721 241 2 -1.1794 4.466388175885853 13.746787876833263 9.914925301510598 0 0 0
743 248 1 0.5897 1.2607131917498553 17.884447661666435 6.804049905499487 0 0 0
722 241 1 0.5897 3.7185057167068116 13.900701332752718 9.337687721861252 0 0 0
731 244 1 0.5897 3.002359324784911 17.138003041994757 8.355460274048605 0 0 0
735 245 1 0.5897 0.8975908405948635 15.718811901741201 10.246175538020271 0 0 0
741 247 1 0.5897 4.703185419459964 16.710743407457123 6.199269471682804 0 0 0
744 248 1 0.5897 1.5933531443261866 16.432116608659754 6.535728965305391 0 0 0
739 247 2 -1.1794 4.542237645073762 15.843265344976716 6.5705034406034075 0 0 0
723 241 1 0.5897 5.219965255798462 13.7073060441308 9.326041706198659 0 0 0
749 250 1 0.5897 1.4982225073782962 13.48562668898648 10.744226643362703 0 0 0
869 290 1 0.5897 0.7505302056788552 18.18069537381377 10.333947100245114 0 0 0
870 290 1 0.5897 2.247742096857373 18.327334872817772 10.164354842242451 0 0 0
745 249 2 -1.1794 4.660537972274281 18.55556879954075 6.312876333253436 0 0 0
818 273 1 0.5897 0.0866270784691941 16.845140456606003 8.543930800238634 1 0 0
1221 407 1 0.5897 4.6838695274673565 15.018421708608617 11.20664356944597 0 0 0
1106 369 1 0.5897 4.6255572610612035 12.481421387303408 11.296525205737387 0 0 0
768 256 1 0.5897 5.9212140323966524 14.541916634798758 7.413473019085728 0 0 0
850 284 2 -1.1794 3.2057586812140944 23.380759813162726 9.243545511341939 0 0 0
844 282 2 -1.1794 2.832988827048432 20.03344521412408 7.71632379618029 0 0 0
851 284 1 0.5897 4.16162602853439 23.381939852283452 9.294076819991785 0 0 0
847 283 2 -1.1794 5.993897920479833 23.13843637729765 9.417227971133345 0 0 0
510 170 1 0.5897 2.073076696958726 24.74058575126947 9.906346682548463 0 -1 0
939 313 1 0.5897 0.04119223622270937 23.945799105413784 9.436370850867782 1 0 0
852 284 1 0.5897 2.9392713910776864 22.617656014129693 9.756265154631613 0 0 0
855 285 1 0.5897 0.7137483304830462 21.86041993240832 10.047022526589492 0 0 0
862 288 2 -1.1794 1.518041512689447 23.437563525733815 6.913312910835845 0 0 0
856 286 2 -1.1794 -0.0247358356213062 19.908673820179516 7.844158424474323 0 0 0
866 289 1 0.5897 4.5022372351612185 23.708743755406275 6.580327548998614 0 0 0
887 296 1 0.5897 6.01327800135222 21.198390734119258 7.542019972312322 0 0 0
853 285 2 -1.1794 1.409494911593726 21.588946837512665 10.645736791559978 0 0 0
845 282 1 0.5897 3.3289092041446655 20.101606596878028 8.532178152309012 0 0 0
864 288 1 0.5897 0.7354039465966643 23.27184922613384 7.438898872338288 0 0 0
842 281 1 0.5897 4.650543901994528 21.012823013858934 10.552016533074527 0 0 0
888 296 1 0.5897 5.7382736463695005 20.193360164277244 8.640264784759816 0 0 0
859 287 2 -1.1794 4.378531282413553 21.986599723545304 6.513880137568482 0 0 0
747 249 1 0.5897 3.8193731385637384 18.843696725209192 6.667359558095831 0 0 0
841 281 2 -1.1794 4.421205041630683 20.240777603157007 10.034741433125854 0 0 0
868 290 2 -1.1794 1.5081073185148268 18.655649601631886 10.675601473604502 0 0 0
863 288 1 0.5897 2.244969773881853 23.342855519969795 7.5287989904094 0 0 0
843 281 1 0.5897 4.089637994328858 19.6121250802115 10.675897693034596 0 0 0
860 287 1 0.5897 3.701889462267488 21.519433786288275 7.003917715867948 0 0 0
865 289 2 -1.1794 4.502689717657523 24.662466651931574 6.661917507892035 0 0 0
846 282 1 0.5897 1.9293071045949761 19.887679229639957 7.99622578457318 0 0 0
854 285 1 0.5897 1.3289761049226876 20.63620915518087 10.690988560386783 0 0 0
746 249 1 0.5897 5.313275493621678 19.026408146613164 6.831017673450095 0 0 0
509 170 1 0.5897 1.4043032590958953 24.43374983069443 11.229376910144042 0 -1 0
1201 401 2 -1.1794 4.789397670485282 14.011005150418931 15.716617978205697 0 0 0
1204 402 2 -1.1794 3.0400576977965676 13.911424396049602 13.639519581234088 0 0 0
1205 402 1 0.5897 3.495748556628119 13.88886964821923 14.480969056524112 0 0 0
1206 402 1 0.5897 3.3855295949810924 13.158926726054522 13.159278601919972 0 0 0
1210 404 2 -1.1794 3.4192253603693405 16.79931219690804 14.931427896286559 0 0 0
1211 404 1 0.5897 3.0152064364638393 17.535438467135663 15.39089881443069 0 0 0
1212 404 1 0.5897 4.346405073849227 17.030655598498697 14.876113184969864 0 0 0
1213 405 2 -1.1794 1.69139876221008 15.222474329301527 16.45342751005981 0 0 0
1214 405 1 0.5897 0.9640945608165865 15.648572874599331 15.99989095939094 0 0 0
1215 405 1 0.5897 2.4541478733465616 15.399135696538771 15.902766661047467 0 0 0
1218 406 1 0.5897 1.257220367809466 13.795584522443624 13.974495829544063 0 0 0
1222 408 2 -1.1794 1.522356159462411 16.97118019637172 12.884633380707653 0 0 0