LAMMPS data file via write_data, version 30 Jul 2021, timestep = 6000000

864 atoms
2 atom types
576 bonds
1 bond types
288 angles
1 angle types

0.48893278481506997 17.71863961518906 xlo xhi
1.6674295078201808 21.961748292186694 ylo yhi
0.5964968554585539 21.616698944534335 zlo zhi

Masses

1 1.00794
2 15.9994

Pair Coeffs # lj/cut/tip4p/long/omp

1 0 0
2 0.21084 3.1668

Bond Coeffs # harmonic/omp

1 450 0.9572

Angle Coeffs # harmonic/omp

1 55 104.52

Atoms # full

843 1 1 0.5897 1.9731450847132632 6.301289695957767 2.5919206518496294 0 2 0
123 1 1 0.5897 2.240800773160043 5.262423445208499 5.174052328296564 4 -3 -1
619 1 2 -1.1794 4.145776708886146 2.690576803490095 5.216454776080351 3 0 4
556 1 2 -1.1794 1.5261884679093758 4.651121264418201 3.890811621698752 3 3 1
616 1 2 -1.1794 2.6881660801959995 2.2239127853239524 2.897236163714732 1 4 2
557 1 1 0.5897 1.8667060919580118 3.8111695528629403 3.5829615220437407 3 3 1
618 1 1 0.5897 3.4158552133943396 2.4160918479052356 3.488621435751115 1 4 2
848 1 1 0.5897 4.288903182879434 6.6949385546414 2.855303984935895 5 -1 6
277 1 2 -1.1794 4.334171454970795 5.601280782316039 1.3310335676272553 0 1 2
558 1 1 0.5897 0.8583313408540348 4.417586296003108 4.53552376608266 3 3 1
278 1 1 0.5897 3.755218114490244 5.022847834568481 0.8346125808622299 0 1 2
621 1 1 0.5897 4.487098077101077 3.529164652022743 5.527042513917085 3 0 4
617 1 1 0.5897 2.051958341168224 1.7607694001502234 3.4421608662324705 1 4 2
808 1 2 -1.1794 4.090202990628715 5.8605773796655525 9.795101361358522 5 0 -2
528 1 1 0.5897 4.243696367358866 5.161437179300275 6.311231142206442 -2 -4 -1
293 1 1 0.5897 3.5849551252124976 2.5048498376984445 9.39056644057114 -2 1 1
121 1 2 -1.1794 2.4628097633607786 5.659293479001649 6.016323382011617 4 -3 -1
810 1 1 0.5897 3.9385760928963514 4.926843599470974 9.648944969437798 5 0 -2
122 1 1 0.5897 2.290795825471781 6.59296805987601 5.894438362527157 4 -3 -1
434 1 1 0.5897 1.7233297199714521 2.994091071938197 7.3828539242004325 2 2 -1
571 1 2 -1.1794 1.0378688390659265 4.782498656654983 8.151155966476 0 -3 -3
572 1 1 0.5897 1.6355624723019342 4.770786164974976 7.403596005257444 0 -3 -3
435 1 1 0.5897 2.5849470370014234 2.352046092147864 6.316461106691101 2 2 -1
455 1 1 0.5897 1.79733658615622 6.080347256649572 9.983001728145517 2 0 -1
292 1 2 -1.1794 4.251892532115803 3.1851063042207235 9.297544543182545 -2 1 1
809 1 1 0.5897 4.574448236939572 5.898815130933651 10.619886641461235 5 0 -2
433 1 2 -1.1794 1.7415480299698944 2.2666870175488434 6.76096298241891 2 2 -1
454 1 2 -1.1794 1.3072812795484596 6.6376807436762135 10.587499738250807 2 0 -1
98 1 1 0.5897 0.7360970222900464 2.5971444311892786 10.350631795753337 5 -6 5
573 1 1 0.5897 0.5731842771108582 5.615752074357514 8.073881017015065 0 -3 -3
857 1 1 0.5897 2.1919000675324822 2.501468496119883 16.053057878213828 -2 0 -1
40 1 2 -1.1794 2.891276249397702 4.790988570133093 15.163740780413406 0 1 5
161 1 1 0.5897 1.1675525713829429 4.281906958113714 12.713304604701738 4 6 1
162 1 1 0.5897 1.0230212052597687 5.687291074243716 12.169376558895419 4 6 1
42 1 1 0.5897 3.266143134424646 4.135299083572001 14.575732753541777 0 1 5
668 1 1 0.5897 4.128346256782987 2.094832147468005 13.614770787393491 -8 -1 -1
41 1 1 0.5897 2.158922497673749 5.16317461439212 14.672478967089733 0 1 5
858 1 1 0.5897 0.7336390117799373 2.1786135118896386 15.806023019696434 -2 0 -1
856 1 2 -1.1794 1.598809442129786 1.773653295725736 15.866716807118804 -2 0 -1
683 1 1 0.5897 2.874284496110779 2.9403450662154142 12.064167286797781 3 1 -4
160 1 2 -1.1794 0.9399445215938966 5.174535869185301 12.973352746908562 4 6 1
682 1 2 -1.1794 2.023846226994402 2.900848881180295 11.626687316503784 3 1 -4
684 1 1 0.5897 1.622346273140123 2.096232544504314 11.954731518841966 3 1 -4
667 1 2 -1.1794 4.138526059832939 2.9878783078988516 13.27040877218077 -8 -1 0
50 1 1 0.5897 3.773186812742197 6.567309596693189 14.929347182010778 6 2 -2
516 1 1 0.5897 2.376594961609638 4.234022133085864 17.485057835040063 -5 -3 -1
514 1 2 -1.1794 2.9075962179750445 3.576236738203724 17.934002614067175 -5 -3 -1
298 1 2 -1.1794 2.804807088456061 3.709184822961041 20.858877750777683 -2 1 0
299 1 1 0.5897 2.965715878658706 2.8060619922981562 21.132130154564507 -2 1 0
692 1 1 0.5897 1.1051285638742803 6.475214555908249 17.009532988261267 0 -1 4
300 1 1 0.5897 2.724102037186756 3.66094472561319 19.906328080409978 -2 1 0
515 1 1 0.5897 3.7576544194926695 3.6140570521785405 17.495614086307775 -5 -3 -1
738 1 1 0.5897 0.7710909309112176 3.6766673423704628 21.051536286620497 1 -1 -2
116 1 1 0.5897 2.504928612293965 1.734360194483444 18.48211832891841 -4 0 3
691 1 2 -1.1794 0.9128805912632444 5.737875903609906 17.58882507074245 0 -1 4
693 1 1 0.5897 0.8350003977597515 6.129968133723607 18.458541411344978 0 -1 4
222 1 1 0.5897 2.8209699666591597 6.5397267586892 19.644000989148207 3 -5 3
249 1 1 0.5897 4.369418754922453 10.185738132672043 3.3448627285144825 -2 2 -1
248 1 1 0.5897 3.014399352534149 10.859808716149018 3.382079412989265 -2 2 -1
842 1 1 0.5897 0.9895186184739551 7.440149055077409 2.4267617701080266 0 2 0
849 1 1 0.5897 3.9874407498700175 8.12564184530528 3.2477802944096177 5 -1 6
525 1 1 0.5897 2.065095391230451 9.343619086945234 1.3078712119502285 -1 0 3
247 1 2 -1.1794 3.4361664817985154 10.003640386812963 3.4547907365347275 -2 2 -1
254 1 1 0.5897 2.967177525670558 8.642417183640182 5.013493705871911 5 4 -6
841 1 2 -1.1794 1.8034430259498917 7.085129737876385 2.069437064911418 0 2 0
242 1 1 0.5897 0.7731546280712068 11.792220617682705 5.379161836389246 1 -3 2
847 1 2 -1.1794 4.370675613340525 7.314137792062788 3.580635249343604 5 -1 6
253 1 2 -1.1794 2.326474219147594 8.43767455397467 5.6945073853711525 5 4 -6
524 1 1 0.5897 3.4212365096486668 9.351352158798058 0.6350985682081493 -1 0 3
806 1 1 0.5897 4.212380360506602 11.728433329924206 0.9129260768391185 0 -1 0
486 1 1 0.5897 0.7193944559608747 9.150294072816994 5.74604400826742 -1 0 0
331 1 2 -1.1794 3.3042204792792207 8.216929296949449 8.466623607629002 -3 -2 -3
340 1 2 -1.1794 1.4535457754558532 10.17717373172609 8.428571275636735 2 3 2
554 1 1 0.5897 1.923633374014263 11.212469687091813 7.068712432927802 -3 -7 3
332 1 1 0.5897 3.3568880486794246 7.296065821528262 8.722415148486576 -3 -2 -3
532 1 2 -1.1794 4.76174158272363 10.442551500703427 6.107815832878797 -9 -2 -2
341 1 1 0.5897 2.0706903911512597 9.445610279423697 8.414900097294987 2 3 2
342 1 1 0.5897 0.5949812108526921 9.765084632727637 8.525166327461985 2 3 2
783 1 1 0.5897 2.5284511078728276 10.732974948596386 9.968041279447952 -3 -4 -1
255 1 1 0.5897 2.8101420222514255 8.531719769850444 6.515131185861603 5 4 -6
333 1 1 0.5897 4.182654858721683 8.5613423374356 8.627635504273265 -3 -2 -3
555 1 1 0.5897 2.987237107941778 11.28187162051211 5.993668862825075 -3 -7 3
330 1 1 0.5897 4.225281843598307 11.516651314791066 9.216131087057699 5 4 0
553 1 2 -1.1794 2.3041779346233575 11.801629258890117 6.417337378945462 -3 -7 3
781 1 2 -1.1794 3.3392268914499352 10.94539524910267 10.430332666428383 -3 -4 -1
456 1 1 0.5897 1.97769529502092 7.15400897295281 11.034946103913676 2 0 -1
328 1 2 -1.1794 4.737819882743903 11.762406698564844 8.445986792485714 5 4 0
49 1 2 -1.1794 3.562658465939436 7.500991448093127 14.941275287809763 6 2 -2
130 1 2 -1.1794 1.1116160141647553 7.884502196624391 16.014388065751596 -5 1 0
51 1 1 0.5897 4.4078154548524475 7.938876573636015 14.840361701965648 6 2 -2
334 1 2 -1.1794 2.3732106358183858 10.721113505875506 14.745079371308181 6 1 3
436 1 2 -1.1794 0.9660138032933322 10.39300018471479 12.29796081842956 -3 5 -1
578 1 1 0.5897 2.164515266231994 9.124810074860527 12.29720685319177 1 2 -1
336 1 1 0.5897 1.8624755933714074 10.697397426844036 13.935893887657683 6 1 3
577 1 2 -1.1794 2.8234573179367333 8.436068591535253 12.209819985672523 1 2 -1
335 1 1 0.5897 2.910618639805973 11.509312744568932 14.66664826083174 6 1 3
579 1 1 0.5897 2.9598129521556853 8.11970448678682 13.102857999655443 1 2 -1
132 1 1 0.5897 2.0096805818958425 7.887263478182607 15.683218828196802 -5 1 0
281 1 1 0.5897 4.384523020013297 9.329566186467876 11.75759952806449 -5 -1 3
131 1 1 0.5897 0.5909966836029625 8.250187294416662 15.299228102969845 -5 1 0
437 1 1 0.5897 0.5647839638089946 10.963483941523236 11.642403262539204 -3 5 -1
216 1 1 0.5897 1.9850630646674141 10.498682394757962 16.337626238946577 0 2 2
782 1 1 0.5897 3.0699465974949325 11.550302635939492 11.121540414243926 -3 -4 -1
430 1 2 -1.1794 1.0413261366570614 6.748028547345633 20.518859297124045 -5 1 -2
215 1 1 0.5897 2.8855531406871315 11.150692475150846 17.36516224347846 0 2 2
169 1 2 -1.1794 1.1796785677021506 8.976839324094245 19.1891096574031 -3 4 -2
171 1 1 0.5897 1.5055779807903877 9.488571753642416 18.448744277973336 -3 4 -2
476 1 1 0.5897 0.7415012471312112 11.363677485945816 20.019685904180545 5 -4 -2
220 1 2 -1.1794 3.6975930540819677 6.9108557834959665 19.54398153431219 3 -5 3
748 1 2 -1.1794 4.416949807894624 8.785969209167527 17.74617107067543 0 4 -1
170 1 1 0.5897 1.7640718313550676 9.202727103758079 19.91274538980562 -3 4 -2
214 1 2 -1.1794 2.0321841691452778 10.728737104580873 17.265556412515394 0 2 2
750 1 1 0.5897 3.807169662419326 8.993300632386621 17.0380927751403 0 4 -1
221 1 1 0.5897 4.016943223439384 7.016976362491278 20.44005336556189 3 -5 3
749 1 1 0.5897 3.9435300559719955 8.161044069780488 18.29528963320172 0 4 -1
432 1 1 0.5897 0.9455437885379498 7.600634949315855 20.094503316167895 -5 1 -2
431 1 1 0.5897 1.1931243021840074 6.954659104952631 21.441058154467733 -5 1 -2
233 1 1 0.5897 0.5578831808211233 11.7123447229335 16.804511890706372 -2 1 -1
523 1 2 -1.1794 2.5030372217138352 9.579592420586287 21.510319264490622 -1 0 2
685 1 2 -1.1794 2.8571968946438173 14.775719654418317 4.097148752170273 9 -9 -2
152 1 1 0.5897 2.8168623070630803 15.922043412067435 0.9845662506910117 2 1 -2
151 1 2 -1.1794 3.655777790952797 16.381112393042898 0.9435241286568992 2 1 -1
149 1 1 0.5897 2.357517146466822 12.860180623660607 3.590773393950652 -4 -1 0
460 1 2 -1.1794 1.346189049411782 15.149237250288548 1.649046876197107 2 5 -1
687 1 1 0.5897 2.8542660162756635 15.295034355348328 4.901202275343646 9 -9 -2
686 1 1 0.5897 2.451484881597538 15.344349122994625 3.442734847871582 9 -9 -2
150 1 1 0.5897 2.7111601153279015 12.447247343012892 2.1778608903974686 -4 -1 0
148 1 2 -1.1794 2.068099062343337 12.299168045560862 2.8712238734935367 -4 -1 0
805 1 2 -1.1794 4.103281088234372 12.667528198969896 1.0625794611564159 0 -1 0
461 1 1 0.5897 0.8620079778111256 15.238992667252656 0.8282449010878191 2 5 -1
539 1 1 0.5897 4.640319066213497 14.321446152735046 3.8966388236929395 -2 -4 2
462 1 1 0.5897 1.1270538736683378 14.271683909231307 1.9622056939620593 2 5 -1
576 1 1 0.5897 1.573885851175782 14.14690480112583 8.708891685342575 2 0 0
265 1 2 -1.1794 3.0946385898068525 16.312729067152873 6.334274715338233 -2 -2 0
267 1 1 0.5897 3.129307073268749 15.529885613987474 6.8839580758617815 -2 -2 0
679 1 2 -1.1794 3.1071151918136284 14.075906193405176 8.10130630547333 -4 -5 0
680 1 1 0.5897 3.1250502073714714 13.19026809112683 7.738658977522738 -4 -5 0
681 1 1 0.5897 3.964535471070385 14.184149288624345 8.512772658769112 -4 -5 0
266 1 1 0.5897 3.858223264740995 16.82573022638679 6.598815928788454 -2 -2 0
575 1 1 0.5897 0.5996534928147566 13.3781882075177 9.57594408433278 2 0 0
574 1 2 -1.1794 0.6434545773541722 14.075922611525382 8.92215095885485 2 0 0
304 1 2 -1.1794 2.7925441454710063 15.900223769381306 10.98185149875392 1 -6 -6
305 1 1 0.5897 3.504847696790886 16.1380005365903 11.575384812308837 1 -6 -6
53 1 1 0.5897 3.075419868313528 13.016101447853389 12.6874292098353 -5 -3 4
825 1 1 0.5897 4.478641124810684 13.496415450369712 14.65292694702806 -2 1 3
52 1 2 -1.1794 2.5282937324352206 13.157655802525206 11.914889783391066 -5 -3 4
349 1 2 -1.1794 4.728023790528569 16.58841103264956 12.889639156072182 -10 -1 -3
823 1 2 -1.1794 4.291917155360926 12.695245959367444 14.163585473214882 -2 1 3
32 1 1 0.5897 0.8242913311480442 13.596885512945049 12.334820793236068 3 8 1
390 1 1 0.5897 0.541305354494241 15.851214805726944 13.75252142610612 4 5 4
196 1 2 -1.1794 4.103997646091466 14.712095578288992 16.037488770952677 1 -2 -1
306 1 1 0.5897 2.0662117616511892 16.46814436521256 11.239011842220817 1 -6 -6
388 1 2 -1.1794 0.8184122331034147 16.191668072200578 14.603115822812715 4 5 4
54 1 1 0.5897 2.709232516824721 14.060918066806202 11.654930745137364 -5 -3 4
542 1 1 0.5897 1.3771937231237659 15.37418480082926 16.140746224208613 -6 -2 1
198 1 1 0.5897 3.1924175132678734 14.684100862345199 16.32811580062583 1 -2 -1
197 1 1 0.5897 4.362746259866306 15.627129184499884 16.146963007203496 1 -2 -1
250 1 2 -1.1794 4.412431231193731 12.330627312508144 17.413739307255295 6 -4 1
260 1 1 0.5897 2.8579788175710856 16.72548897809931 19.520010316636167 1 -3 5
252 1 1 0.5897 4.027910292008857 12.516593218428536 18.270340182403114 6 -4 1
261 1 1 0.5897 1.930303624232775 16.09509197275853 18.503244943498302 1 -3 5
218 1 1 0.5897 1.6625817830885288 13.521060995356647 19.98470952399392 4 -2 -3
251 1 1 0.5897 4.443738477630178 13.180816545212963 16.97508575682123 6 -4 1
217 1 2 -1.1794 2.552988532331145 13.18524843954016 19.8815784971344 4 -2 -3
543 1 1 0.5897 1.0674478052903233 14.215382149825569 17.064353646382408 -6 -2 1
219 1 1 0.5897 2.8906869892569946 13.122316979162193 20.775004940831007 4 -2 -3
541 1 2 -1.1794 1.507192623286371 15.065150402592788 17.037288203493752 -6 -2 1
439 1 2 -1.1794 4.53301448829166 14.898192306119416 19.10985283539086 3 2 1
440 1 1 0.5897 3.804897093985876 14.316791739384048 19.328984772682624 3 2 1
89 1 1 0.5897 3.5179688153137274 21.548180488695824 1.2812729600946202 7 0 5
627 1 1 0.5897 1.077275650389937 20.389625007563836 1.1160349832004552 -5 -2 3
836 1 1 0.5897 2.6234242487028183 18.36411810467287 3.954522564170076 -1 0 1
835 1 2 -1.1794 1.7242107986543809 18.65445048542947 3.8017937621028635 -1 0 1
22 1 2 -1.1794 4.468374447242646 18.407164178377066 4.045528568313937 -5 4 2
354 1 1 0.5897 1.0653252511125082 20.45285959272388 4.476310006022976 5 1 -1
353 1 1 0.5897 0.7092862006038045 21.66871224704316 5.305008794876361 5 1 -1
837 1 1 0.5897 1.6239236749679873 18.634357476574305 2.8500829346096306 -1 0 1
352 1 2 -1.1794 0.6907491725698738 21.331164102882497 4.409506561699948 5 1 -1
766 1 2 -1.1794 1.9103406584751144 18.660157595034086 0.780118947225126 1 -2 -1
563 1 1 0.5897 0.5174667461095763 17.16444482669142 4.473582345780977 3 0 2
153 1 1 0.5897 3.4199423165393155 17.30542195588405 0.8645421917217431 2 1 -1
23 1 1 0.5897 4.697532879404996 19.23248498636432 3.6183010422905153 -5 4 2
745 1 2 -1.1794 2.6557167964216446 21.376569102353322 8.957849385724575 1 4 -6
747 1 1 0.5897 3.3712301598774412 20.84862439439905 8.603547421155037 1 4 -6
81 1 1 0.5897 0.7469542445680941 18.091832905854417 8.57507700469093 3 0 -4
465 1 1 0.5897 3.1757825009294147 17.999887997511387 8.802972398486204 8 4 -1
463 1 2 -1.1794 3.8874976462244097 17.683514307479193 9.359365514849749 8 4 -1
6 1 1 0.5897 2.6973055664162366 20.61211665167244 10.718903362309284 3 -1 0
80 1 1 0.5897 1.6764815007813139 17.681838969233443 7.452673888927313 3 0 -4
746 1 1 0.5897 2.2816461643281603 21.816848741220745 8.19467593444311 1 4 -6
79 1 2 -1.1794 1.3528686029369315 18.448563349351012 7.92561124787514 3 0 -4
464 1 1 0.5897 3.4578231324121607 17.115488045264406 9.998855153473107 8 4 -1
776 1 1 0.5897 4.574905726273928 19.99432989281175 15.021337319029696 4 -4 1
591 1 1 0.5897 2.6324912493269634 21.215934466962697 14.643237265938193 3 4 1
458 1 1 0.5897 4.39881181600694 19.533175462623714 11.69936136578562 0 -1 -2
590 1 1 0.5897 3.0170522350117603 20.680237882559812 13.28054014584127 3 4 1
712 1 2 -1.1794 3.1541001488255485 17.705254752361345 14.714699779939053 -6 -3 1
4 1 2 -1.1794 2.8365227686203585 20.177840573305225 11.560483922047263 3 -1 0
589 1 2 -1.1794 3.374198525002204 20.867457497244786 14.148635733394608 3 4 1
713 1 1 0.5897 3.0093073950363265 18.176462581745866 15.535181499347352 -6 -3 1
5 1 1 0.5897 2.2294432394541595 19.43783115133287 11.552004596600952 3 -1 0
671 1 1 0.5897 1.223380036229722 19.498117760329833 15.129561366551922 6 2 0
394 1 2 -1.1794 1.239180926126833 17.99692852857072 11.998252864918928 4 2 4
395 1 1 0.5897 0.8933843547348215 18.083261966483455 12.88663366075667 4 2 4
714 1 1 0.5897 2.3248155499118734 17.25837405767946 14.545030212431024 -6 -3 1
396 1 1 0.5897 0.5174214264115699 18.270481497382164 11.432173544051963 4 2 3
670 1 2 -1.1794 0.49917300789946495 19.379373352205086 14.515054631729267 6 2 0
351 1 1 0.5897 4.157684545219382 16.90751249105452 13.588994042272434 -10 -1 -3
287 1 1 0.5897 2.657443714280942 19.81468882463819 17.627936944858753 4 -1 2
115 1 2 -1.1794 2.173457886087133 21.211203688573686 18.853669688337103 -4 -1 3
88 1 2 -1.1794 3.528957199350531 21.203256640160873 21.408661431405474 7 0 4
288 1 1 0.5897 2.452774338240565 18.33325104453355 17.863012283172168 4 -1 2
117 1 1 0.5897 2.465816029744226 21.22586982403352 19.764988643978647 -4 -1 3
286 1 2 -1.1794 2.843826148065508 18.95539611418514 17.24965513883615 4 -1 2
259 1 2 -1.1794 2.070809969687102 16.898808132203115 19.0037495549702 1 -3 5
603 1 1 0.5897 0.5338832008885895 20.78005392192307 18.17790599866937 4 2 0
768 1 1 0.5897 2.6296833694798454 18.990519312356337 21.262158636903475 1 -2 -2
767 1 1 0.5897 1.234232616042104 18.410752783588503 21.17033089829567 1 -2 -2
90 1 1 0.5897 4.443829123967005 21.27250501048236 21.13587535583441 7 0 4
316 1 2 -1.1794 4.586311342831715 18.141522483998852 19.65472547631163 -2 -7 0
777 1 1 0.5897 4.795714716731876 19.984590008742757 16.518987737652104 4 -4 1
279 1 1 0.5897 4.907502233036755 5.008012726986395 1.8163988014622146 0 1 2
640 1 2 -1.1794 6.173190112067354 3.652894881078975 1.510502810472834 4 3 -4
146 1 1 0.5897 7.423950973600173 5.4657583101651515 3.4114953709809033 -2 2 -3
588 1 1 0.5897 7.0402310879477215 2.7868327280426852 2.931985402458695 1 2 5
147 1 1 0.5897 7.459970691671945 4.962599130343525 4.838872274362875 -2 2 -3
642 1 1 0.5897 5.7325090006845585 3.4867245603524575 0.6772104261977875 4 3 -4
145 1 2 -1.1794 7.020985495539123 5.595044848983601 4.2700364787489145 -2 2 -3
641 1 1 0.5897 7.003596920245573 4.06110772328994 1.2656036280055534 4 3 -4
613 1 2 -1.1794 8.321817540130727 5.3739471195908335 1.4966904990261214 -7 1 5
632 1 1 0.5897 8.846724650023187 6.614143634187975 4.792389170731671 3 6 5
527 1 1 0.5897 5.5604215372881445 5.326642555546188 5.582707835744648 -2 -4 -1
586 1 2 -1.1794 7.549348853899281 2.305410791817648 3.584085008042793 1 2 5
34 1 2 -1.1794 8.636645561711203 3.915150413923034 5.339017263132887 -5 3 -1
36 1 1 0.5897 8.20106974402244 3.1820578146052085 4.904229626714605 -5 3 -1
587 1 1 0.5897 8.212519419606789 1.839644042536475 3.074717894109024 1 2 5
620 1 1 0.5897 4.849621505341164 2.0656889741892823 5.390622364922957 3 0 4
593 1 1 0.5897 6.357368321758368 3.5849807777892106 7.736457514196322 -2 -1 -1
138 1 1 0.5897 5.83200769974544 5.802438866618312 9.033533129652124 2 -8 3
594 1 1 0.5897 7.827982231283424 3.6193805910135297 7.378798443366 -2 -1 -1
137 1 1 0.5897 7.126730616460934 5.769154430747157 9.817374471251261 2 -8 3
136 1 2 -1.1794 6.7412715487559005 6.1002408214953645 9.006198853574855 2 -8 3
592 1 2 -1.1794 7.170509505058718 3.088420420376243 7.8282504691062185 -2 -1 -1
839 1 1 0.5897 6.633459399629674 2.578067019072932 10.820337016985695 -3 -3 -2
793 1 2 -1.1794 8.289316502395344 5.062628300092325 10.959525137720027 -5 3 3
360 1 1 0.5897 7.805452727813599 2.0133567483022863 9.109025107996167 2 0 -6
447 1 1 0.5897 6.678159707840729 1.755058005812465 6.238123040392607 3 -1 -1
526 1 2 -1.1794 5.174694366102191 4.947721692908055 6.372537405295678 -2 -4 -1
83 1 1 0.5897 7.500635933875664 6.700095483262478 7.648143140855685 -5 0 -5
294 1 1 0.5897 4.812625866867135 3.078117253269179 10.065888375081233 -2 1 1
359 1 1 0.5897 8.821700265022805 1.6888920324918324 10.183180999426376 2 0 -6
371 1 1 0.5897 7.530776105114606 5.079686187197001 14.6803220674084 6 6 -1
43 1 2 -1.1794 5.751615200329213 6.38965049851564 12.088122040898297 2 5 -2
372 1 1 0.5897 6.50831373133213 5.827743574595422 15.509040956282512 6 6 -1
492 1 1 0.5897 5.724223676942102 3.9531158625568095 15.758927790146378 1 5 5
370 1 2 -1.1794 6.59892403048549 5.295007483888368 14.718991385470297 6 6 -1
804 1 1 0.5897 7.94757040171752 1.7226433824063914 13.755861195722318 2 3 -2
44 1 1 0.5897 5.936172352102937 5.925570960592552 12.904681292536532 2 5 -2
491 1 1 0.5897 5.858514489223326 2.509965568024231 16.19606310965068 1 5 5
669 1 1 0.5897 4.973106147359346 3.0568447884116017 12.806753513009493 -8 -1 0
803 1 1 0.5897 7.970090902553222 2.2000761800960684 12.319427246634561 2 3 -2
802 1 2 -1.1794 8.501162171591718 2.168991384062503 13.115158127337994 2 3 -2
838 1 2 -1.1794 6.317205309217119 3.1769958444738076 11.496697200919227 -3 -3 -2
794 1 1 0.5897 8.20954995621239 5.975390359036072 11.236479250187863 -5 3 3
840 1 1 0.5897 6.993960002439125 3.8513563079377424 11.555574070472792 -3 -3 -2
236 1 1 0.5897 8.960320673117655 6.691226018515534 14.46205666516714 1 -1 -3
509 1 1 0.5897 6.5536552909124515 5.484342289118289 19.595180736501973 5 -4 3
206 1 1 0.5897 7.38079332464019 3.6229178866719733 17.166309965391164 -6 4 -4
699 1 1 0.5897 5.480470990441292 3.0690636014040997 19.29666343399777 -5 2 -5
180 1 1 0.5897 8.74754102508818 6.105806865905016 19.557742454563837 -7 1 -2
205 1 2 -1.1794 8.323642529995276 3.6731735842234983 17.323509521094206 -6 4 -4
510 1 1 0.5897 5.052608605769643 5.6157323708008455 19.448900958936218 5 -4 3
508 1 2 -1.1794 5.787505317292038 5.043751833051022 19.22762016570915 5 -4 3
490 1 2 -1.1794 5.500088293782697 3.3538839058222756 16.470892446484847 1 5 5
269 1 1 0.5897 7.53371906964568 2.791537154374799 20.031947793130037 1 5 4
268 1 2 -1.1794 8.484865025464515 2.8963625938007724 20.00910121725712 1 5 4
697 1 2 -1.1794 5.625134478079891 2.399800092244663 19.96555338914357 -5 2 -5
207 1 1 0.5897 8.707727723393111 3.0923969347004023 16.666724316538083 -6 4 -4
20 1 1 0.5897 6.326736244995844 6.2422827192836445 17.750389456242658 -3 -2 -2
270 1 1 0.5897 8.668506817741166 3.229982739328584 19.13094265759433 1 5 4
178 1 2 -1.1794 8.044650504798884 6.435831320360622 20.117415394070637 -7 1 -2
614 1 1 0.5897 8.374012524407961 5.596824806941784 21.58748601294942 -7 1 3
3 1 1 0.5897 7.4109648742892 10.106100984941722 3.7304491695585313 2 -6 4
126 1 1 0.5897 5.871021429542923 9.492699118381562 1.2291390045623984 -1 0 2
100 1 2 -1.1794 8.213538211336331 11.200865261136714 1.3945570154304385 3 -4 0
580 1 2 -1.1794 6.814312518266389 7.9007189938091065 2.0708231772745878 -4 0 1
1 1 2 -1.1794 8.34057490478494 9.886730578663599 3.7930060732832915 2 -6 4
639 1 1 0.5897 5.543150426410089 7.601166614658984 4.874457913225811 -6 3 3
310 1 2 -1.1794 5.9399264207293285 11.389926423862013 3.868224761524094 -1 1 4
2 1 1 0.5897 8.353043885598687 8.97877278524669 4.095755072733193 2 -6 4
311 1 1 0.5897 5.571316416268349 11.217502536196408 4.734589998034653 -1 1 4
581 1 1 0.5897 6.2793279240883235 7.43597461049841 2.714256613408113 -4 0 1
582 1 1 0.5897 7.254562542411393 7.207458881362221 1.5791322379940118 -4 0 1
101 1 1 0.5897 8.037019685228405 10.500875563695374 2.023087170565939 3 -4 0
637 1 2 -1.1794 5.931443689413802 7.922119935833112 5.688342149110819 -6 3 3
124 1 2 -1.1794 5.256161817344187 9.943045580813996 0.6500477908868162 -1 0 2
190 1 2 -1.1794 8.14439104756119 9.774235205876758 7.495134357326061 1 6 -4
129 1 1 0.5897 6.809821188603103 9.146850841526017 8.527884651605316 0 0 -5
495 1 1 0.5897 7.347358406474568 11.521688168363056 8.353405740066197 0 -3 -1
84 1 1 0.5897 7.9293169112495185 7.974844284844337 6.9530763588330275 -5 0 -5
128 1 1 0.5897 6.365977588263362 7.86472732427318 9.199435027610994 0 0 -5
127 1 2 -1.1794 6.081755343577419 8.759724233149608 9.013937881789596 0 0 -5
282 1 1 0.5897 5.595470814215158 9.537598709611487 10.873166703005383 -5 -1 3
192 1 1 0.5897 8.052652732545834 10.53767197249377 6.925083823621316 1 6 -4
533 1 1 0.5897 4.844945567302753 10.852857892637036 6.968593960803162 -9 -2 -2
82 1 2 -1.1794 8.04627497422419 7.025061683935436 6.9319808166616435 -5 0 -5
534 1 1 0.5897 5.136681355887575 9.569171820948718 6.2210286163810045 -9 -2 -2
191 1 1 0.5897 9.060797439319337 9.789546947129946 7.771150855216462 1 6 -4
494 1 1 0.5897 7.9331220665733095 11.694952073593623 9.738559397562398 0 -3 -1
638 1 1 0.5897 6.583418300213601 7.2608250449566505 5.920307426892803 -6 3 3
27 1 1 0.5897 8.18312850088935 9.966427727274818 11.010922741366864 0 6 4
666 1 1 0.5897 6.74382646159174 8.280294043692367 14.246417754260541 2 0 3
830 1 1 0.5897 8.306651648190439 10.89629900562428 16.196058631232788 8 2 2
26 1 1 0.5897 7.760180926041185 11.26200915007202 11.670057238314422 0 6 4
716 1 1 0.5897 8.43474569069587 8.03352677428983 12.261606543960605 2 -9 -2
715 1 2 -1.1794 8.420261425033445 7.9032761633339526 11.313441177028189 2 -9 -2
664 1 2 -1.1794 5.961847276478091 8.802961019768304 14.423986421014675 2 0 3
280 1 2 -1.1794 5.33314488249571 9.453190078485061 11.789838734241858 -5 -1 3
665 1 1 0.5897 5.7665635697576185 9.233079513316785 13.591433549085686 2 0 3
164 1 1 0.5897 5.720984887118787 11.403624393371805 11.933755845840812 -4 1 -1
25 1 2 -1.1794 8.496561898515447 10.845899672526778 11.221918075785522 0 6 4
758 1 1 0.5897 6.271852460252775 10.179689475478181 15.25913733172251 1 0 1
45 1 1 0.5897 5.835678901885716 7.315953106587087 12.314261872574024 2 5 -2
235 1 2 -1.1794 8.768287502409809 7.627246801252604 14.405615883020797 1 -1 -3
757 1 2 -1.1794 6.570832280704675 10.930424806337319 15.772167137083088 1 0 1
237 1 1 0.5897 8.994021870734136 7.971086891768546 15.269914982636802 1 -1 -3
467 1 1 0.5897 6.99745199753693 9.819691243440776 18.954510231761255 4 -3 6
468 1 1 0.5897 5.530194024066341 9.636961230016516 18.62953216179173 4 -3 6
503 1 1 0.5897 8.104404556047518 7.5752830609803015 17.246558619418465 -2 -1 4
114 1 1 0.5897 8.618298273329287 9.930427148294367 20.72294602122641 -2 -1 -1
466 1 2 -1.1794 6.1221614778182865 10.098543803486583 19.22344206260093 4 -3 6
19 1 2 -1.1794 6.376769677454208 6.829787173744385 16.996358094285366 -3 -2 -1
112 1 2 -1.1794 8.784659989952958 9.293927705533353 20.027670711475064 -2 -1 -1
21 1 1 0.5897 5.630454493846512 7.419773245722047 17.101879437844932 -3 -2 -1
179 1 1 0.5897 8.172641940341352 7.384340242280128 20.12927718496457 -7 1 -2
125 1 1 0.5897 5.660327562730012 9.89117827498896 20.804128883362687 -1 0 1
502 1 2 -1.1794 8.963894922529208 7.996460683507194 17.23735480637676 -2 -1 4
759 1 1 0.5897 5.88049386059903 11.068079381336059 16.42079448735641 1 0 1
540 1 1 0.5897 5.807222232112207 14.403535669005128 4.857581974837511 -2 -4 2
544 1 2 -1.1794 5.850538249733987 16.550403997874145 2.683324662191267 -5 3 4
545 1 1 0.5897 5.23192513610835 16.51582682720155 1.9537278454840872 -5 3 4
518 1 1 0.5897 7.268542585249613 12.859751151319855 1.3652392256710297 -2 -1 -4
312 1 1 0.5897 5.82891644623409 12.332420225496678 3.7434283876735184 -1 1 4
546 1 1 0.5897 5.822595451979219 15.672394622896725 3.0634660384152768 -5 3 4
807 1 1 0.5897 4.993886333376166 12.996000153210275 1.1856217140611587 0 -1 0
538 1 2 -1.1794 5.56733878869696 14.099018770769705 3.982413955118344 -2 -4 2
517 1 2 -1.1794 6.898569610139702 13.588117085263203 0.8664431126026905 -2 -1 -4
695 1 1 0.5897 8.448935929501115 14.915170889841937 1.435309296161561 3 -3 -3
694 1 2 -1.1794 9.070153082421482 15.424928661127026 1.9553352511690867 3 -3 -3
365 1 1 0.5897 7.516987606767687 11.848527851404109 5.104711643464948 3 4 2
689 1 1 0.5897 5.691033141591422 14.909253352784384 9.704288844598173 2 -3 5
753 1 1 0.5897 6.814972988012796 15.39196815640266 7.2806950041623875 2 1 -1
690 1 1 0.5897 5.032016997639561 16.068094021425345 8.98694297621198 2 -3 5
743 1 1 0.5897 8.741886250058316 15.205519030031493 9.889611322014742 1 -2 1
751 1 2 -1.1794 6.943284952264219 15.056405067207331 6.393475044132653 2 1 -1
493 1 2 -1.1794 7.564885387588804 12.187902665062158 9.005353637190042 0 -3 -1
752 1 1 0.5897 7.725856695732104 15.507689237078178 6.077043351356512 2 1 -1
744 1 1 0.5897 8.489929055486707 13.89981792522354 9.166093160766911 1 -2 1
329 1 1 0.5897 5.446058432294951 12.305260939963054 8.792282315666432 5 4 0
366 1 1 0.5897 7.354304092079028 12.910621171479887 6.171219803200243 3 4 2
184 1 2 -1.1794 7.958308673062486 16.40751544553732 11.092333557778115 -1 7 3
688 1 2 -1.1794 5.4691631438746615 15.23105257151194 8.830552977488312 2 -3 5
364 1 2 -1.1794 7.730781702124742 12.044195884155306 6.016991855655238 3 4 2
273 1 1 0.5897 6.9944805206168565 12.575748307511354 15.008498150165002 -2 1 2
401 1 1 0.5897 6.808534870324325 15.439036896472693 14.519868060005296 -4 -3 0
165 1 1 0.5897 6.296309588893617 12.803752192270393 11.955416354996066 -4 1 -1
529 1 2 -1.1794 6.094238789822004 14.453277974570737 11.47984493351558 -3 -1 -4
530 1 1 0.5897 5.4602998237312095 14.998490678030382 11.945741436085385 -3 -1 -4
271 1 2 -1.1794 7.22933660951537 13.495022079929342 14.882017741461299 -2 1 2
272 1 1 0.5897 7.506225724952289 13.548308124677412 13.96730946794554 -2 1 2
400 1 2 -1.1794 6.860515062250761 16.389320397083274 14.417638925773163 -4 -3 0
163 1 2 -1.1794 6.327449903443106 11.965378964781998 12.41627063943737 -4 1 -1
402 1 1 0.5897 6.162461010978702 16.60261406529021 13.798433780882897 -4 -3 0
531 1 1 0.5897 6.921132538236075 14.929575251125762 11.55458232627413 -3 -1 -4
824 1 1 0.5897 5.131931941868074 12.449439769584687 13.776068872873928 -2 1 3
186 1 1 0.5897 8.189992096909526 16.864144214528643 11.901041743994353 -1 7 3
378 1 1 0.5897 6.658670453405248 14.100172259062917 16.668518732388165 4 4 1
377 1 1 0.5897 6.1407603708911 14.686808875947316 17.964452571930014 4 4 1
519 1 1 0.5897 7.184085879314401 13.432056040869853 20.986467250008914 -2 -1 -5
345 1 1 0.5897 7.253390689870068 13.262159420679751 18.61950871618589 -3 1 0