LAMMPS data file via write_data, version 30 Jul 2021, timestep = 28500000

1008 atoms
2 atom types
672 bonds
1 bond types
336 angles
1 angle types

-3.1108327337433828 14.720831733293931 xlo xhi
-0.10399756744427435 22.683996567441362 ylo yhi
0.05644484656967741 19.173553153421594 zlo zhi
-0.3083784016677774 -6.526942183150921 0.0577110593080782 xy xz yz

Masses

1 1.008
2 15.999

Pair Coeffs # lj/cut/tip4p/long/omp

1 0 0
2 0.21084 3.1668

Bond Coeffs # harmonic/omp

1 450 0.9572

Angle Coeffs # harmonic/omp

1 55 104.52

Atoms # full

55 19 2 -1.1794 -0.665095638294976 4.193688678104949 3.4714671007846034 0 0 0
56 19 1 0.5897 -1.2636642740914474 3.7360535367096563 2.880994772567225 0 0 0
57 19 1 0.5897 0.13478745692426397 4.3109143845694184 2.958995734351289 0 0 0
121 41 2 -1.1794 -2.6053286374556093 2.4534296899251418 2.4290616733515655 1 0 0
122 41 1 0.5897 -2.572607013500962 2.0734226338774695 1.5511626024832819 1 0 0
21 7 1 0.5897 1.4672352150082357 2.2494856545301896 0.7784665707211446 0 0 0
31 11 2 -1.1794 1.4875087432952547 1.1052841064334433 2.2321444465875864 0 0 0
86 29 1 0.5897 -2.2694447231457344 1.5783406874285224 4.047733065513848 1 0 0
32 11 1 0.5897 1.2393818309343203 1.3898303479549103 3.1116746644012045 0 0 0
46 16 2 -1.1794 1.7228541790131864 4.882363308046252 2.2881205514103224 0 0 0
158 53 1 0.5897 -4.416358880995551 4.337032907396033 4.481364298326874 1 0 0
70 24 2 -1.1794 3.908801647289688 0.24594920088387018 1.3333389320539029 0 0 0
669 223 1 0.5897 -5.2082541160460245 1.7957925748605357 8.931293137124248 1 0 0
71 24 1 0.5897 3.1392046750875853 0.5169719913867664 1.8337834867702885 0 0 0
606 202 1 0.5897 -5.868748078565244 4.421980241623828 9.449116039803275 1 0 0
123 41 1 0.5897 -3.5070785324377125 2.7602057576424217 2.5241883569746513 1 0 0
401 134 1 0.5897 2.6724184762680707 0.16509461743554948 8.813116654773973 0 1 0
54 18 1 0.5897 3.047010482481367 3.7446897312301064 2.984044534181272 0 0 0
527 176 1 0.5897 4.191875471937301 1.6901152351886222 0.30502552895269547 0 0 1
522 174 1 0.5897 1.969991963848397 5.484503051111704 9.242871295598576 0 0 0
44 15 1 0.5897 -0.33423486075680664 5.289242284671991 7.9749861911340725 0 0 0
52 18 2 -1.1794 3.5966255025885614 3.249513873506777 3.591518517041448 0 0 0
47 16 1 0.5897 1.9948633513139313 5.340434536890962 1.4929604084870813 0 0 0
33 11 1 0.5897 0.7604675454734231 0.5529877112310005 1.9444817915280368 0 0 0
5 2 1 0.5897 3.2247125593113397 0.3133079341809715 4.930860246480971 0 0 0
124 42 2 -1.1794 -5.023422508934969 2.387609194418835 7.409916031199033 1 0 0
6 2 1 0.5897 3.686983488174728 1.7159781243943457 4.598395427057855 0 0 0
159 53 1 0.5897 -3.299546258507849 4.18845085214625 5.492781430445726 1 0 0
87 29 1 0.5897 -3.2211746801384553 0.7915810620129798 4.923442358214805 1 0 0
85 29 2 -1.1794 -2.324217449079608 1.1241097023552797 4.888443533192204 1 0 0
45 15 1 0.5897 0.5181419254336732 4.493849658808518 7.009327804469298 0 0 0
78 26 1 0.5897 0.07609143992945944 2.7495843650256897 4.47638567311615 0 0 0
76 26 2 -1.1794 0.7729885896718871 2.1236200410461183 4.6733060635573125 0 0 0
59 20 1 0.5897 1.8966465073401837 3.350880035452216 5.62687069047918 0 0 0
43 15 2 -1.1794 -0.3727320683252544 4.817550571602445 7.142983173014035 0 0 0
60 20 1 0.5897 2.887033770555912 3.8269896361148494 6.668390529976246 0 0 0
34 12 2 -1.1794 0.10315030033108474 1.2290360457119724 7.228198754214688 0 0 0
35 12 1 0.5897 0.22523993343110194 1.8674823029789587 7.930827338887708 0 0 0
36 12 1 0.5897 -0.7511498822032832 0.8358897443297587 7.406800402664997 0 0 0
4 2 2 -1.1794 3.9275741775836748 0.9396813991467465 5.104007613607967 0 0 0
67 23 2 -1.1794 -2.3708855071451516 0.429929278973585 8.26043210820024 0 0 0
157 53 2 -1.1794 -3.783248705575189 4.843820256941057 4.990011282960052 1 0 0
58 20 2 -1.1794 2.095600750115464 4.091735650584703 6.199411854415728 0 0 0
602 201 1 0.5897 -0.527120111901541 5.17608321815462 0.6065334438641804 1 0 1
98 33 1 0.5897 -3.848843924558399 4.817223086276007 8.514418197820898 1 0 0
135 45 1 0.5897 -1.768454166630843 3.781212269993139 6.856426567801011 1 0 0
126 42 1 0.5897 -4.132746978495273 2.7204332626035717 7.299275482545454 1 0 0
77 26 1 0.5897 0.4389525441651756 1.6178358960734358 5.414040811387701 0 0 0
134 45 1 0.5897 -2.3106806613793047 2.52238552430287 6.213524726964819 1 0 0
133 45 2 -1.1794 -2.5784780538907026 3.2900806484377214 6.718598586105816 1 0 0
69 23 1 0.5897 -2.517824049467248 1.1492679731193725 8.874546730326074 0 0 0
101 34 1 0.5897 -2.6306907046513555 4.561857410067921 0.236597390898429 1 0 0
22 8 2 -1.1794 0.5548789105804457 2.731675945900274 9.47449503278227 0 0 0
48 16 1 0.5897 1.8399936166083979 5.5253569942473115 2.9874370136918644 0 0 0
53 18 1 0.5897 4.337441609085022 2.9566635896865936 3.0608526218740923 0 0 0
402 134 1 0.5897 1.4503038385289226 -0.021301507988296803 7.9390047188587065 0 1 0
482 161 1 0.5897 -0.9449793144369898 0.23839310790378637 0.7627552909696729 1 1 0
68 23 1 0.5897 -3.247875272144796 0.18019237989856413 7.968983566085963 0 0 0
97 33 2 -1.1794 -3.9329032351597495 4.492674226923797 9.410925389104776 1 0 0
18 6 1 0.5897 4.894921279586665 3.9827535018454716 0.23020283588389653 0 0 0
16 6 2 -1.1794 5.366490093771377 4.801141945549825 0.38556880934948795 0 0 0
520 174 2 -1.1794 2.2964216802278443 4.838770826714067 9.86948494589813 0 0 0
626 209 1 0.5897 -5.728092722165437 2.044627033873128 12.511733399411844 1 0 0
23 8 1 0.5897 0.6523708285204095 2.050916321603897 10.14020734608575 0 0 0
571 191 2 -1.1794 -5.727353637104709 0.4237052991520416 17.63511455361609 0 0 0
536 179 1 0.5897 -1.894186373080669 1.385906708166282 12.956676005602064 0 0 0
526 176 2 -1.1794 -2.4364036834663283 2.4670725905689697 18.798781514732724 0 0 0
576 192 1 0.5897 -0.060006108892492804 0.4225034387794818 11.616716786450977 0 0 0
628 210 2 -1.1794 -7.859187480941145 2.561948081732017 16.529461590067065 1 0 0
535 179 2 -1.1794 -1.7540072290113198 0.897488242984283 12.145528851611134 0 0 0
575 192 1 0.5897 1.382601031392297 -0.03665257332491935 11.630115726287354 0 0 0
537 179 1 0.5897 -1.8263275019692031 1.5551310725270986 11.453872309862776 0 0 0
561 187 1 0.5897 -3.6188974927901176 3.738345949261763 13.58722764434387 0 0 0
629 210 1 0.5897 -8.573373613536656 3.1992772464206354 16.531746375195105 1 0 0
164 55 1 0.5897 -8.27307753814554 1.826951837279724 18.17200434277538 1 0 -1
627 209 1 0.5897 -6.867758769531317 2.98034380274709 12.168699960890834 1 0 0
557 186 1 0.5897 0.2390734191285615 2.5578711019927987 13.284129736717244 0 0 0
558 186 1 0.5897 -0.27554575571206996 3.710083743137167 12.447822866717015 0 0 0
559 187 2 -1.1794 -4.16389665781273 4.4414222759927 13.233786189583446 0 0 0
560 187 1 0.5897 -4.8692735935172635 3.988946200932408 12.771085510524761 0 0 0
625 209 2 -1.1794 -5.972199054420534 2.7541932703106857 11.917500369585825 1 0 0
668 223 1 0.5897 -5.591919171529933 1.8265576449876995 10.395344946915802 1 0 0
556 186 2 -1.1794 0.5274107020337793 3.3416048663809073 12.81641145961065 0 0 0
580 194 2 -1.1794 -2.440998336221754 2.412954813446732 14.369589667883337 0 0 0
552 184 1 0.5897 -2.5319412238806667 4.631065192880422 12.095349231401547 0 0 0
589 197 2 -1.1794 -5.323830961870721 0.9889520750532685 13.98701583438212 1 0 0
550 184 2 -1.1794 -1.611505172143902 4.87722949582321 12.002933424717392 0 0 0
548 183 1 0.5897 -3.548550033450999 5.638079039504779 16.4059824727006 0 0 0
551 184 1 0.5897 -1.4545766503439772 5.492935390984357 12.718842626272165 0 0 0
593 198 1 0.5897 -7.4377283566978525 0.6257680308909934 14.235972018686063 1 0 0
582 194 1 0.5897 -1.9182153792202943 3.0922144573065125 14.795763235501875 0 0 0
574 192 2 -1.1794 0.7189691693708062 0.35803407366941503 11.064289818427579 0 0 0
547 183 2 -1.1794 -3.4851735267565207 4.9521455214553125 17.07053435396164 0 0 0
639 213 1 0.5897 -5.436150490860458 3.7735693474087797 15.219533953899719 1 0 0
538 180 2 -1.1794 -3.179163444473252 0.7705251804888666 16.632764068510767 0 0 0
540 180 1 0.5897 -4.129597282699995 0.6724995411347932 16.691081516089945 0 0 0
601 201 2 -1.1794 -7.155341170321279 4.678984235116495 18.950237285565294 1 0 0
539 180 1 0.5897 -2.9584230308901835 1.3893613580406985 17.328879591790212 0 0 0
638 213 1 0.5897 -6.016266770005542 2.9480784592296034 16.348074463164124 1 0 0
549 183 1 0.5897 -4.148760064954447 4.310474539128659 16.8170443113381 0 0 0
562 188 2 -1.1794 -1.1269574902357933 4.182161399099278 15.955071979970285 0 0 0
165 55 1 0.5897 -9.29409841168847 0.801637862082099 18.61707129095435 1 0 -1
564 188 1 0.5897 -1.8782761726247195 4.400866792741324 16.506296969335587 0 0 0
667 223 2 -1.1794 -5.411773624273353 1.2254994969970454 9.67254344297243 1 0 0
630 210 1 0.5897 -8.091955021711964 1.943329955403212 15.83707476064473 1 0 0
637 213 2 -1.1794 -5.200241356590812 3.12062853888357 15.878476387983595 1 0 0
523 175 2 -1.1794 -2.1626404906582812 2.589712274913347 9.962766105827676 0 0 0
581 194 1 0.5897 -2.6421238698275635 1.7909527904971532 15.068708692138184 0 0 0
590 197 1 0.5897 -5.101243915100638 1.5947176136492438 14.693956323667088 1 0 0
563 188 1 0.5897 -0.9301626284652862 4.992464283589806 15.485162979981716 0 0 0
661 221 2 -1.1794 -6.835457779968609 4.9829940650338935 14.406928223735969 1 0 0
20 7 1 0.5897 -5.596486079029702 2.0047764395255925 18.512664093887146 0 0 -1
663 221 1 0.5897 -7.383085549351527 4.310073317267005 14.002429374455517 1 0 0
528 176 1 0.5897 -3.35127667184243 2.7344222594703123 18.887365431805584 0 0 0
591 197 1 0.5897 -4.702074766081193 0.2677247662537737 14.084458067209379 1 0 0
524 175 1 0.5897 -2.8331737541772437 3.2514485617734397 9.793198481647556 0 0 0
986 329 1 0.5897 -4.340357578786927 0.20637225431482703 10.838587293964071 1 1 0
508 170 2 -1.1794 0.5409690801643672 0.9575813038090433 14.415864239568455 0 0 0
572 191 1 0.5897 -6.530786748677118 0.004623240715100507 17.326454194811696 0 0 0
99 33 1 0.5897 -3.8005672722181916 5.265858329242095 9.95947530563434 1 0 0
510 170 1 0.5897 0.571634109199409 1.418032385123941 15.254459589086274 0 0 0
525 175 1 0.5897 -1.3506073683175028 2.983531594640501 9.643788748965454 0 0 0
19 7 2 -1.1794 -5.254491180254792 2.7171770158378474 19.052863864036347 0 0 -1
163 55 2 -1.1794 -8.62233910350295 1.3957876785723744 18.951875974892488 1 0 -1
24 8 1 0.5897 1.2563288376263149 3.3548549883366903 9.664119636965998 0 0 0
603 201 1 0.5897 -6.488017881305826 4.000425292443343 19.05272210657909 1 0 0
289 97 2 -1.1794 -2.799553670830076 9.995728518663244 2.5711962656829734 1 0 0
332 111 1 0.5897 -2.2070464443195297 9.051471997442263 1.0105153911073843 1 0 0
255 85 1 0.5897 -2.546398747110984 8.959332944029763 3.9278202219592484 1 0 0
147 49 1 0.5897 -0.9934394559734097 7.268344682830418 1.1137100398689401 1 0 0
146 49 1 0.5897 -1.4939220905937773 6.529750002764927 2.3366408961502083 1 0 0
145 49 2 -1.1794 -0.7003977723574355 6.7072424126384895 1.8316857067675896 1 0 0
174 58 1 0.5897 3.596594987092203 9.158954628485256 4.591353816309593 0 0 0
112 38 2 -1.1794 -3.246885408289078 6.445623727685588 2.7456477216480852 1 0 0
187 63 2 -1.1794 0.7721653224044069 10.293290977388134 0.25397732369435544 0 0 0
696 232 1 0.5897 4.207944090371304 10.952661738987324 0.24269768131049227 0 0 1
110 37 1 0.5897 -4.062248937450552 5.9262799818979355 6.437228496035429 1 0 0
114 38 1 0.5897 -3.343376705422762 5.866005686442506 1.9900471034168863 1 0 0
201 67 1 0.5897 2.0866910169174195 8.56696743810162 2.322104436633102 0 0 0
188 63 1 0.5897 0.7023736075450624 9.873057072964585 1.111094247485135 0 0 0
200 67 1 0.5897 0.7070474342891169 7.95269031333393 2.4289072883697203 0 0 0
8 3 1 0.5897 -0.4771132940983005 5.9420243087676905 5.833820527911185 0 0 0
199 67 2 -1.1794 1.1818897486164186 8.774045612506905 2.5560674411229876 0 0 0
239 80 1 0.5897 3.886505520310525 8.864844113543672 1.1741801858650232 0 0 0
238 80 2 -1.1794 3.753267692176 8.066287927499147 1.6847470652900798 0 0 0
173 58 1 0.5897 3.131684089940789 7.797958976075884 5.063874744729618 0 0 0
10 4 2 -1.1794 2.0628669193914613 6.487035593194126 4.570720591142775 0 0 0
240 80 1 0.5897 3.3120520614830538 7.467181561391417 1.0824789670157529 0 0 0
245 82 1 0.5897 0.8749867453596911 9.69818133692517 3.948661934772898 0 0 0
222 74 1 0.5897 2.8626097006150477 11.176011108671467 3.256378000488532 0 0 0
291 97 1 0.5897 -3.6940362403534697 10.288052836626818 2.7465219474865763 1 0 0
113 38 1 0.5897 -3.427735061948282 5.886829514536997 3.5013717128352746 1 0 0
12 4 1 0.5897 1.1212067235864307 6.652556205478305 4.617727087790156 0 0 0
221 74 1 0.5897 4.2665946053514645 10.616563177823801 3.1672034960726463 0 0 0
837 279 1 0.5897 -5.884721396499719 8.15644870467639 9.03909576783528 1 0 0
301 101 2 -1.1794 -2.406633957108294 10.641334598077647 6.569309493516844 1 0 0
303 101 1 0.5897 -1.6041038494861324 11.025415152782461 6.92263625322575 1 0 0
11 4 1 0.5897 2.2147097344462345 5.7834713395649295 5.201660072179185 0 0 0
254 85 1 0.5897 -1.7737945185423245 7.835964798158364 4.585894536710934 1 0 0
253 85 2 -1.1794 -2.39472758297497 8.539571994118115 4.774563674203469 1 0 0
302 101 1 0.5897 -2.1121182964205834 9.86340380237167 6.095793928961494 1 0 0
244 82 2 -1.1794 0.486350585431091 10.255995711675956 4.622419785464166 0 0 0
220 74 2 -1.1794 3.533892930022019 10.729670144347715 3.7726084230094203 0 0 0
294 98 1 0.5897 -5.062093724368662 9.911931889389605 8.311769225041395 1 0 0
109 37 2 -1.1794 -4.117587535016373 6.3352574606271235 7.300855431274742 1 0 0
7 3 2 -1.1794 -0.5649138619970406 6.475157036032524 5.043748803764799 0 0 0
64 22 2 -1.1794 1.9129189201611725 7.014165270521843 8.06819262989577 0 0 0
237 79 1 0.5897 -2.2332510101364806 8.741782840192572 8.520235363190325 0 0 0
257 86 1 0.5897 -4.202983394674915 8.421555487147042 4.95650180394249 1 0 0
290 97 1 0.5897 -2.264759501302916 10.782551981289522 2.676962613283313 1 0 0
292 98 2 -1.1794 -4.960389669454145 10.243377907571205 7.41962909147418 1 0 0
191 64 1 0.5897 0.5869516546520748 9.81699693340467 8.710652103933558 0 0 0
293 98 1 0.5897 -4.0216604122542545 10.40821334608531 7.330538283552913 1 0 0
202 68 2 -1.1794 0.28358617741046377 8.869669482886437 7.14926749943279 0 0 0
203 68 1 0.5897 -0.5738424600302303 8.482955294618565 7.326844737893174 0 0 0
204 68 1 0.5897 0.9095989873728216 8.18762964311975 7.392549744325486 0 0 0
246 82 1 0.5897 0.36545015963358196 9.67573891408999 5.373943736733046 0 0 0
235 79 2 -1.1794 -2.0542358630550157 7.870237406756452 8.167327749108885 0 0 0
236 79 1 0.5897 -2.9193187459783494 7.501083428221881 7.989187148332475 0 0 0
111 37 1 0.5897 -5.030684852046196 6.612272317103911 7.3770294498448825 1 0 0
66 22 1 0.5897 2.7285436366643943 6.737316979004125 7.65067729298414 0 0 0
172 58 2 -1.1794 3.7385890531476367 8.506762833390892 5.277392504951852 0 0 0
65 22 1 0.5897 2.19314185746118 7.550544591367875 8.80984317989258 0 0 0
588 196 1 0.5897 -1.2165449921132656 6.683639482575222 9.260522297025716 0 0 0
694 232 2 -1.1794 3.523780595222294 10.304649567987324 0.07436895980693004 0 0 1
9 3 1 0.5897 -0.7166764348467511 5.841682495889593 4.3423804036296705 0 0 0
331 111 2 -1.1794 -1.9331943560538585 8.554519697504647 0.23968627215220606 1 0 0
189 63 1 0.5897 1.7112561613410735 10.431763655506288 0.1304479411315092 0 0 0
691 231 2 -1.1794 -2.2535493125226007 10.160887283069853 9.605304137495395 0 0 0
82 28 2 -1.1794 2.309789352371493 6.355069017719928 0.11750342303017382 0 0 0
692 231 1 0.5897 -1.297108645177019 10.16578813595643 9.565857430992576 0 0 0
615 205 1 0.5897 -7.227232715903978 5.800767797748425 16.075947220375973 1 0 0
798 266 1 0.5897 -8.484648699464014 9.736055805466838 16.60194466577665 1 0 0
759 253 1 0.5897 -5.898475820687499 8.804287835246527 13.508131803304012 1 0 0
651 217 1 0.5897 -4.628993466668332 6.550172339329042 11.509028236697716 1 0 0
587 196 1 0.5897 -1.247395868330337 5.66693594658786 10.381688297134499 0 0 0
797 266 1 0.5897 -7.271717277629797 10.587070172758116 16.913108323900644 1 0 0
795 265 1 0.5897 -5.65047767195073 9.533302665889353 11.296694708284702 1 0 0
693 231 1 0.5897 -2.458288654492372 9.671394283942412 10.401912300561936 0 0 0
649 217 2 -1.1794 -3.861157518226123 6.740872528234511 10.970304704934321 1 0 0
650 217 1 0.5897 -3.3387241289857617 7.34218460513679 11.501184955844417 1 0 0
742 248 2 -1.1794 0.33425972053182074 7.889881258378747 11.423852067031602 0 0 0
793 265 2 -1.1794 -5.909814666092395 9.849379036448349 12.162124298346608 1 0 0
743 248 1 0.5897 0.5159317199008862 8.64848984014522 10.869210714554603 0 0 0
744 248 1 0.5897 -0.016228545276834705 7.231963765931465 10.823356883837436 0 0 0
741 247 1 0.5897 -5.920097672291871 8.795282780954395 17.951709925367467 0 0 0
513 171 1 0.5897 -4.212346918370425 5.897560964465644 14.252140889030068 0 0 0
703 235 2 -1.1794 -2.2193656299138826 8.576715962821758 11.92569943377658 0 0 0
704 235 1 0.5897 -1.269663740287739 8.45666593752805 11.921880451585004 0 0 0
705 235 1 0.5897 -2.411742052646205 8.93994631170555 12.790094157468843 0 0 0
676 226 2 -1.1794 0.3024865485671935 8.643715533963498 14.680116083687409 0 0 0
706 236 2 -1.1794 -2.8879708041114807 8.86143430285896 16.782607780644632 0 0 0
707 236 1 0.5897 -3.7731381321453767 8.607238496072046 17.043660304846803 0 0 0
750 250 1 0.5897 -3.3727151149758496 10.417070961407742 14.101081595852 0 0 0
333 111 1 0.5897 -8.359563623121375 9.271086334248285 18.66983850130282 1 0 -1
677 226 1 0.5897 0.31572341316841346 9.0631938964031 15.540377471276468 0 0 0
796 266 2 -1.1794 -8.151943084654803 10.380055029559175 17.22713735149882 1 0 0
748 250 2 -1.1794 -2.572308100296131 9.92959473974596 14.296115551727384 0 0 0
514 172 2 -1.1794 -1.2007654996586732 6.429435047805983 14.272491598836206 0 0 0
708 236 1 0.5897 -2.3443298620388147 8.107605723958269 17.011607557277948 0 0 0
749 250 1 0.5897 -2.757688510707422 9.484806096730736 15.123099998537615 0 0 0
617 206 1 0.5897 -7.1479164348201065 6.986007111990325 11.715829950522197 1 0 0
512 171 1 0.5897 -4.650194618885088 7.23530149882794 14.80936463525489 0 0 0
511 171 2 -1.1794 -3.9343932525793983 6.60048097363552 14.839439930960976 0 0 0
515 172 1 0.5897 -2.0865780591260723 6.767572373946647 14.403900308752888 0 0 0
516 172 1 0.5897 -0.6336818689305517 7.192745277686343 14.382274548187059 0 0 0
724 242 2 -1.1794 0.4286136379966763 10.741209692253358 12.887624989458493 0 0 0
757 253 2 -1.1794 -5.976866227869005 8.451111422450474 14.394271201324516 1 0 0
695 232 1 0.5897 -2.8076265216964034 10.028759871366068 18.315909764913407 0 0 0
758 253 1 0.5897 -5.725350960228788 9.177143936343851 14.965133092474527 1 0 0
616 206 2 -1.1794 -6.494432067745278 6.312817165552641 11.905699764307428 1 0 0
762 254 1 0.5897 -7.727099773688697 8.346717587770558 14.890857883739534 1 0 0
568 190 2 -1.1794 -0.9577893050120982 7.1263233487540365 17.974973775668744 0 0 0
726 242 1 0.5897 -0.3343285079528213 11.138630994015218 12.467702731332519 0 0 0
836 279 1 0.5897 -4.760213110605307 7.953672386052299 10.032409814074533 1 0 0
678 226 1 0.5897 0.12679740940321338 9.3579035537687 14.067548005565028 0 0 0
739 247 2 -1.1794 -5.491077862942435 8.075330176185599 17.48935286785875 0 0 0
613 205 2 -1.1794 -7.458105529023033 6.294970606221489 16.862465347791478 1 0 0
740 247 1 0.5897 -6.211721903637249 7.534140685766728 17.166624075905915 0 0 0
794 265 1 0.5897 -5.311954379094544 10.575049599843055 12.341745035973558 1 0 0
569 190 1 0.5897 -1.2274674048332237 6.373436243951169 18.500867024856404 0 0 0
805 269 2 -1.1794 -5.718547150478607 10.69951322378205 16.026792733122953 1 0 0
83 28 1 0.5897 -4.623498162480962 7.1166970851414755 18.729055671837244 0 0 -1
614 205 1 0.5897 -7.288295622157687 5.689972894399865 17.58448394842184 1 0 0
618 206 1 0.5897 -6.5773912511559605 5.688000691071731 11.185341839465924 1 0 0
806 269 1 0.5897 -6.017031527269754 11.318560704755837 15.360540854304203 1 0 0
84 28 1 0.5897 -3.773043618606298 5.8731122567435206 18.58066753062792 0 0 -1
807 269 1 0.5897 -5.099235044770441 11.199383274114826 16.558734949836456 1 0 0
662 221 1 0.5897 -6.747571335234021 5.6575286629098915 13.733579341362871 1 0 0
835 279 2 -1.1794 -5.38731688749336 8.60679110880578 9.72183304183035 1 0 0
192 64 1 0.5897 0.9795582248712007 10.882058525047066 9.712398457291746 0 0 0
586 196 2 -1.1794 -0.6825250715376581 6.017257924435663 9.692987135356185 0 0 0
190 64 2 -1.1794 0.5366219442531888 10.036518120726134 9.640940511190028 0 0 0
280 94 2 -1.1794 -3.5330385191740223 14.294918772441527 2.8181290401281913 1 0 0
756 252 1 0.5897 -1.7229274728418886 14.457522687713574 9.368402363682794 0 0 0
184 62 2 -1.1794 5.2921638536860325 12.336621707205689 0.6150925470834417 0 0 0
233 78 1 0.5897 2.7175217251877655 14.36638605926347 7.8237355176128895 0 0 0
223 75 2 -1.1794 -1.1313134193152852 12.008166866085478 3.3281615153336537 0 0 0
232 78 2 -1.1794 1.9199442043650086 14.519826369977068 8.330176041863846 0 0 0
250 84 2 -1.1794 2.362672930460681 13.774475538583966 0.13587698684950925 0 0 0
277 93 2 -1.1794 -4.4938105042321235 13.80467271145905 7.415260809977108 1 0 0
326 109 1 0.5897 -3.2725064186252335 11.876635503956857 5.572789055099066 1 0 0
226 76 2 -1.1794 2.0987380429135447 11.988531936227691 6.48245989774467 0 0 0
408 136 1 0.5897 4.075028031047535 16.108282272722594 1.1339734851680867 0 0 0
281 94 1 0.5897 -3.609878480071895 13.855088622108958 3.6647500419209433 1 0 0
279 93 1 0.5897 -5.345858864946798 14.153723023008416 7.676817077650751 1 0 0
369 123 1 0.5897 1.2229989123461138 16.937947853964737 3.4680997759119805 0 0 0
341 114 1 0.5897 3.1486556706653 15.619875008220376 5.116043943773075 0 0 0
227 76 1 0.5897 1.301368586926893 12.113939206234646 6.996899955457454 0 0 0
407 136 1 0.5897 4.610223168048138 15.024189745394727 2.0451060017088567 0 0 0
234 78 1 0.5897 1.3951462087164366 15.102276936668241 7.7810013515861565 0 0 0
404 135 1 0.5897 -1.6061278324945087 15.95379462722919 7.538475169763766 0 0 0
403 135 2 -1.1794 -2.409093311441549 15.7786293941006 8.029149598506752 0 0 0
282 94 1 0.5897 -2.608529384773472 14.535177664038434 2.7556605215170924 1 0 0
178 60 2 -1.1794 1.8875374358264052 14.291524156905036 4.9282917521612895 0 0 0
180 60 1 0.5897 1.9053928285807356 13.805914664287716 4.103641873194471 0 0 0
368 123 1 0.5897 2.1713869034585684 16.22923896656434 2.5247120353327976 0 0 0
314 105 1 0.5897 -0.2767168893219747 15.370279428642286 2.33111375681402 1 0 0
175 59 2 -1.1794 -0.8863053564675836 13.97269862850087 5.283812761319964 0 0 0
313 105 2 -1.1794 -1.0529161526010329 15.095300048042045 1.8429289189670672 1 0 0
315 105 1 0.5897 -0.7169976762162404 14.497897409556057 1.174786317585892 1 0 0
225 75 1 0.5897 -1.1964849393410104 12.733333445811178 3.9495055004424287 0 0 0
278 93 1 0.5897 -3.9051277808257576 14.558752987841524 7.448101899425284 1 0 0
340 114 2 -1.1794 3.6963269648728936 16.40287329872665 5.173001547666536 0 0 0
252 84 1 0.5897 2.866526310644912 14.36110107052831 0.7000840316044129 0 0 0
214 72 2 -1.1794 1.661159225506795 12.675505269365107 2.6582100473555537 0 0 0
215 72 1 0.5897 1.816884038063554 13.102175094790828 1.8157136830146197 0 0 0
216 72 1 0.5897 0.7116173300836754 12.560622604228483 2.6970556629576055 0 0 0
176 59 1 0.5897 -1.3583336067418763 14.804570538510951 5.246582417249832 0 0 0
406 136 2 -1.1794 3.7968579807512937 15.443060149414478 1.7634317279464153 0 0 0
500 167 1 0.5897 -1.8952688355823801 16.263562057011587 0.6529480901208422 1 0 0
177 59 1 0.5897 0.034401301335369006 14.214385226173112 5.1827048791547545 0 0 0
367 123 2 -1.1794 1.2453666737378555 16.43396708909734 2.6546532113762873 0 0 0
421 141 2 -1.1794 -2.433550540493393 16.29909045120459 5.0664783955392485 1 0 0
179 60 1 0.5897 2.0578106815453143 13.630814770030598 5.599589044952424 0 0 0
265 89 2 -1.1794 -3.8716949050827347 12.193769810088929 9.527667110177843 1 0 0
425 142 1 0.5897 -4.278850287897292 15.997745307098029 4.910521560851821 1 0 0
327 109 1 0.5897 -4.236642214499733 13.001846273407457 5.882876377206705 1 0 0
211 71 2 -1.1794 -0.4616307444586929 12.355660456609726 7.560540633519908 0 0 0
212 71 1 0.5897 -0.559158242463381 12.849554562933983 8.374619231377215 0 0 0
213 71 1 0.5897 -0.78781329353443 12.94585795381369 6.881211120856797 0 0 0
370 124 2 -1.1794 0.2657627705966936 16.52311040063048 7.174601730220017 0 0 0
267 89 1 0.5897 -3.8919870483848777 12.480238671391978 8.614614968504544 1 0 0
325 109 2 -1.1794 -3.8110815008454884 12.548731484110581 5.15507159327813 1 0 0
405 135 1 0.5897 -2.497188291136358 16.52652855445768 8.619964077660097 0 0 0
771 257 1 0.5897 -0.22204435704203762 12.037611818360453 0.3017333274125958 1 0 1
769 257 2 -1.1794 -0.7271022102244418 12.844437941431242 0.20102239266420519 1 0 1
266 89 1 0.5897 -3.1882040432149314 11.524138937731738 9.554023626159072 1 0 0
423 141 1 0.5897 -2.552281331053311 16.704370126456794 4.207516058304078 1 0 0
770 257 1 0.5897 -1.640794633663792 12.563580752891097 0.2517598827051235 1 0 1
499 167 2 -1.1794 -2.5362091926391788 16.840049377772196 0.2368200829271669 1 0 0
372 124 1 0.5897 0.5536502786213728 16.90977634793242 6.347738818474295 0 0 0
462 154 1 0.5897 -5.144095372315486 16.960785745221393 6.792735026587001 1 0 0
1004 335 1 0.5897 -5.3435586203597625 16.902038607471855 8.991470082708206 1 0 0
269 90 1 0.5897 -3.5268809344068206 13.102138184094064 1.2961964133272914 1 0 0
224 75 1 0.5897 -0.6570709066464637 11.32633277891952 3.8040185726412914 0 0 0
228 76 1 0.5897 1.8597511163579323 11.335139275052574 5.825026910528351 0 0 0
690 230 1 0.5897 1.8375077607727892 13.036962863368801 9.433646552940113 0 0 0
910 304 2 -1.1794 0.5526899938666641 15.888187329775215 11.115284550553307 0 0 0
754 252 2 -1.1794 -0.9919512565722752 13.969881064515079 9.748160749851895 0 0 0
1005 335 1 0.5897 -4.826628841258016 15.922724944915558 10.023744369285955 1 0 0
718 240 2 -1.1794 -1.6212685075770894 12.389639383462082 12.042167349828928 0 0 0
831 277 1 0.5897 -7.692103882444233 11.95875501516549 14.059646626578369 1 0 0
720 240 1 0.5897 -1.4381272481562313 13.041412929273696 12.718840300839654 0 0 0
911 304 1 0.5897 -0.17622412505293195 16.18976519683635 11.657393401814351 0 0 0
873 291 1 0.5897 -2.412380558252649 15.583586643392078 11.95624828848929 0 0 0
830 277 1 0.5897 -7.309307561684189 13.046070198425078 15.041062635435573 1 0 0
773 258 1 0.5897 -6.653016307670896 12.603662783805717 10.851296505376745 1 0 0
729 243 1 0.5897 -4.3388627930236865 12.566551952067417 13.47707877292776 0 0 0
688 230 2 -1.1794 2.0310977796660143 12.29336871882089 10.004400496867117 0 0 0
731 244 1 0.5897 -1.7295066697909292 11.428482290882533 15.010072997984377 0 0 0
784 262 2 -1.1794 -6.300203526429916 13.932359762879855 12.038645479121726 1 0 0
829 277 2 -1.1794 -6.965630742804041 12.52828696877724 14.313103706235355 1 0 0
719 240 1 0.5897 -1.4978743332281588 12.859022610710564 11.217216223685464 0 0 0
786 262 1 0.5897 -6.564185445190006 13.408734964422766 12.795101741767935 1 0 0
817 273 2 -1.1794 -3.9255472109976024 14.54050527524569 11.02615811571805 1 0 0
818 273 1 0.5897 -4.6568759127720165 14.460586748564689 11.638471428877637 1 0 0
819 273 1 0.5897 -3.8732669034783336 13.684149796298014 10.601759393167034 1 0 0
930 310 1 0.5897 -7.699794622028994 16.0228154586478 14.55609775670618 1 0 0
730 244 2 -1.1794 -1.2973153949527934 11.959093959887646 15.679394034430773 0 0 0
679 227 2 -1.1794 -3.9786065028511794 14.14026912463652 14.461176376421934 0 0 0
783 261 1 0.5897 -8.519511621846842 14.210193808307542 16.942142693953876 1 0 0
684 228 1 0.5897 -0.7448922922708965 14.983984554945996 14.464544084716868 0 0 0
682 228 2 -1.1794 -1.298247776423147 14.264129626574508 14.161365729179133 0 0 0
774 258 1 0.5897 -5.7018255237255495 12.115879900289908 9.77940457389094 1 0 0
683 228 1 0.5897 -1.1106691956238333 13.546273704651668 14.766074035510107 0 0 0
926 309 1 0.5897 -5.25984047265659 15.453649744611353 14.25509054848718 1 0 0
755 252 1 0.5897 -0.3996727981987358 14.644739804415446 10.079994884552814 0 0 0
876 292 1 0.5897 -2.62406171898016 15.28337773677068 17.02901486423127 0 0 0
681 227 1 0.5897 -3.9759097994670665 13.737071310311187 15.32925386116395 0 0 0
907 303 2 -1.1794 -5.855455251853323 15.599616381438992 17.827730847646684 0 0 0
925 309 2 -1.1794 -5.954514917020999 16.107966565591333 14.180492717555218 1 0 0
680 227 1 0.5897 -3.070442602740261 14.406626035562713 14.317590754242179 0 0 0
908 303 1 0.5897 -6.378169334967263 14.93095755863619 17.385006188266907 0 0 0
728 243 1 0.5897 -3.309763902097788 12.021108256432901 12.51005296220692 0 0 0
725 242 1 0.5897 0.7012736635429073 11.381138469294925 13.545215452232354 0 0 0
715 239 2 -1.1794 -3.783472095271182 12.605596159078038 16.904139710978868 0 0 0
716 239 1 0.5897 -3.779319476590432 12.982401961254967 17.784015786206744 0 0 0
871 291 2 -1.1794 -1.9858771877982582 16.436223257593618 12.041802321695094 0 0 0
874 292 2 -1.1794 -3.347617946334257 15.900535286720274 16.920073155318335 0 0 0
736 246 2 -1.1794 -1.174017406128046 14.457752313790943 17.811181297546568 0 0 0
912 304 1 0.5897 1.0213260797256467 15.263619150054241 11.66895230699197 0 0 0
737 246 1 0.5897 -0.8903075064695027 15.122446524240127 18.438840229240448 0 0 0
909 303 1 0.5897 -5.056401670725892 15.664877681406232 17.304823641256533 0 0 0
781 261 2 -1.1794 -7.684439001950516 13.772241449256432 16.777497852927077 1 0 0
782 261 1 0.5897 -7.5896026628866196 13.155520077564821 17.503318884109405 1 0 0
772 258 2 -1.1794 -6.633249118061849 12.212989683494326 9.977700956906782 1 0 0
717 239 1 0.5897 -2.8724297422404703 12.358955622770937 16.74454047136603 0 0 0
727 243 2 -1.1794 -4.144052787755124 11.80729996021985 12.927755637168385 0 0 0
738 246 1 0.5897 -0.386305011964847 14.251001374286107 17.3082682288572 0 0 0
875 292 1 0.5897 -3.215063461220934 16.27445146330302 16.049022901674785 0 0 0
1003 335 2 -1.1794 -5.607546591683893 16.41616588833555 9.772707147218233 1 0 0