LAMMPS data file via write_data, version 30 Jul 2021, timestep = 9000000

1920 atoms
2 atom types
1280 bonds
1 bond types
640 angles
1 angle types

0.10295157411778177 24.62704942588047 xlo xhi
0.03804697220234665 24.69195402779467 ylo yhi
0.05725668304329723 22.75274331695929 zlo zhi

Masses

1 1.008
2 15.999

Pair Coeffs # lj/cut/tip4p/long/omp

1 0 0
2 0.21084 3.1668

Bond Coeffs # harmonic/omp

1 450 0.9572

Angle Coeffs # harmonic/omp

1 55 104.52

Atoms # full

1 1 2 -1.1794 4.579258101944918 1.5069847266972785 4.202313139609646 0 0 0
2 1 1 0.5897 4.68943864608847 2.1639379203366778 4.889688238855323 0 0 0
3 1 1 0.5897 5.336173496367642 1.6298269560928427 3.6294634803525816 0 0 0
4 2 2 -1.1794 3.0288541337647636 1.576518557832438 1.8795396821222219 0 0 0
5 2 1 0.5897 3.3223237620563193 1.5267822806661553 2.789224242183181 0 0 0
6 2 1 0.5897 2.0739112837349025 1.538882863575903 1.9330364838733747 0 0 0
9 3 1 0.5897 5.02482451211636 4.605451422866058 3.6103887314353216 0 0 0
10 4 2 -1.1794 3.278276916749683 4.568511566795468 3.452931178672875 0 0 0
11 4 1 0.5897 2.8708974483275567 5.285830666473776 3.9384566169616977 0 0 0
12 4 1 0.5897 2.8244371765161773 4.560959939463367 2.610253349133278 0 0 0
13 5 2 -1.1794 1.5644483203408488 2.9685867593359787 5.036488248512573 0 0 0
14 5 1 0.5897 2.273742160094724 3.2694229960686196 4.468528543924319 0 0 0
15 5 1 0.5897 1.6677142799556237 2.017395697308569 5.066125559509224 0 0 0
19 7 2 -1.1794 4.790643146946839 3.353062798878527 0.5826093803683049 0 0 0
20 7 1 0.5897 3.9942003532910806 3.0200905150355317 0.9961324095992159 0 0 0
21 7 1 0.5897 5.504053710999001 2.9315465302240438 1.0617392542961575 0 0 0
22 8 2 -1.1794 1.6431599363876426 4.532522813349803 1.3046341210494998 0 0 0
23 8 1 0.5897 0.8883354876954659 4.6470243780652885 1.8819537139612692 0 0 0
24 8 1 0.5897 1.581610240410987 5.257424715539786 0.682577597158906 0 0 0
27 9 1 0.5897 4.751684199061746 5.126973865169489 0.6058080859395747 0 0 0
28 10 2 -1.1794 1.815332165584206 0.23050606874647517 4.95190227529883 0 0 0
387 129 1 0.5897 4.222891503348205 0.3079407358564641 1.2343316259121089 0 1 0
7 3 2 -1.1794 5.979501531617335 4.565650642879565 3.553802167633732 0 0 0
98 33 1 0.5897 0.3726005016452084 5.433102628571434 3.905365418559821 1 0 0
16 6 2 -1.1794 0.31180675167563987 1.5218121146347923 2.061068405534759 0 0 0
25 9 2 -1.1794 4.67819449339622 6.079040658699261 0.6727038940940913 0 0 0
99 33 1 0.5897 0.23173739850147984 3.925724017499965 3.898220971059681 1 0 0
47 16 1 0.5897 6.113442357308391 0.9664981237719513 1.6273662185397624 0 0 0
867 289 1 0.5897 4.667418814437652 0.2762609531411141 5.59057149176226 0 1 0
150 50 1 0.5897 1.7109465692902228 6.038525872342334 5.679570799864482 0 0 0
498 166 1 0.5897 1.2599078676364495 1.7154874832286575 7.879669972925569 0 0 0
487 163 2 -1.1794 6.079605963405792 4.783870002552455 9.20614453637132 0 0 0
503 168 1 0.5897 0.9801540733246707 4.801223983827642 7.6420603953412085 0 0 0
491 164 1 0.5897 2.916770815098905 4.8709863107903235 8.46451660121961 0 0 0
493 165 2 -1.1794 1.6813780282587862 2.893434057427536 10.582709842460961 0 0 0
505 169 2 -1.1794 4.589528065118947 5.982377984048224 6.4611612808746255 0 0 0
490 164 2 -1.1794 3.3735355291299136 4.798111567870768 9.302484096512163 0 0 0
500 167 1 0.5897 3.91898273362038 2.915335716703178 6.801034503239799 0 0 0
527 176 1 0.5897 5.965251231320343 0.890334279564037 7.362819014693403 0 0 0
501 167 1 0.5897 4.5724509265250735 4.219685161703321 6.396497908060867 0 0 0
629 210 1 0.5897 2.299255215255039 5.9692040823909505 10.198894299124044 0 0 0
483 161 1 0.5897 4.64147610406657 2.2625317623988703 10.584721779786936 0 0 0
482 161 1 0.5897 5.286533664806561 1.5505146982961195 9.4148143441006 0 0 0
502 168 2 -1.1794 1.743102678380198 4.847597180430388 7.065930361315906 0 0 0
499 167 2 -1.1794 4.685191046742646 3.2702323333783676 6.35029574328632 0 0 0
579 193 1 0.5897 0.28393679835362773 5.2667333307307995 9.762966834116963 1 0 0
489 163 1 0.5897 5.127301865148371 4.690184355192968 9.229311931181552 0 0 0
528 176 1 0.5897 5.961956792706975 2.4001339196701053 7.474966859359903 0 0 0
484 162 2 -1.1794 2.959957161682152 1.6343070843555803 7.801573653433741 0 0 0
504 168 1 0.5897 1.661210965828421 4.082028900743006 6.497215618447421 0 0 0
496 166 2 -1.1794 0.3051369612928152 1.7824933789212674 7.868771190144349 0 0 0
481 161 2 -1.1794 4.5324330897812 1.510292065794765 10.002930489056254 0 0 0
486 162 1 0.5897 3.422665593564099 0.9512068431642209 7.316284600661743 0 0 0
485 162 1 0.5897 3.3329088007921435 1.597456270044639 8.682299640930847 0 0 0
508 170 2 -1.1794 1.4884305361401964 0.14839554748705625 10.469074072968253 0 0 0
492 164 1 0.5897 2.956120951695424 4.055828866091719 9.739550026733905 0 0 0
578 193 1 0.5897 0.3502534627935784 3.762797372837218 9.60216511402156 1 0 0
494 165 1 0.5897 1.7018313088954216 1.9422043084912337 10.68782463215783 0 0 0
1347 449 1 0.5897 4.670657399878206 0.31836140873672486 11.294476872616618 0 1 0
961 321 2 -1.1794 4.560929386255157 1.7455362445678804 15.59701887377094 0 0 0
962 321 1 0.5897 5.2909595539357275 1.692903961807674 14.980214513660528 0 0 0
963 321 1 0.5897 4.662772142010606 0.9749648363314514 16.155666955579974 0 0 0
964 322 2 -1.1794 2.8425103368406477 1.5939251794993121 13.394089489807925 0 0 0
965 322 1 0.5897 3.1947316505082983 1.60956297995292 14.283933154786414 0 0 0
966 322 1 0.5897 1.8926131271970008 1.5934867182538075 13.511936700389095 0 0 0
970 324 2 -1.1794 3.307190385675315 4.792045086050878 14.830029782891003 0 0 0
971 324 1 0.5897 4.254860272356464 4.8258225035786895 14.960329516175918 0 0 0
972 324 1 0.5897 3.030619306729443 3.996476833219668 15.284822946655641 0 0 0
973 325 2 -1.1794 1.671051246885386 2.934607900778265 16.2313464996517 0 0 0
975 325 1 0.5897 0.9528521214733772 3.338749117686057 15.744463965174795 0 0 0
979 327 2 -1.1794 4.61025224109985 3.3157702970200114 12.093164268038867 0 0 0
980 327 1 0.5897 3.8849900744595645 2.8382838077012646 12.495916378804894 0 0 0
981 327 1 0.5897 5.396773173344515 2.8946191181690972 12.439894227086336 0 0 0
982 328 2 -1.1794 1.3922988917633938 4.535978420624639 12.80152711803289 0 0 0
983 328 1 0.5897 1.421182210745844 5.25889336539031 12.174802590368772 0 0 0
984 328 1 0.5897 2.1237104674623817 4.704107984631396 13.395612086950445 0 0 0
987 329 1 0.5897 4.721713165290137 5.134503883060776 12.137365048810587 0 0 0
990 330 1 0.5897 1.600420493283197 1.172729891748018 16.361103810260552 0 0 0
967 323 2 -1.1794 6.032326966358832 4.797286258654415 14.961966398832432 0 0 0
1109 370 1 0.5897 0.7765751490161543 5.870963594001635 16.043044774469536 0 0 0
1346 449 1 0.5897 3.876899688637908 0.27345747042859614 12.582727596934063 0 1 0
1008 336 1 0.5897 6.040483783093909 0.8057953526894526 13.049632917210932 0 0 0
988 330 2 -1.1794 1.593145760840922 0.21615813788041238 16.32610451953878 0 0 0
1110 370 1 0.5897 2.2756736969415874 5.9098488343889475 15.835707119408177 0 0 0
985 329 2 -1.1794 4.766360845585013 6.084098460929115 12.025190720531187 0 0 0
976 326 2 -1.1794 0.13936195806818205 1.5913131759724912 13.60844634718993 0 0 0
495 165 1 0.5897 1.607933478052397 3.2319876740846465 11.474969521927802 0 0 0
1058 353 1 0.5897 0.19107015105403846 4.592248170290583 14.154247919873972 1 0 0
974 325 1 0.5897 1.7103297402845123 3.425192808475945 17.05229078607975 0 0 0
1460 487 1 0.5897 4.784414717674324 2.868374008789169 17.117531855535262 0 0 0
1487 496 1 0.5897 6.103176018538391 1.3925219239674202 19.96514175956606 0 0 0
1445 482 1 0.5897 2.073036996199729 1.4232690487539315 19.02992312739743 0 0 0
1452 484 1 0.5897 3.141204115588691 4.739672206314285 19.721125053637103 0 0 0
386 129 1 0.5897 4.930893871948246 0.309457071039104 22.59176844686889 0 1 -1
1462 488 2 -1.1794 1.829992061446383 4.579874023702219 18.419636289875967 0 0 0
1443 481 1 0.5897 4.719541910214026 2.207316684034435 21.853396318268963 0 0 0
1463 488 1 0.5897 1.7439210453702534 5.333889486432347 17.83629507483478 0 0 0
1468 490 2 -1.1794 1.6833059267589114 0.19170928066369666 21.746464086876216 0 0 0
1538 513 1 0.5897 0.40933714185172515 4.001917175366583 20.86427049524238 1 0 0
1454 485 1 0.5897 2.303770216397281 3.4559336009304356 21.320232639518288 0 0 0
1826 609 1 0.5897 4.075484138658146 0.24245566321334397 18.1565278985209 0 1 0
1464 488 1 0.5897 1.0901762464389066 4.656886544970364 19.02205217140297 0 0 0
1539 513 1 0.5897 0.2282254497455062 5.50314151197112 20.939132662513167 1 0 0
1441 481 2 -1.1794 4.80912469461534 1.4980584697153085 21.21688185999522 0 0 0
1461 487 1 0.5897 5.466730748279247 2.793514043169761 18.466785849981363 0 0 0
1590 530 1 0.5897 2.310459729348827 6.119539815334693 21.526873732137318 0 0 0
1444 482 2 -1.1794 3.028438274930423 1.3654330053876964 19.037546389237846 0 0 0
1465 489 2 -1.1794 4.521095536373839 5.977914066069099 17.772239235723937 0 0 0
1469 490 1 0.5897 1.6177750223855354 1.1430919061946363 21.829425942289056 0 0 0
1453 485 2 -1.1794 1.5927260446251337 2.9588280559674853 21.724599659625824 0 0 0
1442 481 1 0.5897 4.047079640460314 1.5910361579214576 20.645209586062016 0 0 0
1446 482 1 0.5897 3.320663139626902 2.1629923041582653 18.596230283611064 0 0 0
1456 486 2 -1.1794 0.29579317936558613 1.5210732771716722 19.087208295426592 0 0 0
1459 487 2 -1.1794 4.781675596088909 3.2620705338892293 17.989967116210053 0 0 0
1451 484 1 0.5897 4.358074309736988 4.714562216101271 20.62130679218084 0 0 0
1447 483 2 -1.1794 6.198959978277866 4.622913101751263 20.603883475909996 0 0 0
1466 489 1 0.5897 4.657658393162022 5.033694252188218 17.85036556677752 0 0 0
1450 484 2 -1.1794 3.4052489507257584 4.804062363971707 20.63887041072929 0 0 0
1488 496 1 0.5897 6.047131725686996 0.7588817146702251 18.591443917720355 0 0 0
1455 485 1 0.5897 1.514666043483943 3.325042470419531 22.605472951830134 0 0 0
121 41 2 -1.1794 4.569181405099517 7.797380708397331 4.393787712182996 0 0 0
122 41 1 0.5897 3.8080040649874403 7.665660464556233 3.82860871443386 0 0 0
123 41 1 0.5897 5.315288759041153 7.802463143582442 3.7942364011310334 0 0 0
124 42 2 -1.1794 3.024647366377197 7.794042180760276 2.1397990747485816 0 0 0
125 42 1 0.5897 3.4522090639809124 7.092434304424322 1.6487011686898885 0 0 0
126 42 1 0.5897 3.480263543111049 8.590352732537845 1.8667245395842547 0 0 0
129 43 1 0.5897 5.123059366397107 10.776892222002516 3.588509928817948 0 0 0
130 44 2 -1.1794 3.3336784481349246 10.827691535535056 3.502651387173074 0 0 0
131 44 1 0.5897 2.950659011796863 11.573397920856674 3.9646715236277217 0 0 0
132 44 1 0.5897 3.013316722163405 10.060786335625052 3.9774904234984505 0 0 0
133 45 2 -1.1794 1.4692560311607517 9.109212902344217 4.94124356388545 0 0 0
135 45 1 0.5897 0.8295032120472616 9.630847551255014 4.456660462447663 0 0 0
137 46 1 0.5897 1.187651923918915 7.844446411073566 2.069525402269276 0 0 0
139 47 2 -1.1794 4.869583129321115 9.55169239653729 0.995755411441045 0 0 0
140 47 1 0.5897 4.886756495532246 10.504287445974944 0.9031619292142138 0 0 0
142 48 2 -1.1794 1.4388717099270167 10.803402307372254 1.4146017253956786 0 0 0
143 48 1 0.5897 2.1680203282083226 10.926194533281752 2.0224096292850744 0 0 0
144 48 1 0.5897 1.5399618653200897 11.506835309871633 0.7733651087275683 0 0 0
149 50 1 0.5897 1.6353796510642573 7.331027405765456 4.894900796928327 0 0 0
148 50 2 -1.1794 1.6965262632480793 6.381941066708101 4.786258513681014 0 0 0
127 43 2 -1.1794 6.069163586299535 10.641005790864671 3.639682156056278 0 0 0
168 56 1 0.5897 6.009183218188207 8.446743646890136 1.837243817467217 0 0 0
507 169 1 0.5897 4.61085277937605 6.533547373243863 5.678898353526052 0 0 0
218 73 1 0.5897 0.28690572719037066 10.84082662662012 2.7891633856749123 1 0 0
270 90 1 0.5897 0.9388973459969089 12.11478757283274 4.54339157562675 0 0 0
621 207 1 0.5897 4.585172785734386 9.136998319231093 5.703638985852482 0 0 0
26 9 1 0.5897 5.43096656152334 6.341216906195497 1.2025875268637245 0 0 0
145 49 2 -1.1794 4.814126728379887 12.246833365001962 0.869775210661485 0 0 0
1574 525 1 0.5897 1.601161070872422 9.453114732369254 0.09432396014721994 0 0 1
136 46 2 -1.1794 0.23980881624133943 7.973592195750266 2.102851176974887 0 0 0
141 47 1 0.5897 4.771329658481437 9.225339554566178 0.1013398806679433 0 0 0
134 45 1 0.5897 1.547094227842201 9.550268509400938 5.787156164189033 0 0 0
1101 367 1 0.5897 4.693715787173465 8.998955652102365 11.24584838338559 0 0 0
648 216 1 0.5897 5.959902976239798 7.043717497135854 7.28763765562427 0 0 0
630 210 1 0.5897 1.649808839269616 7.266244483755579 10.632366113190587 0 0 0
623 208 1 0.5897 2.2807649655588484 10.767442725228866 7.743909026308541 0 0 0
615 205 1 0.5897 0.8071585350957108 9.4383298369641 10.280496230249364 0 0 0
628 210 2 -1.1794 1.5571522433033533 6.315521092865375 10.694410230257358 0 0 0
604 202 2 -1.1794 2.9143085467207586 7.691419050519629 7.898300372386111 0 0 0
647 216 1 0.5897 5.92317439259825 7.715785478363044 8.64361386942593 0 0 0
605 202 1 0.5897 3.22296412815686 8.472973515973726 7.4398727855534075 0 0 0
610 204 2 -1.1794 3.324006052596475 10.690180421008687 9.300796356607696 0 0 0
611 204 1 0.5897 4.270926252104563 10.829770711885116 9.293517892541102 0 0 0
626 209 1 0.5897 4.729486733172462 11.319598963519063 6.452372230174044 0 0 0
606 202 1 0.5897 1.9599143932995478 7.760358972047715 7.874312446651086 0 0 0
613 205 2 -1.1794 1.5761229952317017 9.017962033691672 10.665447438015534 0 0 0
506 169 1 0.5897 3.8912425120165444 6.355858651565042 6.99883872274455 0 0 0
607 203 2 -1.1794 6.027718364776062 10.925473958435393 9.39219613578647 0 0 0
699 233 1 0.5897 0.3633879492918825 10.732634107519985 8.459517440363763 1 0 0
601 201 2 -1.1794 4.772560303389922 7.877541182937288 9.924659163975646 0 0 0
620 207 1 0.5897 5.270113291635331 8.98132028017197 7.044635029625035 0 0 0
614 205 1 0.5897 2.3195849081432747 9.420688376228682 10.216813986586347 0 0 0
603 201 1 0.5897 4.052540365707586 7.740205298713375 9.30913122197725 0 0 0
612 204 1 0.5897 2.974348037952309 11.441600439949475 9.779701695896811 0 0 0
602 201 1 0.5897 4.753251591578766 7.10703471074085 10.492273724445846 0 0 0
624 208 1 0.5897 1.725637631711432 11.465765282299062 6.52083475731671 0 0 0
625 209 2 -1.1794 4.627747498443009 12.2701332018747 6.402974273511784 0 0 0
619 207 2 -1.1794 4.677776965702291 9.555671192216023 6.5593797493611685 0 0 0
698 233 1 0.5897 0.38825089773824656 11.439737338384854 9.797834739946314 1 0 0
622 208 2 -1.1794 1.5605842519648698 10.733161066807021 7.114365639276364 0 0 0
616 206 2 -1.1794 0.20387813077088235 7.767208317317186 7.825935236816479 0 0 0
1081 361 2 -1.1794 4.7008880881674004 7.744414405912056 15.728486735669799 0 0 0
1082 361 1 0.5897 4.772140021991684 8.52401589576092 16.279293577983616 0 0 0
1083 361 1 0.5897 4.595915617964371 7.021892544551715 16.347493125155538 0 0 0
1084 362 2 -1.1794 3.0208219863162173 7.7102840316153225 13.50663116569823 0 0 0
1085 362 1 0.5897 3.541724600179962 7.669421052448959 14.30858473666247 0 0 0
1086 362 1 0.5897 3.4078955239678197 8.42803518369748 13.005388777833328 0 0 0
1089 363 1 0.5897 5.044459239572479 10.70993578034022 15.043810743482156 0 0 0
1090 364 2 -1.1794 3.2147281283330553 10.730335606976352 14.979634041760635 0 0 0
1091 364 1 0.5897 2.87776025196414 11.545343107937164 15.35176230205854 0 0 0
1092 364 1 0.5897 2.778651425566294 10.04000942101686 15.479152543659414 0 0 0
1093 365 2 -1.1794 1.63940277272206 9.147492680576415 16.53779568740358 0 0 0
1094 365 1 0.5897 1.628172962411235 8.192925484490928 16.46720778042635 0 0 0
1095 365 1 0.5897 0.8588754714210498 9.432485773748962 16.06267400433996 0 0 0
1097 366 1 0.5897 1.2438302694001755 7.777712187311024 13.520846105018624 0 0 0
1099 367 2 -1.1794 4.59087749947316 9.450931721543535 12.083285269625172 0 0 0
1100 367 1 0.5897 5.328022734223367 9.146316558926232 12.612443752803006 0 0 0
1102 368 2 -1.1794 1.5423695951816492 10.821458176603487 12.831876099087747 0 0 0
1103 368 1 0.5897 1.5569912307030023 10.060715106426544 12.25110589231998 0 0 0
1104 368 1 0.5897 2.2677180234383925 10.673992997041545 13.438744450884407 0 0 0
1107 369 1 0.5897 4.711386082666566 11.248743873390001 12.10178690415782 0 0 0
1087 363 2 -1.1794 5.997527009198611 10.623347175479417 15.06276818112992 0 0 0
1179 393 1 0.5897 0.34271387913319445 10.809451017477446 14.147576556235304 1 0 0
1127 376 1 0.5897 5.972268967946339 7.738056143304446 14.344423420590662 0 0 0
1178 393 1 0.5897 0.3339163183045577 11.500100352734453 15.494663170257727 1 0 0
1105 369 2 -1.1794 4.860861538381511 12.18857769774736 12.205106803887416 0 0 0
1128 376 1 0.5897 6.006972623606111 7.114643649276201 12.965351912221879 0 0 0
1096 366 2 -1.1794 0.2967865310093349 7.748546048299971 13.385015703504754 0 0 0
986 329 1 0.5897 4.025700014578284 6.420459631147509 12.52963994637821 0 0 0
1108 370 2 -1.1794 1.569480333581441 6.3215728906268165 16.333672127337096 0 0 0
750 250 1 0.5897 1.6293988492400355 12.229335810612572 11.485280624712944 0 0 0
1230 410 1 0.5897 1.7107871643532249 12.23567046875666 17.152804171901778 0 0 0
1566 522 1 0.5897 3.4105198485747965 7.0605876435891215 18.800877054597187 0 0 0
1563 521 1 0.5897 4.111506145944017 7.8585375581039 20.751134811782897 0 0 0
1589 530 1 0.5897 1.6036636291426065 7.362569211173585 22.024158224861374 0 0 0
1583 528 1 0.5897 1.1396319992010762 10.880365766136952 19.147224715549484 0 0 0
1575 525 1 0.5897 2.4018636594357248 9.614326371228588 21.51523174113725 0 0 0
1709 570 1 0.5897 0.9755667118613095 12.0604316755766 21.44942774309918 0 0 0
1581 527 1 0.5897 5.557473766600237 8.917452445954984 18.17125798920329 0 0 0
1579 527 2 -1.1794 4.8481146939382915 9.495580258296071 17.890533695263834 0 0 0
1467 489 1 0.5897 5.293642585243668 6.36689595966634 18.182193900350583 0 0 0
1580 527 1 0.5897 4.064459198829404 9.131093929430468 18.30191015547115 0 0 0
1561 521 2 -1.1794 4.8319784596398785 7.943717925932571 21.375495574252717 0 0 0
1570 524 2 -1.1794 3.521305337679983 10.816702986429966 20.7852791802202 0 0 0
1608 536 1 0.5897 6.033926195081499 7.664811768322856 19.871769827951432 0 0 0
1576 526 2 -1.1794 0.31969336942119586 7.666667640037827 19.182305694086644 0 0 0
1572 524 1 0.5897 4.472545140651885 10.767657113148104 20.690773865252496 0 0 0
1571 524 1 0.5897 3.192585292961412 10.855385046385644 19.88718532907741 0 0 0
1710 570 1 0.5897 2.4854455745290944 12.058296550021216 21.559247200686386 0 0 0
1582 528 2 -1.1794 1.8924763887985023 10.949170437076116 18.560150360229457 0 0 0
1587 529 1 0.5897 4.754210041122808 11.311092431447927 17.74518546082391 0 0 0
1562 521 1 0.5897 4.717945050217932 7.206666962416157 21.975481610371787 0 0 0
1588 530 2 -1.1794 1.5348326416038118 6.407945373351322 22.00792453816056 0 0 0
1584 528 1 0.5897 1.7567840862634798 10.256378733611939 17.913739327364297 0 0 0
1564 522 2 -1.1794 3.088240171457472 7.83234971157598 19.266462610291697 0 0 0
1658 553 1 0.5897 0.319728040699791 10.085322651931902 20.951031537133986 1 0 0
1585 529 2 -1.1794 4.7081426537832245 12.26122681110428 17.63828564165786 0 0 0
1565 522 1 0.5897 2.136485758030624 7.787722251891519 19.175000640083937 0 0 0
1573 525 2 -1.1794 1.6621961730326906 9.135371684758999 21.889002788382676 0 0 0
241 81 2 -1.1794 4.740055684942747 14.015718637730565 4.3192305008478105 0 0 0
242 81 1 0.5897 4.537773919428806 13.370554343352916 4.996767423768403 0 0 0
243 81 1 0.5897 3.990012686324962 13.983311320116627 3.725470901659339 0 0 0
244 82 2 -1.1794 2.927955935896176 13.79483441350944 2.2176574379961504 0 0 0
245 82 1 0.5897 1.9817313088882165 13.936333671715081 2.1887935593227383 0 0 0
246 82 1 0.5897 3.2943650571395056 14.51793315140297 1.7086292085555188 0 0 0
250 84 2 -1.1794 3.3487948423494482 17.07873746951337 3.889665960391454 0 0 0
251 84 1 0.5897 2.907177043365164 17.101192277719143 3.040783539403394 0 0 0
252 84 1 0.5897 4.279731831378761 17.021824005129552 3.67447179820202 0 0 0
253 85 2 -1.1794 1.544799725460725 15.2902028791328 4.960335918006966 0 0 0
254 85 1 0.5897 0.8150231003313338 15.738720933692827 4.5331759093139254 0 0 0
255 85 1 0.5897 2.3266648111082424 15.719439020598955 4.612989659894067 0 0 0
259 87 2 -1.1794 4.544510290591363 15.629744945454323 0.951512001379687 0 0 0
260 87 1 0.5897 4.689871243579922 16.555705300138705 0.7571789833887463 0 0 0
262 88 2 -1.1794 1.6682023716774104 17.06505786781934 1.6313261649874675 0 0 0
263 88 1 0.5897 1.6582915595563759 16.335749471166743 1.0114573471789534 0 0 0
264 88 1 0.5897 1.6094569969945818 17.84724601287396 1.082713604825998 0 0 0
269 90 1 0.5897 1.5649538898142936 13.445013690231288 4.904736549408671 0 0 0
288 96 1 0.5897 5.987760437612228 14.809606918695705 1.7197881047340904 0 0 0
268 90 2 -1.1794 1.7054221926899267 12.500235625216463 4.967737108370851 0 0 0
247 83 2 -1.1794 6.096900648295066 16.95775564542444 3.5566605434207146 0 0 0
146 49 1 0.5897 5.519639624145693 12.73715564122492 1.2917356130368933 0 0 0
338 113 1 0.5897 0.3613345189491248 17.024437862082884 2.8954184637686056 1 0 0
147 49 1 0.5897 4.027618268703588 12.489658417960051 1.3582660170875407 0 0 0
265 89 2 -1.1794 4.843236084757126 18.350927221767385 0.722182671520692 0 0 0
287 96 1 0.5897 6.109848997304657 14.04348620560211 3.0197417599674488 0 0 0
389 130 1 0.5897 2.2404789788066735 18.4196868162564 4.647418047835805 0 0 0
339 113 1 0.5897 0.20566394520860448 17.76708349899338 4.205366146569893 1 0 0
256 86 2 -1.1794 0.16955778542151692 14.024594286306938 2.146477532057414 0 0 0
261 87 1 0.5897 4.5274799922728475 15.204360946437852 0.0942425712853525 0 0 0
740 247 1 0.5897 4.829537433854962 15.34850688205196 5.645286992274828 0 0 0
724 242 2 -1.1794 3.015468080843746 13.950169071656559 7.785362517316836 0 0 0
730 244 2 -1.1794 3.4006930523598995 16.9784478362199 9.21700569473644 0 0 0
743 248 1 0.5897 1.5463170005975015 17.770391356231215 6.6057410498503115 0 0 0
727 243 2 -1.1794 6.119132813491837 16.887822020712022 9.19256594934197 0 0 0
744 248 1 0.5897 1.4303068266604777 16.261751393145666 6.554457325051354 0 0 0
627 209 1 0.5897 5.42841730248069 12.61794023426321 6.795597925481998 0 0 0
723 241 1 0.5897 5.552907277908988 13.7642114611515 9.319562943638756 0 0 0
739 247 2 -1.1794 4.86869632241952 15.65443760914996 6.551382940845065 0 0 0
733 245 2 -1.1794 1.7667104827310816 15.228131490437075 10.586962744796594 0 0 0
721 241 2 -1.1794 4.816572522500824 13.828939923506352 9.927661914103275 0 0 0
741 247 1 0.5897 4.838847340260093 16.60883493976433 6.48399281988109 0 0 0
768 256 1 0.5897 6.1772517195788845 14.607266228630769 7.438892437760401 0 0 0
722 241 1 0.5897 4.0509408018337645 13.94798636427657 9.365696955040079 0 0 0
732 244 1 0.5897 2.9893110234754645 16.264399739302654 9.70397365519222 0 0 0
748 250 2 -1.1794 1.6634462049811045 12.516332058317348 10.572807258043365 0 0 0
735 245 1 0.5897 1.0832032243513867 15.712476688177828 10.123892406046584 0 0 0
869 290 1 0.5897 0.8897110967422663 18.20746055859022 10.301803488410837 0 0 0
870 290 1 0.5897 2.399712219751538 18.17385907948305 10.198995673933206 0 0 0
742 248 2 -1.1794 1.5415915720478615 16.99215450833772 7.163026275001266 0 0 0
749 250 1 0.5897 1.6400547973347095 13.472084020318551 10.620759850914226 0 0 0
726 242 1 0.5897 3.418654184629183 13.185780430590091 7.373775984829727 0 0 0
737 246 1 0.5897 1.2843130762736483 13.912275411298511 7.798137043882005 0 0 0
728 243 1 0.5897 5.163800508749204 16.94727210543354 9.192129226878908 0 0 0
745 249 2 -1.1794 4.774473015708815 18.45790262087631 6.4035469541161225 0 0 0
725 242 1 0.5897 3.492692678468222 14.69709872011906 7.423969030372758 0 0 0
731 244 1 0.5897 2.8841797495164707 17.050315436221673 8.414392324545302 0 0 0
818 273 1 0.5897 0.30707611178790317 16.991017779357556 8.51151036620183 1 0 0
736 246 2 -1.1794 0.33091791866241194 13.90505755546715 7.713406919500814 0 0 0
1221 407 1 0.5897 4.862839496370379 15.132135891025165 11.237685695699138 0 0 0
1106 369 1 0.5897 4.777268925687643 12.543620061531504 11.32017777947283 0 0 0
1201 401 2 -1.1794 4.571197185919266 14.097911994824594 15.62175810360748 0 0 0
1202 401 1 0.5897 5.3514827725853 14.049021994859684 15.06955157134209 0 0 0
1203 401 1 0.5897 4.649246719186489 13.3501184236547 16.214172671830056 0 0 0
1204 402 2 -1.1794 3.043847437188455 14.021291246980494 13.354937756786441 0 0 0
1205 402 1 0.5897 3.427526074208101 14.11846976808541 14.22641765380377 0 0 0
1206 402 1 0.5897 3.513646904403555 13.28309558696819 12.96686067502305 0 0 0
1210 404 2 -1.1794 3.3924768267170937 17.011947406857303 14.86411555213079 0 0 0
1211 404 1 0.5897 3.0220809231144674 17.716948851685423 15.395162033750134 0 0 0
1212 404 1 0.5897 4.338593280368626 17.15036674120106 14.907721182002474 0 0 0
1213 405 2 -1.1794 1.6794228573494445 15.297070040855187 16.280298932819733 0 0 0
1214 405 1 0.5897 0.966984446050617 15.8270287490027 15.922815375828149 0 0 0
1215 405 1 0.5897 2.466083442538326 15.62970054410787 15.848192751845113 0 0 0
1218 406 1 0.5897 1.230943134975244 13.976625354013093 13.417664615664975 0 0 0
1219 407 2 -1.1794 4.789425074374248 15.683419258411329 12.016709473155785 0 0 0
1220 407 1 0.5897 4.084911329014465 15.284557842161798 12.527358199756872 0 0 0
1222 408 2 -1.1794 1.6285431098099208 16.860587295501183 12.77456362411532 0 0 0
1223 408 1 0.5897 1.720321142107519 17.565587151147618 12.133647995371604 0 0 0
1224 408 1 0.5897 2.397345165226389 16.94709015861234 13.33814936461512 0 0 0
1227 409 1 0.5897 4.69420555318212 17.475405408688303 12.051986884619255 0 0 0
1229 410 1 0.5897 1.564397072650768 13.512325658095895 16.352386868701387 0 0 0
1298 433 1 0.5897 0.37506957376694694 16.89182279783636 14.160445314300896 1 0 0
1228 410 2 -1.1794 1.5775468067863332 12.559453634376359 16.261990193232926 0 0 0
1225 409 2 -1.1794 4.495875643868719 18.411636020632486 12.072995134815033 0 0 0
1247 416 1 0.5897 6.124580302952205 14.759677068546276 13.15120006522555 0 0 0
1216 406 2 -1.1794 0.2811057187202226 13.859680256644832 13.399531374473932 0 0 0
1248 416 1 0.5897 6.041316664282683 13.248616224214084 13.108228016843718 0 0 0
734 245 1 0.5897 1.8119540310732933 15.64189788351009 11.448880069613077 0 0 0
1350 450 1 0.5897 1.1148510309826951 18.369959562312246 15.959250889964274 0 0 0
1700 567 1 0.5897 4.738784902513271 15.402588190447476 17.02904465295247 0 0 0
1207 403 2 -1.1794 6.124983325359121 17.111888498189586 14.964102907522154 0 0 0
1699 567 2 -1.1794 4.715534549117967 15.750525527155695 17.920414288923325 0 0 0
1708 570 2 -1.1794 1.7009283710871512 12.472212375854093 21.918984814766283 0 0 0
1689 563 1 0.5897 5.079776411632371 17.162325213709707 20.620281113551904 0 0 0
1728 576 1 0.5897 6.068148781480888 14.679878998534287 18.792743148854477 0 0 0
1704 568 1 0.5897 1.8578754519221539 17.732752912226097 17.973637734383274 0 0 0
1682 561 1 0.5897 5.370195307102878 13.966873236744982 20.83948417918681 0 0 0
1697 566 1 0.5897 1.3001221513461478 13.780432261728247 19.150171005694048 0 0 0
1681 561 2 -1.1794 4.6150293847634565 13.990170088624735 21.427145762318602 0 0 0
1684 562 2 -1.1794 3.0862050923882522 13.950688461022107 19.16526914953222 0 0 0
1694 565 1 0.5897 1.0092153013498075 15.579207124337488 21.665518330459996 0 0 0
1695 565 1 0.5897 1.6603203880139585 14.304886598170512 22.159636597490724 0 0 0
1686 562 1 0.5897 3.513024660995137 13.999656392892696 20.020581070882756 0 0 0
1696 566 2 -1.1794 0.34416880051303733 13.737760709969116 19.12719581979033 0 0 0
1685 562 1 0.5897 3.5315536816838433 13.232554538882026 18.715614213771005 0 0 0
1690 564 2 -1.1794 3.219287810825445 17.07843202519527 20.705478662038125 0 0 0
1683 561 1 0.5897 4.746524829213598 13.247388066224662 22.016396586223728 0 0 0
1778 593 1 0.5897 0.3641936592427322 16.830121876707423 19.79903416801897 1 0 0
1693 565 2 -1.1794 1.7225604429226236 15.25836268575969 22.21722367842502 0 0 0
1830 610 1 0.5897 2.1662734838354165 18.287593052198346 21.604316402195757 0 0 0
1692 564 1 0.5897 2.7923468510229985 16.985650355329852 19.853865045678802 0 0 0
1703 568 1 0.5897 1.670593021828088 16.238806100083657 17.815124660267458 0 0 0
1779 593 1 0.5897 0.29104888856703237 17.534237713192965 21.137159265828153 1 0 0
1586 529 1 0.5897 5.467179405277761 12.593734172993079 18.117336283546656 0 0 0
1701 567 1 0.5897 4.060827888029316 15.21595230615869 18.369638200476786 0 0 0
1705 569 2 -1.1794 4.865049525251477 18.519794978354383 17.986652270510774 0 0 0
1691 564 1 0.5897 2.8321085538282493 16.388600148141002 21.244416284491535 0 0 0
1702 568 2 -1.1794 1.6628815691884709 16.937466556900425 18.469367673874004 0 0 0
1707 569 1 0.5897 4.831296499464429 17.56948044585252 17.87678532359893 0 0 0
1687 563 2 -1.1794 6.023632312121534 17.091993647968287 20.763048489002912 0 0 0
361 121 2 -1.1794 4.793755146422856 20.128427176131325 4.202126311162239 0 0 0
362 121 1 0.5897 4.114939508361005 19.897443950649787 3.5680735369510383 0 0 0
363 121 1 0.5897 4.72845623309174 19.45525438937004 4.879465900339466 0 0 0
364 122 2 -1.1794 3.0274842623143963 19.89284761244445 2.0895237845974157 0 0 0
365 122 1 0.5897 3.3457606725574505 20.63538449282533 1.5761207867990858 0 0 0
366 122 1 0.5897 2.0799830385276366 20.020897388073983 2.134719123845075 0 0 0
370 124 2 -1.1794 3.381756865451024 23.28028783713463 3.3877193166960784 0 0 0
371 124 1 0.5897 4.330259606906592 23.164585939194467 3.443851638514165 0 0 0
372 124 1 0.5897 3.0196793414640717 22.50838854980757 3.8228331930475985 0 0 0
373 125 2 -1.1794 1.7611841011008715 21.475078035220633 4.846968607385505 0 0 0
375 125 1 0.5897 1.0483494810531053 21.88775503674225 4.3593621377589304 0 0 0
379 127 2 -1.1794 4.616650303176643 21.805246295919325 0.7626019978176872 0 0 0
380 127 1 0.5897 4.748902069741381 22.753217726868392 0.7754502248555304 0 0 0
381 127 1 0.5897 5.3501926258765575 21.453714058503948 1.2671101654948644 0 0 0
382 128 2 -1.1794 1.5778163425402472 23.26689487392118 1.337150275450528 0 0 0
383 128 1 0.5897 2.342242793023928 23.25198942727375 1.912993347118911 0 0 0