#include		in.partitions
include		in.temp
variable        temperature equal 138.27
variable	tempDamp equal 100.0
include		in.pressure
variable        pressure equal 8263.7
variable        pressureDamp equal 1000.0 # This is 1 ps
include		in.seed
variable        seed equal 745823

units		real
atom_style	full
read_restart	restart.lmp.${pid}
read_restart	restart.lmp.0
Reading restart file ...
  restart file = 30 Jul 2021, LAMMPS = 30 Jul 2021
  restoring atom style full from restart
  orthogonal box = (-0.033583933 -0.030989964 0.041157064) to (24.763585 24.760991 22.768843)
  4 by 2 by 2 MPI processor grid
  restoring pair style lj/cut/tip4p/long/omp from restart
  restoring bond style harmonic/omp from restart
  restoring angle style harmonic/omp from restart
  1920 atoms
  1280 bonds
  640 angles
Finding 1-2 1-3 1-4 neighbors ...
  special bond factors lj:    0        0        0       
  special bond factors coul:  0        0        0       
     2 = max # of 1-2 neighbors
     1 = max # of 1-3 neighbors
     1 = max # of 1-4 neighbors
     2 = max # of special neighbors
  special bonds CPU = 0.001 seconds
  read_restart CPU = 0.005 seconds
include 	in.setup
variable	out_freq equal 1000
variable	out_freq2 equal 10000
variable	out_freq3 equal 1000

timestep	2.0

neigh_modify    delay 7 every 1

include		in.tip4p
# This is TIP4P/Ice

# create groups ###
group ox type 2
640 atoms in group ox
group hy type 1
1280 atoms in group hy

# set charges - beside manually ###
set group ox charge -1.1794
Setting atom values ...
  640 settings made for charge
set group hy charge 0.5897
Setting atom values ...
  1280 settings made for charge

# ### TIP3P Potential Parameters ###
pair_style lj/cut/tip4p/long/omp 2 1 1 1 0.1577 8.5
pair_coeff 1 1*2 0.000 0.000
pair_coeff 2 2 0.21084 3.1668
bond_style  harmonic
bond_coeff  1 450 0.9572
angle_style harmonic
angle_coeff 1 55 104.52
kspace_style pppm/tip4p/omp 1.0e-5
pair_modify tail yes

thermo          ${out_freq}
thermo          1000
thermo_style    custom step temp pe etotal epair emol press lx ly lz vol pxx pyy pzz pxy pxz pyz enthalpy

restart 	${out_freq3} restart.lmp.${pid} restart2.lmp.${pid}
restart 	1000 restart.lmp.${pid} restart2.lmp.${pid}
restart 	1000 restart.lmp.0 restart2.lmp.${pid}
restart 	1000 restart.lmp.0 restart2.lmp.0


include         in.dump
dump            myDump all atom ${out_freq2} dump.water.${pid}
dump            myDump all atom 10000 dump.water.${pid}
dump            myDump all atom 10000 dump.water.0
dump            myDump2 all dcd ${out_freq2} dump.dcd
dump            myDump2 all dcd 10000 dump.dcd
dump_modify     myDump append yes
dump_modify     myDump2 append yes


variable natoms 	equal  "count(all)"                        # NUMBER ATOMS
variable H      	equal  "enthalpy/v_natoms"                 # ENTHALPY-per-atom
variable Vol      	equal  "vol/v_natoms"                 # volume-per-atom
fix AVG all 		ave/time ${out_freq} 1 ${out_freq} v_Vol v_H file vol_enthalpy.dat
fix AVG all 		ave/time 1000 1 ${out_freq} v_Vol v_H file vol_enthalpy.dat
fix AVG all 		ave/time 1000 1 1000 v_Vol v_H file vol_enthalpy.dat




fix 		1 all shake 1e-6 200 0 b 1 a 1
       0 = # of size 2 clusters
       0 = # of size 3 clusters
       0 = # of size 4 clusters
     640 = # of frozen angles
  find clusters CPU = 0.000 seconds
fix             2 all nph aniso ${pressure} ${pressure} ${pressureDamp}
fix             2 all nph aniso 8263.7 ${pressure} ${pressureDamp}
fix             2 all nph aniso 8263.7 8263.7 ${pressureDamp}
fix             2 all nph aniso 8263.7 8263.7 1000
fix             3 all temp/csvr ${temperature} ${temperature} ${tempDamp} ${seed}
fix             3 all temp/csvr 138.27 ${temperature} ${tempDamp} ${seed}
fix             3 all temp/csvr 138.27 138.27 ${tempDamp} ${seed}
fix             3 all temp/csvr 138.27 138.27 100 ${seed}
fix             3 all temp/csvr 138.27 138.27 100 745823


run             250000
PPPM initialization ...
  extracting TIP4P info from pair style
  using 12-bit tables for long-range coulomb (../kspace.cpp:340)
  G vector (1/distance) = 0.37501838
  grid = 30 30 30
  stencil order = 5
  estimated absolute RMS force accuracy = 0.0032082762
  estimated relative force accuracy = 9.6616285e-06
  using double precision FFTW3
  3d grid and FFT values/proc = 7920 1800
Last active /omp style is kspace_style pppm/tip4p/omp
Neighbor list info ...
  update every 1 steps, delay 7 steps, check yes
  max neighbors/atom: 2000, page size: 100000
  master list distance cutoff = 10.8154
  ghost atom cutoff = 10.8154
  binsize = 5.4077, bins = 5 5 5
  1 neighbor lists, perpetual/occasional/extra = 1 0 0
  (1) pair lj/cut/tip4p/long/omp, perpetual
      attributes: half, newton on, omp
      pair build: half/bin/newton/omp
      stencil: half/bin/3d
      bin: standard
Per MPI rank memory allocation (min/avg/max) = 12.56 | 12.56 | 12.56 Mbytes
Step Temp PotEng TotEng E_pair E_mol Press Lx Ly Lz Volume Pxx Pyy Pzz Pxy Pxz Pyz Enthalpy 
25000000    143.32003    -9609.872   -9063.4706    -9609.872            0    8986.6355    24.797169    24.791981    22.727686    13972.321    8026.8974     9820.573    9112.4362   -48.267255    420.04503    -217.3632   -7232.2463 
25001000    140.47985   -9636.0535   -9100.4802   -9636.0535            0    8021.1158    24.679889     24.83335    22.845437     14001.61    9246.2132    7615.9743      7201.16   -237.99715   -466.63189    214.67361   -7462.5754 
25002000    137.01733   -9622.9598   -9100.5872   -9622.9598            0    8078.8409    24.724157     24.85643    22.809402    14017.616    7867.3184    8604.5584     7764.646   -178.49255    402.09266    -267.4164   -7449.0092 
25003000    140.74449   -9635.2386   -9098.6565   -9635.2386            0     9136.893    24.643701    24.818929    22.812885    13953.051    9777.7444    8856.7571    8776.1775    46.201872    26.404244   -110.56717   -7239.3816 
25004000     137.3086   -9649.2713   -9125.7884   -9649.2713            0    7081.9135    24.763852    24.809785    22.853819    14041.063    7124.4267    7065.2004    7056.1133    250.48959   -392.04454    358.60588    -7675.593 
25005000    137.18177   -9612.9337   -9089.9343   -9612.9337            0    7988.9602    24.788033    24.785753    22.810677    14014.653    7677.3733    7571.4152    8718.0921    190.43651   -305.84688    652.22448   -7457.0759 
25006000    139.75579   -9611.8843   -9079.0715   -9611.8843            0    8550.9524    24.796137    24.674013    22.856301    13983.947    8116.0212    9287.0164    8249.8194     95.13574   -162.37664   -121.94056   -7335.1773 
25007000     137.0862   -9630.2958   -9107.6607   -9630.2958            0    8746.5475    24.777535     24.77616    22.763461    13974.311    8193.5472    9326.9748    8719.1205    593.06141    53.339334    849.86549   -7325.1056 
25008000    136.77897   -9638.4869    -9117.023   -9638.4869            0    7246.6192    24.727687    24.811517    22.874096    14033.977    7371.6321    7272.2302    7095.9953    116.32157    136.41675    631.95852   -7633.8491 
25009000    140.47941   -9614.0718   -9078.5002   -9614.0718            0    7492.0436    24.740123    24.852337    22.848724    14048.535    7589.0127    7072.6209    7814.4972    -380.0217   -315.79154    604.71871   -7543.5043 
25010000    136.74518   -9616.6296   -9095.2947   -9616.6296            0    7955.9576     24.79424    24.801742    22.810657    14027.193     8199.774    7696.8331    7971.2657   -2.3348904    125.86641   -105.26662   -7467.7267 
25011000    140.45945   -9642.1134    -9106.618   -9642.1134            0     8143.422     24.81504    24.738701    22.803432    13998.841    7457.5718    8786.0349    8186.6592    58.643068    374.99045   -689.55127   -7444.0672 
25012000     142.0787   -9615.8559   -9074.1871   -9615.8559            0    8684.8519    24.744068    24.710493    22.877667    13988.278      8761.95    9171.3242    8121.2816    241.02235   -876.02119    141.55013   -7302.4366 
25013000    138.57146   -9612.1302   -9083.8326   -9612.1302            0    7916.2426    24.811953     24.80091    22.773394    14013.814    6148.5666    9117.1692    8482.9919    417.00104   -364.05966   -221.75573   -7465.9339 
25014000    136.06445   -9644.8485   -9126.1088   -9644.8485            0    7989.6813    24.766088    24.783209    22.831544    14013.616    8839.0774    6673.3825    8456.5841   -55.447056   -392.11504    1089.9123   -7493.2239 
25015000    138.35922   -9636.3336   -9108.8452   -9636.3336            0    7819.8996    24.805144    24.838176    22.766271    14026.631    7413.6825    8151.5282     7894.488   -7.4314014    28.419734    603.70187   -7509.1751 
25016000    137.94247   -9613.8491   -9087.9495   -9613.8491            0     9820.692    24.657344    24.778416    22.815806    13939.772    10487.899    10045.445    8928.7313   -88.481513    157.51247    125.67429   -7091.4296 
25017000    136.77835   -9614.4335    -9092.972   -9614.4335            0     8894.051    24.788241    24.747725    22.798983    13986.095    8627.2869    9601.3814    8453.4847    824.99381   -508.52218    96.918889   -7278.8272 
25018000    134.44968   -9621.1692   -9108.5857   -9621.1692            0    9167.5646    24.939364    24.650341     22.69091    13949.551    6901.4231    11121.523    9479.7478   -353.24389    64.066777    4.3727995   -7243.5374 
25019000    134.66053    -9621.487   -9108.0996    -9621.487            0    7736.0601    24.770962    24.739264     22.87732    14019.573    7364.6536    8581.8881    7261.6386   -203.66315   -475.96801    590.16075   -7526.3763 
25020000    137.05849   -9633.1395     -9110.61   -9633.1395            0    7894.8729    24.724297    24.903625    22.739673    14001.377    8344.0147    7245.5622    8095.0418   -26.197537    141.02208    579.61686   -7498.5108 
25021000    137.80447   -9632.7837   -9107.4102   -9632.7837            0    8953.0662    24.638958    24.825397    22.836312    13968.331    10087.771    8341.6942    8429.7331    150.13218   -320.70839   -627.54614   -7283.5473 
25022000    139.69715    -9620.433   -9087.8437    -9620.433            0    7865.1869      24.7499    24.818459     22.83224    14024.804    7458.3446    8300.0496    7837.1666   -336.83261    112.32666    508.38844    -7479.119 
25023000    138.27083   -9652.7909   -9125.6394   -9652.7909            0    8197.1795     24.72693    24.891525    22.734652    13992.974    8618.6269    7039.5956     8933.316   -468.83105   -147.47518    61.627787    -7452.815 
25024000    143.26844   -9607.5302   -9061.3256   -9607.5302            0    8221.1373    24.723106    24.774418    22.875474    14011.241    8221.1984    8565.9709    7876.2425   -225.48185    418.26358   -553.45312   -7381.4219 
25025000    134.62435   -9610.8488   -9097.5994   -9610.8488            0    7897.2179    24.888082    24.732929     22.81158    14041.786    6458.2661    9335.7907    7897.5971   -249.52258   -963.87048   -28.008167   -7480.3673 
25026000    141.40426   -9622.9762   -9083.8787   -9622.9762            0    8013.1932    24.876322    24.785903    22.737206    14019.354    6666.1819    8882.1031    8491.2945    427.98864   -20.435044    422.89278    -7445.518 
25027000    138.31146   -9629.2805   -9101.9742   -9629.2805            0    8336.6302    24.773076    24.702225    22.891769     14008.62    8211.8604    8933.0337    7864.9964    40.964433    1275.5984   -426.37948   -7398.7893 
25028000    138.08661   -9634.5984   -9108.1493   -9634.5984            0    8401.4101    24.742726    24.846634    22.760884    13992.787    8084.8642    8434.4114    8684.9548    297.36402   -675.35714    66.381666   -7393.6697 
25029000    138.01393   -9635.7711   -9109.5991   -9635.7711            0    8004.9592    24.671104    24.817653    22.864434     13999.41    8322.0318    8318.3823    7374.4634    242.45636    400.68481    5.9619873   -7475.2503 
25030000    140.56735   -9621.1472   -9085.2403   -9621.1472            0    8135.7794    24.739667    24.790712    22.838602    14007.234    9154.9612    7256.3706    7996.0066    -451.8198    -457.3555    386.63367    -7423.254 
25031000    141.32065   -9610.6684   -9071.8896   -9610.6684            0    8607.1409    24.839839    24.750216    22.753444    13988.621    8524.0847    8195.5699     9101.768    468.89145    418.26755    136.98601   -7315.9495 
25032000    145.46113    -9638.798   -9084.2338    -9638.798            0    7709.7655    24.767488    24.734014    22.894817    14025.352    8715.9884    7156.9923    7256.3156    300.39755    547.01509    447.30753    -7507.237 
25033000    141.86965   -9629.6214   -9088.7496   -9629.6214            0    8253.7517    24.674591    24.872875    22.783038    13982.589    8900.3108    7595.7722    8265.1722    21.130348    470.83677   -1013.6905   -7405.6303 
25034000    135.94084   -9642.9174   -9124.6489   -9642.9174            0    7904.3003    24.714324    24.796079    22.846104    14000.512    8354.0454    8352.1901    7006.6654    447.81321    -98.59411   -811.63688   -7510.7243 
25035000    134.76005   -9642.0082   -9128.2415   -9642.0082            0    9389.1652     24.79418    24.716848    22.757138    13946.347    8826.4279    9681.9221    9659.1456  -0.55675039   -699.60598    -214.7186   -7218.5494 
25036000    136.99767   -9620.0003   -9097.7027   -9620.0003            0    8807.5642    24.758885    24.730952    22.835005     13982.12    8783.9121    9376.8812    8261.8994    398.17444   -24.845594    462.80912   -7301.7093 
25037000    139.94182   -9636.8007   -9103.2786   -9636.8007            0    7061.4982      24.9089    24.721879    22.813319    14048.323    5793.5326    7667.9281    7723.0339     260.3125   -164.00595    135.50968   -7656.5162 
25038000    139.02246   -9617.4696   -9087.4525   -9617.4696            0     8085.586    24.785369    24.815411    22.760404    13998.994    7385.4177    7839.5067    9031.8336   -460.41182   -892.54907    111.68481   -7436.6914 
25039000    135.06398   -9631.0643   -9116.1388   -9631.0643            0    8114.2673     24.74177    24.818357    22.801938    14001.532    7781.3958    8472.3662      8089.04     36.70338   -487.00618   -63.319847   -7459.2218 
25040000     137.8779   -9635.8287   -9110.1753   -9635.8287            0    7796.2055    24.704664     24.76722    22.912528    14019.393    8000.0611    8025.2112    7363.3443   -92.443547   -30.622823    407.07093    -7516.175 
25041000    134.21783   -9646.6909   -9134.9914   -9646.6909            0    7395.9784    24.789421    24.903348    22.727533    14030.605    7882.3245    6665.6459    7639.9648   -331.99547   -434.73178    23.279187   -7621.6115 
25042000    136.47372   -9625.1623   -9104.8622   -9625.1623            0    8620.8494    24.725129    24.704144     22.87564    13972.742    9154.0729    8861.3589    7847.1164   -245.16482   -589.85113   -139.96213   -7348.1219 
25043000    138.64944   -9622.4068   -9093.8119   -9622.4068            0     7566.387    24.852755    24.767932    22.805433    14037.915    6555.7048     7600.185    8543.2712    229.36387   -449.65649       -455.7   -7544.7562 
25044000    140.68722   -9643.8409    -9107.477   -9643.8409            0    8031.3534     24.74954    24.795285    22.820184    14004.105     9340.353    7237.0654    7516.6419    -184.7153   -472.30165    428.98662   -7467.1894 
25045000    138.22677   -9662.9779   -9135.9944   -9662.9779            0    8531.0665    24.695574    24.816153    22.815416    13982.408    9634.1396    7894.4801    8064.5797    994.74164    231.04167    162.02693   -7396.3472 
25046000    148.57824   -9637.7842   -9071.3361   -9637.7842            0    8934.3886    24.760251    24.733706    22.814628     13971.97    9413.6835    8568.4181    8821.0642    -411.8558    507.68757    308.24421   -7250.8039 
25047000     139.2099   -9644.9416     -9114.21   -9644.9416            0    8271.3001     24.83299    24.696499    22.832333    14002.793    7250.4644    9273.4436    8289.9923   -497.01377    264.31005   -170.66769    -7425.075 
25048000    138.26515   -9634.1462   -9107.0164   -9634.1462            0    8279.2466    24.781384    24.724897      22.8438    13996.788    8334.0252    8632.8447      7870.87    54.810773   -117.00194    787.64086   -7416.9837 
25049000      142.554   -9638.1319    -9094.651   -9638.1319            0    6819.0221    24.797774    24.917695    22.752896    14059.091    6963.1517    6461.2262    7032.6885   -496.54203   -1208.9956    757.92971   -7696.4963 
25050000    141.87469   -9623.3475   -9082.4565   -9623.3475            0    8503.1499    24.695327    24.783228    22.856386    13988.792    8946.1805    8763.0317    7800.2374     729.8767   -406.56068    30.076017   -7347.7103 
25051000    141.08118    -9630.105   -9092.2392    -9630.105            0    9104.4608    24.690021     24.83054    22.783728    13967.942    8732.7513    8603.0052    9977.6258    74.777567   -851.05003    517.02479   -7237.5868 
25052000    138.74889   -9624.0909   -9095.1169   -9624.0909            0      8596.28    24.796571    24.716766    22.806951    13978.176    7663.5072    8767.6838    9357.6489    272.76312   -693.03997   0.24366051    -7342.702 
25053000    136.68673    -9626.796   -9105.6838    -9626.796            0    7415.1695    24.919874    24.716636    22.793314     14039.21    6009.9413    7834.3908    8401.1766   -386.68483    966.99918    -520.4869   -7587.4466 
25054000    137.36795   -9614.8872   -9091.1779   -9614.8872            0    8464.5839    24.736402     24.73513    22.852904    13982.734    7868.9111    9690.3501    7834.4903   -172.63585   -1048.2247   -46.267706   -7365.0474 
25055000    142.25195   -9627.1762   -9084.8469   -9627.1762            0    8569.0466    24.735324    24.830138    22.782968    13992.877    8723.5959    8241.8673    8741.6766    375.61273   -370.30727    498.48412   -7336.1464 
25056000    140.58236   -9617.6085   -9081.6445   -9617.6085            0    7632.3924    24.695613    24.850834    22.870441    14035.741    8354.0892     7294.227    7248.8611     50.14324   -152.77767   -631.63385   -7519.3176 
25057000    135.09165   -9615.8184   -9100.7874   -9615.8184            0    8016.1982    24.767371    24.756855    22.859834    14016.787    8801.8371    7788.3714    7458.3859   -166.50777   -693.59446    -348.2899   -7462.1125 
25058000    135.63869   -9625.1666   -9108.0501   -9625.1666            0    8613.9713    24.740653    24.888358    22.686578    13969.356    8564.9402    7778.0773    9498.8964    414.65554   -1037.2429   -68.840116   -7353.1366 
25059000    134.02405   -9611.3559   -9100.3951   -9611.3559            0    7975.8183    24.735003    24.797816    22.851954    14016.795    8344.0031    8419.1878    7164.2641    684.82246   -788.34651   -509.91716   -7469.9736 
25060000    135.86094   -9645.1377   -9127.1739   -9645.1377            0    8499.5707    24.770489    24.727676    22.827748    13982.375    7852.5913    9267.9124    8378.2083     123.0134    220.27462    5.1982693   -7393.9534 
25061000    138.56257   -9636.8471   -9108.5834   -9636.8471            0    8420.3191    24.852726    24.725594    22.718874    13960.712    7680.8433    9210.8328    8369.2813    143.57385   -318.40402     531.5362    -7394.184 
25062000     137.6208   -9627.6894   -9103.0162   -9627.6894            0    8377.8203    24.714145    24.757461    22.878399    13998.365    8147.2436    8731.2003     8255.017    6.1724874    30.941414    285.70236   -7392.6691 
25063000    142.01335   -9616.9567    -9075.537   -9616.9567            0    8050.7512    24.740515    24.844584    22.797609    14012.956    8289.0601    8291.7589    7571.4344    665.98747   -538.10636   -413.80549   -7430.2485 
25064000    135.39822   -9609.1576   -9092.9578   -9609.1576            0    8660.7409    24.736715    24.812159    22.766422    13973.377    9254.4197    8738.6221     7989.181   -308.01831   -706.29409   0.24970517   -7328.0082 
25065000    134.65087   -9638.1487   -9124.7982   -9638.1487            0     8573.239    24.745907    24.738659    22.852684    13989.969    9203.6231    8419.2568    8096.8372    79.191028   -96.984854   -39.640281   -7375.6058 
25066000    141.35158   -9605.2446   -9066.3479   -9605.2446            0    7705.3563    24.830101     24.73967    22.852601     14038.09    7341.0758    8327.5577    7447.4354    1168.7269   -796.04459    269.81747   -7488.8215 
25067000    136.35323   -9640.3406   -9120.4999   -9640.3406            0    8448.4926    24.773163     24.81562    22.746511    13983.677    8063.9372    7499.2121    9782.3284   -94.479823    -576.5513   -1087.9227   -7397.5347 
25068000    135.39336   -9638.3685   -9122.1873   -9638.3685            0    8104.1402    24.672592    24.779526    22.911955    14007.799    8405.4421    7788.4234    8118.5551   -987.49437    151.51302    169.78026   -7466.5975 
25069000    137.40301   -9635.0174   -9111.1744   -9635.0174            0    9759.5621     24.76617    24.780548    22.692278    13926.688     8333.399    9983.2107    10962.077   -334.12492   -903.47132   -372.49048   -7128.9443 
25070000    138.58292   -9645.0279   -9116.6866   -9645.0279            0    7696.5816    24.772017    24.740209    22.875667    14019.693    7402.8476    8450.4902    7236.4069    37.155109   -320.36628    217.97339   -7543.0217 
25071000    133.20412   -9608.5419   -9100.7071   -9608.5419            0    7706.2254    24.833669    24.826547     22.76193    14033.509    7636.4721    7370.3596    8111.8445    302.54274   -116.19452    408.04081   -7523.5175 
25072000    143.25586   -9629.7503   -9083.5936   -9629.7503            0    8182.5376    24.666346    24.797967    22.877854    13993.816     8933.247    8326.0951    7288.2706    268.96927   -981.56855    278.47079   -7413.6566 
25073000    128.93742   -9634.8054   -9143.2371   -9634.8054            0    7543.8201    24.753498     24.83232    22.820209    14027.281    7344.9751    6925.2273    8361.2577   -62.951086   -872.99398    91.161814   -7599.9714 
25074000    142.82682   -9635.2465   -9090.7255   -9635.2465            0     8350.087    24.796009    24.769808    22.779945    13991.269    8123.6534    8763.2658    8163.3417   -138.06949   -48.429599      966.084   -7386.9044 
25075000    136.59134   -9598.5889   -9077.8404   -9598.5889            0    8814.3065    24.757213     24.72665     22.87087    14000.699    8097.8784    9717.3372    8627.7038   -341.55499   -296.42071   -683.85543   -7278.0839 
25076000    144.25286   -9651.9801   -9102.0224   -9651.9801            0    8244.1905    24.814349    24.740309    22.784907    13987.988    7681.0676    8789.0568    8262.4472   -876.47986    -798.8026   -30.028914   -7420.2038 
25077000    133.60491   -9631.2743   -9121.9114   -9631.2743            0    8329.3601    24.710408    24.828426    22.803487    13990.408    9174.0529    7860.2716     7953.756   -425.04436   -128.39529    164.36385   -7422.4242 
25078000    140.73468   -9619.8778    -9083.333   -9619.8778            0    7544.0763    24.746928    24.799216    22.862976     14031.11    7092.0114    8344.9736    7195.2439   -598.48393   -257.75632   -68.544424   -7539.5936 
25079000     138.1008   -9636.2333     -9109.73   -9636.2333            0     8279.057    24.714779     24.95662    22.682406    13990.448    9076.0606    6924.2494    8836.8609   -375.68167   -758.49308    180.06432   -7420.5016 
25080000    142.13145   -9643.5268   -9101.6569   -9643.5268            0    8351.0281    24.678959    24.810128    22.854708    13993.667    9030.1751    7402.2744    8620.6347    659.13885   -257.35514    411.26975   -7397.3517 
25081000    140.22639   -9621.0383   -9086.4313   -9621.0383            0    7819.5277    24.801749    24.832463    22.754727    14014.375    7935.1005    7602.8535    7920.6292   -456.15242    172.15878    477.04588    -7488.235 
25082000    139.45001   -9634.6606   -9103.0136   -9634.6606            0    8454.2533       24.774    24.797539    22.772733    13990.069    7618.2034    8358.5493     9386.007   -278.48819    -180.8756    860.52474   -7378.0854 
25083000    134.20006   -9635.6845   -9124.0527   -9635.6845            0    8967.6759    24.741772    24.666059    22.857201    13949.338    8159.1272    9862.6364     8881.264    470.34051   -594.78797    -498.6867   -7299.6975 
25084000    134.30643   -9593.1412   -9081.1039   -9593.1412            0    8716.6067    24.761648    24.827317    22.791775    14011.592    8817.7982    8366.5759     8965.446   -947.71656    334.66064    474.20415   -7299.9115 
25085000    140.74525   -9642.2058   -9105.6207   -9642.2058            0    8712.0166    24.704979     24.76592    22.822585    13963.805    9057.3675    9069.1204    8009.5618   -138.91624    114.16708    1058.1534    -7331.438 
25086000    140.70936   -9634.2517   -9097.8034   -9634.2517            0    7307.0988    24.807902    24.725396     22.87066    14028.525     7231.274    8004.1708    6685.8517    193.83377   -726.31282    -633.7998    -7602.832 
25087000    133.65318   -9617.3704   -9107.8235   -9617.3704            0    7385.6529    24.884319    24.782039    22.772476    14043.425    7390.2712    7602.3519    7164.3356    167.32001   -339.86304   -557.70243   -7595.1757 
25088000    139.22347   -9608.4793   -9077.6959   -9608.4793            0    8730.8489    24.775496    24.684948    22.884659    13995.841    8451.7798    9418.0775    8322.6894    143.39585   -883.86546   -444.37994   -7295.5988 
25089000    134.66863    -9646.572   -9133.1538    -9646.572            0    8114.4963    24.774541    24.812485    22.777181    14001.541    7997.5094    7500.5205    8845.4591     329.5584   -85.626425    937.63434   -7476.1889 
25090000    139.14807   -9622.2141   -9091.7182   -9622.2141            0    8783.4445    24.645798    24.830916    22.853526    13985.849    10263.137    8017.3907    8069.8057   -315.37542    77.779489   -242.35429   -7300.1654 
25091000    137.91196   -9652.0906   -9126.3073   -9652.0906            0    7872.7346    24.700555     24.80212    22.851728    13999.566    8382.9455    7911.9792     7323.279    420.17476    101.89898    632.74452   -7518.9366 
25092000    140.36619   -9636.7014   -9101.5614   -9636.7014            0    7352.8609    24.873134    24.809054    22.770153    14050.981    6416.5287    7866.4469    7775.6071       216.77   -420.20634   -846.22076   -7594.8194 
25093000    140.47899   -9625.6542   -9090.0843   -9625.6542            0    9019.5902     24.73136    24.749134    22.828713    13972.993    9771.1042    8916.9058    8370.7604    431.49371    355.01609   -160.28689   -7252.0563 
25094000    139.93109   -9635.9011     -9102.42   -9635.9011            0    8816.4705    24.788494    24.770536    22.773595     13983.54    8347.6193    9514.2805    8587.5118     -50.7223   -348.92344    344.56808   -7304.4279 
25095000    132.74039   -9638.0904   -9132.0235   -9638.0904            0    8397.9483    24.781011    24.768933    22.792005    13989.715    8462.1259    8534.7306    8196.9884   -322.11215   -279.15658    608.09717   -7418.6267 
25096000    136.61278   -9616.0338   -9095.2036   -9616.0338            0    8292.6963    24.742548     24.66973    22.955478    14011.839    8204.9508    9683.6971     6989.441    400.97784     241.7471    722.41612   -7400.6052 
25097000    135.90099   -9611.6912   -9093.5746   -9611.6912            0    7496.5566    24.833145    24.783149     22.82666     14048.52    7512.2684    7339.6331    7637.7682   -385.12501   -669.71507    548.70817   -7557.6557 
25098000    132.52299   -9637.2494   -9132.0113   -9637.2494            0    8494.4308    24.812547    24.727462    22.792809    13984.558    7587.9725    8561.6376    9333.6824   -59.552897    377.81742    32.124617   -7399.5685 
25099000    137.27555   -9609.8503   -9086.4933   -9609.8503            0    8915.2814    24.735255    24.775724    22.826245    13988.695    8734.9403    9385.5132    8625.3907   -386.01528    148.02698   -274.06323   -7267.6799 
25100000    137.31549   -9646.6155   -9123.1063   -9646.6155            0    7475.1431     24.70932    24.883632      22.8098    14024.779    7810.4087    6830.9868    7784.0337   -383.13104    117.02931   -153.44598   -7594.1628 
25101000    136.48979   -9630.0948   -9109.7335   -9630.0948            0     7931.813     24.71198    24.806683    22.835922    13998.929    8306.3053    7584.2724    7904.8612   -790.32194    438.49567    803.91424   -7490.3744 
25102000    143.58272   -9625.9328     -9078.53   -9625.9328            0    8620.6899    24.772907    24.850033    22.691995    13969.363    8312.8042    7987.7924     9561.473   -82.980086   -638.75863   -282.14798   -7322.2469 
25103000    134.86136   -9610.4813   -9096.3283   -9610.4813            0    8583.7756    24.772032    24.742007    22.816227    13984.289    8751.8495    7897.2287    9102.2487   -200.85568   -449.09652    943.61341   -7345.6972 
25104000    142.52594   -9654.9099    -9111.536   -9654.9099            0    7092.8099    24.805593    24.794024    22.837026    14045.467    6951.4512      7111.81    7215.1684   -173.33818   -371.51135   -784.49853   -7658.6539 
25105000    141.17821   -9627.3441   -9089.1083   -9627.3441            0    8636.3951    24.732438    24.843263    22.749728    13978.217     9228.562    7785.6011    8895.0223   -392.91225   -39.350555    255.41232   -7328.5105 
25106000    137.71837   -9638.3882   -9113.3429   -9638.3882            0    8898.3402    24.643755     24.78327    22.869915    13967.865    9616.5433    8967.7562     8110.721   -549.83567   -424.41604     1392.662   -7300.6888 
25107000    140.70705   -9637.6019   -9101.1625   -9637.6019            0     8213.535    24.815429    24.794027    22.737597    13989.862    6857.9599    8520.7758    9261.8693    155.52304    297.24309    121.95111   -7425.3732 
25108000    138.83487   -9631.6402   -9102.3384   -9631.6402            0    8288.0231    24.769453    24.669304     22.91358    14001.232    7990.9865    9335.7674    7537.3154   -228.01721     398.7314   -629.86956    -7409.977 
25109000    136.03194   -9629.8209   -9111.2051   -9629.8209            0    8509.7248    24.803932    24.777236    22.770398    13994.069    7937.4362    9039.4872     8552.251   -84.144127   -149.96415    666.44365   -7374.4628 
25110000    137.77138    -9641.533   -9116.2857    -9641.533            0    8055.4081    24.787366    24.784436    22.786794    13998.859    8008.8838    8222.9676    7934.3728   -160.13834   -214.66654    -31.43984   -7471.7016 
25111000    139.63787   -9633.4593   -9101.0961   -9633.4593            0    8079.4949    24.742278    24.807226    22.826469    14010.596    8783.2867    7628.5206    7826.6774    207.04346     65.45672    -310.6135   -7450.2115 
25112000    136.57247   -9608.2114   -9087.5348   -9608.2114            0    9475.7118    24.636162    24.826877    22.811097    13952.155    10320.499    8894.0835    9212.5532   -240.19634    834.39464   -622.70393   -7159.4371 
25113000    138.75704   -9626.7543   -9097.7492   -9626.7543            0    8890.6001    24.704463    24.835172    22.775728    13973.811     9699.175    7542.7658    9429.8595    587.83137   -542.67425   -345.28097   -7285.9009 
25114000     143.2379   -9613.8961   -9067.8079   -9613.8961            0    7837.8779    24.814605    24.757249    22.830569    14025.763    7320.7344    8418.3358    7774.5636    436.93534   -155.72924    628.32783   -7464.5593 
25115000    141.88788   -9614.5061   -9073.5648   -9614.5061            0    8830.6466    24.847141      24.7217    22.789807    13998.948    8691.7392    8704.2485     9095.952    319.00599    975.79423    1294.6437   -7270.6973 
25116000    140.40356   -9645.6909   -9110.4085   -9645.6909            0    9000.8316    24.787381    24.651095    22.830317    13950.147    7802.2793    10433.376    8766.8399   -137.59438   -1006.3349    219.29677    -7279.202 
25117000     137.7286   -9651.5417   -9126.4575   -9651.5417            0    9270.9089    24.741796    24.817984    22.704866    13941.729    9150.4526    8482.0422    10180.232   -621.40302     282.8147   -20.791868   -7241.4423 
25118000    133.60461   -9634.7564   -9125.3947   -9634.7564            0    8843.3999    24.648844    24.772667    22.878403    13969.956    9713.9967    8483.4477    8332.7551   -507.85371   -83.840991    29.641278   -7323.6627 
25119000     136.6438   -9624.2804    -9103.332   -9624.2804            0     7327.993    24.790253    24.863937    22.772264    14036.443    7372.8078    6668.9481    7942.2231    226.22729   -489.51046    155.49236   -7603.2396 
25120000    136.95689   -9632.7006   -9110.5585   -9632.7006            0    7968.8211    24.731555    24.773222    22.855602    14003.177      8104.78     8301.539    7500.1444   -411.05413    70.730331    787.53151   -7483.1501 
25121000      134.425   -9626.4996   -9114.0102   -9626.4996            0    7568.3746    24.900832     24.71098    22.807942    14034.274    6475.5729    7951.8266    8277.7242   -726.85539    845.97666     97.48783   -7564.9494 
25122000    138.33479   -9616.8989   -9089.5036   -9616.8989            0    8409.4091    24.761221    24.739232    22.868418    14008.589    8880.3891    8693.8005    7654.0378   -320.38277    471.53407    914.64945   -7371.4538 
25123000    137.81923   -9635.4168    -9109.987   -9635.4168            0    9742.2909    24.687258    24.790249    22.771944    13936.504    10458.337    8851.8826    9916.6532    121.64705   -88.422904    381.50096   -7129.8701 
25124000    139.27314   -9614.1253   -9083.1526   -9614.1253            0    8024.6065    24.734044     24.86453    22.774328     14006.22    8594.9339    7759.4304    7719.4551   -590.40867   -157.10835     440.8854   -7443.9954 
25125000    141.05915   -9619.7787   -9081.9969   -9619.7787            0    7429.8736    24.753789    24.833029    22.852473    14047.679    8244.6908     6242.244    7802.6861   -493.18033    110.80865    -43.39068   -7559.8314 
25126000    144.10253   -9653.7867   -9104.4021   -9653.7867            0     8204.216    24.746634    24.692442    22.888359    13986.042    8481.0628    8527.0714     7604.514   -417.77579   -926.51451    239.66139   -7430.9711 
25127000    140.99867   -9625.0728   -9087.5216   -9625.0728            0    8710.6676    24.807307    24.774675    22.722429    13965.045    8394.7996    9010.2545    8726.9487    142.44893   -367.94108   -63.595011    -7313.456 
25128000    138.05528   -9633.0889   -9106.7592   -9633.0889            0    8943.4373    24.663431    24.699791    22.909834    13956.249    9617.4284     9246.596    7966.2876    448.40781    166.11109     991.4117   -7286.4336 
25129000    138.21832   -9621.2777   -9094.3264   -9621.2777            0    7966.0563    24.720367    24.853174    22.786631    13999.641    8698.5809    7088.4966    8111.0914   -115.02812    247.03093    372.06611   -7467.8935 
25130000    136.13671   -9645.9548   -9126.9395   -9645.9548            0    7423.3071    24.816033    24.772495    22.818211    14027.611    7313.7247    8363.9646    6592.2321    36.193382   -515.24352   -600.42448   -7608.2919 
25131000    134.66589   -9638.0988    -9124.691   -9638.0988            0    7677.2125    24.699865    24.728057    22.965265    14026.716    8376.7305    8482.0008    6172.9061    220.02103    8.2119093    563.90936   -7554.1999 
25132000    140.94788   -9637.5037   -9100.1461   -9637.5037            0    9239.9858    24.750585    24.832658    22.703423    13954.042    9210.3257    8401.7019     10107.93   -162.30648     394.8641   -604.24373   -7219.7592 
25133000    139.33021   -9635.5826   -9104.3923   -9635.5826            0    8813.5832    24.725594    24.782481    22.820747    13983.677    8824.3501    9013.0953    8603.3042    16.293887     -636.583    367.01303   -7306.9715 
25134000    137.84863   -9652.0072   -9126.4654   -9652.0072            0    7583.4254    24.748089    24.801944    22.822714    14008.599    7298.8039    8000.1109    7451.3616     227.2721   -465.97665    74.513153   -7577.1636 
25135000    133.61653   -9642.9834   -9133.5763   -9642.9834            0    7450.7508     24.83935    24.748371    22.817142     14026.46    7286.9225    8157.6537    6907.6762    148.55894    836.81763   -415.53367   -7609.4393 
25136000    140.03167   -9635.8745   -9102.0099   -9635.8745            0     8046.633    24.780922     24.78003     22.82293    14014.922    7493.4096    8632.7684    8013.7209   -933.81336   -866.64963    309.72582   -7457.3323 
25137000    136.17322   -9640.9813   -9121.8269   -9640.9813            0     7176.924    24.711592     24.85899    22.843446    14032.848    7424.9704    7199.6471    6906.1544   -273.40936    164.82799   -388.93448   -7653.0357 
25138000     139.1857   -9630.6424    -9100.003   -9630.6424            0     8317.305    24.699677    24.877759     22.76291    13987.185    9816.4068    7033.7936    8101.7146    20.468212   -814.67636    269.22237   -7403.3664 
25139000    135.27307   -9637.0048   -9121.2821   -9637.0048            0    8288.8432    24.717062    24.715943    22.892686    13985.268    9381.3779    7844.5029    7640.6487   -15.368606   -263.72694    576.25228   -7430.6832 
25140000    140.35323   -9636.3434   -9101.2529   -9636.3434            0    8185.4322    24.795502    24.769166    22.778821     13989.93    7752.9706    8179.9693    8623.3566   -449.75604   -174.50591    1301.1079   -7431.1892 
25141000    135.20164   -9636.5788   -9121.1285   -9636.5788            0    8252.0891    24.697781    24.744476     22.89723    13993.268    8944.1215    8822.8049    6989.3407   -563.44708   -378.79705    1020.9399   -7437.0632 
25142000    130.93545   -9620.2201   -9121.0345   -9620.2201            0     8501.593    24.760065    24.884554    22.687333    13978.645     9260.532    6934.4646    9309.7824    746.97515    11.831094   -63.536276    -7387.864 
25143000    135.80004   -9614.9264   -9097.1947   -9614.9264            0    8623.3295    24.619887    24.826957    22.882085    13986.374    9548.8879    8364.4743    7956.6263   -943.93996    196.29598    277.45178   -7338.2345 
25144000    138.57269   -9633.4322   -9105.1299   -9633.4322            0     8195.582    24.715097    24.817656     22.80638    13988.767    8900.6854    6989.2178    8696.8426    143.59268   -751.50534     556.3268   -7433.1344 
25145000    146.51164   -9634.9846   -9076.4155   -9634.9846            0    7640.0559    24.841852    24.764412    22.798507    14025.502     7516.134    6682.5712    8721.4624   -458.54304    124.36231    93.553241   -7513.6607 
25146000    137.95671   -9626.1293   -9100.1754   -9626.1293            0    9826.6767      24.6856    24.718298    22.837857    13935.341     9389.216    10850.063    9240.7507    260.36321    75.537733    655.55404   -7103.0738 
25147000    136.68845   -9624.8051   -9103.6863   -9624.8051            0    8646.7291    24.759333    24.793312    22.743545    13961.486    7881.2035    8852.3269     9206.657    37.660797    99.520647    253.65131   -7343.0916 
25148000    137.89824   -9653.1902   -9127.4592   -9653.1902            0    7908.7195    24.765903     24.79838    22.816897    14013.095    7452.2978    8301.8072    7972.0536   -294.27659   -187.56593    1129.1899    -7511.181 
25149000    137.28145   -9626.3075    -9102.928   -9626.3075            0    8506.3429    24.720784    24.740856    22.901743    14007.012    8712.6032    8857.3146     7949.111   -178.94344    178.97401    -441.6801   -7365.2701 
25150000    132.42977   -9621.9991   -9117.1165   -9621.9991            0     7846.537    24.866101    24.847715    22.701372    14026.401    6765.1773    7983.9301    8790.5036   -843.07182   -747.47372    441.11937   -7512.0236 
25151000    139.72559   -9630.4978   -9097.8001   -9630.4978            0    7703.1744    24.783291    24.712341    22.883311    14014.956    7814.5878    8730.8435    6564.0917    71.155209   -398.33684   -247.33993   -7523.3193 
25152000    137.57786   -9642.6297   -9118.1202   -9642.6297            0    8114.9436    24.763917    24.846731    22.738926    13991.316    8528.1416    7814.3253    8002.3639    -189.1061   -7.4335811    598.28481   -7462.2742 
25153000    139.71483   -9630.6056    -9097.949   -9630.6056            0    7435.1367    24.721384    24.873786    22.826157    14036.132    7296.5835     7163.019    7845.8075   -348.79019   -538.90334    320.57571   -7575.9572 
25154000    132.78145   -9632.5581   -9126.3346   -9632.5581            0    7358.9181     24.77336    24.788806    22.847111    14030.457    7189.6004    8070.3003    6816.8537    -147.7347   -344.16505    323.93027   -7620.5541 
25155000    138.81667   -9632.7159   -9103.4835   -9632.7159            0    9095.8076    24.761077    24.708487    22.806759    13953.375    9259.1696    9171.2539    8856.9993   -283.81608    226.40766   -150.25326   -7252.5261 
25156000    130.67006   -9646.1005   -9147.9267   -9646.1005            0    9078.7151    24.797307    24.756353    22.720171    13947.706    8835.0795    8855.8688    9545.1969   -394.30877    -656.1923    82.516727   -7301.1981 
25157000    138.78547   -9636.8635     -9107.75   -9636.8635            0    8060.6087    24.640235    24.774078    22.935332    14000.623    9279.9977    8024.5757    6877.2526   -423.97481    406.13504    86.633232   -7461.8968 
25158000    143.76305    -9648.767   -9100.6767    -9648.767            0    7685.8663    24.748298    24.817275    22.785611    13994.588    7454.1842    7411.8975    8191.5171    401.32162   -146.84456    684.25138   -7532.0167 
25159000    138.67463   -9619.7843   -9091.0934   -9619.7843            0      8196.08    24.775561    24.724756    22.859686    14003.151    8234.3335    9018.7363    7335.1701    397.83406   -566.79698   -20.166062   -7417.2769 
25160000    142.54889   -9649.2255   -9105.7642   -9649.2255            0    8255.0282    24.794726    24.773274    22.764742    13983.164    7678.6905    8239.8653    8846.5288   -59.468773   -210.72969    142.37144   -7422.3154 
25161000     138.0063   -9655.5594   -9129.4164   -9655.5594            0    8444.1019    24.745927    24.761316    22.792866     13966.14    7902.3194    8882.8486    8547.1377   -509.71395    181.93949    316.36566   -7409.5063 
25162000    136.94069   -9635.8072   -9113.7268   -9635.8072            0     7037.051    24.686226    24.895482    22.868729    14054.561    8178.2867    6024.2806    6908.5855   -78.636913    114.11525   -543.07054   -7671.3329 
25163000    143.53534   -9646.5236   -9099.3014   -9646.5236            0    7870.6023    24.710861    24.776358    22.875182    14005.219    8069.1274    8318.9538    7223.7256    27.035888   -372.76242    1141.7755   -7491.7171 
25164000    136.80987   -9644.8573   -9123.2757   -9644.8573            0    7454.5396    24.872476    24.786042    22.754951    14028.205    6659.8017    8070.1133    7633.7038   -199.59286    515.12671    251.09914   -7598.1739 
25165000    138.88579   -9631.1431   -9101.6471   -9631.1431            0    9021.5709    24.773075    24.698476    22.841721    13975.871    9413.1758    9165.7693    8485.7675   -172.00557   -181.46348   -425.51077   -7262.8367 
25166000    140.56716   -9624.0433   -9088.1372   -9624.0433            0    7999.9715    24.812469    24.798121    22.786688    14020.708     7047.947    8166.5568    8785.4106    511.57278    687.29732    14.870439   -7452.3218 
25167000    134.08148   -9647.7504   -9136.5707   -9647.7504            0    7724.1721    24.703008     24.84173    22.843925    14018.528    8185.2908    7176.2679    7810.9575   -465.99472   -192.33627    268.93379   -7557.3958 
25168000     138.7798   -9603.6643   -9074.5724   -9603.6643            0    8160.9973    24.724404    24.753062    22.883605    14004.874    7924.8968    8898.5786    7659.5165   -82.358771    53.967941    950.02594   -7407.7155 
25169000    135.34256   -9617.4616    -9101.474   -9617.4616            0    8410.8178    24.820414     24.75416    22.779196    13995.731    7335.6844    8362.5635    9534.2056   -335.98225   -480.01441   -373.15513   -7384.7135 
25170000    140.99516   -9649.1288    -9111.591   -9649.1288            0    7735.7034    24.763037    24.742903    22.876854    14016.864    7066.2949    8474.2095    7666.6057    743.72459    31.421427   -270.82615   -7530.2462 
25171000    138.36923   -9645.1392   -9117.6126   -9645.1392            0    7426.2113    24.792972     24.79696    22.816754     14027.52    7049.4059    7772.0593    7457.1686    540.65067    168.52661   -16.500949   -7598.3807 
25172000    140.19232    -9641.442    -9106.965    -9641.442            0    8596.7699    24.822446    24.761501    22.740317    13977.132    7977.2781    9128.2753    8684.7563    127.55557    556.80303   -389.49645    -7354.581 
25173000     138.5413   -9632.4637   -9104.2811   -9632.4637            0    8351.8359    24.754768    24.694588    22.909825    14004.978    8557.0153    8816.0354    7682.4569   -298.99134   -1144.3738    76.643058   -7398.4333 
25174000    138.63346   -9635.0196   -9106.4857   -9635.0196            0    9935.3775    24.721955    24.752794    22.732077    13910.609    9423.9281    10001.246    10380.959    278.19959    465.74831   -321.93774   -7090.8761 
25175000    134.86042   -9615.9642   -9101.8148   -9615.9642            0    8654.6738    24.749363    24.827106    22.754065     13981.35    9412.1744    8118.1234    8433.7236    32.993851   -262.01055   -1352.1497   -7337.0952 
25176000    133.92565    -9621.961   -9111.3753    -9621.961            0    8067.7183    24.660854    24.825529    22.895183     14016.86    9037.6868    7856.5019    7308.9661   -626.60254     995.2779    253.96963     -7462.16 
25177000     135.3714   -9623.1454   -9107.0479   -9623.1454            0    7197.4173     24.82497     24.82106    22.826107    14065.038    6491.1251    7708.5266    7392.6001   -106.89834    -903.3912   -424.87167   -7630.6838 
25178000     133.5683   -9614.0435   -9104.8202   -9614.0435            0    9224.5806     24.81656    24.627076    22.832875    13954.524     9205.282    9835.3275    8633.1323    281.49608    259.77229     954.3397   -7227.5036 
25179000    135.31267   -9622.4126    -9106.539   -9622.4126            0    9047.3881    24.751469    24.749651    22.808833    13972.468    9088.1597    9267.7413    8786.2632   -563.62546   -1511.2554   -58.523414   -7262.9155 
25180000    136.43155   -9640.8692   -9120.7299   -9640.8692            0    7660.0724     24.77631    24.807829    22.816286     14023.95    7984.2671    7901.9666    7093.9836   -795.57567   -173.35816   -333.60109   -7554.0542 
25181000    137.22434   -9634.5359   -9111.3742   -9634.5359            0    8048.8134    24.653357    24.820677    22.885395    14003.871    9280.4907     7941.326    6924.6236    12.260883    914.45659    1776.0839   -7467.5481 
25182000    138.47749   -9611.1059   -9083.1666   -9611.1059            0    8635.1927    24.794546    24.777651     22.77663    13992.837     8129.982    9853.4301    7922.1661    -371.8278   -669.43308    752.69501   -7320.9727 
25183000    139.12925   -9636.9433   -9106.5192   -9636.9433            0     8727.317    24.855182    24.727755    22.742926    13978.094    8057.4936    8374.9656    9749.4918    -33.95093    12.855416    74.619591   -7327.4018 
25184000    139.51505   -9631.7802   -9099.8852   -9631.7802            0     7925.206    24.715545    24.774264    22.871163    14004.229    8528.6076     8167.748    7079.2624   -305.71639    72.433813    45.055647   -7481.2625 
25185000    140.50129   -9608.9673   -9073.3124   -9608.9673            0    9366.5631    24.714902    24.881978     22.71456    13968.447    9399.7541    7946.0397    10753.896   -298.88055    762.69521    1015.1297   -7165.1986 
25186000    140.75132     -9613.42   -9076.8117     -9613.42            0    9079.0851    24.723882    24.769771    22.808731    13968.178    9500.4699    9263.4419    8473.3434    24.355474   -428.61755    597.71533   -7227.2972 
25187000    136.03629   -9650.4617   -9131.8293   -9650.4617            0    7805.3206    24.846838    24.742017    22.787663    14008.964    7469.2904    8139.4704     7807.201    311.68848    -545.4154   -350.97099   -7537.1526 
25188000    137.33408   -9607.2663   -9083.6862   -9607.2663            0    7877.4975    24.764112    24.787437      22.8644    14035.057    7679.3613    8166.9587    7786.1725    327.88225    388.29765     386.8695   -7471.2655 
25189000    133.14559   -9640.7458   -9133.1341   -9640.7458            0    8177.6507    24.755388    24.897167    22.709848    13996.965    8648.2465    6958.4769    8926.2286   -20.240333   -739.89507   -107.32292    -7463.819 
25190000    141.16241    -9617.261   -9079.0855    -9617.261            0    7719.1201    24.695156    24.767548     22.94106    14031.635     8256.073    8511.3786    6389.9085   -129.25108   -399.56371    586.82693    -7499.468 
25191000    137.12682   -9627.5508   -9104.7608   -9627.5508            0    7221.2831    24.786025    24.839239    22.801223    14037.937    8628.6291    6052.0466    6983.1738    607.37839    331.75275   -236.03018   -7626.3554 
25192000    142.51448   -9634.4483   -9091.1181   -9634.4483            0    8661.1312    24.724392    24.738823     22.85561    13979.688      9131.52    8855.0434    7996.8302    731.34545   -339.90309     39.71644   -7325.2918 
25193000    140.60513   -9636.2866   -9100.2357   -9636.2866            0    8947.8813    24.756611    24.792748    22.778047     13980.81    8555.7717     8963.616    9324.2561   -330.90218   -49.090372    873.48112   -7275.8005 
25194000    136.97526   -9629.8565   -9107.6443   -9629.8565            0    7342.3355    24.786385    24.742583    22.883408    14033.918    7009.2449    9065.2478    5952.5138   -150.60009   -764.41039   -134.52194   -7604.8863 
25195000    133.78936    -9621.094    -9111.028    -9621.094            0    7255.5118    24.814909    24.810467     22.82359    14051.787    7038.0385    7780.3058    6948.1913    221.54461    303.71834    456.06089   -7624.1494 
25196000    139.83636   -9623.7678   -9090.6478   -9623.7678            0    9375.6825    24.725103    24.710518    22.840134    13954.639    9656.4014    9365.4205    9105.2258    272.45527   -43.234808    831.51549   -7182.5642 
25197000    136.79451   -9620.6618   -9099.1388   -9620.6618            0     9151.237    24.802963     24.77328    22.728543     13965.57     8658.001    9128.3112    9667.3987   -533.07617   -39.045554    651.80717   -7235.2742 
25198000    144.07606   -9642.9044   -9093.6208   -9642.9044            0    8044.3707    24.699515    24.793781    22.869988    14005.452    7953.5357    7910.0219    8269.5547   -356.25143    97.061561    25.473586   -7450.5166 
25199000    146.12293   -9641.4056   -9084.3184   -9641.4056            0    8769.0114    24.706743    24.874111    22.721655    13963.781    9907.8379    7112.5624    9286.6341    -198.9194   -663.34074    243.52041   -7298.5318 
25200000    136.83627   -9629.0759   -9107.3936   -9629.0759            0    7357.9502    24.760757    24.784659    22.883259    14043.157    7668.5166    7963.6311    6441.7031   -465.87687   -529.01503    751.56967   -7600.4484 
25201000     138.4763   -9616.9561   -9089.0213   -9616.9561            0     7478.017    24.867275    24.809098    22.782442    14055.278     7544.903    6901.1481         7988   -577.03893   -204.94457    632.19785   -7556.1638 
25202000    137.06009   -9634.7208   -9112.1852   -9634.7208            0    7977.6292    24.773306    24.675869    22.919124    14010.526    7474.1706    9206.3492    7252.3678    121.53255    304.07903   -4.3561785    -7482.123 
25203000    135.09322   -9636.8042   -9121.7673   -9636.8042            0    8712.5908    24.773037    24.863306    22.650727     13951.48     8394.452     8632.172    9111.1484    30.702671    9.1603447   -1239.2548   -7349.0337 
25204000    137.58602   -9610.8393   -9086.2986   -9610.8393            0      9183.44      24.6966    24.761715    22.850871    13973.997    9255.2752    9666.5942    8628.4507   -447.97045   -279.17372    1063.8173   -7214.7465 
25205000    136.36224   -9637.6901    -9117.815   -9637.6901            0    8224.6633    24.825852     24.82189    22.702191    13989.648    7146.7949     8900.223     8626.972   -854.13162   -477.89071   -1222.6183   -7439.7809 
25206000    132.28206    -9656.832   -9152.5124    -9656.832            0    7493.6053     24.77412    24.747201    22.876712    14025.486     7453.175    8492.7132    6534.9277   -329.39614   -286.25109    911.61105   -7619.7154 
25207000    139.31363   -9635.8929   -9104.7658   -9635.8929            0    8567.9648    24.725819    24.757609    22.845158    13984.713    8900.4125    7827.5896    8975.8923   -480.94677   -904.00583    507.47059   -7357.3063 
25208000    136.85951   -9625.2017   -9103.4308   -9625.2017            0    7907.3856     24.79112    24.852555    22.725146    14001.478    8122.1077    6920.7627    8679.2865   -200.47876    7.7608024   -214.32358   -7488.7649 
25209000    140.53935   -9619.8842   -9084.0841   -9619.8842            0    8063.3245    24.713972    24.804261    22.859948    14013.418    7359.6419    9088.3909    7741.9407   -473.22739   -782.68016    427.16599   -7436.1717 
25210000    137.86381   -9620.4829   -9094.8832   -9620.4829            0    8878.8996    24.704476    24.820419    22.800525    13980.722    9506.6472    8215.8729    8914.1785   -132.46988   -624.08392   -90.229249   -7284.5245 
25211000    142.87595   -9630.5606   -9085.8524   -9630.5606            0    8852.3739    24.730724    24.760664    22.834774    13982.854    8723.7038    9264.0017    8569.4161    -171.7252   -455.70013    -3.098254   -7280.6268 
25212000     136.8297   -9635.9464   -9114.2892   -9635.9464            0     7403.188    24.824178    24.788948    22.848388    14060.104    7250.2486    7247.8069    7711.5084    48.474103   -314.94755   -128.87694   -7596.2492 
25213000    135.41678   -9630.9732   -9114.7026   -9630.9732            0    7487.9995    24.777472     24.79333    22.815881    14016.162    7440.7651    8007.3526    7015.8809   -419.05588    234.09003   -126.52087   -7584.0706 
25214000    138.74661   -9625.0661   -9096.1008   -9625.0661            0    9004.6882    24.680473    24.865195    22.789961    13985.852    9252.7319    7960.5174    9800.8153   -176.34828    274.81099   -464.17087   -7259.4208 
25215000    134.89417   -9626.9906   -9112.7125   -9626.9906            0    7970.3914    24.715231    24.867589    22.786081    14004.513    7594.1702    7791.1219    8525.8822   -101.91677    712.76141    207.64992   -7484.8282 
25216000    138.19726   -9648.9109   -9122.0399   -9648.9109            0    7998.5501    24.718997    24.777337    22.847269    13993.288    8754.8789    7059.5836    8181.1877   -208.96634    703.03599   -543.54787   -7489.7138 
25217000     141.1827    -9633.436   -9095.1831    -9633.436            0    6994.1701    24.943806    24.759056    22.736946    14041.999    6048.4423    7242.0155    7692.0526   -165.66093    -745.1604    359.77902     -7662.86 
25218000    136.62376   -9623.8935   -9103.0214   -9623.8935            0    8681.6546    24.751208    24.744441    22.851893    13995.752    8209.4412    9406.5525    8428.9701    1021.6382    673.30594   -174.46334   -7330.9769 
25219000    138.40613   -9650.5479   -9122.8806   -9650.5479            0    8633.8809    24.663556     24.85285    22.798422    13974.513    8951.2298    8230.6032    8719.8097    858.19975   -864.50167   -33.780342   -7363.2617 
25220000    137.01521   -9633.7407   -9111.3762   -9633.7407            0    7970.0575    24.708201    24.823889     22.84427    14011.616    7998.6797    7214.1603    8697.3324   -395.12959   -187.54966    1606.1307   -7482.7344 
25221000    137.12763   -9631.9877   -9109.1946   -9631.9877            0     8260.768    24.728581    24.871089    22.765059    14001.121    8247.6056    7652.1127    8882.5857    -95.53162    666.45151    285.86811   -7422.4121 
25222000    133.15316     -9627.64   -9119.9994     -9627.64            0    7923.0321    24.751373    24.715884    22.912459    14016.744    7589.7995    8706.3177    7472.9791    -344.2797    151.09119    81.334248   -7500.3745 
25223000     138.1698   -9631.8435   -9105.0772   -9631.8435            0    8345.4786    24.780102    24.753905     22.80184    13986.746    8842.5611    8451.8127    7742.0621   -343.23074   -375.73341   -604.90042   -7402.7468 
25224000    143.98621    -9612.099   -9063.1579    -9612.099            0    9527.5373    24.826701    24.700913     22.75331     13953.29    8405.5258    9903.4248    10273.661   -769.72422    172.72665    951.05211   -7124.3572 
25225000    139.75567   -9649.3278   -9116.5155   -9649.3278            0     7854.054    24.753956    24.768912    22.824679    13994.462    6698.8355     8698.069    8165.2575    66.795876   -470.02182   -1044.1346   -7513.5433 
25226000    139.80221   -9647.0327    -9114.043   -9647.0327            0    6868.2263    24.762907     24.75931    22.905602     14043.71    6316.9527    7794.2659    6493.4603   -582.77871    654.30865   -251.92487   -7707.3402 
25227000     139.3785   -9626.9967   -9095.6223   -9626.9967            0    8577.4795    24.815321    24.766653    22.774485    13997.027    6729.1359    9707.2384    9296.0641   -656.22125    -314.8347    237.11665   -7344.6819 
25228000    140.69242   -9622.4383   -9086.0546   -9622.4383            0    9064.2754    24.718896     24.73128     22.87171    13982.161    8865.0145    9232.7968    9095.0147   -280.91905   -210.97048   -382.18415   -7237.7086 
25229000    134.00473   -9623.8403   -9112.9532   -9623.8403            0    8599.7181    24.741189    24.865867    22.714304    13974.093    8829.5329    8148.0944     8821.527    934.03813    -34.74168   -122.59031   -7360.3494 
25230000    141.59678   -9636.0201   -9096.1886   -9636.0201            0    8458.2428    24.715491    24.757701    22.856934    13986.129    8413.8959    8203.5223    8757.3102   -110.82836    1129.5825   -135.78959   -7370.9325 
25231000    142.64554   -9623.4108    -9079.581   -9623.4108            0    8199.2442    24.713953    24.788048    22.862486    14005.802    8275.5937    8002.0853    8320.0535   -429.76343   -200.49879    540.90922   -7404.8012 
25232000    139.84621   -9631.7884   -9098.6308   -9631.7884            0     7435.995    24.805218    24.878015    22.745923    14036.614    7554.6656    6535.7425    8217.5769    310.42465    213.54539    676.37608   -7576.4112 
25233000    136.93214    -9607.854   -9085.8062    -9607.854            0    8214.9503    24.716624    24.807574    22.871531    14023.896    8865.7449    7648.2789     8130.827   -836.63827    767.35566   -203.74593   -7405.6506 
25234000    141.79968   -9630.4948   -9089.8897   -9630.4948            0    8278.0205    24.713979     24.75656    22.859531    13986.218    8414.1296     8473.908    7946.0239    30.104849    442.77764    728.28719   -7401.3835 
25235000    136.59286    -9638.951   -9118.1967    -9638.951            0    8286.2516    24.769887    24.885415    22.711636    13999.655     8371.183    7450.2741    9037.2977   -492.73302   -1036.4792     623.1857   -7426.3877 
25236000    140.91626   -9632.6795   -9095.4424   -9632.6795            0    7471.7835    24.719861    24.800201    22.871719     14021.68    8190.7737    7303.9482    6920.6286    2.5475444   -313.95656    -237.7175   -7567.5238 
25237000    134.38795   -9625.9901   -9113.6419   -9625.9901            0    7526.1767    24.741898    24.893922    22.767692    14023.143    7978.0052    7065.3535    7535.1713   -281.58636    716.37754    462.91036   -7574.4398 
25238000    141.31775   -9616.5485   -9077.7808   -9616.5485            0    8267.7671    24.687973    24.839465    22.847189     14010.72    8834.0422    8040.7431     7928.516    -260.9952   -565.75211     5.063019   -7388.4116 
25239000    135.06586   -9609.1588   -9094.2261   -9609.1588            0    8988.0404    24.756958    24.761711    22.790534    13971.159    8340.3584    9950.4125    8673.3503   -28.459194   -103.72443   -691.97141   -7262.8678 
25240000    139.94333   -9610.4774   -9076.9496   -9610.4774            0    8838.0711    24.909023    24.787631    22.626548    13970.438    7200.0981    8600.7278    10713.387     439.5289   -20.619442    167.87959   -7276.2412 
25241000    140.08386   -9625.7465    -9091.683   -9625.7465            0      8477.88    24.776785    24.716429    22.843626    13989.292     8387.752    9091.6742    7954.2139   -389.00201   -145.41629    698.05629   -7362.0304 
25242000    144.93633   -9633.7497   -9081.1863   -9633.7497            0    9403.9301    24.673821    24.822675    22.772226     13947.31    8682.7681    9018.6142    10510.408    32.678559   -37.923457    31.721648   -7168.3591 
25243000    137.68356   -9630.7315   -9105.8189   -9630.7315            0    8941.1542    24.597052    24.833131     22.87254    13971.047    10385.782    8253.3744    8184.3063   -259.52351   -102.86574   -308.74439   -7284.0285 
25244000    137.03937   -9637.1996    -9114.743   -9637.1996            0    8470.2182    24.757267    24.833125    22.748954    13986.063     8086.619    7662.9765    9661.0593    386.08465   -67.777466    726.01076   -7387.0523 
25245000    136.06074   -9620.1729   -9101.4473   -9620.1729            0    8118.1728    24.838823    24.655246    22.869501    14005.449    7082.0436    9434.9772    7837.4977   -234.01881   -1119.4495    960.23285    -7443.269 
25246000    140.78514   -9648.3324   -9111.5952   -9648.3324            0    8803.2287    24.772593    24.708408    22.793095    13951.456    8941.0466    8590.3959    8878.2437    482.49107   -1499.1546   -196.41335   -7320.4227 
25247000    141.95299   -9612.9128   -9071.7233   -9612.9128            0    8946.3701    24.803868    24.807621    22.725894     13983.81    7861.2941    8609.9387    10367.878    45.316827   -117.01652    231.43475   -7247.2049 
25248000    135.78402   -9640.2258   -9122.5552   -9640.2258            0    8814.9713    24.684455    24.806674     22.80902    13966.857    9138.7956    8664.9436    8641.1749   -185.56736    10.584766    759.92501   -7327.0135 
25249000    134.37908   -9647.7619   -9135.4475   -9647.7619            0    7646.3622    24.703097    24.850215    22.828304    14013.777    8125.7861    7040.2994    7773.0012   -560.37505   -246.48712    725.32043   -7572.7103 
25250000    138.90024   -9617.5006   -9087.9496   -9617.5006            0    8556.8018    24.747739    24.789878    22.811546    13994.734    8865.7391    8284.9064      8519.76   -885.59529   -858.55829    30.961274   -7341.5162 
Loop time of 497.39 on 64 procs for 250000 steps with 1920 atoms

Performance: 86.853 ns/day, 0.276 hours/ns, 502.623 timesteps/s
375.4% CPU use with 16 MPI tasks x 4 OpenMP threads

MPI task timing breakdown:
Section |  min time  |  avg time  |  max time  |%varavg| %total
---------------------------------------------------------------
Pair    | 74.386     | 76.769     | 80.514     |  18.8 | 15.43
Bond    | 1.5534     | 1.9198     | 3.5788     |  42.4 |  0.39
Kspace  | 235.64     | 241.95     | 248.36     |  26.7 | 48.64
Neigh   | 0.83976    | 0.89061    | 0.94231    |   4.0 |  0.18
Comm    | 63.039     | 66.531     | 71.712     |  32.1 | 13.38
Output  | 0.71305    | 0.71335    | 0.71504    |   0.1 |  0.14
Modify  | 78.108     | 84.577     | 91.608     |  33.5 | 17.00
Other   |            | 24.04      |            |       |  4.83

Nlocal:        120.000 ave         124 max         117 min
Histogram: 1 1 4 0 5 3 0 1 0 1
Nghost:        4226.19 ave        4246 max        4195 min
Histogram: 2 0 0 0 2 2 3 3 2 2
Neighs:        43450.7 ave       44829 max       42090 min
Histogram: 1 1 0 3 3 3 2 2 0 1

Total # of neighbors = 695211
Ave neighs/atom = 362.08906
Ave special neighs/atom = 2.0000000
Neighbor list builds = 1823
Dangerous builds = 0

unfix		3
unfix		2
unfix		1

write_data	data.final.${pid}
write_data	data.final.0
System init for write_data ...
PPPM initialization ...
  extracting TIP4P info from pair style
  using 12-bit tables for long-range coulomb (../kspace.cpp:340)
  G vector (1/distance) = 0.37501576
  grid = 30 30 30
  stencil order = 5
  estimated absolute RMS force accuracy = 0.0032061506
  estimated relative force accuracy = 9.6552274e-06
  using double precision FFTW3
  3d grid and FFT values/proc = 7920 1800
Last active /omp style is kspace_style pppm/tip4p/omp
WARNING: Not all mixed pair coeffs generated from mixing. Use write_data with 'pair ij' option to store all pair coeffs. (../write_data.cpp:312)

write_restart   restart.lmp.${pid}
write_restart   restart.lmp.0
System init for write_restart ...
PPPM initialization ...
  extracting TIP4P info from pair style
  using 12-bit tables for long-range coulomb (../kspace.cpp:340)
  G vector (1/distance) = 0.37501576
  grid = 30 30 30
  stencil order = 5
  estimated absolute RMS force accuracy = 0.0032061506
  estimated relative force accuracy = 9.6552274e-06
  using double precision FFTW3
  3d grid and FFT values/proc = 7920 1800
Last active /omp style is kspace_style pppm/tip4p/omp
Total wall time: 0:08:17
