LAMMPS data file via write_data, version 30 Jul 2021, timestep = 5750000

1296 atoms
2 atom types
864 bonds
1 bond types
432 angles
1 angle types

-10.606809315714047 12.586809315714047 xlo xhi
-9.055171221649124 12.045169221649124 ylo yhi
0.19456778789170315 21.66543121211152 zlo zhi
-9.23162571896446 1.873824614064206 2.66991192624997 xy xz yz

Masses

1 1.008
2 15.999

Pair Coeffs # lj/cut/tip4p/long/omp

1 0 0
2 0.21084 3.1668

Bond Coeffs # harmonic/omp

1 450 0.9572

Angle Coeffs # harmonic/omp

1 55 104.52

Atoms # full

282 94 1 0.5897 -10.575367193525233 -4.2182351157546965 1.6487814733697599 1 1 0
280 94 2 -1.1794 -9.67342651013032 -4.531917455110876 1.5829253790616524 1 1 0
299 100 1 0.5897 -6.64369364219389 -8.00135186522582 4.114933041511323 1 1 0
163 55 2 -1.1794 -7.100586590366765 -7.82449180777241 1.022588174548646 1 1 0
164 55 1 0.5897 -6.276443609922623 -8.168509272001566 1.3670027328356174 1 1 0
270 90 1 0.5897 -8.477863021114072 -7.414808386965747 2.203532678753612 1 1 0
269 90 1 0.5897 -9.173415454475654 -6.0930636717021995 2.4506316473875565 1 1 0
268 90 2 -1.1794 -9.006303239705035 -6.946731206669295 2.8499484297026747 1 1 0
324 108 1 0.5897 -7.141149648199397 -4.389556854317874 3.5691072411745486 1 1 0
73 25 2 -1.1794 -8.265463536488355 -3.6710294054192776 4.662071287602207 1 0 0
298 100 2 -1.1794 -6.072677540577504 -7.24544463066265 4.252031463956869 1 1 0
314 105 1 0.5897 -8.82092614816469 -6.573831919896524 4.591859929800421 1 1 0
44 15 1 0.5897 -9.920816536910916 0.6984493995894692 0.2614286790520882 1 0 0
259 87 2 -1.1794 -6.829187352959287 -5.199243278679626 0.3255559800139223 1 1 0
273 91 1 0.5897 -10.443892979721054 -1.4943166993696817 0.3229614836312906 1 1 0
84 28 1 0.5897 -8.089799231544909 -0.6383010953003083 4.049350300684465 1 0 0
275 92 1 0.5897 -10.503554784024244 -7.774473362092458 3.5177941306050453 1 1 0
301 101 2 -1.1794 -8.040570066829826 -2.345084341537544 1.6021501665407034 1 1 0
107 36 1 0.5897 -9.211351878049484 1.4341033457334227 3.306610994791344 1 0 0
261 87 1 0.5897 -6.805769189710299 -5.000442304081926 1.261529969605887 1 1 0
313 105 2 -1.1794 -8.824244748782624 -6.317634248588714 5.514074921914508 1 1 0
281 94 1 0.5897 -9.140133660068816 -3.737688032346324 1.615213922709027 1 1 0
75 25 1 0.5897 -9.112715675826289 -3.3401592823986217 4.363943943300645 1 0 0
271 91 2 -1.1794 -10.147781558369953 -0.9119456189751318 1.0225097398825103 1 1 0
97 33 2 -1.1794 -11.77909271375558 0.40049923609559457 5.3751426443213175 1 0 0
272 91 1 0.5897 -9.36134292424787 -1.3335016768091004 1.3688889812307097 1 1 0
82 28 2 -1.1794 -8.929854650519491 -0.1861920763244651 4.127644948561507 1 0 0
54 18 1 0.5897 -11.52116080899591 -0.2723827726169894 2.1931012436354838 1 0 0
83 28 1 0.5897 -9.584242945860227 -0.8802963407949278 4.048744385238319 1 0 0
256 86 2 -1.1794 -12.16921165552673 -3.277717725025675 1.7725030792686918 1 1 0
258 86 1 0.5897 -12.636622514698587 -2.827456429709004 1.0690283543497328 1 1 0
67 23 2 -1.1794 -10.7061949116948 -2.319545881766653 4.0786248070127 1 0 0
68 23 1 0.5897 -11.308715086987768 -2.5950990591331937 4.769403371662116 1 0 0
53 18 1 0.5897 -12.361906232187993 0.9556806729408898 2.4703526907831947 1 0 0
52 18 2 -1.1794 -12.202231045074585 0.06286486631877075 2.776163440027159 1 0 0
98 33 1 0.5897 -11.847952404477812 0.10090353393049689 4.468699878588843 1 0 0
69 23 1 0.5897 -11.150348190575741 -2.556143875609969 3.2644372135547064 1 0 0
323 108 1 0.5897 -6.419698544039307 -5.713842029644054 3.4363606683521337 1 1 0
322 108 2 -1.1794 -6.490088999089479 -4.846870235073886 3.036939054782289 1 1 0
315 105 1 0.5897 -8.595630265753293 -5.388182125224837 5.505845714036649 1 1 0
300 100 1 0.5897 -5.186930894329427 -7.608036397175138 4.237754344958327 1 1 0
165 55 1 0.5897 -7.306368906711105 -8.392860588519023 0.28041910945675974 1 1 0
99 33 1 0.5897 -11.482918744084031 1.3081001329195772 5.306162579336509 1 0 0
74 25 1 0.5897 -7.987382785617134 -3.0481286563134855 5.333549726043366 1 0 0
260 87 1 0.5897 -6.981211700083232 -6.143392585757251 0.2844064139056823 1 1 0
1226 409 1 0.5897 -9.8417731992346 -5.5718251207773015 0.23195178752608595 0 0 1
420 140 1 0.5897 -9.171290080510671 -6.419060783399058 10.084904738286559 1 0 0
414 138 1 0.5897 -6.893184263957085 -5.04005891949357 7.558502860511401 1 0 0
413 138 1 0.5897 -7.70906905588984 -3.7652075469821913 7.588495494037933 1 0 0
412 138 2 -1.1794 -7.596744181013635 -4.602709870740667 8.038033128654504 1 0 0
350 117 1 0.5897 -7.194452264459935 -4.416916060953204 9.972204382163323 0 0 0
429 143 1 0.5897 -6.486037093750791 -7.277480417902326 8.684246331893062 1 0 0
428 143 1 0.5897 -6.587679680038996 -6.941529763062347 10.156804476294607 1 0 0
427 143 2 -1.1794 -6.003685260162462 -6.867325622372568 9.402092499158552 1 0 0
618 206 1 0.5897 -7.901390557105242 -7.507251992020365 6.692979145602762 1 1 0
419 140 1 0.5897 -8.821646710038934 -5.51062919283487 8.925586088351544 1 0 0
418 140 2 -1.1794 -9.566128551712325 -5.864478721310274 9.412133352410038 1 0 0
627 209 1 0.5897 -10.150208705292037 -6.7464991803379 6.603580036166167 1 1 0
633 211 1 0.5897 -5.876668755116141 -5.973759054113081 5.578826328191678 1 1 0
417 139 1 0.5897 -8.868862446977001 0.9191291469017138 5.570332171436817 1 0 0
351 117 1 0.5897 -7.048180044663298 -3.1212446925821355 10.741465034385802 0 0 0
616 206 2 -1.1794 -7.386390292665517 -8.101880472122698 7.238220587137736 1 1 0
426 142 1 0.5897 -8.906271135599031 -1.7960682410791575 6.998762085690464 1 0 0
411 137 1 0.5897 -13.35371317330927 0.22543530634403375 6.330914240415322 1 0 0
537 179 1 0.5897 -9.334914374867486 -0.25732084540648437 8.58323784755703 1 0 0
535 179 2 -1.1794 -8.897354492827743 -0.05743277152795834 9.410723363006928 1 0 0
536 179 1 0.5897 -9.599881043661563 -0.06196899453524374 10.06081172936395 1 0 0
528 176 1 0.5897 -11.998507310687422 0.3122572538907207 9.84155539018109 1 0 0
435 145 1 0.5897 -7.393061005313195 -0.9890702226177641 9.782113507156154 0 0 0
424 142 2 -1.1794 -8.022477523501994 -2.1230083672231377 6.830675665816525 1 0 0
402 134 1 0.5897 -10.823565258426878 -0.3995471526681236 6.626372821022252 1 0 0
401 134 1 0.5897 -11.104988347483074 -1.3548773895633595 7.7664005661811855 1 0 0
527 176 1 0.5897 -11.77780052841915 1.4020467145173203 8.814333754049626 1 0 0
526 176 2 -1.1794 -12.463297254330216 0.8689154551598897 9.216903457449977 1 0 0
400 134 2 -1.1794 -10.396186254550337 -0.8735674059994469 7.339626185878389 1 0 0
349 117 2 -1.1794 -7.1601832161199335 -4.064258129984281 10.86136624064491 0 0 0
522 174 1 0.5897 -9.770921202072342 1.907970218357013 7.381545369036973 1 0 0
520 174 2 -1.1794 -10.454369454790159 2.224315894303775 7.972334333948962 1 0 0
631 211 2 -1.1794 -5.613431324500939 -5.389341011493253 6.289700977971609 1 1 0
425 142 1 0.5897 -7.446973426378783 -1.403762465935622 7.090932609042104 1 0 0
626 209 1 0.5897 -10.435969192568194 -6.806548848503692 8.08893265894882 1 1 0
327 109 1 0.5897 -4.524497042174768 -7.819603088039633 9.725440789786372 0 0 0
641 214 1 0.5897 -4.375055147640882 -8.171182872383207 6.912932395040495 1 1 0
652 218 2 -1.1794 -5.78917497422783 -5.449806967456964 12.788469451384886 0 0 0
780 260 1 0.5897 -7.687180598794125 -4.023327975636989 15.21098336163647 0 0 0
779 260 1 0.5897 -7.304594353400075 -2.905498352906786 14.264592003250755 0 0 0
778 260 2 -1.1794 -8.062137783239159 -3.3338760455139846 14.66312119316116 0 0 0
768 256 1 0.5897 -9.708604438949372 -2.649351532127282 14.726646305378653 0 0 0
654 218 1 0.5897 -6.208080881856035 -4.970836790626348 12.073504803347552 0 0 0
653 218 1 0.5897 -6.517038501026684 -5.8157732672012505 13.290928402631543 0 0 0
740 247 1 0.5897 -10.781075040114407 -3.384288073368685 11.940270883141702 1 0 0
729 243 1 0.5897 -7.871390116363386 -7.192349314765238 12.026005839053521 1 0 0
684 228 1 0.5897 -8.692695867186327 -6.381411767675955 14.24482183098976 0 0 0
682 228 2 -1.1794 -8.013073139704659 -6.838296171479163 13.74924971704662 0 0 0
663 221 1 0.5897 -8.598133777441632 -4.377518799425541 11.885390770484296 0 0 0
662 221 1 0.5897 -8.94187657243124 -4.067663450361396 13.326726685034469 0 0 0
661 221 2 -1.1794 -9.334416222666626 -4.334272583264196 12.495473319938386 0 0 0
771 257 1 0.5897 -11.69754100226724 2.731563956179164 11.699826160157281 0 0 0
766 256 2 -1.1794 -10.579655191102738 -2.277463380014037 14.865215672667256 0 0 0
857 286 1 0.5897 -13.339433801774472 1.1872366112782515 12.192854705366317 1 0 0
896 299 1 0.5897 -8.27687598362889 2.6481803929670242 15.589835577674496 0 0 0
769 257 2 -1.1794 -12.394060585010724 2.6767961062174805 12.35407173104686 0 0 0
888 296 1 0.5897 -10.667049270216515 3.3474555137556834 15.325389769220054 0 0 0
835 279 2 -1.1794 -10.988603597985643 -0.47735664706798353 11.132578557557165 1 0 0
836 279 1 0.5897 -11.264931391616054 -1.3856545482956406 11.254400734242996 1 0 0
761 254 1 0.5897 -9.637988485964005 1.2335897485772396 13.114635639441879 0 0 0
760 254 2 -1.1794 -8.873488401026354 1.6318225632183463 12.698520424594982 0 0 0
762 254 1 0.5897 -9.230875847536266 2.1186951157032006 11.9560258481891 0 0 0
792 264 1 0.5897 -11.68061964995703 0.5652629677726129 14.43118473009517 0 0 0
837 279 1 0.5897 -10.957658279479595 -0.11503637921200571 12.017970729063245 1 0 0
791 264 1 0.5897 -10.891259278297778 -0.6924389975467431 14.13630704730724 0 0 0
790 264 2 -1.1794 -11.011075098664932 0.21161502319450598 13.845654518996655 0 0 0
897 299 1 0.5897 -7.970562097515474 2.5578090656688133 14.110112334745574 0 0 0
788 263 1 0.5897 -5.024957947904929 -4.660711915480631 15.588356090595578 0 0 0
770 257 1 0.5897 -11.960189124550377 2.8760696856325936 13.18364426136809 0 0 0
727 243 2 -1.1794 -8.018534289225842 -7.420309772034337 11.108126808203545 1 0 0
789 263 1 0.5897 -4.773199348986668 -4.679069998734234 14.095763673428754 0 0 0
865 289 2 -1.1794 -12.828529083400106 1.224928379622236 15.655859380516628 0 0 0
772 258 2 -1.1794 -6.008082342022298 -2.048545273084935 13.507669441884978 0 0 0
1089 363 1 0.5897 -6.654571455181273 -4.686033581610307 17.302533503570224 0 0 0
1152 384 1 0.5897 -6.95172143901053 -4.104312114249612 19.791929150822018 0 0 0
1225 409 2 -1.1794 -8.25587880712671 -3.442929662437175 20.967562466161407 0 0 0
1227 409 1 0.5897 -8.97953528700027 -2.952513993700755 20.577729337096287 0 0 0
1109 370 1 0.5897 -8.860451843921405 -3.3867781665009478 17.55257759940422 0 0 0
1219 407 2 -1.1794 -10.402631353523317 -1.9458167518775475 20.160079555281303 0 0 0
1108 370 2 -1.1794 -9.489021652279972 -4.0983781546581 17.674057545612712 0 0 0
1151 384 1 0.5897 -6.107059001979346 -5.328010051921148 19.507389902663697 0 0 0
1150 384 2 -1.1794 -6.283594386542175 -4.440746784044753 19.194752285976893 0 0 0
1130 377 1 0.5897 -7.50483442208664 -1.466280734846647 18.474396447625278 0 0 0
1196 399 1 0.5897 -9.896750824198891 1.2431648866899536 16.421076799160392 0 0 0
1251 417 1 0.5897 -11.767507959872702 1.7141959079776878 21.418155813833387 0 0 0
1248 416 1 0.5897 -5.953998566462571 -1.5706058524437108 20.597324148014298 0 0 0
758 253 1 0.5897 -9.597117852242434 -5.358186703552284 16.3839404006587 0 0 0
1216 406 2 -1.1794 -12.50839928693218 2.9196845253934818 17.81395904276542 0 0 0
1205 402 1 0.5897 -12.226621105736541 1.3021903384462696 18.537008069835032 0 0 0
1129 377 2 -1.1794 -7.862911745870168 -1.7994327419992135 17.651626483250098 0 0 0
1087 363 2 -1.1794 -6.626743479250985 -4.988460901585386 16.394849975110205 0 0 0
1217 406 1 0.5897 -11.873603551770387 3.6173968955644984 17.65130425362455 0 0 0
1143 381 1 0.5897 -8.558150819733914 -5.181679420797101 21.50690639909633 0 0 0
1121 374 1 0.5897 -4.966761255676732 -3.435551218254103 18.51149316495799 0 0 0
1101 367 1 0.5897 -10.507482247397373 -1.0405974733515677 16.303218999769054 0 0 0
1142 381 1 0.5897 -8.51743786087955 -6.386593370419632 20.59125922540025 0 0 0
1131 377 1 0.5897 -7.148802808338649 -1.7010827271415092 17.021906104995704 0 0 0
1206 402 1 0.5897 -11.356298886348503 0.09955510587472993 18.24023565704952 0 0 0
1246 416 2 -1.1794 -6.272720497027629 -1.1151878755829845 19.818175065365104 0 0 0
1099 367 2 -1.1794 -10.165008603559412 -0.4559226638749543 16.979298002420766 0 0 0
1218 406 1 0.5897 -13.34941535312581 3.3715801856167555 17.882559761666872 0 0 0
1100 367 1 0.5897 -9.326289394843627 -0.8434961675751076 17.229350343665757 0 0 0
1009 337 2 -1.1794 -11.198808445094638 3.3015948651667504 20.870136388839526 0 -1 0
1260 420 1 0.5897 -9.806480175948206 3.024525299211362 19.646192861254626 0 0 0
1259 420 1 0.5897 -8.992077742266318 1.7799201465678536 19.364102569467047 0 0 0
1258 420 2 -1.1794 -9.17007600166822 2.6595549797760416 19.03138236311146 0 0 0
1236 412 1 0.5897 -7.768825124464934 -0.2858178857494096 20.09447787843792 0 0 0
1235 412 1 0.5897 -9.236145088331659 -0.5996676169483148 20.295487986758577 0 0 0
1234 412 2 -1.1794 -8.617946729079858 0.1294198482892277 20.245477768692147 0 0 0
1197 399 1 0.5897 -9.723197034724913 2.441706385713152 17.32952448108619 0 0 0
1096 366 2 -1.1794 -8.882132543788401 -6.4932829251877955 18.77838420426995 0 0 0
1011 337 1 0.5897 -11.981876403000433 3.691043395923204 20.481160643540854 0 -1 0
1195 399 2 -1.1794 -9.785249933678575 2.1937369908746565 16.407143997675863 0 0 0
1097 366 1 0.5897 -9.038996604108428 -5.587818969343472 18.510642000726115 0 0 0
1088 363 1 0.5897 -6.654023046731741 -5.943104088201277 16.458941128580303 0 0 0
1110 370 1 0.5897 -10.334033333080622 -3.658719798238547 17.768302828522586 0 0 0
1221 407 1 0.5897 -10.861117080040538 -2.154230025129177 19.34613776449892 0 0 0
1010 337 1 0.5897 -10.973603091142401 3.8869068942745617 21.593251451419455 0 -1 0
1141 381 2 -1.1794 -8.521138501769371 -6.138106244770819 21.515579810268736 0 0 0
866 289 1 0.5897 -12.524918761978427 1.7892126700317696 16.36692377877308 0 0 0
40 14 2 -1.1794 -15.060919148664821 3.5573055276659566 1.5909037311524277 1 0 0
177 59 1 0.5897 -13.946104944390521 4.291320013359787 3.00018701853221 1 0 0
42 14 1 0.5897 -15.567665426372493 4.176512429889387 1.0656534259507255 1 0 0
55 19 2 -1.1794 -13.276090881688376 6.1323699502076 1.0041014896983043 1 0 0
56 19 1 0.5897 -12.529680582375919 5.70643333404991 1.4255363901754408 1 0 0
66 22 1 0.5897 -13.492376759949885 2.735164956511282 1.4259578407124383 1 0 0
65 22 1 0.5897 -12.044039638309087 3.1674165842942994 1.5121635264300857 1 0 0
64 22 2 -1.1794 -12.599593489670275 2.3906271982158387 1.4473132872538725 1 0 0
191 64 1 0.5897 -12.550615998450608 6.060765104693084 4.13442775912737 1 0 0
183 61 1 0.5897 -11.941928227488006 3.5603525965197154 4.374726317993417 1 0 0
181 61 2 -1.1794 -11.197563197201381 3.1299108600909893 4.795200313291115 1 0 0
176 59 1 0.5897 -14.050918715470395 4.210709181234693 4.5081658569329806 1 0 0
175 59 2 -1.1794 -13.478320866042441 4.515835839904458 3.804499058512029 1 0 0
108 36 1 0.5897 -10.065538859792559 2.683807445187913 3.3272428795674682 1 0 0
190 64 2 -1.1794 -11.995853611173848 6.840269865326897 4.1052763084473956 1 0 0
167 56 1 0.5897 -16.590367626964003 6.283639051336431 3.3795783834133206 1 0 0
153 51 1 0.5897 -12.689537420705944 9.067176530142975 1.2337877846177097 1 0 0
85 29 2 -1.1794 -11.038462293181869 4.602962538580943 1.706775423054964 1 0 0
162 54 1 0.5897 -14.588401566495232 6.7620007740748775 2.3103082950830656 1 0 0
205 69 2 -1.1794 -14.818692876963512 7.779219823994195 5.4289622077266575 1 0 0
284 95 1 0.5897 -17.52909151459925 11.563277529338608 4.589654325965293 1 0 0
193 65 2 -1.1794 -14.130748941314367 11.953239686889104 1.8183279938136547 1 0 0
215 72 1 0.5897 -12.358731146524386 8.414471173204875 3.316336386136739 1 0 0
192 64 1 0.5897 -11.103588142508992 6.502960975583752 4.184676640101373 1 0 0
160 54 2 -1.1794 -15.213937925597712 7.261961500468695 2.8346790840354172 1 0 0
45 15 1 0.5897 -9.641971249612645 1.9543764750733033 1.0594338237121677 1 0 0
216 72 1 0.5897 -13.159431341835095 9.670014278340085 3.589018913298853 1 0 0
206 69 1 0.5897 -14.934466807614001 7.532587471843266 4.511413296543835 1 0 0
194 65 1 0.5897 -13.773784766217078 12.120238649372622 2.690574025179643 1 0 0
283 95 2 -1.1794 -16.78103131860914 11.559678158584179 3.99251105494685 1 0 0
174 58 1 0.5897 -16.51121038154189 9.969772496067636 1.4749707750469876 1 0 0
173 58 1 0.5897 -15.051488127349835 10.363477247170716 1.3966276920437934 1 0 0
172 58 2 -1.1794 -15.627249758652223 9.602591230492378 1.4726817008959472 1 0 0
161 54 1 0.5897 -15.305069052183345 8.09412872090679 2.3706709240323613 1 0 0
285 95 1 0.5897 -17.127976508806164 11.201623281304856 3.1754511872861704 1 0 0
148 50 2 -1.1794 -18.188394411761287 10.759211427236531 1.7981751474263887 1 0 0
150 50 1 0.5897 -18.648680989660633 11.385126009301183 1.2391848443459406 1 0 0
289 97 2 -1.1794 -14.403101846593225 10.368283538051164 4.8090811665393485 1 0 0
291 97 1 0.5897 -15.286873332452917 10.541681896530198 4.4849142734617065 1 0 0
290 97 1 0.5897 -14.249330789077723 11.050039172630607 5.463130745366003 1 0 0
57 19 1 0.5897 -13.53457970953857 5.529170730720956 0.3072877907868192 1 0 0
152 51 1 0.5897 -13.005149232577793 7.8249764562120365 0.42803066250682076 1 0 0
207 69 1 0.5897 -14.700805872952103 8.728917729995038 5.409245402322943 1 0 0
182 61 1 0.5897 -10.963243599741705 3.70955426982081 5.519985427698978 1 0 0
525 175 1 0.5897 -11.852104996929164 8.004977116275343 5.514807289618257 1 0 0
151 51 2 -1.1794 -12.801818908123401 8.755747052174756 0.3357086102550157 1 0 0
532 178 2 -1.1794 -10.879358080705904 4.830541040926933 6.908854845844146 1 0 0
521 174 1 0.5897 -10.687108728773305 3.087281004682989 7.6299045566426695 1 0 0
534 178 1 0.5897 -11.760357216301644 5.1858794287138466 7.026355702938192 1 0 0
645 215 1 0.5897 -12.39056370091023 6.8606954839571355 8.418841312814056 1 0 0
644 215 1 0.5897 -12.510501068689457 6.925637379587094 9.926467832442691 1 0 0
643 215 2 -1.1794 -11.898747734665326 7.086900453833158 9.20820348613944 1 0 0
510 170 1 0.5897 -13.858850625061502 6.803201669740323 6.528285971686998 1 0 0
508 170 2 -1.1794 -13.423457172774874 6.1694738248139664 7.09828705523761 1 0 0
509 170 1 0.5897 -14.131280530983169 5.613025544311508 7.423188091860943 1 0 0
543 181 1 0.5897 -10.496903420370163 6.098015255992529 9.690481951329488 0 0 0
538 180 2 -1.1794 -15.368867439285175 4.619500143022403 8.13639151136564 1 0 0
459 153 1 0.5897 -10.05616225947618 3.967121726929461 10.566327425396299 0 0 0
636 212 1 0.5897 -15.043140151142048 7.602854049424943 9.860705575150932 1 0 0
567 189 1 0.5897 -13.29017439716724 11.129400427522087 10.719949354569126 0 0 0
518 173 1 0.5897 -16.569394643723555 7.350241814422171 7.804457521287476 1 0 0
458 153 1 0.5897 -10.235775863063624 2.6907476035099354 9.772270049298498 0 0 0
630 210 1 0.5897 -12.87516692081525 9.298038523139718 7.464365717971484 1 0 0
640 214 2 -1.1794 -14.096060331163384 12.108543729090153 6.855104478689063 1 0 0
634 212 2 -1.1794 -15.529829088449322 8.176731592474399 9.269191585375689 1 0 0
519 173 1 0.5897 -16.29245152190306 7.363798741934447 6.316285183673105 1 0 0
629 210 1 0.5897 -13.639841082438199 10.595280187656803 7.620129326737487 1 0 0
566 189 1 0.5897 -13.466834099044608 9.969460334765456 9.763275876973886 0 0 0
628 210 2 -1.1794 -13.541010962780113 9.724116856199243 8.00410524337488 1 0 0
635 212 1 0.5897 -14.855201032348564 8.610750675811984 8.747008414758271 1 0 0
642 214 1 0.5897 -15.014974566984382 12.373976795236322 6.8920851596220425 1 0 0
617 206 1 0.5897 -17.25589800641047 12.37018456557975 7.576700358727808 1 0 0
624 208 1 0.5897 -17.05994062498731 8.963192539709626 9.396312083145931 1 0 0
457 153 2 -1.1794 -10.276013868701584 3.040485340095735 10.662333811091186 0 0 0
533 178 1 0.5897 -10.314426702686672 5.601563522686378 6.857745860181712 1 0 0
325 109 2 -1.1794 -13.028318701711298 12.855317757159861 10.178726760666928 0 -1 0
565 189 2 -1.1794 -13.451679977157095 10.186248256895928 10.695421449993358 0 0 0
874 292 2 -1.1794 -13.670490425590307 4.811882882421912 14.675255065523258 0 0 0
887 296 1 0.5897 -10.418334283930989 4.318611027436507 14.191148329036839 0 0 0
876 292 1 0.5897 -12.803699393787126 4.4063957477038596 14.653393005804473 0 0 0
945 315 1 0.5897 -14.069622882393475 6.860152064619198 11.952915010234058 1 0 0
848 283 1 0.5897 -13.979119801383757 3.626306111239156 11.996415579568094 1 0 0
900 300 1 0.5897 -14.622492996918593 7.6389006935002595 14.288325926157906 0 0 0
899 300 1 0.5897 -13.90522149944616 6.348799741585832 13.952116198526836 0 0 0
898 300 2 -1.1794 -13.94891142643629 7.274823233068792 13.71391531707683 0 0 0
869 290 1 0.5897 -12.78990986995634 8.434140843539394 13.08709806167151 0 0 0
944 315 1 0.5897 -14.35358521870191 5.670318519069717 11.06097318196611 1 0 0
659 220 1 0.5897 -17.20734636082034 11.027606788034406 15.076558740058713 0 -1 0
680 227 1 0.5897 -11.169165177759973 9.45654453310818 15.267293537123386 0 -1 0
877 293 2 -1.1794 -15.639526416857999 9.677991106022853 12.472889117588377 0 0 0
875 292 1 0.5897 -14.26927848265382 4.088477269525146 14.860611455798752 0 0 0
878 293 1 0.5897 -15.28588657351628 9.897089753536607 13.334906248951597 0 0 0
683 228 1 0.5897 -17.218749872574953 13.384431011936927 14.130351411794114 0 -1 0
658 220 2 -1.1794 -16.680565813273752 11.809326591016701 14.91033434954314 0 -1 0
868 290 2 -1.1794 -12.10208633196957 8.828681445340868 12.55099115844394 0 0 0
671 224 1 0.5897 -13.375103432502252 11.098933756597523 14.178433109688859 0 -1 0
672 224 1 0.5897 -13.726323556824259 10.051045001864678 15.212904636892315 0 -1 0
870 290 1 0.5897 -12.566680570038159 9.205151830150436 11.803670734352519 0 0 0
956 319 1 0.5897 -17.100304154014665 10.68209756082357 11.991295384292613 1 0 0
894 298 1 0.5897 -10.53794614172434 7.818252638665955 12.179634051567751 0 0 0
670 224 2 -1.1794 -14.119812135149187 10.69339402785353 14.62244378697875 0 -1 0
660 220 1 0.5897 -15.787089527976505 11.480247056023307 14.81215863701148 0 -1 0
879 293 1 0.5897 -14.942687433268402 9.914060039887078 11.860634160478368 0 0 0
886 296 2 -1.1794 -11.119269827197686 3.865089222142597 14.659330994546233 0 0 0
943 315 2 -1.1794 -13.991907649514252 6.556462840684704 11.048551325170411 1 0 0
728 243 1 0.5897 -17.43707302083348 12.74135545321028 11.120877561831728 1 -1 0
649 217 2 -1.1794 -15.8454736498912 8.199906023429756 15.582899997319046 0 -1 0
1018 340 2 -1.1794 -11.904850822277577 7.051571199636223 20.269569087989186 0 -1 0
1019 340 1 0.5897 -12.488091478918001 6.292584117438356 20.272314471218124 0 -1 0
1020 340 1 0.5897 -11.02698248492943 6.679364974059805 20.185674716259754 0 -1 0
1030 344 2 -1.1794 -9.413179593671334 5.912170349703615 19.937901139477354 0 -1 0
1043 348 1 0.5897 -12.251207251033087 8.753206361333612 19.549604516270016 0 -1 0
1032 344 1 0.5897 -8.87685869189927 5.329035100899622 20.47495430594543 0 -1 0
1239 413 1 0.5897 -9.873485030267528 5.246987991941181 17.05999253022126 0 0 0
1237 413 2 -1.1794 -10.585777478110264 4.997838104328695 17.648840883637213 0 0 0
1113 371 1 0.5897 -16.94697736772141 11.822974550021337 19.26769748934076 0 -1 0
1208 403 1 0.5897 -12.010625909690484 5.984835568731761 17.27012185553165 0 0 0
1207 403 2 -1.1794 -12.796037007318013 6.448865315325499 16.980319707098072 0 0 0
1238 413 1 0.5897 -10.231516264762751 5.138465968972223 18.52681746529322 0 0 0
990 330 1 0.5897 -14.147016197578218 6.871311004630531 18.206647635018996 0 -1 0
1127 376 1 0.5897 -15.476810326791746 13.517196252419803 20.34022743125726 0 -1 0
1126 376 2 -1.1794 -14.806731474368505 14.19494398334117 20.42912722494077 0 -1 0
1002 334 1 0.5897 -16.42727288979895 10.149974777127772 17.87976628316677 0 -1 0
1013 338 1 0.5897 -11.05133547659163 10.668089095804463 18.504429962216456 0 -1 0
1118 373 1 0.5897 -13.928853895954301 11.05463703080545 21.500508200575865 0 -1 0
1003 335 2 -1.1794 -13.486553812555977 4.6401300818338616 20.198303757473738 0 -1 0
991 331 2 -1.1794 -16.161331437427712 13.474233913993197 17.18004363889325 0 -1 0
1098 366 1 0.5897 -17.483964318181794 14.273474554476367 18.139413516949205 0 -1 0
980 327 1 0.5897 -12.674392180478025 8.207971127489499 16.434455888293336 0 -1 0
1042 348 2 -1.1794 -12.368090616876579 9.63361762252544 19.192744589030163 0 -1 0
1119 373 1 0.5897 -15.176297987900924 10.861357423425394 20.66485597569576 0 -1 0
1021 341 2 -1.1794 -13.949577725935056 11.848709832201012 17.61270317524484 0 -1 0
1117 373 2 -1.1794 -14.3542780678691 10.43525088479314 20.907551659249236 0 -1 0
1001 334 1 0.5897 -14.948383544323347 10.423137620736524 17.706004111439565 0 -1 0
1044 348 1 0.5897 -13.150107590688306 9.96857248288895 19.63146627775494 0 -1 0
981 327 1 0.5897 -12.450675170458457 9.400101078451167 17.340367031031494 0 -1 0
1000 334 2 -1.1794 -15.575326647519097 9.714553543250824 17.851151346439046 0 -1 0
992 331 1 0.5897 -15.326250041810383 13.084414313895389 17.438627861918203 0 -1 0
1023 341 1 0.5897 -13.32758917164756 12.037819104916556 16.91019287542886 0 -1 0
1111 371 2 -1.1794 -16.467279179079046 11.918177794538709 20.090467010535015 0 -1 0
1140 380 1 0.5897 -12.072589007887085 12.36170107284502 20.52782171515917 0 -1 0
1138 380 2 -1.1794 -12.477474665900738 12.772961981256062 19.764274033308162 0 -1 0
1128 376 1 0.5897 -13.983016123250284 13.743738407570783 20.24438325958108 0 -1 0
1022 341 1 0.5897 -13.4486798728683 11.97840680649193 18.41794808101865 0 -1 0
989 330 1 0.5897 -14.894685444352646 8.16495931316628 18.450176476789316 0 -1 0
979 327 2 -1.1794 -12.596600652506446 9.161943077376316 16.424880966530683 0 -1 0
1034 345 1 0.5897 -14.608294319328808 7.429198221736494 20.725889747858428 0 -1 0
988 330 2 -1.1794 -14.789783080283529 7.275998479887418 18.789122585574713 0 -1 0
993 331 1 0.5897 -16.43098902797618 12.97457433793763 16.40945210357519 0 -1 0
1035 345 1 0.5897 -14.583274325900824 8.797120871519722 21.374022017846787 0 -1 0
1033 345 2 -1.1794 -14.784061616945973 7.8784352358649965 21.552607833631942 0 -1 0
43 15 2 -1.1794 -7.846061564829475 4.2989884244597825 21.633494804000364 1 0 -1
650 217 1 0.5897 -15.683728298321688 8.705841632199304 16.37917625139674 0 -1 0
1209 403 1 0.5897 -13.17829559002623 5.879687802494036 16.31238805792874 0 0 0
310 104 2 -1.1794 -3.529350342199015 -8.057073483116717 3.997988386955026 1 1 0
242 81 1 0.5897 -0.9724562808030406 -6.360350747522147 4.600025754634586 0 1 0
27 9 1 0.5897 -4.16356303052526 1.5503999723924888 5.431152969493112 0 0 0
306 102 1 0.5897 -0.7033649098436232 -7.215618441123855 2.2296126591392103 1 1 0
305 102 1 0.5897 -1.3718622609940834 -5.868120667598804 2.4004296770983626 1 1 0
318 106 1 0.5897 -2.709555169295263 -4.118744686639916 1.6319119400941047 1 1 0
95 32 1 0.5897 -5.722292693101167 -0.9066676155013411 3.277311135349541 1 0 0
317 106 1 0.5897 -1.2626216073137737 -3.712868936436542 1.4486632927237242 1 1 0
316 106 2 -1.1794 -1.8379929461547313 -4.477663510555325 1.465217709319151 1 1 0
311 104 1 0.5897 -2.8525387974811096 -7.674107964256885 3.4399245213854237 1 1 0
304 102 2 -1.1794 -1.3496037318922998 -6.753454106450301 2.7634627192347496 1 1 0
3 1 1 0.5897 -1.3435861002782197 -3.0252340273062854 4.721295264401029 0 0 0
293 98 1 0.5897 -5.054024645042126 -3.8007105593227575 2.404132475084914 1 1 0
26 9 1 0.5897 -4.318346300110365 0.3006846629984494 4.5908148350049425 0 0 0
105 35 1 0.5897 -3.227853802147324 -2.3553278779886133 3.259295243685568 1 0 0
243 81 1 0.5897 -0.8476897440393003 -5.158954525307872 5.512703930928293 0 1 0
103 35 2 -1.1794 -2.9065296046434037 -2.232054873658514 4.152416501141639 1 0 0
90 30 1 0.5897 -3.80374165676253 -0.06830436718288624 2.2252990786810587 1 0 0
104 35 1 0.5897 -3.6315376133640633 -2.5153417540779675 4.709458143183799 1 0 0
303 101 1 0.5897 -7.404751594716931 -2.4001029124720583 0.8887926887339506 1 1 0
94 32 2 -1.1794 -6.412017057516581 -1.4608020204400862 3.6425747096868775 1 0 0
294 98 1 0.5897 -4.809833623884538 -2.728306304570581 1.3640127661858161 1 1 0
89 30 1 0.5897 -4.625156658898618 1.1928178523661526 2.388671972410593 1 0 0
292 98 2 -1.1794 -4.353716936638948 -3.331138962868959 1.9510790328479959 1 1 0
88 30 2 -1.1794 -4.471505611490076 0.33344460265130316 2.781090568600371 1 0 0
96 32 1 0.5897 -5.988210040280933 -1.928342002504384 4.362207586123907 1 0 0
25 9 2 -1.1794 -4.223981556002539 0.5973236162898399 5.495931946467653 0 0 0
302 101 1 0.5897 -7.522640636592899 -2.091672754546309 2.3661500935133484 1 1 0
241 81 2 -1.1794 -1.007413874418157 -6.102688186600801 5.521176343650135 0 1 0
201 67 1 0.5897 0.2906999459792239 -8.283257535919194 0.2700458702328839 1 1 0
309 103 1 0.5897 -2.93881960039021 -1.3680789522337982 0.4334517708182094 1 1 0
359 120 1 0.5897 -4.648010694930116 -3.2352657540202294 8.676836241721112 0 0 0
403 135 2 -1.1794 -5.16340312496529 -2.735276336956499 5.630691017688645 1 0 0
334 112 2 -1.1794 -4.404501543947743 -4.665362026889937 9.64099201799588 0 0 0
348 116 1 0.5897 -1.451168422566349 -6.27227552231 9.887284080640718 0 0 0
329 110 1 0.5897 -3.4136617074643993 -1.3436998444646076 7.651093267672202 0 0 0
336 112 1 0.5897 -3.5040428705246915 -4.908104213959136 9.425393580552178 0 0 0
443 148 1 0.5897 -7.936266587268953 1.5854503793391537 9.452437430279913 0 0 0
632 211 1 0.5897 -4.788396157172972 -5.755431520028596 6.608255073956681 1 1 0
554 185 1 0.5897 -2.950377618394916 -6.31097747520853 7.951994052095562 0 1 0
356 119 1 0.5897 1.2272233962061065 -7.06336766686188 10.065670646745474 0 0 0
555 185 1 0.5897 -2.511816030391291 -6.52390027558454 6.518833761934383 0 1 0
553 185 2 -1.1794 -3.2811943458100217 -6.554413881991673 7.087447510703437 0 1 0
346 116 2 -1.1794 -1.8195762040194676 -5.72989075091653 9.190028425790937 0 0 0
546 182 1 0.5897 -0.19409238341169655 -7.309950368603522 6.5886101082403234 0 1 0
347 116 1 0.5897 -1.056827994382525 -5.388000325880947 8.723634967956066 0 0 0
339 113 1 0.5897 -5.628767181749209 0.17473343605760583 6.571549618577605 0 0 0
444 148 1 0.5897 -6.443917915806324 1.8398008736329192 9.464492683493736 0 0 0