LAMMPS data file via write_data, version 30 Jul 2021, timestep = 22000000

864 atoms
2 atom types
576 bonds
1 bond types
288 angles
1 angle types

0.6321828817070205 17.57538951827253 xlo xhi
1.8361592001385372 21.793018599848928 ylo yhi
0.7712616390723923 21.441934160918365 zlo zhi

Masses

1 1.00794
2 15.9994

Pair Coeffs # lj/cut/tip4p/long/omp

1 0 0
2 0.21084 3.1668

Bond Coeffs # harmonic/omp

1 450 0.9572

Angle Coeffs # harmonic/omp

1 55 104.52

Atoms # full

753 1 1 0.5897 1.543086266431664 2.270722869014733 2.5086211528506928 2 0 -5
56 1 1 0.5897 1.6931456491466104 4.12615296055507 3.234217372630063 -7 -1 4
863 1 1 0.5897 2.633745992651457 5.494639223040714 2.0671605703485296 1 -6 5
862 1 2 -1.1794 1.8551629390615818 5.071086951153054 1.7057090675500772 1 -6 5
55 1 2 -1.1794 1.6829910741183884 3.4952934460588887 3.9540458747870195 -7 -1 4
626 1 1 0.5897 4.373957322045635 5.89257912169309 3.1862121541548842 2 -4 1
57 1 1 0.5897 0.8661501768307098 3.675362408754075 4.4194428419697545 -7 -1 4
770 1 1 0.5897 3.304983180627752 4.099807178989515 4.3360434784701845 3 2 1
769 1 2 -1.1794 4.2347771585034435 4.327080877328752 4.344375804019744 3 2 1
864 1 1 0.5897 2.1989897972653782 4.3932875675562535 1.1238034426835948 1 -6 5
771 1 1 0.5897 4.6756290665395985 3.52404181461501 4.6219116366930555 3 2 1
625 1 2 -1.1794 4.0289694404446115 6.512081627818497 2.5432268735255574 2 -4 1
107 1 1 0.5897 1.0605686646667483 6.167518474488763 5.146295451710118 4 -1 4
248 1 1 0.5897 1.9611461797497587 1.9029188737022615 4.92718515724598 -3 0 1
525 1 1 0.5897 4.602952634256095 2.210847529871659 1.5703179501725044 2 -2 0
627 1 1 0.5897 4.791945822638658 6.771844144445562 2.026870297936127 2 -4 1
642 1 1 0.5897 3.1082596919011505 3.8277663471770893 7.792012027488685 8 2 -4
603 1 1 0.5897 4.0670257997001515 2.982317800606228 10.438716939317626 0 4 1
77 1 1 0.5897 2.2756711724759597 6.733912166759233 6.870374130833112 -8 -6 0
640 1 2 -1.1794 2.1518825985685925 3.78822175752856 7.796102796027704 8 2 -4
641 1 1 0.5897 1.9504758321519968 2.8672641311016056 7.961949662822602 8 2 -4
78 1 1 0.5897 2.6232589335027083 5.281842605351751 6.620180357464603 -8 -6 0
810 1 1 0.5897 1.450078428478343 4.4935919867687595 9.404503365868262 9 0 2
808 1 2 -1.1794 1.0526141450785802 4.732693087313405 10.241816252974504 9 0 2
826 1 2 -1.1794 4.852375028633199 4.068587858772225 7.844173984453667 5 4 2
76 1 2 -1.1794 2.6411029373987525 6.146133265155006 6.209153631051339 -8 -6 0
601 1 2 -1.1794 4.143211186125487 2.127614577038687 10.01454066690064 0 4 1
540 1 1 0.5897 2.919716274111528 4.655790714146072 11.016474863739651 -2 -2 -1
594 1 1 0.5897 1.6033032516391164 4.4290898726932255 13.220294735114035 0 0 -4
593 1 1 0.5897 2.6542306652877783 5.08914008814687 14.087356787097582 0 0 -4
592 1 2 -1.1794 1.777940780594387 5.222749777909584 13.726113425390473 0 0 -4
539 1 1 0.5897 4.352994653727926 5.109677290506946 11.194240224418452 -2 -2 -1
731 1 1 0.5897 4.40397090375199 6.07742700672136 14.211823811066054 5 -2 -3
424 1 2 -1.1794 2.293925194559029 1.960785907086405 15.7736086082695 10 -1 1
621 1 1 0.5897 3.6525846909612127 3.273033748363725 12.910962515776406 4 -2 2
538 1 2 -1.1794 3.7449892760458847 4.410644825086712 11.434938667282829 -2 -2 -1
60 1 1 0.5897 1.716407340692012 6.6782514016925125 12.843505497596025 5 -1 -2
730 1 2 -1.1794 4.284888353521259 5.317579276877506 14.781639758730925 5 -2 -3
155 1 1 0.5897 1.2170894845849265 2.332474563715726 12.000149359643288 6 3 -2
23 1 1 0.5897 0.8943180675004219 5.317833776124479 15.371122331473876 -3 -1 2
620 1 1 0.5897 3.268342935102608 2.38789803950032 14.077493756280301 4 -2 2
619 1 2 -1.1794 3.9970236716874465 2.595182611726952 13.492436015885318 4 -2 2
732 1 1 0.5897 4.057731968115661 5.689841667038156 15.633728314485701 5 -2 -3
118 1 2 -1.1794 0.6938960489286943 3.8732773167373935 20.041626264131494 4 -4 -3
452 1 1 0.5897 3.7203931059029247 2.612718246023654 20.439794925099182 3 -2 1
267 1 1 0.5897 1.95349643127554 3.366842108631173 17.126781762606615 0 0 3
763 1 2 -1.1794 3.158015145482974 6.605411681417153 17.09377408572924 -2 0 -8
203 1 1 0.5897 4.004396682359599 5.320548872434324 20.48068912317849 -6 2 0
204 1 1 0.5897 4.779802135434895 5.723665484529246 19.244495268307574 -6 2 0
266 1 1 0.5897 2.039816721450771 3.67181277913452 18.607147925564504 0 0 3
265 1 2 -1.1794 2.3229243510073934 3.991855845201541 17.750571753684117 0 0 3
210 1 1 0.5897 4.008064670221899 2.9350589304375303 17.603958527364362 -2 -3 1
202 1 2 -1.1794 4.348867804813876 6.0850595578010624 20.01904910299624 -6 2 0
764 1 1 0.5897 2.8714647168697085 5.736062076981007 17.373718943856787 -2 0 -8
451 1 2 -1.1794 4.176450747234075 3.3297181614176203 20.880444019696842 3 -2 1
43 1 2 -1.1794 1.9574392443384983 8.315150970988368 3.028576227510703 6 8 -1
44 1 1 0.5897 2.6964546918129293 7.805106278889353 2.696836623892554 6 8 -1
685 1 2 -1.1794 3.303847907885239 9.596494638681506 4.945920542459403 3 -5 -6
686 1 1 0.5897 3.956879393603247 10.120480793439638 4.481992055869302 3 -5 -6
143 1 1 0.5897 4.551388343887963 6.893698477304381 5.565482215591063 -5 0 3
807 1 1 0.5897 2.4453258932868227 10.87387406401764 1.912515405372161 0 -1 -1
45 1 1 0.5897 1.3755643975130674 7.665642040376655 3.4233175788134846 6 8 -1
13 1 2 -1.1794 1.4635179289706293 11.538780348990848 3.557285569931629 0 -6 -2
687 1 1 0.5897 2.868033615457472 9.092642425000314 4.258529041417258 3 -5 -6
805 1 2 -1.1794 3.017728685107304 10.708857957071102 1.1632788895611847 0 -1 -1
806 1 1 0.5897 2.9688490482476357 9.762536815630277 1.0277548410454544 0 -1 -1
15 1 1 0.5897 2.1964848042587493 11.358968483109702 4.146081623515762 0 -6 -2
504 1 1 0.5897 3.9253070532454464 6.951164080073811 9.46852877793745 -10 -3 4
735 1 1 0.5897 1.2408578510271802 8.017164566057073 8.049993634168779 -1 -1 -6
27 1 1 0.5897 4.526214864045584 9.284018784336357 10.581782001279972 1 8 8
518 1 1 0.5897 2.2564254068628067 9.316998725097555 6.468401141332738 1 -1 -4
421 1 2 -1.1794 1.038897414370829 9.607904549523957 10.587055252484582 -7 3 6
733 1 2 -1.1794 0.9193407425811418 7.153446451073515 8.308612826844545 -1 -1 -6
712 1 2 -1.1794 3.5442539346296758 11.174496532163404 8.312003101422281 -8 -3 3
714 1 1 0.5897 2.9996570085040384 10.605706152822144 7.767829506138461 -8 -3 3
517 1 2 -1.1794 1.8446088230947122 9.369850978452545 7.330867367433703 1 -1 -4
713 1 1 0.5897 2.9578821913223075 11.475857271776276 9.005967645433772 -8 -3 3
555 1 1 0.5897 1.1682055692929318 11.340514569572674 9.970616063954889 -7 -5 6
26 1 1 0.5897 4.530124244218026 10.13804785170899 9.331770880994284 1 8 8
519 1 1 0.5897 1.0249485311956774 9.8396700267733 7.177041277559505 1 -1 -4
502 1 2 -1.1794 3.1928966066722486 7.112080749351742 10.063432780619705 -10 -3 4
503 1 1 0.5897 2.4157830005867673 7.059642511834827 9.507017878273466 -10 -3 4
742 1 2 -1.1794 3.520078315803123 9.74125017578432 12.203154835803806 -5 -1 6
49 1 2 -1.1794 1.9630305117103803 8.095135079909024 15.101312950394567 10 -4 -2
431 1 1 0.5897 1.491978436142277 10.999309300339528 13.405539017901944 -9 2 -2
229 1 2 -1.1794 3.4598634626073794 10.128119729586853 15.97448451065928 0 8 3
29 1 1 0.5897 4.405159530235263 8.291251509325745 13.256634894975617 -9 0 4
743 1 1 0.5897 3.5810545063415624 10.602147818174396 12.617129522774768 -5 -1 6
50 1 1 0.5897 2.470158643097865 8.858306059124278 15.378181047348061 10 -4 -2
51 1 1 0.5897 2.080377443346375 8.060552064904453 14.151961257362549 10 -4 -2
230 1 1 0.5897 4.178720718723577 10.60121203807867 15.555357326038042 0 8 3
744 1 1 0.5897 2.680413346728765 9.75478009959245 11.743790924549595 -5 -1 6
58 1 2 -1.1794 1.4406724190271905 7.519450100617152 12.479370093094778 5 -1 -2
59 1 1 0.5897 1.9280090522039817 7.597231968998405 11.659175967346982 5 -1 -2
422 1 1 0.5897 0.6385257401807822 9.48491820698954 11.447757220268482 -7 3 6
439 1 2 -1.1794 0.9737533649941377 8.761838442922485 18.064020991350503 3 -2 0
765 1 1 0.5897 2.463732697112616 6.9103938723934935 16.509629450752435 -2 0 -8
336 1 1 0.5897 4.209365039113771 10.668199218937277 18.838187236509942 9 -2 6
231 1 1 0.5897 3.661836812221097 10.16397816822308 16.90945331188172 0 8 3
572 1 1 0.5897 3.2688057544494917 7.522323082652503 20.415596456722778 0 -3 -1
573 1 1 0.5897 1.819178881411292 7.8492961916483965 20.704853602936634 0 -3 -1
334 1 2 -1.1794 4.015025868473994 9.732157348502666 18.78969255659597 9 -2 6
335 1 1 0.5897 3.599571485327877 9.529567497618139 19.627907626291535 9 -2 6
441 1 1 0.5897 1.885742979624394 8.561213774080002 18.2744417106176 3 -2 0
571 1 2 -1.1794 2.6869466167634806 8.24823814536433 20.640960078880386 0 -3 -1
338 1 1 0.5897 0.930089091513955 10.15718168936057 16.850241636568356 -1 3 2
522 1 1 0.5897 4.844741670301788 10.405557573549777 21.31692862445104 -2 1 -2
339 1 1 0.5897 1.6428600247330525 11.42013571892044 16.415730376764984 -1 3 2
337 1 2 -1.1794 0.7782580552495347 11.010361353557988 16.443707585242848 -1 3 2
263 1 1 0.5897 1.367964026373651 14.66977148859694 1.725265242712122 5 1 7
262 1 2 -1.1794 1.6824909419972758 14.155615007214827 2.468906051253931 5 1 7
314 1 1 0.5897 3.3220865649068654 14.78772267673157 3.3030985352342803 4 -1 0
294 1 1 0.5897 2.540917690428519 15.94344721477887 5.1105007538656535 -2 -2 1
14 1 1 0.5897 1.5254245882165214 12.476724802396742 3.3765146567272017 0 -6 -2
313 1 2 -1.1794 3.6965533384340126 15.142045225316194 4.1096185087082215 4 -1 0
264 1 1 0.5897 1.1092173035597928 14.406026932390846 3.1933976982740533 5 1 7
315 1 1 0.5897 4.462327089165253 14.593522635621486 4.279906020492433 4 -1 0
292 1 2 -1.1794 1.918147104271879 16.506612575063883 5.570104576693026 -2 -2 1
852 1 1 0.5897 3.617032671693866 12.296987596599717 1.0625221014224806 -10 0 -2
464 1 1 0.5897 0.7185475246439665 15.183090587803957 5.123996110912963 6 0 0
566 1 1 0.5897 4.1549211162183814 14.740816061842546 0.8268911741539355 -1 4 -9
484 1 2 -1.1794 3.3403537075175724 14.64230149927935 7.981160777769649 3 2 1
486 1 1 0.5897 3.598028928159268 14.280107198912955 8.82889429484641 3 2 1
121 1 2 -1.1794 1.3200650559971276 16.314054957885112 8.613765823812438 -1 0 5
514 1 2 -1.1794 4.093575690019886 13.616412826712189 10.556361525303778 -4 0 -2
122 1 1 0.5897 2.007812084918221 15.690596505646106 8.380183052643863 -1 0 5
746 1 1 0.5897 2.19404112867175 13.318470088539081 7.259360888936028 3 3 -5
485 1 1 0.5897 4.008192544751324 15.300365619231716 7.788347244138811 3 2 1
123 1 1 0.5897 0.9679573603057056 16.60878610508811 7.773886514619448 -1 0 5
747 1 1 0.5897 1.3064285608480568 13.31919190003718 6.032963383232968 3 3 -5
553 1 2 -1.1794 1.578307524622752 12.199572245784392 9.87027951918621 -7 -5 6
745 1 2 -1.1794 1.5233084366001914 12.804157450050262 6.810100586956888 3 3 -5
554 1 1 0.5897 0.9952973441685287 12.676292598004554 9.279453624308141 -7 -5 6
756 1 1 0.5897 1.71987902256488 13.721117513446128 11.103806081396312 -7 2 -6
645 1 1 0.5897 2.226146353658998 13.29121384869884 16.234416915837734 4 0 2
820 1 2 -1.1794 3.004544227273321 12.275781193328191 13.435009752522912 3 7 11
54 1 1 0.5897 2.9849170614614255 16.17201563163853 15.793572313482588 -3 0 5
821 1 1 0.5897 3.7713209094099307 12.607689690288844 13.902062149229076 3 7 11
528 1 1 0.5897 1.0546047507024428 15.869918182419616 15.331542886775873 -2 -7 2
755 1 1 0.5897 1.2367877422285565 14.982108586149456 11.788228368899503 -7 2 -6
609 1 1 0.5897 4.709225412211668 16.364710618569113 11.8235590592445 13 2 -2
607 1 2 -1.1794 3.7962454998229624 16.07717125819616 11.82802762294681 13 2 -2
754 1 2 -1.1794 1.4652302622925983 14.068329103598122 11.958694999193234 -7 2 -6
822 1 1 0.5897 2.6646204592899196 13.035111937434795 12.961618708416832 3 7 11
634 1 2 -1.1794 0.8381347176154101 14.29999134896677 14.77700447767144 -9 4 -2
52 1 2 -1.1794 3.8243300897721726 15.735181733645279 15.937860385214584 -3 0 5
636 1 1 0.5897 1.058603903223355 14.332646614098067 13.846108332429342 -9 4 -2
168 1 1 0.5897 4.592218662799098 14.450752825676503 14.87700667690991 -3 -1 4
526 1 2 -1.1794 1.3490163049160535 16.723988270664016 15.647955120597954 -2 -7 2
53 1 1 0.5897 4.454522937559783 16.450017302586716 16.027850697088347 -3 0 5
516 1 1 0.5897 3.9896299452455475 14.352475832284673 11.159387718938897 -4 0 -2
608 1 1 0.5897 3.3525891311504687 16.677650847696874 11.228994386079378 13 2 -2
515 1 1 0.5897 4.399575800719756 12.896062492819183 11.107450763364657 -4 0 -2
759 1 1 0.5897 3.9684290645447504 12.647759887849002 18.1689195725377 4 0 2
587 1 1 0.5897 2.802958325064313 14.99444419311141 18.08272167608627 -2 2 4
684 1 1 0.5897 1.1011200899257831 15.402286588057578 18.473291952458943 6 -1 -6
588 1 1 0.5897 2.7157499915088326 16.445023189915425 18.50723612134497 -2 2 4
288 1 1 0.5897 2.5070373187561357 13.217268169876467 20.564066364155117 4 5 -3
286 1 2 -1.1794 1.6001711744523195 13.179764004857493 20.260052340208833 4 5 -3
567 1 1 0.5897 3.5570900375556347 15.696195957304125 20.486722659329068 -1 4 -10
586 1 2 -1.1794 2.8364007889585006 15.560870215159976 18.85362625532853 -2 2 4
851 1 1 0.5897 4.291289443094007 12.831593792763018 20.487608065087812 -10 0 -3
287 1 1 0.5897 1.3165212847377434 12.287824138475328 20.460599859184896 4 5 -3
643 1 2 -1.1794 2.5378429519595502 13.105353596287717 17.12015550620917 4 0 2
565 1 2 -1.1794 4.047769877649787 15.672984173594108 21.308278675605134 -1 4 -10
644 1 1 0.5897 1.7416844370735747 13.055701587170203 17.64926865569458 4 0 2
850 1 2 -1.1794 4.154464870165148 13.022583507333332 21.415532211686756 -10 0 -3
86 1 1 0.5897 0.8661876408294904 15.810310063401921 20.436136475017697 1 5 1
757 1 2 -1.1794 4.6490376919473695 12.347367612229217 18.77122081659831 4 0 2
85 1 2 -1.1794 0.8993239744615421 16.247604840483888 21.28698384116937 1 5 1
707 1 1 0.5897 2.89600136937736 17.279105498734378 1.5635594904260364 -2 -5 -12
388 1 2 -1.1794 4.299039392793105 19.978520349320505 4.571245592411333 6 4 6
664 1 2 -1.1794 1.234852999272953 18.662410562890415 3.789877396834584 4 1 -1
708 1 1 0.5897 2.3548576148440095 18.609704180163305 1.0854066216573157 -2 -5 -12
665 1 1 0.5897 1.8035434901656873 18.780033666455758 3.0289151341230833 4 1 -1
751 1 2 -1.1794 1.4686675682632218 21.589193198025953 1.7992835272249648 2 -1 -5
666 1 1 0.5897 1.4337153980547728 19.40849184385211 4.355629476422827 4 1 -1
293 1 1 0.5897 1.8005565301133721 17.258395900234184 4.989387202074682 -2 -2 1
390 1 1 0.5897 3.4042223385903814 20.233702604515926 4.795809564330641 6 4 6
247 1 2 -1.1794 1.9449292354935153 21.003694732520984 5.355085164076789 -3 -1 1
706 1 2 -1.1794 3.021870802113952 18.223783868759384 1.6532048551744514 -2 -5 -12
389 1 1 0.5897 4.472366724029468 20.41848218839477 3.739006062171989 6 4 5
125 1 1 0.5897 4.858806442898352 21.363366438452488 5.717471269546602 2 3 6
403 1 2 -1.1794 3.715988750187055 17.97698186589647 7.252374732290203 1 -8 -2
646 1 2 -1.1794 2.4222337503793705 18.160753677605065 10.105956679954387 -4 -2 -2
647 1 1 0.5897 1.8666508754208413 17.470764999754365 9.743312726891249 -4 -2 -2
450 1 1 0.5897 3.4441503669682443 19.949096198714955 7.496284949292327 1 -3 -7
416 1 1 0.5897 1.1316622682783053 21.286302975656383 9.23101257238972 -5 0 1
531 1 1 0.5897 2.0720794964830977 19.799719996795616 10.58677968977542 -2 1 -6
405 1 1 0.5897 3.0540570205853577 17.55443319492104 6.705080399152656 1 -8 -2
648 1 1 0.5897 3.0974661550189224 18.299102757983974 9.441737133581128 -4 -2 -2
404 1 1 0.5897 4.547155548473853 17.61228078340539 6.948410103589027 1 -8 -2
529 1 2 -1.1794 1.8901715327491322 20.731202638103234 10.711203925326478 -2 1 -6
448 1 2 -1.1794 3.49329075945209 20.90493564785166 7.510184626996351 1 -3 -7
602 1 1 0.5897 4.526945190707675 21.51778580581923 10.683754185499918 0 3 0
415 1 2 -1.1794 0.8514677595757802 21.514232474345647 8.344574449187878 -5 0 1
530 1 1 0.5897 2.7181460511279947 21.166594854793217 10.508408500884306 -2 1 -6
249 1 1 0.5897 2.3562836002378384 21.153082852743275 6.206387959439536 -3 -1 1
449 1 1 0.5897 4.02804438070981 21.106611348213427 8.278040563661385 1 -3 -7
417 1 1 0.5897 0.6828763967834162 20.671981048928487 7.922157666285028 -5 0 1
426 1 1 0.5897 2.6539974613652317 21.1611834155352 16.236596584531878 10 -3 1
659 1 1 0.5897 4.715295248561216 21.149509519987944 12.771526964836552 -2 -2 3
370 1 2 -1.1794 2.588803934201688 17.90246125815341 13.375435321661982 -4 6 -2
372 1 1 0.5897 3.2776330538565643 18.435725665112024 13.772141404167266 -4 6 -2
371 1 1 0.5897 3.0565018036724623 17.28969774362901 12.807975902107128 -4 6 -2
563 1 1 0.5897 0.8177594898516223 17.33299997495368 12.628520626481883 2 2 4
527 1 1 0.5897 1.469400589164716 17.24546561964742 14.854355021932996 -2 -7 2
425 1 1 0.5897 1.4549491706400406 21.61127641282645 15.4293831611673 10 -2 1
637 1 2 -1.1794 4.850632657446801 19.292038062147668 14.966763575908217 -10 -4 4
80 1 1 0.5897 3.9466343965291797 20.886082216409434 17.418578547958152 -1 1 -8
235 1 2 -1.1794 1.845433843373742 18.171877671680896 18.09003889927298 -3 -3 -4
79 1 2 -1.1794 3.517970362151565 20.07030953153768 17.159735631449077 -1 1 -8
474 1 1 0.5897 3.7924573310490945 19.5905761918834 19.841978095204087 1 3 0
40 1 2 -1.1794 0.9299830175974916 18.95893764500822 20.639748173271027 -4 2 2
81 1 1 0.5897 4.1602736960940545 19.627074794728827 16.605461661432557 -1 1 -8
506 1 1 0.5897 0.9274815379037327 19.947524254098063 17.807501691190716 1 4 -4
780 1 1 0.5897 1.9557051185514451 21.261068508060056 19.487347744922037 -2 3 -5
236 1 1 0.5897 2.5916838750959803 18.707639598713605 17.821133254480376 -3 -3 -4
472 1 2 -1.1794 4.223872687139718 18.74391646413097 19.957262759739923 1 3 0
778 1 2 -1.1794 2.6916675244816797 21.21409288050227 20.097579484549225 -2 3 -5
237 1 1 0.5897 1.4532952538932298 17.87682494566151 17.268208108765474 -3 -3 -4
41 1 1 0.5897 1.1566002914030444 18.7488090972126 19.73381099336152 -4 2 2
473 1 1 0.5897 3.8678399475033376 18.402875154714216 20.7777516010054 1 3 0
779 1 1 0.5897 2.2836972666418016 21.14594272539199 20.96079923774161 -2 3 -5
505 1 2 -1.1794 0.7488346534484134 20.763642894352195 18.27473892267075 1 4 -4
87 1 1 0.5897 0.8896969833634227 17.181535250088448 21.077355684781274 1 5 1
242 1 1 0.5897 6.219543751438252 3.4429389791374274 2.719810545825365 2 -3 5
241 1 2 -1.1794 7.083047110273632 3.801097525288755 2.514095737838886 2 -3 5
243 1 1 0.5897 7.648630107682303 3.483062535555885 3.2178038661864314 2 -3 5
673 1 2 -1.1794 7.319943978802511 6.566300357389014 3.8631198432572735 -3 1 -4
674 1 1 0.5897 6.5434844663457135 6.815694774512642 4.3642718304660955 -3 1 -4
438 1 1 0.5897 8.681833653325958 4.847602203521694 1.8574631366960204 -1 6 4
675 1 1 0.5897 7.090560598811416 5.725219850442061 3.4678980506889268 -3 1 -4
124 1 2 -1.1794 5.415082482383415 2.1854511751656114 5.725987603253766 2 4 6
221 1 1 0.5897 8.014696090735256 4.517027482009003 5.756651515593862 3 -4 6
523 1 2 -1.1794 5.114075465870084 1.9111535665785977 2.3221230250376172 2 -2 0
220 1 2 -1.1794 7.6427278990729155 4.663711089053001 6.626345206822721 3 -4 6
633 1 1 0.5897 8.171665393919435 4.965279038253337 8.572704961582392 1 0 4
419 1 1 0.5897 6.951679236499385 5.606545137259417 10.494033698640273 -14 0 4
222 1 1 0.5897 7.628878634087389 3.796278575147907 7.03084632959178 3 -4 6
827 1 1 0.5897 5.059733278164413 4.9516536861180835 7.538487695054434 5 4 2
162 1 1 0.5897 7.156187034268004 2.606984376225286 9.655686390361346 0 9 2
161 1 1 0.5897 6.471251211415589 1.8501307078664118 8.537649203535917 0 9 2
160 1 2 -1.1794 6.960824310661173 2.6522593905701206 8.719703190384827 0 9 2
632 1 1 0.5897 8.726556344224857 4.844160114610842 9.9760452448185 1 0 4
126 1 1 0.5897 5.088491117072414 2.705554070838197 6.46019719029415 2 4 6
631 1 2 -1.1794 8.31587919105987 5.466220348459212 9.375532421305703 1 0 4
414 1 1 0.5897 8.257468301024396 6.32379301159822 6.637812953644887 6 -3 5
828 1 1 0.5897 5.630793191282839 3.7932962705453255 8.328450237951575 5 4 2
148 1 2 -1.1794 5.249466779378713 6.6849507264132955 8.28267220984932 0 -6 3
668 1 1 0.5897 9.051298501729194 2.0276437111661494 6.263645938321328 -5 3 2
420 1 1 0.5897 6.405182187114719 5.222921858260725 11.852740836673929 -14 0 4
354 1 1 0.5897 5.758409560428012 2.2989717979547835 14.570618891269111 6 3 -2
537 1 1 0.5897 8.564104656267325 6.541242951785925 14.422993137610522 3 5 3
353 1 1 0.5897 5.640638334457381 1.959034824634475 16.041151302214097 6 3 -2
381 1 1 0.5897 7.638145624989031 2.3586606393737526 12.127517562013143 9 3 3
1 1 2 -1.1794 8.572038161088134 3.932028569181646 15.35511167402763 4 -1 3
329 1 1 0.5897 7.237618779607097 3.9581871013278316 14.283364481210882 3 4 1
330 1 1 0.5897 5.809344649599722 4.294042813600531 13.910346122300975 3 4 1
328 1 2 -1.1794 6.620288217200058 3.932956365311459 13.552265171097044 3 4 1
418 1 2 -1.1794 6.251796681822585 5.811854064349102 11.113909722238843 -14 0 4
2 1 1 0.5897 8.449134691020564 4.856974197639582 15.568820892808647 4 -1 3
583 1 2 -1.1794 8.245695034652286 6.690838900897579 16.089797525502604 -5 -8 3
3 1 1 0.5897 8.46636428056842 3.476637283424744 16.19039090024873 4 -1 3
257 1 1 0.5897 6.062022999448382 5.895515942820306 17.526696414359765 -6 5 -1
209 1 1 0.5897 5.466376610922975 3.337051149376924 17.543472232944374 -2 -3 1
258 1 1 0.5897 6.88627447423173 5.101569318374365 18.517766814012894 -6 5 -1
437 1 1 0.5897 8.808310419078598 5.352947012352473 21.106682929072225 -1 6 3
138 1 1 0.5897 7.844281776042578 2.6296838403385427 18.82901183196666 6 -5 -3
136 1 2 -1.1794 8.318312426297219 2.525116821418823 18.00402025499083 6 -5 -3
256 1 2 -1.1794 6.173520398496298 5.014828546785676 17.884751372270053 -6 5 -1
175 1 2 -1.1794 7.677727412832894 2.6143287650103533 20.66498548597383 6 -1 2
453 1 1 0.5897 4.957468070550781 3.480564613703608 20.347999313652792 3 -2 1
831 1 1 0.5897 8.483115646741663 6.631835417976296 19.564764798601217 3 1 4
208 1 2 -1.1794 4.893123092463619 2.571321177385796 17.57932497705896 -2 -3 1
147 1 1 0.5897 5.744011108722964 6.639907868484411 21.04333273417356 0 -1 -10
829 1 2 -1.1794 8.294006128061664 5.706441299226935 19.409402284864623 3 1 4
830 1 1 0.5897 9.046718997496352 5.388046949445256 18.911108490971294 3 1 4
177 1 1 0.5897 7.538285379203309 3.2475616932064595 21.369141830782485 6 -1 2
721 1 2 -1.1794 7.600306447305126 9.72324823310683 5.3487833728986 6 -4 -1
88 1 2 -1.1794 7.685059708503601 11.232573621287914 2.263837398546965 7 -3 2
358 1 2 -1.1794 8.515508268812148 8.606440758636898 2.4194631880895394 0 -2 -5
360 1 1 0.5897 8.04222745034408 7.837362873730037 2.7369277223288115 0 -2 -5
144 1 1 0.5897 4.912629941078519 8.345747390616868 5.33527626856891 -5 0 3
722 1 1 0.5897 7.328990261522998 8.819810825831327 5.186168072995913 6 -4 -1
145 1 2 -1.1794 6.222902714033927 7.076741832656596 1.0770086755745463 0 -1 -9
238 1 2 -1.1794 5.220921454040799 11.042568127863227 3.71071114864304 -5 -6 1
90 1 1 0.5897 8.163675134885823 10.425846264265964 2.454552657117281 7 -3 2
240 1 1 0.5897 6.135512899399359 10.789944558440661 3.584406363089201 -5 -6 1
359 1 1 0.5897 8.608126722232566 8.459566922494137 1.4781313149180288 0 -2 -5
521 1 1 0.5897 6.108887469335612 10.413646874145938 1.4791895999881626 -2 1 -1
142 1 2 -1.1794 5.300108152952713 7.476793551498931 5.44025555173906 -5 0 3
723 1 1 0.5897 6.868455174337818 10.110921963380038 5.828738748230228 6 -4 -1
146 1 1 0.5897 6.092902499450559 8.01068777513796 0.9123470282305384 0 -1 -9
397 1 2 -1.1794 6.079705618626125 11.299693354567196 7.127478304192571 4 5 -4
369 1 1 0.5897 6.893721134395471 9.140028881813882 9.187577605106858 4 2 -6
398 1 1 0.5897 6.7204205988131145 11.474136148428409 7.8168964671966235 4 5 -4
412 1 2 -1.1794 8.616123382570791 7.189990097773585 6.831099246832147 6 -3 5
149 1 1 0.5897 5.274074348417788 7.175856600243816 7.461301122546458 0 -6 3
367 1 2 -1.1794 7.348879837090544 8.348657472447634 8.899819330707345 4 2 -5
368 1 1 0.5897 7.605720261339408 7.9109973631849995 9.711467822290935 4 2 -5
399 1 1 0.5897 5.238512218330084 11.270922725648447 7.583348080576629 4 5 -4
413 1 1 0.5897 7.94757308797687 7.61148310394722 7.371166947067443 6 -3 5
150 1 1 0.5897 6.10041018836483 6.852246249276515 8.687827196121518 0 -6 3
25 1 2 -1.1794 5.109789963642198 9.651881374207608 9.91819306457525 1 8 8
252 1 1 0.5897 7.3253520810901644 11.57014620342903 10.335273439451704 6 1 5
250 1 2 -1.1794 7.791984058541315 11.489498417470863 9.503414576865975 6 1 5
275 1 1 0.5897 9.074898682280306 9.161219250804205 9.283038708776134 1 6 1
580 1 2 -1.1794 6.749799955874942 9.86503879504718 13.502821862724907 -4 -2 4
327 1 1 0.5897 7.665205487474315 8.625382455443413 11.859396065283073 3 2 -4
30 1 1 0.5897 5.195262739115587 7.2330926644190905 12.51640460775459 -9 0 4
582 1 1 0.5897 6.28587999209726 9.029613231704019 13.558335197729539 -4 -2 4
581 1 1 0.5897 7.625580964635326 9.676058051364286 13.839863558075885 -4 -2 4
69 1 1 0.5897 6.376312325060254 10.937674055576442 14.84975589618489 8 -3 -8
194 1 1 0.5897 6.812697666364449 11.455995947450429 12.20859597024245 5 -5 2
28 1 2 -1.1794 5.015745271638437 7.567226728297009 13.395245519737172 -9 0 4
326 1 1 0.5897 8.114631471077022 7.184931727948142 11.73683239813128 3 2 -4
325 1 2 -1.1794 8.232945598516263 8.05065009682352 11.345980285282806 3 2 -4
67 1 2 -1.1794 5.97924271703748 11.405801962326812 15.584213964481195 8 -3 -8
195 1 1 0.5897 5.745232373850996 11.191716373619448 11.168122748980895 5 -5 2
585 1 1 0.5897 7.35544585820233 6.991562337550943 16.272180102988123 -5 -8 3
584 1 1 0.5897 8.804855371104829 7.264488870727454 16.613751393670448 -5 -8 3
307 1 2 -1.1794 7.050761227198046 9.129698012099709 19.122378287279705 -4 6 -4
308 1 1 0.5897 6.467509378653871 9.501254561840724 19.78422873725271 -4 6 -4
698 1 1 0.5897 8.50469590030401 8.689898094477515 19.814191867781066 0 3 -1
309 1 1 0.5897 7.317476097866599 9.878970416928103 18.58971494517144 -4 6 -4
153 1 1 0.5897 6.109569721146636 8.425723596865039 17.96363387628844 3 -2 -1
305 1 1 0.5897 7.7165760494827165 11.75139532619848 21.048644653834195 6 0 -6
151 1 2 -1.1794 5.877916550332334 7.8288263833548895 17.252097543098188 3 -2 -1
724 1 2 -1.1794 8.100317955395465 11.222957142458338 17.31514029307518 6 -6 1
520 1 2 -1.1794 5.734426786554334 10.053608599992119 21.34588041116993 -2 1 -2
726 1 1 0.5897 7.363433891855265 11.465329010884735 16.754346864467294 6 -6 1
152 1 1 0.5897 4.931423323674438 7.9306419093599025 17.151995885569484 3 -2 -2
363 1 1 0.5897 7.330813505061849 13.546364072197106 3.4964516172884057 3 -1 -5
259 1 2 -1.1794 6.228296966341205 13.963080430042021 2.2818991897380703 1 1 11
324 1 1 0.5897 8.886395414127634 15.859968327923998 1.1733344073817464 8 -7 -2
260 1 1 0.5897 5.687048384236738 13.461245376602342 1.672424988516561 1 1 11
361 1 2 -1.1794 7.947674197213603 13.248566006362761 4.165066896465094 3 -1 -5
362 1 1 0.5897 8.727536790809568 13.786605064354474 4.028794281290833 3 -1 -5
774 1 1 0.5897 4.916688410155656 16.618355793586943 3.807078838013075 5 0 2
261 1 1 0.5897 6.979628989669341 14.244527181646514 1.759852101958504 1 1 11
179 1 1 0.5897 6.465226365144218 13.362866553812596 5.024699877598419 -9 0 1
322 1 2 -1.1794 8.572373047509425 14.972081565801338 1.3445114337202968 8 -7 -2
178 1 2 -1.1794 5.559965493108193 13.287742783821866 5.326522274903542 -9 0 1
677 1 1 0.5897 7.3064581108707625 16.752651461868496 4.0210335289083385 -3 0 -6
676 1 2 -1.1794 8.248031893242725 16.72971011413331 3.8502523013265133 -3 0 -6
678 1 1 0.5897 8.361485619243705 16.012072407629553 3.2270586648127844 -3 0 -6
89 1 1 0.5897 7.9824038421733725 11.85141964505838 2.9308290693586296 7 -3 2
239 1 1 0.5897 5.263951640770871 11.857266359723733 4.211394251008371 -5 -6 1
579 1 1 0.5897 5.507274241054559 16.610874791359585 0.9035899484687135 6 4 -4
512 1 1 0.5897 7.189793710856652 14.265268308834267 9.246216241935759 -1 5 -6
558 1 1 0.5897 8.85070388818714 13.690538339827626 7.054622238396812 -1 0 3
134 1 1 0.5897 5.626288591516928 15.095883992371705 6.279617577992306 -1 -5 2
556 1 2 -1.1794 8.330144519338825 14.276640790836153 7.603924688117014 -1 0 3
511 1 2 -1.1794 6.4918109842169995 14.688646587791773 9.746018358524198 -1 5 -6
557 1 1 0.5897 8.603019436391138 15.156059843314004 7.342381954313402 -1 0 3
513 1 1 0.5897 5.806229845104461 14.02385349062025 9.811348908279873 -1 5 -6
133 1 2 -1.1794 5.635762188710427 15.898601798436173 6.800948762914069 -1 -5 2
180 1 1 0.5897 5.612095435770461 12.735315036352914 6.106482554464926 -9 0 1
135 1 1 0.5897 6.476927312833753 15.878449097051996 7.257326798692848 -1 -5 2
251 1 1 0.5897 8.615100042886954 11.957574543868645 9.643622309535397 6 1 5
711 1 1 0.5897 6.682915229313502 16.4109302994799 9.514579316113911 -4 4 1
568 1 2 -1.1794 7.776479518157128 14.64170847370623 15.878888983960106 3 -3 1
295 1 2 -1.1794 8.39586236567839 12.730387004608183 13.826258269236865 4 3 1
117 1 1 0.5897 6.655727809113329 14.591660971340668 11.59753113554168 -2 -4 5
115 1 2 -1.1794 6.843902552857617 14.881265622812874 12.490257716845269 -2 -4 5
167 1 1 0.5897 5.4887026689735725 14.291769045077512 13.66745823963617 -3 -1 4
116 1 1 0.5897 7.238098517408906 14.117813372172394 12.912174181793795 -2 -4 5
296 1 1 0.5897 8.332082154489777 13.295783532118216 14.596002056645778 4 3 1
569 1 1 0.5897 8.174688925571195 15.43674238010851 16.233303644648714 3 -3 1
233 1 1 0.5897 8.74083636811769 15.792446995347305 12.60920646652568 -3 2 1
705 1 1 0.5897 6.934587023656794 16.171144386822743 14.963000580976933 7 1 -3
68 1 1 0.5897 5.915965212293938 12.312733738429321 15.28471303380314 8 -3 -8
166 1 2 -1.1794 5.07938508525286 13.79607138371969 14.376684381323985 -3 -1 4
193 1 2 -1.1794 6.220994212025652 11.900345142687778 11.601402930472329 5 -5 2
802 1 2 -1.1794 6.878605166445823 13.90707535150353 18.337638974043216 6 0 -7
758 1 1 0.5897 5.398125252451086 12.91478731483963 18.589135786752465 4 0 2
804 1 1 0.5897 6.849290285102269 14.821643692623823 18.618635581051674 6 0 -7
803 1 1 0.5897 7.444035396332084 13.476931396894331 18.979146792298927 6 0 -7