LAMMPS data file via write_data, version 30 Jul 2021, timestep = 24000000

864 atoms
2 atom types
576 bonds
1 bond types
288 angles
1 angle types

0.10616286982578238 18.101409530179815 xlo xhi
0.14479602914908796 23.484381770861873 ylo yhi
0.0968832321327735 22.11631256786162 zlo zhi

Masses

1 1.00794
2 15.9994

Atoms # full

707 1 1 0.5897 3.157661678409044 1.8839265569813 3.6949419375217456 0 0 0
706 1 2 -1.1794 3.2998711320217153 1.8258022853940714 2.7502912550184724 0 0 0
30 1 1 0.5897 5.580274640136589 3.921377758088296 2.397836028843663 0 0 0
708 1 1 0.5897 2.548230497672878 2.2771825580783633 2.36629843753451 0 0 0
29 1 1 0.5897 4.889232210847143 2.575713302219048 2.4555853560562837 0 0 0
28 1 2 -1.1794 5.651898975746475 3.0196839701274527 2.0849112239979823 0 0 0
3 1 1 0.5897 0.8668677975540667 3.9904609383856866 2.476518934365588 0 0 0
595 1 2 -1.1794 0.765212716630895 5.753950591238226 2.9350358065700792 0 0 0
495 1 1 0.5897 8.5204691853901 2.150521130835046 2.7351028341953794 0 0 0
494 1 1 0.5897 7.007130447958638 2.109196175514005 2.732661007641512 0 0 0
493 1 2 -1.1794 7.776415969071267 1.6482951029900996 3.067248325045957 0 0 0
1 1 2 -1.1794 0.9416043113383024 3.14866607668708 2.027210860242537 0 0 0
846 1 1 0.5897 7.567290778767035 1.7619138563940597 4.896954557391066 0 0 0
20 1 1 0.5897 0.911788268899743 3.086369107441722 0.26805661643251777 0 0 0
597 1 1 0.5897 0.7963107246653827 5.821489631438348 3.8892006934709005 0 0 0
137 1 1 0.5897 5.371162505840518 5.571436050920398 3.873439253665261 0 0 0
668 1 1 0.5897 5.543370172194602 3.0736216283941165 0.24441515991496038 0 0 0
2 1 1 0.5897 0.19922027078040763 2.6377517364495273 2.3496936132357886 0 0 0
136 1 2 -1.1794 5.402775611362734 5.5301648287735805 2.917790497976285 0 0 0
487 1 2 -1.1794 2.8792694266761227 2.232666632048954 5.467677533502641 0 0 0
83 1 1 0.5897 4.489094377905278 2.9511798886687464 6.298068769122645 0 0 0
784 1 2 -1.1794 0.7403720307534304 3.3507865087396995 6.799059742035532 0 0 0
82 1 2 -1.1794 5.267565955628193 3.437249206748574 6.569905208113652 0 0 0
112 1 2 -1.1794 0.786202002011442 5.636655814411885 10.359209733194923 0 0 0
674 1 1 0.5897 3.8046138783005152 2.379688855054986 10.068949604299352 0 0 0
356 1 1 0.5897 7.690196851628311 1.1798596857453665 10.04748474236263 0 0 0
845 1 1 0.5897 7.5178911707738125 0.8864476304111706 6.1308358836980394 0 0 0
676 1 2 -1.1794 5.305175786229682 5.7211896596609675 10.335526448690636 0 0 0
488 1 1 0.5897 2.1453751790187185 2.596483710678942 5.962827614932361 0 0 0
673 1 2 -1.1794 3.098359600636174 1.917942566372319 10.520760114562131 0 0 0
785 1 1 0.5897 0.8319697276539042 3.250183350924877 7.746406577977133 0 0 0
274 1 2 -1.1794 5.1803187176535515 3.052177364438888 9.304767888577668 0 0 0
678 1 1 0.5897 5.384012927824477 4.776969431691054 10.200024373444736 0 0 0
686 1 1 0.5897 5.0742467320956814 5.0406225188635245 6.002818058270368 0 0 0
36 1 1 0.5897 1.6373449992554088 2.5592113683151916 9.89746416991804 0 0 0
355 1 2 -1.1794 7.543454582638957 2.1083035856232084 10.227977876991464 0 0 0
35 1 1 0.5897 0.9217231305560218 3.8826506691478917 9.729967725812973 0 0 0
84 1 1 0.5897 6.001887520281187 2.905920349256792 6.262298153142853 0 0 0
276 1 1 0.5897 6.031986417689127 2.647452278345594 9.469255707182855 0 0 0
675 1 1 0.5897 3.149891236800247 1.02036819740499 10.19242306499369 0 0 0
275 1 1 0.5897 5.164873257397079 3.203070051554369 8.359791198613825 0 0 0
183 1 1 0.5897 0.5474097834627336 5.024965635744582 6.072363842466726 0 0 0
489 1 1 0.5897 2.936087087743732 1.3220823247370348 5.757014487363388 0 0 0
181 1 2 -1.1794 0.39674516748127003 5.897431070102786 5.708768504438907 0 0 0
34 1 2 -1.1794 0.8164796894116304 2.941986176221717 9.587878202188197 0 0 0
844 1 2 -1.1794 7.411603599169803 1.7923595981673113 5.84077820736318 0 0 0
685 1 2 -1.1794 5.1102284113501195 5.925405950622079 5.639555664964404 0 0 0
419 1 1 0.5897 8.948502415441785 2.6836396703554306 6.480148912336768 0 0 0
166 1 2 -1.1794 3.223783458966846 1.838238034681755 13.261548978882367 0 0 0
167 1 1 0.5897 3.2211574753937517 2.0155371581514676 12.32105465397269 0 0 0
457 1 2 -1.1794 5.468539188256515 3.4232247249555727 13.968504322161262 0 0 0
458 1 1 0.5897 6.252173831573883 3.0135140319020652 13.60214353261274 0 0 0
459 1 1 0.5897 4.765407702534402 2.798790907473087 13.790001311319328 0 0 0
762 1 1 0.5897 5.292607924773588 5.109481632421545 13.33818613096788 0 0 0
594 1 1 0.5897 8.420606265374655 2.2339047496515763 13.52734123235091 0 0 0
168 1 1 0.5897 2.437232892640007 2.2736982953001488 13.590001743271358 0 0 0
468 1 1 0.5897 0.9014866493352475 3.2129821539726784 15.17404449729228 0 0 0
466 1 2 -1.1794 0.9284901299354293 3.1217760184693057 14.22172668022232 0 0 0
593 1 1 0.5897 7.440180046092179 1.1014508333149715 13.308095472840371 0 0 0
592 1 2 -1.1794 7.645914807251679 1.9908689667828812 13.02045519899166 0 0 0
365 1 1 0.5897 0.9543684003270123 4.894572664780952 13.328202053001702 0 0 0
71 1 1 0.5897 5.174234635377645 3.2802190800598194 15.860481333632507 0 0 0
113 1 1 0.5897 0.9033283007282683 5.716871235459159 11.305685092350174 0 0 0
737 1 1 0.5897 2.989816196257557 0.1829264039563405 13.713557781734563 0 1 0
761 1 1 0.5897 5.237797161369369 5.853111112097104 12.020862323685325 0 0 0
357 1 1 0.5897 7.537939312425654 2.1691143087044176 11.183084372843073 0 0 0
364 1 2 -1.1794 0.8397996838576237 5.79258604809003 13.01746244730308 0 0 0
851 1 1 0.5897 9.096495183079636 5.954886849317789 13.41077821950382 0 0 0
754 1 2 -1.1794 7.741440124903123 2.052951064895577 17.470352081135573 0 0 0
70 1 2 -1.1794 5.23352440864882 3.29267097557165 16.81563154591086 0 0 0
133 1 2 -1.1794 0.789106935882136 3.342519579407949 16.81502008297361 0 0 0
755 1 1 0.5897 7.73916398976982 2.067566672735617 18.42729761306957 0 0 0
290 1 1 0.5897 2.9606416423915856 1.1360709521515886 17.41042355874196 0 0 0
42 1 1 0.5897 7.39101687385648 1.0441229137048655 20.396183016188807 0 0 0
289 1 2 -1.1794 2.949066550921409 1.9093180586878944 17.974358204236154 0 0 0
41 1 1 0.5897 6.691159230481482 2.3852804618632875 20.452412407221516 0 0 0
143 1 1 0.5897 5.143030701619719 5.1915553884482195 20.91573709191284 0 0 0
569 1 1 0.5897 2.5275614819877297 2.275477045165029 20.97660634024041 0 0 0
291 1 1 0.5897 2.242937388077787 2.4518349594204962 17.62334808126169 0 0 0
570 1 1 0.5897 3.2646493344277014 1.8429106516727585 19.7272135714392 0 0 0
40 1 2 -1.1794 7.498553027669283 1.9646158532527787 20.156872472441755 0 0 0
21 1 1 0.5897 0.6690678274974512 3.8500370138631603 21.00326130337932 0 0 0
667 1 2 -1.1794 5.448435580252024 3.322217997851734 21.344520715540064 0 0 0
134 1 1 0.5897 0.926743813633358 4.2237779423767785 17.162224630857885 0 0 0
568 1 2 -1.1794 3.310197901708405 1.8094138876600265 20.68260423969958 0 0 0
756 1 1 0.5897 6.9843751512004655 2.582657864751355 17.220478629891247 0 0 0
669 1 1 0.5897 4.732243243913172 2.7758413461009446 21.020937634184726 0 0 0
278 1 1 0.5897 5.433326781202922 5.155522149300864 17.626640675210353 0 0 0
72 1 1 0.5897 4.452197856832565 2.8250496891819297 17.110638014166526 0 0 0
19 1 2 -1.1794 0.8946740924312339 2.9815517843538637 21.336336689749814 0 0 0
360 1 1 0.5897 8.959552805212937 2.741067281320842 20.985374345691284 0 0 0
323 1 1 0.5897 7.828373481441551 0.2607087916254606 17.146309260502882 0 1 0
646 1 2 -1.1794 0.5850906306452486 5.610961940418725 20.495767066490757 0 0 0
648 1 1 0.5897 0.8092771169147112 5.6821660796221085 19.56805830625882 0 0 0
571 1 2 -1.1794 0.9456887066170653 5.86431161674013 17.89882138639465 0 0 0
253 1 2 -1.1794 3.1112270868378795 6.87175335234722 2.136651718900804 0 0 0
123 1 1 0.5897 2.9198277819604654 8.561035007917315 2.632665547666258 0 0 0
121 1 2 -1.1794 3.002566919716506 9.507559026840712 2.7483216918725786 0 0 0
122 1 1 0.5897 3.041835578939525 9.630895462409157 3.696590151765326 0 0 0
44 1 1 0.5897 1.506199035445013 10.515945399231432 2.175594548406407 0 0 0
218 1 1 0.5897 5.9717783782630995 10.398785089667559 2.2064948433979565 0 0 0
417 1 1 0.5897 8.425947430733151 6.505203322634126 2.324104453469922 0 0 0
219 1 1 0.5897 4.4660566695449315 10.523360751645411 2.1108585672864115 0 0 0
773 1 1 0.5897 8.767438343022592 10.588805093268155 2.3302588272702063 0 0 0
415 1 2 -1.1794 7.632736632547412 6.9806273685798415 2.077190653125598 0 0 0
43 1 2 -1.1794 0.6376092170154413 10.918166571453902 2.1737843265914467 0 0 0
254 1 1 0.5897 2.9394951090601755 7.04147173060747 1.2105436126012037 0 0 0
217 1 2 -1.1794 5.278892290517795 10.975160153816484 1.8842324067012035 0 0 0
66 1 1 0.5897 7.372647792588559 9.522435186083758 3.958783735813543 0 0 0
65 1 1 0.5897 7.675073528178236 8.667761198759624 2.7465622846882702 0 0 0
64 1 2 -1.1794 7.391798430459863 9.545561969249858 3.0021896209806176 0 0 0
416 1 1 0.5897 6.915436188011535 6.431073511125296 2.392828119513617 0 0 0
255 1 1 0.5897 2.352252612914432 6.369644235654567 2.433323393345305 0 0 0
138 1 1 0.5897 4.624276278486174 6.007619357140439 2.631132746859988 0 0 0
396 1 1 0.5897 0.5245969401796953 11.147255740079887 0.5010012754806616 0 0 0
162 1 1 0.5897 7.477495477690238 7.162708893733334 0.19040015075417874 0 0 1
45 1 1 0.5897 0.7808959409449957 11.800148769202394 2.516852958545107 0 0 0
793 1 2 -1.1794 2.801342983145669 9.797372254122513 5.499871839048203 0 0 0
256 1 2 -1.1794 2.946761767635013 9.465088012701436 10.463977863055266 0 0 0
12 1 1 0.5897 2.7175304722324154 8.125230113459217 6.1120445808449535 0 0 0
10 1 2 -1.1794 2.6684787070064417 7.266213126945376 6.531316348000197 0 0 0
114 1 1 0.5897 1.4913781738046212 6.16444059676661 9.984606556149934 0 0 0
526 1 2 -1.1794 7.739720691858623 6.703859241445782 9.28372289750205 0 0 0
577 1 2 -1.1794 5.085057463261908 10.987344513339718 6.683540663209588 0 0 0
145 1 2 -1.1794 7.452521892091535 7.066965565399487 6.500672279073432 0 0 0
713 1 1 0.5897 8.132430092967521 10.10528882231816 6.127660540615492 0 0 0
551 1 1 0.5897 0.6461862072182827 11.024499387738578 7.5149444845728555 0 0 0
580 1 2 -1.1794 5.237369098040789 10.85637566233917 9.488050847074462 0 0 0
650 1 1 0.5897 2.832309408997272 7.1305455147104455 8.35890527017526 0 0 0
822 1 1 0.5897 8.175845172633982 9.548399425873138 10.01987305406464 0 0 0
527 1 1 0.5897 7.659988925967016 7.602145709043341 9.604429443049385 0 0 0
15 1 1 0.5897 1.3759112971728553 10.117703499352341 9.860809937448773 0 0 0
582 1 1 0.5897 5.1563984543594525 10.918250116322701 8.536432725287256 0 0 0
820 1 2 -1.1794 7.346335787192331 9.139376556452612 10.266470869512675 0 0 0
581 1 1 0.5897 5.871029176271542 10.153122905401052 9.62975214675076 0 0 0
147 1 1 0.5897 7.517213202891992 6.942890425636941 7.44744658048168 0 0 0
649 1 2 -1.1794 2.9364785409147918 7.069410115863396 9.308315430314886 0 0 0
528 1 1 0.5897 8.638239696229462 6.451852979252784 9.496752605129368 0 0 0
795 1 1 0.5897 3.5626035205073765 10.279108306577355 5.823260031847169 0 0 0
258 1 1 0.5897 3.6939399975288825 9.979166998822864 10.158014548080205 0 0 0
14 1 1 0.5897 0.8102070736368872 11.521454747012108 9.826966924918699 0 0 0
257 1 1 0.5897 2.9263035687021537 8.70331460736327 9.884861323357644 0 0 0
146 1 1 0.5897 6.666667255324971 6.582285693815975 6.248290019679829 0 0 0
578 1 1 0.5897 5.816230799325965 10.518642436926354 6.281176046175677 0 0 0
13 1 2 -1.1794 0.6355861036175973 10.627730464021319 9.532194503238438 0 0 0
550 1 2 -1.1794 0.6236041655323742 10.976973311551788 6.559333988432365 0 0 0
651 1 1 0.5897 3.7835455737750134 6.6405182666465326 9.42967230759466 0 0 0
11 1 1 0.5897 1.8571463224368288 6.882658183222109 6.198456308319676 0 0 0
794 1 1 0.5897 2.0495200072821973 10.260434480241567 5.869336560057506 0 0 0
687 1 1 0.5897 4.30852382972228 6.345500141051709 5.95100863722866 0 0 0
677 1 1 0.5897 6.146215002200418 6.076013672575829 10.047511333541339 0 0 0
714 1 1 0.5897 7.378833466215296 8.792911946633124 6.165561866036164 0 0 0
712 1 2 -1.1794 7.325165229384041 9.687064343471814 5.828347580462543 0 0 0
826 1 2 -1.1794 7.665843971681824 6.868546323284601 13.789125113659214 0 0 0
827 1 1 0.5897 6.812494982349425 6.511678732906331 13.542834056970968 0 0 0
332 1 1 0.5897 2.7895912048842053 7.843487938522183 13.643278661747159 0 0 0
797 1 1 0.5897 2.566727977215003 9.516674496253415 12.238007762901942 0 0 0
796 1 2 -1.1794 2.62042394203481 9.609662862715972 13.189028989526035 0 0 0
798 1 1 0.5897 1.7891236383582438 10.013686301923363 13.43791068148753 0 0 0
722 1 1 0.5897 4.279467085703272 10.327605867486863 13.380258778425906 0 0 0
261 1 1 0.5897 0.3986878038704778 11.185723181299963 14.76347582241388 0 0 0
723 1 1 0.5897 5.067942043084326 10.760273787386987 14.597851013906032 0 0 0
828 1 1 0.5897 7.67555267553772 6.8289471995031965 14.745312850959346 0 0 0
259 1 2 -1.1794 0.4128640530305583 11.077288000104618 13.81268724454219 0 0 0
331 1 2 -1.1794 2.9985772272938243 7.025127857049721 14.093501045597119 0 0 0
225 1 1 0.5897 3.072913199617878 7.030459466125734 15.877813567234723 0 0 0
721 1 2 -1.1794 5.119125504596387 10.704044495646833 13.64381782580023 0 0 0
475 1 2 -1.1794 7.46500129420629 9.455499198049457 12.968126611647776 0 0 0
476 1 1 0.5897 6.6266432635355 9.849391963115924 13.209368490111723 0 0 0
477 1 1 0.5897 7.438255419879556 8.579630701864183 13.353137645957334 0 0 0
333 1 1 0.5897 3.8246979974183533 6.740423902638065 13.702805872123518 0 0 0
104 1 1 0.5897 8.8795690801914 10.440554053655214 13.565771264483008 0 0 0
366 1 1 0.5897 1.545756401216471 6.283808028885738 13.437556942046976 0 0 0
760 1 2 -1.1794 5.224803665429071 5.989547129583977 12.96805982120003 0 0 0
679 1 2 -1.1794 5.024850758208314 10.766774438019691 16.45862651370379 0 0 0
520 1 2 -1.1794 7.744221953872949 6.854252473055186 16.581389096256764 0 0 0
445 1 2 -1.1794 0.606190056021773 11.345697186063495 16.506355703195965 0 0 0
821 1 1 0.5897 7.341504039235649 9.16452438363527 11.22319158149113 0 0 0
144 1 1 0.5897 5.175787588500916 6.0351998039574495 19.659330597762967 0 0 0
141 1 1 0.5897 7.358064625676352 8.86202986585771 20.4084484369699 0 0 0
361 1 2 -1.1794 5.110483147478941 11.003088945496083 21.09073558976148 0 0 0
9 1 1 0.5897 6.656747792379629 9.972700472859021 17.028703965964056 0 0 0
4 1 2 -1.1794 2.4794390078723763 7.289039003856297 21.473714491715562 0 0 0
627 1 1 0.5897 1.9319494187108943 10.224971420993862 17.132757844413426 0 0 0
394 1 2 -1.1794 0.6402045709110423 11.425042530825907 21.611884850908886 0 0 0
522 1 1 0.5897 7.921514174191313 7.75547458575485 16.850598798962977 0 0 0
140 1 1 0.5897 6.479994518460295 10.094384454729413 20.453037546273094 0 0 0
5 1 1 0.5897 3.2759122048484297 6.9733870981998285 21.046921938880452 0 0 0
690 1 1 0.5897 2.120538785294676 10.538516019718308 20.797625505475935 0 0 0
625 1 2 -1.1794 2.66341011034205 9.814895852464403 17.594215711189115 0 0 0
688 1 2 -1.1794 2.6993573963922826 9.92847014161401 20.340515084600753 0 0 0
246 1 1 0.5897 9.028467884768473 10.253620824600551 17.051197947013392 0 0 0
224 1 1 0.5897 2.943358806331326 7.954013812667775 17.070133869386318 0 0 0
689 1 1 0.5897 3.5792765206300268 10.273704738752507 20.491361785165417 0 0 0
161 1 1 0.5897 6.617129681066235 6.5911321307659705 21.103226699309026 0 0 0
626 1 1 0.5897 2.5129301196487885 10.023854745783616 18.51598957659607 0 0 0
139 1 2 -1.1794 7.299696114645421 9.761830330030614 20.08743026811046 0 0 0
6 1 1 0.5897 2.3382439713797196 8.160497341164488 21.10395809394938 0 0 0
647 1 1 0.5897 1.278895152538553 6.091033772012074 20.947764994598998 0 0 0
8 1 1 0.5897 7.333700876791533 9.740257131189786 18.36251351738023 0 0 0
7 1 2 -1.1794 7.440322285688715 9.590034245094163 17.423346022741157 0 0 0
160 1 2 -1.1794 7.478067353971131 6.974089262233297 21.27152542036007 0 0 0
572 1 1 0.5897 1.7128730926120939 6.273194241529694 17.498320392965766 0 0 0
680 1 1 0.5897 4.349611407421408 10.398595615611663 17.02839067819057 0 0 0
279 1 1 0.5897 4.748123875903386 6.504582686258737 17.673505108258368 0 0 0
521 1 1 0.5897 7.011763014384366 6.578801973036864 17.13254115624516 0 0 0
142 1 2 -1.1794 4.929645904359168 6.063555618258921 20.583772883474317 0 0 0
277 1 2 -1.1794 5.542287069732218 6.048871767647162 17.9524574119891 0 0 0
223 1 2 -1.1794 3.1812813975300647 7.059017716814995 16.82829153294098 0 0 0
681 1 1 0.5897 5.128248785991962 11.66900136603209 16.760961630038793 0 0 0
462 1 1 0.5897 8.952769616953207 6.193878217321774 20.954379022431795 0 0 0
287 1 1 0.5897 8.869432942072725 10.680220135096729 20.807504660634933 0 0 0
573 1 1 0.5897 0.20417516199258046 6.374114112868177 17.57259063113971 0 0 0
363 1 1 0.5897 5.172890528166553 11.035860913742559 22.0451997484489 0 0 0
200 1 1 0.5897 4.926651688696868 13.481279906875306 4.773697768512215 0 0 0
173 1 1 0.5897 4.477530589693833 13.932495132678351 2.580069729170249 0 0 0
172 1 2 -1.1794 5.222833586171913 13.56819894508646 3.0575165107417814 0 0 0
374 1 1 0.5897 0.8055399860642252 13.555311489804026 3.9200066279086574 0 0 0
558 1 1 0.5897 3.0077049641557867 14.872947296213871 1.253360763973589 0 0 0
556 1 2 -1.1794 2.9408458695613153 15.047497298179156 2.191990626444997 0 0 0
557 1 1 0.5897 2.2313031478699 14.479296747000657 2.4917684336548818 0 0 0
478 1 2 -1.1794 7.375752534086885 14.992791983482848 2.065370795488855 0 0 0
174 1 1 0.5897 5.287318082468762 12.664603043037179 2.7485496942373002 0 0 0
293 1 1 0.5897 2.7487736083104783 16.716096604928424 2.940812817354393 0 0 0
479 1 1 0.5897 8.112194031511514 14.483223424216803 2.40323373225173 0 0 0
449 1 1 0.5897 7.65790786028108 16.64082815892943 2.7696280572313166 0 0 0
480 1 1 0.5897 6.611731248922352 14.434157723578915 2.208135558258469 0 0 0
373 1 2 -1.1794 0.9652657128551169 13.53414855353633 2.976605068288149 0 0 0
375 1 1 0.5897 0.22081613090940508 14.000656260867949 2.596711284695894 0 0 0
317 1 1 0.5897 7.497531148626121 14.841318202755037 0.24997381669422108 0 0 0
308 1 1 0.5897 7.53524148492605 17.420999168362616 4.797810662125467 0 0 0
294 1 1 0.5897 2.6242198918868147 17.565441162864975 4.187613631834976 0 0 0
448 1 2 -1.1794 7.7063668828592835 17.549829590695236 3.0653904884484677 0 0 0
292 1 2 -1.1794 2.6149975852131826 17.618010815368592 3.2320450118825548 0 0 0
384 1 1 0.5897 2.7044238961137803 16.776289983405142 10.219816047894474 0 0 0
656 1 1 0.5897 1.3788848272274852 14.052794291072722 6.085869192647327 0 0 0
454 1 2 -1.1794 5.105016620475293 13.558174491425229 10.199327393739118 0 0 0
184 1 2 -1.1794 7.251888864180165 17.002911272359654 10.489877836759021 0 0 0
811 1 2 -1.1794 2.930772336822184 15.105400533599054 9.53093114209055 0 0 0
456 1 1 0.5897 5.131664659153724 12.637944827062876 9.937432283545313 0 0 0
813 1 1 0.5897 2.290391852587013 14.448239504511658 9.803361347601676 0 0 0
17 1 1 0.5897 2.7993881179206004 15.120209433159426 7.7014925571485575 0 0 0
766 1 2 -1.1794 1.0034752902887432 13.408158174199748 10.350944627238816 0 0 0
201 1 1 0.5897 5.781305327261487 13.860719478005828 5.9640903421651235 0 0 0
377 1 1 0.5897 6.826053459969162 14.126209381954569 9.347750291621097 0 0 0
579 1 1 0.5897 5.096329420677732 11.850298878377577 6.269692590313172 0 0 0
519 1 1 0.5897 8.13005312287904 14.16825200242576 6.060139152419576 0 0 0
812 1 1 0.5897 3.7785333947231567 14.722298819129465 9.75616461532535 0 0 0
18 1 1 0.5897 3.417065332573527 14.571129928902087 6.433279202037854 0 0 0
376 1 2 -1.1794 7.676367059918121 14.505195946518151 9.125208496267017 0 0 0
16 1 2 -1.1794 2.678254020501637 15.089136270344959 6.7526394187872345 0 0 0
517 1 2 -1.1794 7.3432162503081075 14.653808083146949 6.307723268746092 0 0 0
186 1 1 0.5897 7.313351348774094 16.141592328654703 10.077033149968186 0 0 0
378 1 1 0.5897 7.62239913915207 14.680654390314682 8.185908532469803 0 0 0
518 1 1 0.5897 7.499374093681211 15.542584583079073 5.988664126512573 0 0 0
239 1 1 0.5897 2.9485003469366142 16.813710767818456 6.3544939978794215 0 0 0
307 1 2 -1.1794 7.416222976338792 17.300376725429313 5.739753227167809 0 0 0
552 1 1 0.5897 0.6181511499965547 11.890484774862896 6.273724950656099 0 0 0
59 1 1 0.5897 8.993607543742195 13.499176224027325 9.875610502096048 0 0 0
768 1 1 0.5897 0.19334417113089586 13.795190591899612 10.019181243851083 0 0 0
185 1 1 0.5897 7.921785488717233 17.527529554747968 10.051524267956571 0 0 0
655 1 2 -1.1794 0.6160775773360633 13.630623339936058 5.690772823508172 0 0 0
199 1 2 -1.1794 4.900252456410151 13.572098376091883 5.726071704529326 0 0 0
296 1 1 0.5897 7.2398024996362835 14.391098475300048 14.70123850728226 0 0 0
232 1 2 -1.1794 2.658490983063199 14.905540959244384 14.0956510547727 0 0 0
234 1 1 0.5897 2.842944026525951 14.907032242261302 15.034769033892415 0 0 0
606 1 1 0.5897 2.742418014805185 16.78121683396025 13.621352404820083 0 0 0
427 1 2 -1.1794 4.778023850414693 13.460553610143965 13.050726100911087 0 0 0
233 1 1 0.5897 3.401989393908388 14.44573278881553 13.705859388381604 0 0 0
639 1 1 0.5897 1.1458695916872943 14.136682940607278 13.280604373712176 0 0 0
429 1 1 0.5897 5.640437497696485 13.820294908322957 13.25815755226269 0 0 0
428 1 1 0.5897 4.847674651732175 12.530661792507612 13.266515053431185 0 0 0
638 1 1 0.5897 0.5060165567548762 12.767015827134356 13.359904121251724 0 0 0
637 1 2 -1.1794 0.36455223725387925 13.649890375232356 13.01839128472858 0 0 0
295 1 2 -1.1794 7.210221332941567 14.464347678698871 13.747443787712493 0 0 0
270 1 1 0.5897 7.3125213013548835 16.31062478915223 13.549724185468104 0 0 0
297 1 1 0.5897 8.098446143941953 14.249551053239902 13.46264321694999 0 0 0
49 1 2 -1.1794 7.521072932532469 14.948245957098798 16.548647264746414 0 0 0
268 1 2 -1.1794 7.610843823848403 17.15044949981253 13.200704019693559 0 0 0
767 1 1 0.5897 0.9199172303475137 13.456185571651492 11.303139070634359 0 0 0
269 1 1 0.5897 7.574118681912551 17.042048292815664 12.250491522013636 0 0 0
455 1 1 0.5897 5.021798635379527 13.534054944725408 11.152457627322978 0 0 0
451 1 2 -1.1794 0.4217383943688796 13.906552772554443 20.58249429240756 0 0 0
664 1 2 -1.1794 2.909836100203094 14.665873629763379 21.526379167424274 0 0 0
825 1 1 0.5897 2.2362547741888905 14.576264011750997 17.1420042491798 0 0 0
159 1 1 0.5897 7.373476298889772 17.619187351801926 19.77848582770077 0 0 0
824 1 1 0.5897 3.7477697275557307 14.494057532585835 17.121000552555387 0 0 0
452 1 1 0.5897 0.5492152667016583 13.041268124204064 20.97125201473081 0 0 0
125 1 1 0.5897 5.413805066467787 13.545802126928168 18.482476445255443 0 0 0
124 1 2 -1.1794 5.284276326213492 13.535912550239583 17.53427539215712 0 0 0
684 1 1 0.5897 4.51516330624601 14.049371073922755 20.809847385168744 0 0 0
52 1 2 -1.1794 0.7666401025894998 13.697077006102328 17.797733877237924 0 0 0
666 1 1 0.5897 2.913564085520123 15.591797663255523 21.283976430339855 0 0 0
316 1 2 -1.1794 7.437869911377243 14.790507429697467 21.315553491102982 0 0 0
716 1 1 0.5897 2.9710877427576596 17.276150871868186 19.76834081951666 0 0 0
318 1 1 0.5897 7.481746534935884 15.700961286370159 21.02355522382596 0 0 0
665 1 1 0.5897 2.083344422643713 14.330260268608624 21.17931906881794 0 0 0
584 1 1 0.5897 3.302254583596308 16.676539131953614 17.603019927576945 0 0 0
683 1 1 0.5897 6.028296113180875 14.017539704874572 20.773955436290983 0 0 0
126 1 1 0.5897 6.0699218640888475 13.952724125243885 17.180446822732684 0 0 0
682 1 2 -1.1794 5.25318586189384 13.621998490337242 20.37531268597938 0 0 0
715 1 2 -1.1794 2.9448360212212368 17.191288918113333 20.721270935231026 0 0 0
50 1 1 0.5897 7.592220467731378 15.737617715292277 17.085267310166095 0 0 0
610 1 2 -1.1794 7.491606661674615 17.331458015215137 17.910714052995374 0 0 0
53 1 1 0.5897 0.7189368110169003 13.764754148642334 18.75120385150968 0 0 0
117 1 1 0.5897 8.880950326273542 13.954613984681393 20.60541155391992 0 0 0
51 1 1 0.5897 8.243776705016199 14.393109278824465 16.841364065536965 0 0 0
583 1 2 -1.1794 3.1641219545190378 17.56241366609187 17.93805582985896 0 0 0
823 1 2 -1.1794 3.01204812167969 14.995850628467682 16.770177950073588 0 0 0
446 1 1 0.5897 0.7277511501788005 12.139575392320104 17.027002636291527 0 0 0
157 1 2 -1.1794 7.449272984833527 17.502362571660132 20.72535882012992 0 0 0
717 1 1 0.5897 3.736183893889358 17.63678029477965 21.0237223625289 0 0 0
362 1 1 0.5897 5.113291826832616 11.920673273101567 20.81843550902294 0 0 0
267 1 1 0.5897 6.298122389264875 21.651009040465095 2.945688754984493 0 0 0
696 1 1 0.5897 1.8353318834019972 21.87687422123645 2.589607254807206 0 0 0
266 1 1 0.5897 4.795975506961666 21.815986358761595 3.036277218491279 0 0 0
265 1 2 -1.1794 5.535912639648747 21.376949180203326 3.455665809605431 0 0 0
344 1 1 0.5897 1.230710581381984 18.480690030333403 2.3460674336805973 0 0 0
228 1 1 0.5897 5.1829524181505455 19.620894675827337 2.7903699562097652 0 0 0
345 1 1 0.5897 0.5937574561710751 19.096580772275686 1.1187307843042713 0 0 0
817 1 2 -1.1794 7.632645022970558 22.326566333032673 1.9772445707396336 0 0 0
249 1 1 0.5897 5.576717664799446 21.400608820910648 5.2735421003029375 0 0 0
226 1 2 -1.1794 5.199903767417723 18.720453506765796 2.4662802099104244 0 0 0
187 1 2 -1.1794 3.493707239054505 22.492582487165187 1.8870424393172764 0 0 0
343 1 2 -1.1794 0.5520969576349235 19.098827637833576 2.074877020064098 0 0 0
694 1 2 -1.1794 0.9771172490644262 21.625647125702162 2.9309949426474704 0 0 0
818 1 1 0.5897 8.426572700854665 21.929912082131107 2.335730399632278 0 0 0
695 1 1 0.5897 0.878604824399596 20.707191133626242 2.6803061521193703 0 0 0
189 1 1 0.5897 3.2659197361547423 22.42250994479025 0.9601108714238218 0 0 0
602 1 1 0.5897 5.193664882618542 18.718686937459786 0.6441347217020105 0 0 0
227 1 1 0.5897 4.300664937283476 18.410170254590206 2.572629508090929 0 0 0
413 1 1 0.5897 1.0329050111487859 21.49011654215509 4.93218806902011 0 0 0
450 1 1 0.5897 6.841648794446694 17.911661189880316 2.871582744687276 0 0 0
188 1 1 0.5897 3.467166534200197 23.431638559126156 2.0703405919124345 0 0 0
819 1 1 0.5897 7.584166395263761 23.186302265253264 2.395085272680172 0 -1 0
555 1 1 0.5897 5.649782243917157 20.50505871060275 10.249095974046607 0 0 0
340 1 2 -1.1794 0.638036763811265 18.932385454429284 6.720788907596831 0 0 0
87 1 1 0.5897 8.35258132891537 22.227202492464773 10.046165046301027 0 0 0
37 1 2 -1.1794 3.1913728117953153 22.60562805453695 9.556049707496934 0 0 0
86 1 1 0.5897 7.639723008344738 22.57591048085145 8.757131611708518 0 0 0
383 1 1 0.5897 3.6283299884474896 17.97338760321165 10.291181103370304 0 0 0
32 1 1 0.5897 8.609173311186312 22.08581982775651 6.579671258103313 0 0 0
404 1 1 0.5897 1.3115130261109906 18.395534725599195 9.804231447202225 0 0 0
39 1 1 0.5897 3.8783065197163125 22.107940342828332 9.999427084324129 0 0 0
553 1 2 -1.1794 5.494759454457161 21.39272198269612 10.571789634231163 0 0 0
701 1 1 0.5897 3.3652610793455415 23.043812727877388 7.609146755349613 0 0 0
414 1 1 0.5897 1.0200927034215215 20.64197449536072 6.185913546983989 0 0 0
387 1 1 0.5897 5.429794027951462 19.737508614637026 6.8367668821905845 0 0 0
102 1 1 0.5897 5.164661493461065 18.708480595392796 8.813305393388926 0 0 0
700 1 2 -1.1794 3.3092897376817363 23.01220718742656 6.654251561657286 0 0 0
385 1 2 -1.1794 5.383052160541594 18.80685414420586 7.055415287583195 0 0 0
702 1 1 0.5897 2.5504794346812067 22.45648521978028 6.47661288914306 0 0 0
38 1 1 0.5897 2.375594711594925 22.18991006157866 9.835086529602252 0 0 0
101 1 1 0.5897 5.869392532860749 18.218252480040718 10.060069985481345 0 0 0
341 1 1 0.5897 1.4330036100073598 18.457710260202298 6.478097966212405 0 0 0
33 1 1 0.5897 7.101258275007214 22.20356235025905 6.64456890732159 0 0 0
403 1 2 -1.1794 0.5936929031878244 18.97936567477432 9.559158697705822 0 0 0
85 1 2 -1.1794 7.646721450920506 22.76956413256487 9.69437237013698 0 0 0
554 1 1 0.5897 6.254728316518655 21.892540434592373 10.273767644810707 0 0 0
342 1 1 0.5897 0.6638824572683537 18.97067876065981 7.676738293611944 0 0 0
386 1 1 0.5897 6.045962386750121 18.396322532219017 6.500317791685686 0 0 0
31 1 2 -1.1794 7.906765914615055 22.61277637391457 6.9605969905894565 0 0 0
100 1 2 -1.1794 5.188308787977563 18.8217680253921 9.763343490650238 0 0 0
248 1 1 0.5897 4.766438974255995 21.975939142939797 6.415425467917561 0 0 0
405 1 1 0.5897 0.8127464450517345 19.81503341110121 9.971221260755783 0 0 0
94 1 2 -1.1794 0.791172829299603 21.555145485193687 10.589408583488126 0 0 0
240 1 1 0.5897 3.788701283832212 18.07297024654619 6.360114299339198 0 0 0
309 1 1 0.5897 8.201929541578831 17.681545268422987 6.131623242096753 0 0 0
412 1 2 -1.1794 1.078147592943829 21.54916899726082 5.886359528787625 0 0 0
247 1 2 -1.1794 5.505783430521062 21.397664427953643 6.2279615128982835 0 0 0
382 1 2 -1.1794 2.7526879221971337 17.677140716408832 10.539568331510036 0 0 0
238 1 2 -1.1794 2.9517611744112924 17.72278299222121 6.05501292945897 0 0 0
380 1 1 0.5897 0.5004250766796232 20.506545691923282 13.528303045276934 0 0 0
88 1 2 -1.1794 5.181008102178178 21.341019981604163 13.298561115490369 0 0 0
381 1 1 0.5897 1.2934106391676428 21.793479095324066 13.609908972123007 0 0 0
90 1 1 0.5897 5.094351830280112 20.423528305596367 13.55705833320672 0 0 0
763 1 2 -1.1794 5.392002351869811 18.664623242877727 13.933159883366777 0 0 0
738 1 1 0.5897 3.7009731803207555 22.191725909396613 13.59126620014341 0 0 0
89 1 1 0.5897 5.229132041456762 21.317553230295868 12.342998110441886 0 0 0
764 1 1 0.5897 4.593833177511931 18.198027343129095 13.685369619211077 0 0 0
474 1 1 0.5897 5.420550936505728 18.86590056252321 15.851324780851618 0 0 0
765 1 1 0.5897 6.1035316709080245 18.092743560307497 13.645338433886506 0 0 0
350 1 1 0.5897 2.9918585048713275 22.80341046846552 15.685647552885019 0 0 0
736 1 2 -1.1794 2.9312955022025022 22.605591298114646 13.981768340443937 0 0 0
787 1 2 -1.1794 7.314496080690289 22.817216517913955 14.094066306028095 0 0 0
503 1 1 0.5897 1.2412501982534008 18.370145356031127 13.954853804207282 0 0 0
504 1 1 0.5897 0.5426704911477447 18.713834092742324 15.2530469606015 0 0 0
502 1 2 -1.1794 0.44938340932980964 18.780097278965503 14.302853624055285 0 0 0