LAMMPS data file via write_data, version 30 Jul 2021, timestep = 15250000

972 atoms
2 atom types
648 bonds
1 bond types
324 angles
1 angle types

-0.15163089361268334 20.15163189360399 xlo xhi
-0.16543144246497832 20.16543244245777 ylo yhi
-0.22767677121676044 20.927674771219095 zlo zhi

Masses

1 1.008
2 15.999

Pair Coeffs # lj/cut/tip4p/long/omp

1 0 0
2 0.21084 3.1668

Bond Coeffs # harmonic/omp

1 450 0.9572

Angle Coeffs # harmonic/omp

1 55 104.52

Atoms # full

31 11 2 -1.1794 0.6747557697103337 2.1048990983132176 1.9047666726474088 0 0 0
16 6 2 -1.1794 3.9259530658151345 3.739623527404841 2.855639803834445 0 0 0
33 11 1 0.5897 1.24098948545765 2.338841988906823 1.1693322292611772 0 0 0
23 8 1 0.5897 2.6941797153901046 0.4323656727059876 3.7819938722370363 0 0 0
5 2 1 0.5897 4.432559169426896 0.14832925044013817 2.0644223452226815 0 0 0
81 27 1 0.5897 -0.012714760072921383 4.027067075541818 4.727778465399858 1 0 0
10 4 2 -1.1794 1.0341995496060599 4.3244161700340795 3.303608608941963 0 0 0
11 4 1 0.5897 0.9400291080330443 3.527368219626827 2.7818982905761365 0 0 0
4 2 2 -1.1794 4.162995220711459 0.8271243729513224 2.683166976504051 0 0 0
18 6 1 0.5897 4.026348070565586 2.8039936399583536 2.679969429322699 0 0 0
12 4 1 0.5897 1.9717015586253415 4.380856884758887 3.4884958351490427 0 0 0
17 6 1 0.5897 4.239858272091685 4.168371604584333 2.059455993279936 0 0 0
22 8 2 -1.1794 2.104579596578198 0.5038562301125349 4.5326758000359835 0 0 0
236 79 1 0.5897 0.9508463866942767 0.2171246103641581 1.9291294568977424 0 1 0
102 34 1 0.5897 0.055210712204422 0.3981219819896873 4.6792235285163555 1 0 0
6 2 1 0.5897 4.831627716906462 0.806964986264027 3.367820208671791 0 0 0
3 1 1 0.5897 3.214000728769506 2.8779135859350014 -0.006502371988499789 0 0 0
330 110 1 0.5897 3.849838247848318 0.34269490911788125 9.688901389299877 0 0 0
356 119 1 0.5897 1.472996410985621 2.1473335014699915 8.149020791228471 0 0 0
355 119 2 -1.1794 0.7028335924251917 2.028934730832069 8.70496725243734 0 0 0
325 109 2 -1.1794 2.58579568031959 2.483245830975095 6.763541796924294 0 0 0
326 109 1 0.5897 2.1722327088609266 1.8668532885338447 6.159181487829975 0 0 0
327 109 1 0.5897 3.524953109078769 2.336697958282281 6.650454509396891 0 0 0
357 119 1 0.5897 -0.04046724699685733 2.142226157098393 8.112592582878184 0 0 0
27 9 1 0.5897 2.117699380655447 4.506301511273194 6.446171630439237 0 0 0
335 112 1 0.5897 0.7961472418252319 3.399557290024756 10.005650909579872 0 0 0
342 114 1 0.5897 3.92209402189439 4.5549223169921795 10.18548797090011 0 0 0
561 187 1 0.5897 0.8693746256633637 0.20640361851246913 8.676426849272298 0 1 0
341 114 1 0.5897 3.766279014632641 3.053657607861145 10.304502590962219 0 0 0
350 117 1 0.5897 2.3703273985330218 4.813889355110027 13.81750196019946 0 0 0
651 217 1 0.5897 1.6146172120991469 2.8988725813354868 14.797646705452436 0 0 0
650 217 1 0.5897 2.096468435580394 2.456588854109374 13.432293374753058 0 0 0
348 116 1 0.5897 2.209633417132034 0.9939122307602664 11.679130002994103 0 0 0
346 116 2 -1.1794 1.8160071115297045 0.8540584755808451 12.540380685557292 0 0 0
649 217 2 -1.1794 2.286176277004953 3.074327911840169 14.138489717799109 0 0 0
336 112 1 0.5897 1.6860132806656 3.9693362894076705 11.089849138883851 0 0 0
683 228 1 0.5897 4.169845596767591 2.531696709470285 14.42415755081533 0 0 0
347 116 1 0.5897 0.9088798620959464 0.6124878006267583 12.353285468487663 0 0 0
332 111 1 0.5897 4.837190793308153 4.486947777339016 12.155589177100385 0 0 0
340 114 2 -1.1794 3.6222691000495337 3.8699933369617208 10.783220979650144 0 0 0
329 110 1 0.5897 4.326096684724177 0.5833969224015124 11.105653219584514 0 0 0
328 110 2 -1.1794 3.7510009039200214 0.9412900826408859 10.42931589029194 0 0 0
334 112 2 -1.1794 0.8032949559591354 4.031257106586756 10.724816168284944 0 0 0
672 224 1 0.5897 1.0464202971565488 0.9529710851003768 18.97349442724058 0 0 0
653 218 1 0.5897 3.489477733961241 0.9552710018526582 17.81923755998912 0 0 0
659 220 1 0.5897 0.4547299733377136 4.583920815926228 18.71401337322428 0 0 0
665 222 1 0.5897 2.939307694963339 4.112544296977979 17.7421519986961 0 0 0
658 220 2 -1.1794 1.1399126290019077 4.384373597092906 18.076064275107687 0 0 0
666 222 1 0.5897 4.048960990464015 3.1830965948326218 17.29843777240065 0 0 0
664 222 2 -1.1794 3.8672044149286453 4.099426530033001 17.5073982924573 0 0 0
681 227 1 0.5897 0.13792341866552993 2.599857426747287 17.014595496737815 0 0 0
679 227 2 -1.1794 0.23399003778414168 1.983194149959591 16.28879624779243 0 0 0
670 224 2 -1.1794 2.003387008835225 0.9311431573340494 18.976837961675553 0 0 0
671 224 1 0.5897 2.257777901116292 1.648708788973348 19.557099770366143 0 0 0
652 218 2 -1.1794 4.121097914365585 1.4593935144959025 17.30622310887645 0 0 0
654 218 1 0.5897 4.539474631508069 0.8125671074967301 16.737997314580813 0 0 0
1 1 2 -1.1794 2.309546889765968 3.0100832545373066 20.864830535111054 0 0 -1
2 1 1 0.5897 2.2307798608892537 3.9568311936443656 20.747334711943115 0 0 -1
884 295 1 0.5897 0.33952562981983997 0.08113669006182517 15.920160061140237 0 1 0
141 47 1 0.5897 0.5511680082235579 8.108248962229036 1.8186717943261943 0 0 0
15 5 1 0.5897 4.379806029117749 6.772682577875647 1.5604951954890238 0 0 0
111 37 1 0.5897 3.4588924265035197 9.52277479991419 0.17742776909933639 0 0 0
139 47 2 -1.1794 0.5540833655767374 9.057253368723092 1.6931706130626503 0 0 0
110 37 1 0.5897 1.9512345001452287 9.435777270580695 0.28407962917664453 0 0 0
114 38 1 0.5897 3.281488164350791 7.895895272048721 3.557595827987141 0 0 0
14 5 1 0.5897 4.042763781477553 5.887633855847786 0.3793397179392777 0 0 0
132 44 1 0.5897 1.155741764952222 7.542374404760694 4.8444199728187725 0 0 0
19 7 2 -1.1794 0.24867691985521223 6.354693147996978 1.5175065937578969 0 0 0
13 5 2 -1.1794 4.701780449333065 6.022743559645804 1.0602864197405557 0 0 0
112 38 2 -1.1794 4.028446078678237 8.075910712025822 2.9867036829715823 0 0 0
140 47 1 0.5897 0.6729530531396468 9.41534865979279 2.572874912118097 0 0 0
20 7 1 0.5897 0.6248016682238872 5.69042501267945 2.0950800366423636 0 0 0
674 225 1 0.5897 1.413197598214723 6.1286971239755 0.1338229552905324 0 0 1
130 44 2 -1.1794 2.111614428543958 7.492469464654188 4.854179084558267 0 0 0
113 38 1 0.5897 4.7951104952044465 7.920080244578964 3.5382625883670813 0 0 0
126 42 1 0.5897 4.103587216292015 9.9342288098696 3.421362728331375 0 0 0
339 113 1 0.5897 3.602597166736498 5.425369794452868 7.943774049630845 0 0 0
337 113 2 -1.1794 4.2035574361450845 5.566021283964793 8.675434961610986 0 0 0
25 9 2 -1.1794 2.2373189726683416 5.433138482313855 6.653595340027114 0 0 0
26 9 1 0.5897 1.6461522560217539 5.592646630123131 7.389352957500461 0 0 0
345 115 1 0.5897 0.8341593930279945 6.900907422511973 9.094010800249071 0 0 0
463 155 2 -1.1794 0.7857729382677779 8.748275697256567 9.019890731650738 0 0 0
435 145 1 0.5897 2.619594595043581 8.342800277863834 6.636087095799249 0 0 0
433 145 2 -1.1794 3.0567055662387577 8.760247492420017 7.378326333722002 0 0 0
464 155 1 0.5897 1.5083595481374088 8.79313445858406 8.393691306454647 0 0 0
437 146 1 0.5897 4.053927425077202 7.277821391641233 9.42308279263327 0 0 0
344 115 1 0.5897 0.6054672102261015 5.460934236313558 9.501912921067387 0 0 0
343 115 2 -1.1794 0.5539583063797254 6.052288251890322 8.750966318429066 0 0 0
434 145 1 0.5897 3.003248633233049 9.697703754736223 7.192170226843919 0 0 0
465 155 1 0.5897 0.006297238485274248 8.948584627419159 8.501656014253765 0 0 0
468 156 1 0.5897 4.767605313361016 8.60458689746845 7.436415231198499 0 0 0
131 44 1 0.5897 2.3052720134621696 6.69474107675372 5.346561770468386 0 0 0
436 146 2 -1.1794 4.065906484015397 7.849877163312707 10.190483266401404 0 0 0
438 146 1 0.5897 4.1918664539728 8.72880264998782 9.83275949094114 0 0 0
443 148 1 0.5897 1.0424956368222165 9.907927778562097 10.339193419744454 0 0 0
351 117 1 0.5897 3.2397214198956252 6.048979815561828 13.921658976441933 0 0 0
668 223 1 0.5897 0.9864970348224413 5.897366294310616 14.839276229074734 0 0 0
454 152 2 -1.1794 1.7578275240783552 7.46103917366353 11.688031874310072 0 0 0
455 152 1 0.5897 2.5645664272168287 7.742990851108507 11.256806639673178 0 0 0
456 152 1 0.5897 2.0373371427723397 6.776822591759192 12.296332318425602 0 0 0
759 253 1 0.5897 2.154201065352439 9.339160487657898 13.187627972662474 0 0 0
757 253 2 -1.1794 2.562455834924452 9.730532428471909 13.959919662779017 0 0 0
349 117 2 -1.1794 2.4898199498700886 5.688875365378853 13.448100864010648 0 0 0
792 264 1 0.5897 4.353037044889805 9.488580604939127 14.167228194189978 0 0 0
789 263 1 0.5897 1.3785673087092356 9.036233918216611 15.187207804909375 0 0 0
533 178 1 0.5897 0.07819330660392937 7.4460991126716065 11.850801731488605 1 0 0
661 221 2 -1.1794 4.222115269222801 6.0066681089106835 15.514291660994335 0 0 0
788 263 1 0.5897 0.6534913458172072 9.437927300614565 16.4540445785104 0 0 0
780 260 1 0.5897 2.475771980312855 7.866699991071462 18.319889830417956 0 0 0
778 260 2 -1.1794 1.7356714670792819 7.840661905508021 18.9263893315157 0 0 0
760 254 2 -1.1794 3.906991369132128 8.252517999609447 17.341468779134445 0 0 0
779 260 1 0.5897 1.8645415281924027 8.599874890372051 19.494997579615752 0 0 0
675 225 1 0.5897 2.1035432596864863 6.511831760478117 19.997439578274943 0 0 0
663 221 1 0.5897 4.12713457246187 6.783374860594187 16.065677169842726 0 0 0
667 223 2 -1.1794 0.6461340833557112 5.991686025743851 15.728909401401882 0 0 0
761 254 1 0.5897 3.95259653754594 9.206323951557117 17.40889213192937 0 0 0
787 263 2 -1.1794 0.6151395425748324 8.821070943681335 15.723072956851412 0 0 0
669 223 1 0.5897 0.6126542112680036 6.937291566356147 15.874093573305487 0 0 0
858 286 1 0.5897 -0.07325549085261866 7.617580208245496 18.899638583817122 1 0 0
109 37 2 -1.1794 2.6521867876416687 9.79114087152554 20.892931034633378 0 0 -1
762 254 1 0.5897 4.641463760923667 7.939201289741412 17.869347970090818 0 0 0
673 225 2 -1.1794 2.0900695253221295 5.838509403804995 20.677707303820124 0 0 0
660 220 1 0.5897 0.9348491447868941 4.937979119410518 17.32258604949793 0 0 0
662 221 1 0.5897 3.9452678491047966 5.28034336360902 16.07292917445467 0 0 0
127 43 2 -1.1794 0.4990880807076814 12.734690308331977 1.8356925009255742 0 0 0
220 74 2 -1.1794 4.263808036382761 14.270757468522929 3.6343799761942117 0 0 0
120 40 1 0.5897 1.07237758681377 11.335127093539793 2.976967746438604 0 0 0
118 40 2 -1.1794 1.3615333372047436 10.776897511718044 3.698800813092878 0 0 0
119 40 1 0.5897 2.31570431410541 10.853134976927755 3.6937840095198906 0 0 0
124 42 2 -1.1794 4.234247635860517 10.873869024863792 3.549264739996674 0 0 0
123 41 1 0.5897 4.579983186493449 12.030115797413833 2.0764152896224948 0 0 0
121 41 2 -1.1794 4.864556535484339 12.577565148996557 1.3445631556560875 0 0 0
125 42 1 0.5897 4.827664280041363 10.93391208944607 4.297921680068329 0 0 0
240 80 1 0.5897 2.9795356729899534 14.04443732337122 4.77512176304603 0 0 0
129 43 1 0.5897 0.6467678247998745 13.680009536707106 1.866253771597929 0 0 0
783 261 1 0.5897 1.6758399994406887 12.398190537195674 0.4574296947817478 0 0 1
222 74 1 0.5897 4.450130835081844 14.050569255217425 2.721658758317709 0 0 0
122 41 1 0.5897 4.123575112729193 12.572279300794019 0.7386036350535788 0 0 0
188 63 1 0.5897 -0.03556953678047897 10.980003064277978 4.64858044244354 1 0 0
133 45 2 -1.1794 2.6248498565416276 11.369057358580543 6.777739487432654 0 0 0
134 45 1 0.5897 1.918770624018748 11.62207369515854 7.372475237673105 0 0 0
135 45 1 0.5897 3.3807805047249238 11.876663626436399 7.072973825823625 0 0 0
239 80 1 0.5897 2.3432648655086354 13.051718093120362 5.724720690758619 0 0 0
453 151 1 0.5897 1.0115764939938774 11.764860696889485 9.65198815866606 0 0 0
572 191 1 0.5897 0.6847630543102811 14.497290297768544 9.527807676444048 0 0 0
451 151 2 -1.1794 0.8790407098782353 12.295268140457043 8.866251787468109 0 0 0
448 150 2 -1.1794 4.034966395894609 10.684054037027092 10.199395663015911 0 0 0
450 150 1 0.5897 4.260520443486465 11.315369328271577 9.516140689353024 0 0 0
446 149 1 0.5897 4.46965672499349 13.239777030542797 8.935870942389874 0 0 0
445 149 2 -1.1794 4.690880425610962 12.53467601304689 8.327425886261157 0 0 0
238 80 2 -1.1794 2.1972430435061514 13.900926442637127 5.307744999066565 0 0 0
544 182 2 -1.1794 4.262399873694223 14.57011806429708 9.96963606831466 0 0 0
452 151 1 0.5897 -0.06758754857910532 12.282361328582105 8.724865190762202 0 0 0
317 106 1 0.5897 0.4457867754919683 14.045643967177277 5.104835177136297 1 0 0
563 188 1 0.5897 2.0674763524165884 13.612898008277245 12.26871867928255 0 0 0
562 188 2 -1.1794 1.9908286717127517 14.27450233577085 11.581174312144082 0 0 0
444 148 1 0.5897 2.10735811458807 10.766676846329359 10.987788119677207 0 0 0
546 182 1 0.5897 4.906381404448402 14.635646295144598 10.674800446321413 0 0 0
457 153 2 -1.1794 2.3280177718886916 12.404040334281053 13.538150199551145 0 0 0
458 153 1 0.5897 1.568469563351459 12.626764647403816 14.076396223446883 0 0 0
459 153 1 0.5897 3.0792513600755087 12.537796992941427 14.116103062906648 0 0 0
642 214 1 0.5897 0.07015309923211224 14.387698539350618 11.657638857868376 1 0 0
442 148 2 -1.1794 1.160206971935596 10.632495730442415 10.953577250989497 0 0 0
545 182 1 0.5897 3.4184352651152716 14.523707734311996 10.418888963012712 0 0 0
449 150 1 0.5897 4.637643121452197 10.880985206577657 10.916499102118644 0 0 0
758 253 1 0.5897 2.4259422384084637 10.671904249170733 13.852551790890507 0 0 0
769 257 2 -1.1794 4.390492207162245 13.034435688900192 15.256136782761681 0 0 0
766 256 2 -1.1794 0.9631539264070972 10.905096554834724 17.657685269379957 0 0 0
774 258 1 0.5897 4.001438648851935 11.87167167675886 17.076997927633265 0 0 0
768 256 1 0.5897 1.0606383778648798 11.6877986589499 17.11530893052944 0 0 0
781 261 2 -1.1794 2.335534582609074 12.34730603440562 20.92106359500388 0 0 0
767 256 1 0.5897 0.25846922227569813 11.12231331555862 18.268000819939886 0 0 0
870 290 1 0.5897 4.651597315445256 14.168538476503707 18.11515621088961 0 0 0
868 290 2 -1.1794 3.947881199640129 14.484957909458037 17.54865070130114 0 0 0
888 296 1 0.5897 2.0343666210913676 13.83340977011533 19.684416920074785 0 0 0
773 258 1 0.5897 2.840573698091539 11.180461658397089 17.760111913344044 0 0 0
886 296 2 -1.1794 1.78600757410642 14.617901813437431 19.19531058303535 0 0 0
772 258 2 -1.1794 3.7957482005283905 11.172996751786618 17.69817775643833 0 0 0
771 257 1 0.5897 4.3475900531827465 13.734033820624656 15.908086542893116 0 0 0
869 290 1 0.5897 3.182977363199294 14.536110928798113 18.12186486762684 0 0 0
782 261 1 0.5897 2.3882318915139678 11.415595570298489 20.70775865040817 0 0 0
965 322 1 0.5897 -0.0296377398859647 14.51164544583631 19.11979177414982 1 0 0
777 259 1 0.5897 0.6161547444164623 13.843428950182183 15.877466044947326 0 0 0
775 259 2 -1.1794 0.578832592229005 12.904644564037252 15.69405221642784 0 0 0
227 76 1 0.5897 1.2440069952183115 18.429999698895653 3.363546323155779 0 0 0
234 78 1 0.5897 3.036489978244814 17.093203457062998 3.3211787428706967 0 0 0
230 77 1 0.5897 4.147345303430147 18.88563989764139 0.695004407370885 0 0 0
228 76 1 0.5897 0.6993486534916369 17.516467159884993 4.440916635551643 0 0 0
226 76 2 -1.1794 1.3772926777389616 17.572462438220008 3.7675042849233 0 0 0
248 83 1 0.5897 1.075250803818446 16.379724274552633 2.527757025563793 0 0 0
232 78 2 -1.1794 3.9847684566360737 16.9639680032804 3.3387550221826423 0 0 0
233 78 1 0.5897 4.326198615566093 17.607291844499066 2.717574220642057 0 0 0
229 77 2 -1.1794 4.780899456062802 18.737005788388075 1.396961722904499 0 0 0
890 297 1 0.5897 1.9330757815596167 19.31593553441208 0.44679132759571405 0 0 1
249 83 1 0.5897 1.2823327668578264 15.958735824524368 1.0883594029980765 0 0 0
235 79 2 -1.1794 0.856143247310972 19.595430004589364 1.9341671291060543 0 0 0
237 79 1 0.5897 -0.03686114369047362 19.441396903495885 1.625804506989137 0 0 0
247 83 2 -1.1794 0.8100020910954067 15.72071432388004 1.886166229546244 0 0 0
219 73 1 0.5897 3.552294709943823 16.39765703167482 0.2658359730331288 0 0 0
217 73 2 -1.1794 2.66985821716413 16.508354992674338 -0.08815264690004423 0 0 0
221 74 1 0.5897 4.198660789703779 15.225767855977915 3.642408745161653 0 0 0
24 8 1 0.5897 2.2929887534539763 20.058735015176953 5.060567584384047 0 -1 0
241 81 2 -1.1794 2.5687692591407183 18.867580098703886 6.3964939736809745 0 0 0
242 81 1 0.5897 2.3572721299998234 17.933970950969268 6.39312423862842 0 0 0
243 81 1 0.5897 1.9223274304566011 19.258007610645134 6.9846789241397405 0 0 0
542 181 1 0.5897 1.7046567494651859 15.874235541282992 7.767370586168307 0 0 0
558 186 1 0.5897 3.8912221224511896 17.983581618576668 9.844671465283417 0 0 0
559 187 2 -1.1794 0.7747608310855604 19.58878024850111 8.588281829573527 0 0 0
555 185 1 0.5897 3.8823703331758868 18.97767821713749 7.82375405182545 0 0 0
553 185 2 -1.1794 4.260597967643888 19.289798291608452 8.645818398737953 0 0 0
576 192 1 0.5897 4.3314677249698645 15.717509506120003 7.294325453005459 0 0 0
541 181 2 -1.1794 2.360880022528546 16.0145063197593 7.084756365920086 0 0 0
543 181 1 0.5897 2.3480057802247956 15.207520230994028 6.5700337809563045 0 0 0
573 191 1 0.5897 0.6394113723956679 15.974766654575717 9.855194416191361 0 0 0
571 191 2 -1.1794 0.4545503422126155 15.348494383136009 9.155271795197308 0 0 0
551 184 1 0.5897 0.9466259789219476 18.381800562202173 10.065311352054087 0 0 0
560 187 1 0.5897 -0.12313433701133185 19.46472429304354 8.280611776991796 0 0 0
557 186 1 0.5897 3.889982657171897 16.47443188816096 9.965774421990254 0 0 0
865 289 2 -1.1794 2.671567460051259 16.097695075065037 13.433662034385675 0 0 0
867 289 1 0.5897 2.0947715893075847 15.845326267986902 14.154661150592739 0 0 0
885 295 1 0.5897 1.1042199032740174 19.425971324934746 15.062793946419092 0 0 0
565 189 2 -1.1794 2.555151394711663 18.95978605612659 13.87681475302082 0 0 0
566 189 1 0.5897 2.338942004344652 18.11652884045014 13.478701394863236 0 0 0
866 289 1 0.5897 3.5531982087126006 16.04866827094882 13.803213083291006 0 0 0
556 186 2 -1.1794 3.676676339085799 17.272824563640587 10.448896005727962 0 0 0
567 189 1 0.5897 2.3296419567893483 19.60601790017615 13.207643257122356 0 0 0
879 293 1 0.5897 3.933712845397288 19.127209946496254 15.071240014526206 0 0 0
883 295 2 -1.1794 0.29976140420359165 19.52086921607124 15.572805498952432 0 0 0
552 184 1 0.5897 2.0464242440104674 17.571162250218787 10.717521673205392 0 0 0
550 184 2 -1.1794 1.0939934857490359 17.653483204719183 10.668767700028987 0 0 0
564 188 1 0.5897 2.21219235856635 15.098501631481975 12.015186486745622 0 0 0
895 299 2 -1.1794 0.6645238988210375 15.549817566384634 15.371158943035573 0 0 0
875 292 1 0.5897 0.14985208021272062 17.64547629802673 18.07161638536354 0 0 0
876 292 1 0.5897 0.609267653411026 18.103516801901947 16.703730778021566 0 0 0
874 292 2 -1.1794 0.833275407554835 17.50489504783092 17.416314472903093 0 0 0
882 294 1 0.5897 3.6697888962550618 16.231847903215517 17.651748224641278 0 0 0
880 294 2 -1.1794 3.5461472258977214 17.179832020274006 17.700832569261205 0 0 0
881 294 1 0.5897 2.6068193698695326 17.306589104409912 17.567225137842588 0 0 0
878 293 1 0.5897 4.272093203879251 18.33002162597513 16.313002610767175 0 0 0
897 299 1 0.5897 0.8673856549548613 16.181119203548448 16.061509001699132 0 0 0
891 297 1 0.5897 2.4088619977572643 19.86607113732067 20.27439824660084 0 0 0
877 293 2 -1.1794 4.555731889271172 19.085144231332517 15.797577475071915 0 0 0
873 291 1 0.5897 4.77278266995428 17.94321264474003 18.994111400621655 0 0 0
889 297 2 -1.1794 2.5939733678362042 19.185945676291094 20.92200652339888 0 0 0
887 296 1 0.5897 2.0139585627547807 15.344559840084791 19.77524641018799 0 0 0
218 73 1 0.5897 2.6004559110865055 17.445410236764854 20.884241842501385 0 0 -1
68 23 1 0.5897 8.011355373796382 2.2686577637479997 0.8725576391772805 0 0 0
69 23 1 0.5897 6.538635065198709 1.9904270660234462 1.0863363595867805 0 0 0
67 23 2 -1.1794 7.377479326724986 2.022623234600145 1.5463101282011393 0 0 0
48 16 1 0.5897 7.298501016504841 4.215106312175705 3.9361315085264392 0 0 0
47 16 1 0.5897 7.712679169944504 3.318528157655744 2.7886746924726458 0 0 0
59 20 1 0.5897 9.463199189013116 0.6057033250091687 4.460285905032238 0 0 0
34 12 2 -1.1794 4.936544829654716 2.397257497977073 -0.06773632942100422 0 0 0
46 16 2 -1.1794 8.028107731383285 4.031264474941307 3.344396592303253 0 0 0
28 10 2 -1.1794 6.066511837274311 0.2565698208343876 4.769469452928424 0 0 0
53 18 1 0.5897 9.776581718143662 4.136155322261967 3.2688262764380993 0 0 0
9 3 1 0.5897 5.217988356515877 4.378553619652221 4.484554698362592 0 0 0
29 10 1 0.5897 7.009278476234556 0.4213784822179697 4.752177803673266 0 0 0
273 91 1 0.5897 7.561028944059745 -0.06692649324851199 1.5818663143044112 0 1 0
391 131 2 -1.1794 7.225706739864594 2.018066032528699 8.736530070653759 0 0 0
359 120 1 0.5897 5.6728855740781645 1.6881923640256127 5.8575311886107935 0 0 0
60 20 1 0.5897 8.920387336750673 1.4033621878589382 5.626957260538867 0 0 0
392 131 1 0.5897 7.960489210062523 2.2984156945079706 8.190839359068315 0 0 0
361 121 2 -1.1794 9.18729968070596 2.5513391309056996 6.906233435964182 0 0 0
362 121 1 0.5897 8.984233731964762 3.4283208066458517 6.580636905542945 0 0 0
393 131 1 0.5897 7.188464365899635 1.0686828203234342 8.61967186651358 0 0 0
8 3 1 0.5897 5.8585174729907825 3.707836368583957 5.681154572843802 0 0 0
360 120 1 0.5897 5.8831554790235385 2.2134494855390634 7.26176751208003 0 0 0
358 120 2 -1.1794 5.354112096809612 2.3463630858712 6.475188715168637 0 0 0
7 3 2 -1.1794 5.905664178524756 4.496008946297299 5.1399745037927635 0 0 0
58 20 2 -1.1794 8.797261564118992 0.5840117965070761 5.147539819923482 0 0 0
371 124 1 0.5897 7.428720644819205 3.1643550104896794 10.256662465470313 0 0 0
366 122 1 0.5897 9.83274797928953 1.820930916037009 9.761221374707459 0 0 0
684 228 1 0.5897 5.3160861974273175 3.2087479526058225 13.703224186141117 0 0 0
686 229 1 0.5897 8.777346964851446 2.492880733444799 14.60972304865661 0 0 0
353 118 1 0.5897 6.5086545143151415 0.44748847456274776 12.296521961600106 0 0 0
382 128 2 -1.1794 8.285988564751037 0.719809245065329 12.063845757462785 0 0 0
386 129 1 0.5897 8.580039214118266 4.7564510566418985 13.967880572986113 0 0 0
352 118 2 -1.1794 5.6181594091005485 0.2046369992729355 12.55013518319942 0 0 0
685 229 2 -1.1794 9.032255347277522 2.8772605985036077 13.770947787958045 0 0 0
372 124 1 0.5897 7.228622169331796 3.939882895475767 11.541393008536593 0 0 0
354 118 1 0.5897 5.333426134752979 0.9098660824048843 13.13141707878664 0 0 0
383 128 1 0.5897 8.54288670839815 1.4300313818771222 12.651969933037394 0 0 0
682 228 2 -1.1794 5.114824409918622 2.47409467505147 14.28296891896264 0 0 0
384 128 1 0.5897 8.914846983971296 0.7653283381045585 11.343627380083099 0 0 0
331 111 2 -1.1794 5.675752502799677 4.530650355064772 12.615110736386914 0 0 0
370 124 2 -1.1794 7.760113243391348 3.9176410661168823 10.745610619033126 0 0 0
687 229 1 0.5897 9.979461220751965 2.746932355778911 13.725206635531634 0 0 0
377 126 1 0.5897 9.684597402837612 4.1204937056889595 10.51640608513207 0 0 0
717 239 1 0.5897 6.553505595292753 2.021897064958078 15.535644769413603 0 0 0
676 226 2 -1.1794 5.978005664864121 0.5382191140668154 19.44009186333519 0 0 0
694 232 2 -1.1794 8.261850016198572 3.9556101901014786 17.65662531981286 0 0 0
696 232 1 0.5897 7.833900720232396 4.676385162476308 17.194388098367867 0 0 0
38 13 1 0.5897 9.314144045589273 1.8077786721227946 20.04957501816488 0 0 -1
657 219 1 0.5897 6.712424880902764 4.068735186123366 18.808717926546343 0 0 0
715 239 2 -1.1794 7.334760403665518 1.8105620671427334 16.046754519154796 0 0 0
708 236 1 0.5897 7.866668602220573 0.44837838831792864 18.880658476498457 0 0 0
677 226 1 0.5897 5.627367197956633 1.0284490308113794 18.696451645651482 0 0 0
35 12 1 0.5897 5.402536199519442 1.638852495093146 20.735477540027475 0 0 -1
695 232 1 0.5897 7.82957540313287 3.1681095138829565 17.325988580679788 0 0 0
716 239 1 0.5897 7.293478192501191 0.86177660644516 16.16705157346335 0 0 0
706 236 2 -1.1794 8.818000416878355 0.4823248429338147 18.780353050776665 0 0 0
36 12 1 0.5897 5.3269753214081375 3.1479617921340806 20.640026910817436 0 0 -1
655 219 2 -1.1794 5.9477066514262855 4.424336975040878 19.261501065937495 0 0 0
710 237 1 0.5897 9.236950860382136 4.068143737012622 20.586444071032343 0 0 0
656 219 1 0.5897 5.21942997571271 4.27053769932842 18.65964765766713 0 0 0
37 13 2 -1.1794 9.406016100338974 2.358095952116319 20.82739223911139 0 0 -1
55 19 2 -1.1794 7.406327921288505 6.2519292438264 1.2491833253941478 0 0 0
143 48 1 0.5897 6.010376526421715 9.099815890285349 0.7893654075160732 0 0 0
177 59 1 0.5897 8.010320362847388 9.209542863533942 1.158134187141351 0 0 0
175 59 2 -1.1794 7.486556807049314 8.898206781894823 1.8963763340932895 0 0 0
711 237 1 0.5897 8.60893783874713 5.253187579016747 0.13352207948060224 0 0 1
176 59 1 0.5897 7.3371457599753285 7.971119600088022 1.7106652414211145 0 0 0
56 19 1 0.5897 6.461062991113887 6.281789797049245 1.1013495189484908 0 0 0
57 19 1 0.5897 7.525387342650217 5.562638263422979 1.9026402388550614 0 0 0
142 48 2 -1.1794 5.300672227016851 9.103337799520926 0.14704980697538578 0 0 0
138 46 1 0.5897 6.978994289567719 7.573381325568324 4.870009157065978 0 0 0
166 56 2 -1.1794 8.963536192801298 7.54459796413091 5.027222211121908 0 0 0
145 49 2 -1.1794 9.390716039156713 9.285167281954397 -0.051801421143798626 0 0 0
137 46 1 0.5897 6.033666799495196 6.391759477197554 4.917589734857015 0 0 0
136 46 2 -1.1794 6.048801045075206 7.347538615652254 4.866372201606766 0 0 0
155 52 1 0.5897 7.948161629729698 9.971385622280748 3.2600042298246703 0 0 0
501 167 1 0.5897 6.946634840703197 8.65857601572195 8.476633083042103 0 0 0
471 157 1 0.5897 9.064249831402293 8.871032042885073 7.9839732376493835 0 0 0
380 127 1 0.5897 7.433507189367448 6.586393725331794 8.971586286317116 0 0 0
469 157 2 -1.1794 9.367123316055334 9.153533446254917 7.121011379113495 0 0 0
499 167 2 -1.1794 7.63894627224401 8.581042375562157 9.133059976119249 0 0 0
467 156 1 0.5897 5.822458801567447 8.116013153457978 6.466580881573626 0 0 0
379 127 2 -1.1794 7.152434907398529 5.748948946420685 8.60277932988247 0 0 0
168 56 1 0.5897 8.977276629453819 8.074231010499972 5.8244616156248386 0 0 0
500 167 1 0.5897 7.463728974541376 9.290331802159319 9.751518134648055 0 0 0
61 21 2 -1.1794 9.101984037803188 5.198468547254252 6.555231218516815 0 0 0
63 21 1 0.5897 9.950742411313023 5.456309574320275 6.914958532730768 0 0 0
466 156 2 -1.1794 5.711748544389527 8.610213194933705 7.2788552954132895 0 0 0
338 113 1 0.5897 5.075321473644233 5.511035737239463 8.283948805058895 0 0 0
62 21 1 0.5897 8.471542029840021 5.432322588161045 7.236487802031658 0 0 0
167 56 1 0.5897 8.96009015025063 6.639930657661992 5.340062190401004 0 0 0
381 127 1 0.5897 7.257091454486675 5.123594104211403 9.319901172699177 0 0 0
117 39 1 0.5897 5.935286794533446 9.97678458999439 6.06695945938585 0 0 0
790 264 2 -1.1794 5.294831883269047 9.318444714395023 14.148338337840318 0 0 0
460 154 2 -1.1794 6.012529682095676 7.437200192444192 12.051797335651813 0 0 0
793 265 2 -1.1794 8.766150793817095 9.196757811938312 14.419487765153136 0 0 0
385 129 2 -1.1794 8.58912090768933 5.704920839527042 14.097048902324511 0 0 0
794 265 1 0.5897 8.665827858728035 8.647831106189418 13.641733476183692 0 0 0
462 154 1 0.5897 5.861950641252375 8.06631053196115 12.7573602011752 0 0 0
490 164 2 -1.1794 8.778449864116183 7.731137939761331 12.095438825136153 0 0 0
791 264 1 0.5897 5.51210392026707 9.071076285119087 15.047152120009928 0 0 0
492 164 1 0.5897 7.878983941993992 7.8095806418162015 11.777504325905408 0 0 0
387 129 1 0.5897 8.719505333544893 6.065373662150663 13.219927468348137 0 0 0
461 154 1 0.5897 5.303020106758974 7.599510153312949 11.430102224107705 0 0 0
333 111 1 0.5897 5.866562540125313 5.46659326045253 12.677775633468483 0 0 0
491 164 1 0.5897 9.314523364622307 8.096264686132097 11.391471295026857 0 0 0
705 235 1 0.5897 7.403894371177002 5.833709770916872 15.474742891437744 0 0 0
815 272 1 0.5897 8.96198425869203 6.6674213225238885 19.799769529518272 0 0 0
785 262 1 0.5897 5.931779073832225 6.183351386646046 19.127440865414847 0 0 0
816 272 1 0.5897 9.008460625886897 8.176319984431757 19.915149153860582 0 0 0
784 262 2 -1.1794 6.031622264786329 7.135383259264698 19.1325466697711 0 0 0
824 275 1 0.5897 6.8903790039522885 7.9590562175216935 16.513306583371467 0 0 0
786 262 1 0.5897 6.977166453959932 7.277284609382935 19.178226065164115 0 0 0
814 272 2 -1.1794 8.893849026380135 7.468792151751266 19.280670721812893 0 0 0
823 275 2 -1.1794 6.976205510684494 8.906228678758056 16.40443053661487 0 0 0
704 235 1 0.5897 5.940317130990072 5.78684481719047 15.85912031904611 0 0 0
144 48 1 0.5897 5.4944593912506035 8.363603387027172 20.726586214381488 0 0 -1
703 235 2 -1.1794 6.8195982988908765 5.8457677199603975 16.232838588679538 0 0 0
825 275 1 0.5897 7.64711119602824 9.010438803737454 15.729701327291627 0 0 0
709 237 2 -1.1794 9.34819744738091 5.007627105680777 20.73258222661676 0 0 0
164 55 1 0.5897 6.7676357665357605 12.940587489184164 1.9010365634064028 0 0 0
819 273 1 0.5897 8.718124530826048 12.443251317723995 0.5438519277547585 0 0 1
146 49 1 0.5897 9.394893062930016 10.240529244498772 -0.112128221437003 0 0 0
165 55 1 0.5897 7.831353147333676 12.33088370940005 2.7891488377694786 0 0 0
156 52 1 0.5897 9.164984900323635 10.580643044276863 3.923463376333445 0 0 0
163 55 2 -1.1794 7.689174240524497 13.025192759159786 2.1457146964725444 0 0 0
154 52 2 -1.1794 8.214503939084407 10.671655919403523 3.855820193161076 0 0 0
285 95 1 0.5897 7.9795410081509335 14.820217276426746 2.0241577210063206 0 0 0
246 82 1 0.5897 5.5964936506790215 13.534325079742253 4.7580792040904525 0 0 0
817 273 2 -1.1794 9.273243070260417 12.143712401598334 -0.17614263671850866 0 0 1
275 92 1 0.5897 7.9740075812869655 14.200481847574396 5.058585717025589 0 0 0