LAMMPS data file via write_data, version 30 Jul 2021, timestep = 2500000

864 atoms
2 atom types
576 bonds
1 bond types
288 angles
1 angle types

0.5404097007837674 17.667162699218487 xlo xhi
1.728062515275262 21.901115284728867 ylo yhi
0.6592985727059162 21.553897227289518 zlo zhi

Masses

1 1.00794
2 15.9994

Pair Coeffs # lj/cut/tip4p/long/omp

1 0 0
2 0.21084 3.1668

Bond Coeffs # harmonic/omp

1 450 0.9572

Angle Coeffs # harmonic/omp

1 55 104.52

Atoms # full

649 1 2 -1.1794 4.363177140417684 5.413885345128113 2.11181045695048 2 0 0
542 1 1 0.5897 2.070876893641096 6.714494117876103 0.7492632957958968 -4 0 2
456 1 1 0.5897 1.0205765429958285 4.642305376603595 5.59551487914943 3 0 1
454 1 2 -1.1794 0.9742397895315771 3.686838479735625 5.561857133071765 3 0 1
48 1 1 0.5897 4.283932914093668 5.6485245877330765 5.441578496082716 2 -2 -1
566 1 1 0.5897 2.720291427448025 6.13365195643774 2.4575596283577728 0 6 -6
861 1 1 0.5897 2.4134344609008043 2.7698521727725782 1.8315521613740082 0 -3 1
860 1 1 0.5897 3.6838392944631435 2.0569240453130755 1.4197484617308493 0 -3 1
565 1 2 -1.1794 1.959905304682865 6.613851364735747 2.7852933935544737 0 6 -6
555 1 1 0.5897 4.7468449169378495 3.530686169998399 4.448085100019872 -3 -6 3
46 1 2 -1.1794 4.783951998864265 6.4633389573130495 5.394247299972035 2 -2 -1
554 1 1 0.5897 4.515207087152193 2.9041658584796153 3.089534376263686 -3 -6 3
173 1 1 0.5897 2.6908593420385865 3.763196221958619 5.6950780539388965 3 3 -2
651 1 1 0.5897 4.57485780894142 5.14989910596544 1.2164390535235179 2 0 0
801 1 1 0.5897 0.9607421939648707 1.7486509637760201 4.584299919174073 0 0 2
121 1 2 -1.1794 1.351155776569531 6.369577961293163 5.648618627444416 2 -2 0
859 1 2 -1.1794 3.094927625519634 2.1853105155584056 2.163307632253476 0 -3 1
172 1 2 -1.1794 3.6210145328732275 3.9601072762471055 5.805723253243555 3 3 -2
567 1 1 0.5897 2.147890184913323 6.7568201011182385 3.712875754057949 0 6 -6
713 1 1 0.5897 2.417582013774334 6.7331287692865125 10.268911035701716 -5 -1 2
174 1 1 0.5897 3.739535956649297 4.034593355765984 6.752615029035906 3 3 -2
714 1 1 0.5897 1.374767532260482 5.63579159008769 10.254141997063329 -5 -1 2
435 1 1 0.5897 1.914411272179107 2.2767865569725685 10.883968671879913 0 3 -1
455 1 1 0.5897 0.5898070354711705 3.4355169114244495 6.401674552248118 3 0 1
138 1 1 0.5897 3.4596123288269336 4.793412625404682 9.5117115694126 5 -6 2
239 1 1 0.5897 4.034677911276118 2.7677995297447002 8.791603056430631 -6 -4 -2
238 1 2 -1.1794 3.8728830369629197 1.9989886489914293 8.244854951312819 -6 -4 -2
136 1 2 -1.1794 4.268754927138771 4.311083616827464 9.341854051644118 5 -6 2
712 1 2 -1.1794 2.0835760314742613 6.013456136070606 9.733421952561262 -5 -1 2
275 1 1 0.5897 4.37281264865486 6.617134283499523 8.884295031455263 -3 4 -2
681 1 1 0.5897 2.6424114828291456 5.788863630961489 12.80375839883466 -7 -5 0
780 1 1 0.5897 1.1892443543254316 2.902517456484424 12.889216858390641 -3 0 0
434 1 1 0.5897 3.24709612472172 2.2128443938191857 11.599246271844294 0 3 -1
733 1 2 -1.1794 1.804455617945831 3.2581956050982486 15.905848199125051 1 0 -3
302 1 1 0.5897 2.5624372890526983 1.8044881943316686 15.353133423744076 -2 2 7
680 1 1 0.5897 2.8613022072329914 4.468610360440971 12.096093317467236 -7 -5 0
433 1 2 -1.1794 2.456843302442934 2.746678000537666 11.517332129007437 0 3 -1
679 1 2 -1.1794 3.2682894908049143 5.320991600809185 12.250980762347567 -7 -5 0
206 1 1 0.5897 4.697773607559052 4.661730957691342 13.363592143322204 -5 4 -4
779 1 1 0.5897 0.9512646930941014 3.5622125655968304 14.230837124379695 -3 0 0
475 1 2 -1.1794 1.0902482429247615 6.6852556273897665 13.39747312067401 5 -4 -1
735 1 1 0.5897 1.010444775861994 2.906394137664892 16.308375105634234 1 0 -3
250 1 2 -1.1794 2.23515913759811 5.525571389772675 17.850001393624204 6 -4 2
252 1 1 0.5897 2.2600044635011765 5.051984817150137 18.681431628755405 6 -4 2
384 1 1 0.5897 3.5726903171719435 2.5539621381381754 19.210585583226674 -9 -2 -3
308 1 1 0.5897 1.4882342552070151 3.534298209395814 20.092935919589074 0 5 -2
307 1 2 -1.1794 2.3883799680279836 3.7499474316367443 20.33680008563666 0 5 -2
309 1 1 0.5897 2.370209621748355 4.690354735915255 20.51431510615891 0 5 -2
789 1 1 0.5897 3.957708078641799 2.710764354348977 16.76994101849921 3 -1 5
734 1 1 0.5897 2.06427536646888 3.9799438087295345 16.47838354037858 1 0 -3
636 1 1 0.5897 4.068394786118411 5.888149715617295 17.61430862702411 -7 0 2
251 1 1 0.5897 1.558065856391343 6.190864346008345 17.97291426786653 6 -4 2
541 1 2 -1.1794 2.0560929459340453 6.425777818072388 20.73137236969533 -4 0 1
543 1 1 0.5897 1.227237075306561 6.7589785336061174 20.387633791527414 -4 0 1
382 1 2 -1.1794 3.4356588518057602 1.8526263707527009 18.57377032227958 -9 -2 -3
787 1 2 -1.1794 4.692789262135433 3.1487395824925892 16.340964083935596 3 -1 5
472 1 2 -1.1794 3.118738212582741 9.267844644043304 1.7262501255671572 0 1 -3
358 1 2 -1.1794 3.773242107490047 8.730166354158916 4.22910349859365 3 -1 -5
539 1 1 0.5897 2.8299448641626186 9.66790780086297 5.2903466286801395 -1 -5 1
538 1 2 -1.1794 2.24528459083142 10.226162637769919 5.802892484057229 -1 -5 1
473 1 1 0.5897 3.306570595030746 8.821193157540144 2.551744623240562 0 1 -3
360 1 1 0.5897 4.235960779075439 7.925429806365963 4.462618338753008 3 -1 -5
359 1 1 0.5897 4.426096940048367 9.421956794095689 4.335810669583388 3 -1 -5
474 1 1 0.5897 3.9786842917115965 9.41837555310666 1.3337551953129476 0 1 -3
261 1 1 0.5897 2.5055753568954007 10.929052470210536 2.2242334855077903 2 -3 6
222 1 1 0.5897 0.71108689363693 10.595930058242846 4.869165569322138 3 -5 3
548 1 1 0.5897 1.3898407398146704 9.297085992135347 0.9825691672086618 3 0 6
260 1 1 0.5897 1.4003882358167967 11.44673805004913 3.1199597978552243 2 -3 6
123 1 1 0.5897 0.5415555978362718 6.860197431829685 5.507113191927504 2 -2 0
259 1 2 -1.1794 2.063869516476456 11.734572187873411 2.4929613165899926 2 -3 6
125 1 1 0.5897 3.2041972664167573 8.83194225364567 9.54897493856228 0 0 1
141 1 1 0.5897 2.3054996271865997 8.9186701503852 6.920099061572524 -2 -3 -1
122 1 1 0.5897 1.8797896743749896 6.935891426019359 6.210807810687428 2 -2 0
140 1 1 0.5897 1.5985961122724812 8.57426150621664 8.213743939534504 -2 -3 -1
126 1 1 0.5897 4.039785262750561 8.497522563255647 10.766246964411149 0 0 1
139 1 2 -1.1794 2.324160295714318 8.302008107502491 7.651936826266495 -2 -3 -1
540 1 1 0.5897 2.756186145951991 11.017810612620249 5.971590005300431 -1 -5 1
124 1 2 -1.1794 3.150947916379643 8.43230835008271 10.417101636796316 0 0 1
179 1 1 0.5897 1.024693853123508 10.806544133405938 9.330622329421747 -7 1 -1
178 1 2 -1.1794 0.6798397995894792 9.92712538968996 9.48514688707152 -7 1 -1
63 1 1 0.5897 4.649678219712834 10.252146779945438 7.186503501430819 -2 0 4
180 1 1 0.5897 0.7560597774312143 9.802247324300014 10.431076240179099 -7 1 -1
118 1 2 -1.1794 1.0998932045932222 9.337988302858626 12.122475540597604 4 -3 -2
265 1 2 -1.1794 2.594457512614374 8.487992714481642 14.861231898999595 -2 -1 -1
266 1 1 0.5897 2.7939674912442602 9.197233850202934 14.250187185853555 -2 -1 -1
477 1 1 0.5897 1.6233634070192822 7.228272789127133 13.978074158365864 5 -4 -1
119 1 1 0.5897 0.7412926830480093 8.48031336730583 12.350636933419915 4 -3 -2
267 1 1 0.5897 3.3315321623591583 8.48295704605191 15.471929003077495 -2 -1 -1
827 1 1 0.5897 2.839808133522906 11.008589496110604 12.741989436164085 1 1 2
826 1 2 -1.1794 3.576869108016552 10.705129690701384 13.271931992274434 1 1 2
828 1 1 0.5897 4.242561008634469 10.44978542732647 12.633307575815882 1 1 2
742 1 2 -1.1794 2.5362131194057627 11.380045987247623 15.957711301010631 -1 -1 1
744 1 1 0.5897 2.9341503418192985 11.382492386019944 15.087166863582807 -1 -1 1
120 1 1 0.5897 1.9678169375843115 9.148226273482956 11.766183407515237 4 -3 -2
752 1 1 0.5897 1.0017023968345447 9.190437924563176 15.728973502994135 2 2 0
500 1 1 0.5897 4.7067171723537085 6.776328156181499 12.070323852424735 -1 -1 -3
732 1 1 0.5897 2.3832345631155327 11.42460998304472 19.481104806374262 1 1 -5
54 1 1 0.5897 1.3043201490405878 9.773887713501853 17.79702737456192 -4 -2 3
831 1 1 0.5897 4.396113426283358 7.206789585825677 19.141412759139143 6 3 3
53 1 1 0.5897 2.3967311583019377 9.158643275477363 18.645500418896745 -4 -2 3
829 1 2 -1.1794 3.894496535229212 7.940985891156404 19.495703461948786 6 3 3
52 1 2 -1.1794 1.6441495828344632 9.748296228322284 18.691488178270014 -4 -2 3
830 1 1 0.5897 3.185747701690846 7.530554674564048 19.99109291569163 6 3 3
743 1 1 0.5897 3.278767212614946 11.349053584506416 16.560905056730064 -1 -1 1
340 1 2 -1.1794 4.564666833719212 11.139951185613995 17.946102526897327 3 4 2
616 1 2 -1.1794 4.63418729805119 8.666153937934167 16.647426334153067 -1 3 0
341 1 1 0.5897 4.444064896141587 10.191118688273987 17.90932057367985 3 4 2
432 1 1 0.5897 0.6523154154962234 11.766562520395334 20.54877963846497 -5 -1 -2
547 1 2 -1.1794 0.5566283630618113 9.10455127832885 21.447165866930746 3 0 5
319 1 2 -1.1794 4.741145899576409 16.545715506539924 1.8927568259306256 1 -3 2
412 1 2 -1.1794 2.4938282580252107 14.466853207801547 2.6332522308261863 1 -2 3
841 1 2 -1.1794 4.245989453439634 16.78171895987741 5.164909489127432 0 2 1
413 1 1 0.5897 2.368607184929914 13.523255563595054 2.7338762748000973 1 -2 3
777 1 1 0.5897 3.979929520201368 15.01074231227006 5.448223590760946 4 -3 2
320 1 1 0.5897 4.1928997659331895 15.816001780130254 2.1810638329880074 1 -3 2
414 1 1 0.5897 1.6936952003121906 14.854303052689335 2.988083306299444 1 -2 3
775 1 2 -1.1794 3.8631568075214378 14.077532969269575 5.270247942935409 4 -3 2
248 1 1 0.5897 2.0313584644555247 14.995166892760306 0.9257789869222458 -3 2 -2
489 1 1 0.5897 1.9172383648582974 13.674762758204507 5.35946845488506 2 -6 3
776 1 1 0.5897 4.234997831521817 13.951339828961833 4.397322450177532 4 -3 2
597 1 1 0.5897 1.1748802621556633 16.23254187072898 5.50698269790056 3 -4 1
704 1 1 0.5897 0.9788607222702571 12.824133764017486 7.65042941897458 2 -3 -1
347 1 1 0.5897 2.0727973036544394 15.429123371407712 8.821842917049365 -4 3 -3
851 1 1 0.5897 2.9803359516132066 12.209671285269525 7.481305200679267 -5 1 -2
703 1 2 -1.1794 1.2930398231557847 12.553782817248068 8.513216452703887 2 -3 -1
487 1 2 -1.1794 1.153229591971669 13.616079391908357 5.933085110969424 2 -6 3
346 1 2 -1.1794 1.4325376216090595 15.240918213881397 9.508017580621823 -4 3 -3
705 1 1 0.5897 1.0853835792933455 13.291768025562709 9.086316149548962 2 -3 -1
488 1 1 0.5897 0.8153802978897817 14.51072457293563 5.9750217404361585 2 -6 3
348 1 1 0.5897 0.600566272171005 15.552790173389326 9.152005107560482 -4 3 -3
850 1 2 -1.1794 3.8954991838063613 12.058655521622097 7.244826824245639 -5 1 -2
81 1 1 0.5897 4.440744421994246 16.10323214593987 7.659527320074603 1 0 -4
595 1 2 -1.1794 0.9775550323070632 16.251788729282374 6.4433974650810395 3 -4 1
852 1 1 0.5897 4.12351773238194 12.799276867711972 6.682983746648121 -5 1 -2
79 1 2 -1.1794 3.6606128708061396 16.335197213865754 8.163279099259896 1 0 -4
656 1 1 0.5897 4.007740117543111 14.256662407888578 10.619210291916897 -2 1 -1
156 1 1 0.5897 1.855702609681646 16.615596344075335 11.082094408804746 4 3 -5
596 1 1 0.5897 1.8101222801998367 16.475008402687955 6.859550857662568 4 -4 1
186 1 1 0.5897 1.540500070758808 13.223508330346796 13.327575979444465 0 6 3
655 1 2 -1.1794 3.619602455203172 14.665631426491059 11.392715388292222 -2 1 -1
551 1 1 0.5897 4.4483894712025105 13.524404660750275 12.598957883139738 -1 6 -4
417 1 1 0.5897 1.7892654760847138 14.161647540159871 14.930298277430063 -1 -2 -2
544 1 2 -1.1794 3.4201323610070276 14.705206750704743 15.124445021775422 -4 3 4
185 1 1 0.5897 2.3775627717639782 13.391605486533575 12.077442835973432 0 6 3
552 1 1 0.5897 4.5278726422690525 12.29546467348248 13.479390056284622 -1 6 -4
184 1 2 -1.1794 1.9014318604602276 12.736067471777961 12.587097919590695 0 6 3
545 1 1 0.5897 4.08540656091464 14.299220328372664 14.56873619175971 -4 3 4
415 1 2 -1.1794 0.886815898566941 13.97447812038968 14.671976272571007 -1 -2 -2
356 1 1 0.5897 3.1518912659716594 16.503102243013352 14.234381344524618 2 -2 4
657 1 1 0.5897 4.008137245587754 15.539900296900187 11.422423220083349 -1 1 -1
546 1 1 0.5897 3.730755043158722 14.557402292900374 16.017669143705366 -4 3 4
533 1 1 0.5897 1.0843350891053682 16.779396676360722 16.310273275402647 -8 -2 -3
237 1 1 0.5897 1.3858652166710181 13.206008160214559 16.89158592738162 1 -2 -4
731 1 1 0.5897 2.2120905984841626 12.887495436651328 19.131187251186766 1 1 -5
730 1 2 -1.1794 2.3252084622853033 12.295242262810588 19.874573701426613 1 1 -5
663 1 1 0.5897 4.069712514143973 14.639156851439283 18.583812188835594 -4 -4 0
249 1 1 0.5897 3.0062631922537837 15.412107684924901 20.739762290083455 -3 2 -3
661 1 2 -1.1794 4.374085014348513 14.2749708371095 17.752606453453772 -4 -4 0
299 1 1 0.5897 2.143114042427669 15.737871929455753 18.01646252552527 -3 0 0
675 1 1 0.5897 3.8803201544422024 12.688561796566864 20.9198660485934 -3 -1 -3
247 1 2 -1.1794 2.0771024795646387 15.430269338374918 20.96898279595775 -3 2 -3
298 1 2 -1.1794 1.9981013258137923 16.683972140070846 18.023372229522906 -3 0 0
235 1 2 -1.1794 1.3810448577506271 13.742679950728723 17.68414385425283 1 -2 -4
662 1 1 0.5897 4.642960394998971 13.381511343863872 17.966178156937424 -4 -4 0
673 1 2 -1.1794 4.7797730952917945 12.59628406048709 21.23394868922064 -3 -1 -3
300 1 1 0.5897 1.13427737929008 16.79145802157214 18.421419174412968 -3 0 0
328 1 2 -1.1794 4.643179734776025 15.896407377207026 20.023872832557323 6 5 0
330 1 1 0.5897 4.416939607081224 16.77432965910172 19.716878170635198 6 5 0
236 1 1 0.5897 0.5786202639020065 13.489575380075694 18.14047852455402 1 -2 -4
686 1 1 0.5897 4.700880499564753 19.571667752312038 2.9817061201206356 8 -8 -2
626 1 1 0.5897 2.465708440574702 18.989695244892566 4.111562703386243 -5 -2 3
625 1 2 -1.1794 2.142558725913293 18.242426631721077 4.614897374688535 -5 -2 3
799 1 2 -1.1794 1.470796126311136 21.164737968154363 4.296152841227069 0 -1 2
100 1 2 -1.1794 0.8234718793411091 17.91322840956175 0.7024592445420716 6 -5 -1
800 1 1 0.5897 2.117867020102642 21.527537555004734 3.6912932027907535 0 -1 2
627 1 1 0.5897 1.8644341871612973 18.617964886154404 5.4502439046459275 -5 -2 3
583 1 2 -1.1794 4.6782546548044435 20.387943819797893 4.644346985622202 2 -5 1
842 1 1 0.5897 3.4713186729602428 17.09582219006635 4.698639368753883 0 2 1
687 1 1 0.5897 4.42469335263559 18.33502981416599 2.1533159651792158 8 -8 -2
685 1 2 -1.1794 4.296729755759006 19.283563799394212 2.163269960071561 8 -8 -2
12 1 1 0.5897 3.092396336695553 20.22418807392609 0.7758907696887528 -3 1 6
101 1 1 0.5897 1.3158746161467878 17.092856319105188 0.7297764268259139 6 -5 -1
354 1 1 0.5897 0.6949219912160017 17.088851345896217 3.3773951404262577 5 3 0
240 1 1 0.5897 3.1102119874258505 21.75143894253824 8.641851483986876 -6 -5 -2
378 1 1 0.5897 1.3794613764960038 20.6199317796501 9.514003308977074 3 3 3
80 1 1 0.5897 3.6734044945496427 17.29166003213495 8.19862131446392 1 0 -4
375 1 1 0.5897 3.7640564189162258 19.156019199943184 9.42168011687482 4 6 -1
572 1 1 0.5897 0.9352838369636124 18.765370561170684 10.78062786206159 2 -4 -4
373 1 2 -1.1794 4.02542876693225 19.056146987113383 8.506296470252769 4 6 -1
629 1 1 0.5897 1.143858880654638 19.741871200689275 6.82169532966821 -3 -4 3
628 1 2 -1.1794 2.089450754941079 19.827668038186797 6.700536097102704 -3 -4 3
374 1 1 0.5897 3.310973364777375 19.45300699532924 8.00804321130204 4 6 -1
376 1 2 -1.1794 1.4944175927283658 21.566163571364907 9.426687102502374 3 3 3
571 1 2 -1.1794 0.8377232585208422 19.067032890133 9.877483142700202 2 -4 -4
377 1 1 0.5897 1.115098581619654 21.776264400178107 8.573359079781799 3 3 3
630 1 1 0.5897 2.185337230883687 20.51006916385993 6.036219432426334 -3 -4 3
405 1 1 0.5897 4.607546367979462 16.89216438868779 9.956783662817212 6 -3 0
318 1 1 0.5897 1.7479969855941635 20.917919445280205 13.432916551593951 -2 -6 1
303 1 1 0.5897 2.981614360906405 20.524250729090383 15.289363278498092 -2 1 7
155 1 1 0.5897 1.9331912900503505 17.231502935341553 12.462829210856908 4 3 -5
357 1 1 0.5897 2.9436786629773133 17.967394933208055 14.557402640371205 2 -2 4
304 1 2 -1.1794 2.790050544792981 18.988802601373408 16.1226122865515 4 -4 -6
582 1 1 0.5897 4.280147358367091 18.740883187179286 11.475830045806294 -3 -1 0
580 1 2 -1.1794 3.6838830008525103 19.46240008236008 11.275555641039109 -3 -1 0
316 1 2 -1.1794 1.290386587146703 20.30874400071418 12.85352945099907 -2 -6 1
317 1 1 0.5897 1.9885946503604344 19.80511362960311 12.435140202112036 -2 -6 0
581 1 1 0.5897 4.203166064441742 20.252047978290896 11.42725784110741 -3 -1 0
154 1 2 -1.1794 1.3205947886296971 17.03992907738424 11.752756044791031 4 3 -5
355 1 2 -1.1794 3.0622016582008924 17.36335408942721 13.824369625372265 2 -2 4
301 1 2 -1.1794 2.9742695863589663 21.33310233851352 14.777564990728179 -2 1 7
11 1 1 0.5897 1.8872166588981014 20.72424504056861 20.902855594744715 -3 1 5
503 1 1 0.5897 2.064225674913021 20.848841757875714 18.482543620789833 -2 -1 3
10 1 2 -1.1794 2.589248858890655 20.074426944018587 20.870111553322104 -3 1 5
351 1 1 0.5897 3.1592540536765816 17.811219884785455 18.59709107628231 -9 -1 -3
350 1 1 0.5897 3.536582529581933 18.855607284515248 19.626026528233602 -9 -1 -3
502 1 2 -1.1794 1.2820704835058607 20.35441551312827 18.2376892626883 -2 -1 3
383 1 1 0.5897 4.209828894966197 21.469305957617046 18.6592359491881 -9 -3 -3
305 1 1 0.5897 2.1185768159829776 19.316642432032598 16.720822687815954 4 -4 -6
504 1 1 0.5897 0.7763770298988216 20.28866617077333 19.047707204900284 -2 -1 3
349 1 2 -1.1794 3.908683127830477 18.293266211668 18.94668732241982 -9 -1 -3
102 1 1 0.5897 1.4699018716055714 18.572921297096386 21.345691280998764 6 -5 -2
306 1 1 0.5897 3.481229936677298 18.657579301263162 16.69598875640053 4 -4 -6
55 1 2 -1.1794 7.317996229614148 3.669122413195048 1.8720924459181971 -3 2 2
47 1 1 0.5897 5.680244237717444 6.184352725226566 5.2070603166753555 2 -2 -1
761 1 1 0.5897 8.00736165665553 6.0420904003995215 4.087823075487455 2 -1 0
760 1 2 -1.1794 7.516158692835585 6.153027797006444 4.901828452471371 2 -1 0
23 1 1 0.5897 5.966389519390145 1.7854369971791715 1.1953128774097443 -5 4 1
497 1 1 0.5897 7.811262778510795 4.358915141164946 5.303996098164431 -2 0 3
56 1 1 0.5897 7.710111905967128 4.53204709096439 2.0055840566587486 -3 2 2
57 1 1 0.5897 6.902374907104263 3.4622831846640985 2.7091618916516973 -3 2 2
689 1 1 0.5897 8.96432182346184 2.1350208458504256 4.268103985671512 2 -2 5
553 1 2 -1.1794 5.196218132663075 3.2961763943696463 3.6361346420799197 -3 -6 3
498 1 1 0.5897 7.42136533709076 2.89811894187489 5.380734417489712 -2 0 2
496 1 2 -1.1794 8.135565234424035 3.4780790900009655 5.116541556357815 -2 0 3
650 1 1 0.5897 4.823013205611746 4.781222588107314 2.663597556186525 2 0 0
748 1 2 -1.1794 7.692154417033606 2.431819347632592 10.478643035784572 0 5 -1
837 1 1 0.5897 5.626699072635302 4.445303921841148 8.280624616538159 -1 0 1
835 1 2 -1.1794 6.3281260927226 4.391676048357212 7.631519145698932 -1 0 1
609 1 1 0.5897 7.865518183441439 5.349391058510932 7.9293695494315966 5 2 3
749 1 1 0.5897 8.515341976921011 2.7216351043959004 10.085454612071146 0 5 -1
836 1 1 0.5897 6.150526402183061 3.5821661833832823 7.152613286879587 -1 0 1
607 1 2 -1.1794 8.764620249197469 5.6636616459828755 8.024498839112907 5 2 3
750 1 1 0.5897 7.277058833369315 1.8986412021157186 9.800667657316511 0 5 -1
137 1 1 0.5897 4.84700387360605 4.549818175010282 10.066299391048455 5 -6 2
191 1 1 0.5897 5.297184915208553 2.011098034735503 6.464829642660435 2 5 -5
190 1 2 -1.1794 6.233806484794465 1.9457911760324784 6.27866690859412 2 5 -5
98 1 1 0.5897 7.122025903426393 4.178620702668528 10.712800028238243 5 -6 5
276 1 1 0.5897 5.186935354028074 6.57947340618096 7.6084952730530375 -3 4 -2
97 1 2 -1.1794 6.562263938333129 4.860444164648475 11.084322504355377 5 -6 5
511 1 2 -1.1794 6.631049351104012 5.962495834937946 15.891415907284005 -1 2 -5
809 1 1 0.5897 8.544657104063702 5.357846519150414 15.853470850462442 4 0 -2
400 1 2 -1.1794 7.881665642408626 2.4928725902369693 15.303937733556292 -2 -1 1
207 1 1 0.5897 5.232251473461017 3.7322182586684796 14.432287574300004 -5 4 -4
756 1 1 0.5897 5.647890948713751 1.8823635331032513 11.170253083796576 -4 -2 -4
99 1 1 0.5897 6.337503630643188 4.53735535417225 11.956840387153779 5 -6 5
701 1 1 0.5897 8.982140280737509 2.8870087099378168 12.39283444793577 2 0 2
512 1 1 0.5897 6.2544251385858 5.421653090815905 15.197278237918685 -1 2 -5
402 1 1 0.5897 8.290646260285026 2.73390011558475 14.472780023314716 -2 -1 1
205 1 2 -1.1794 5.510886441320957 4.291996193545262 13.707586000369032 -5 4 -4
719 1 1 0.5897 7.499264207373766 6.292892722345932 11.38007656515125 4 4 1
795 1 1 0.5897 7.883840664080416 3.397614112157008 18.297491381637997 -5 3 4
793 1 2 -1.1794 7.023879485972935 3.3017674308489573 17.88827502272664 -5 3 4
788 1 1 0.5897 5.266594487949152 3.414095771537502 17.059660159082483 3 -1 5
635 1 1 0.5897 5.535259826828661 5.715996380982234 17.28193930480797 -7 0 2
130 1 2 -1.1794 5.571220418596853 4.30475659054373 20.33441294733813 -4 1 0
794 1 1 0.5897 7.21508617781773 3.073402440857101 16.978622782374423 -5 3 4
211 1 2 -1.1794 7.552848920025597 6.395248755352252 20.60431188055106 3 1 1
256 1 2 -1.1794 8.712044000876247 3.6302709130704294 20.22572002337195 -1 -1 -1
258 1 1 0.5897 8.448712227517674 3.4605378738255617 21.130172863258636 -1 -1 -1
212 1 1 0.5897 8.470925470457674 6.1278954509657 20.561457502831317 3 1 1
131 1 1 0.5897 6.509058758988527 4.3729673263712945 20.51328472504766 -4 1 0
132 1 1 0.5897 5.448737632231264 4.778385017544284 19.511668024964173 -4 1 0
24 1 1 0.5897 5.416715475942876 2.737109407095363 21.048786442918953 -5 4 0
22 1 2 -1.1794 5.296298186293494 1.8590908558008175 21.410403463035962 -5 4 0
634 1 2 -1.1794 4.94273023346857 5.935467900552208 18.00093304412445 -7 0 2
263 1 1 0.5897 7.712788790570417 9.32829293405445 4.968059840252473 5 -3 5
648 1 1 0.5897 7.597303718804306 8.884220282256576 2.6244513227084028 -7 0 -2
345 1 1 0.5897 5.754033867599039 9.148411247109628 0.6985814515340962 -4 1 -1
647 1 1 0.5897 6.929952229753284 9.938927360630853 3.4812034380531243 -7 0 -2
233 1 1 0.5897 7.896468440946582 11.08265849039334 1.7889503479514686 -3 1 0
646 1 2 -1.1794 7.785552127128272 9.655725215513062 3.1588047174261233 -7 0 -2
232 1 2 -1.1794 8.134538260034137 11.392558106491919 0.9151745214757727 -3 1 0
762 1 1 0.5897 7.830591463701188 6.982820417078759 5.260656926435036 2 -1 0
825 1 1 0.5897 5.755397783412369 11.149882637534194 4.854265696210789 -1 2 3
823 1 2 -1.1794 5.389882947927579 10.889788544113562 4.008709916738432 -1 2 3
526 1 2 -1.1794 6.297373423533025 7.471254403370927 1.8244859556254314 -1 -4 1
262 1 2 -1.1794 7.770978268453952 8.796241383893365 5.761625789564096 5 -3 5
528 1 1 0.5897 6.823051049850305 7.036721052137746 1.1528968222588118 -1 -4 1
231 1 1 0.5897 8.062878647082066 11.76074938876529 5.411918572632922 3 4 2
527 1 1 0.5897 5.6609807771477385 6.809954185225339 2.096265215289554 -1 -4 1
824 1 1 0.5897 5.3209832467450635 11.707171603162742 3.5154019424275305 -1 2 3
133 1 2 -1.1794 7.569469096761841 7.973090402010887 8.83779444482345 2 -7 -1
142 1 2 -1.1794 5.414889363913227 10.515964574371557 11.053462919514189 1 3 2
490 1 2 -1.1794 8.217620954603715 10.900473542292357 8.538307202719125 0 4 4
491 1 1 0.5897 8.079470681629967 9.961307571305571 8.661042643682487 0 4 4
134 1 1 0.5897 7.867624644403973 7.123510763555817 8.51299183867141 2 -7 -1
135 1 1 0.5897 6.620044100122581 7.956280304628103 8.717432399956142 2 -7 -1
144 1 1 0.5897 5.921732078434613 9.752785446741417 10.77624460846225 1 3 2
143 1 1 0.5897 6.018713821455515 11.252529628892185 10.958310335917883 1 3 2
62 1 1 0.5897 5.120304872165046 8.822553795835873 7.349524837217659 -2 0 4
264 1 1 0.5897 7.004973970503499 9.049177245367597 6.276836062882919 5 -3 5
230 1 1 0.5897 7.527554446566686 11.703789227627189 6.826841450321116 3 4 2
61 1 2 -1.1794 5.265334842746376 9.612474068085966 6.828772544260522 -2 0 4
274 1 2 -1.1794 4.91805354487647 7.163145633652275 8.317936920269046 -3 4 -2
720 1 1 0.5897 8.431946052298763 7.441937879672473 11.061299451523373 4 4 1
708 1 1 0.5897 7.021833874085683 8.926541757330288 14.460323988374899 -1 -1 -7
398 1 1 0.5897 8.466894918260495 10.619511258301701 13.638901261173373 4 3 -5
707 1 1 0.5897 6.111243699209747 8.042871600612955 13.634666789990462 -1 -1 -7
718 1 2 -1.1794 7.773688131844332 7.154485239219158 11.693988994111 4 4 1
706 1 2 -1.1794 6.375274267747973 8.224877118396098 14.53652123793975 -1 -1 -7
499 1 2 -1.1794 5.169972282801219 7.613927522834983 12.070100826500234 -1 -1 -3
397 1 2 -1.1794 8.402755962292499 9.915213278279548 14.283904397054865 4 3 -5
513 1 1 0.5897 6.729042238052318 6.82809261370474 15.494705580355234 -1 2 -5
501 1 1 0.5897 6.060184010235928 7.395746483786555 11.794189347853418 -1 -1 -3
617 1 1 0.5897 5.261665807782354 8.574713565518376 15.93042479440786 -1 3 0
725 1 1 0.5897 8.043142024434578 10.266420327346161 16.008915275583 2 -5 3
674 1 1 0.5897 4.971265744957997 11.66290951416188 21.14268656504911 -3 -1 -3
726 1 1 0.5897 8.724626914839478 10.584832756931172 17.322678245564887 2 -5 3
757 1 2 -1.1794 7.444131393140993 8.439234353688848 18.94534183470134 0 1 1
758 1 1 0.5897 7.247638713838201 9.18935442325233 18.38417404157108 0 1 1
759 1 1 0.5897 8.037875613780491 8.786500761652931 19.6109756691407 0 1 1
724 1 2 -1.1794 7.860832872457815 10.498891218293554 16.919372717109 2 -5 3
618 1 1 0.5897 4.849553396151217 7.952076803533605 17.247340805332776 -1 3 0
343 1 2 -1.1794 5.362176637730228 9.841063068404118 21.061336074018158 -4 1 -2
213 1 1 0.5897 7.483731240544596 7.117197720964417 19.97965943962015 3 1 1
344 1 1 0.5897 4.915390002761773 9.376553268972685 20.35366669517085 -4 1 -2
189 1 1 0.5897 8.763013397493948 9.740795081355682 21.227051938577837 -2 3 0
519 1 1 0.5897 8.860687183563991 7.579426384547837 17.857149180273822 -2 -1 -5
342 1 1 0.5897 5.370123519714567 11.298725986203566 17.453895099221235 3 4 2
523 1 2 -1.1794 7.894443410567436 13.821541705901689 2.0716915733283514 1 0 3
217 1 2 -1.1794 8.084217464921059 14.39298831309287 5.292912621699466 2 -1 -2
525 1 1 0.5897 8.625005454176224 13.977219219382997 2.670220530722855 1 0 3
444 1 1 0.5897 6.405157470998398 13.714364609009738 3.0262047129502117 7 4 0
849 1 1 0.5897 6.999183860514624 15.778967145572459 4.267841736701421 4 -1 5
418 1 2 -1.1794 7.826774482744857 16.57230443944087 0.8528754156129926 -7 -4 8
234 1 1 0.5897 8.107508597031828 12.346922634108902 0.9833994188037853 -3 1 0
219 1 1 0.5897 9.008619890526402 14.521126621029607 5.5056645426271995 2 -1 -2
848 1 1 0.5897 6.228163077773841 16.420286377963226 3.1338187940787225 4 -1 5
847 1 2 -1.1794 6.749923424606146 16.63031061858858 3.9083129400972862 4 -1 5
442 1 2 -1.1794 5.469408176703952 13.530004968792186 3.107209977733052 7 4 0
524 1 1 0.5897 7.781594914719498 14.652163863074064 1.6096016909375186 1 0 3
419 1 1 0.5897 8.346839379497887 16.828767911132722 1.614421719280021 -7 -4 8
218 1 1 0.5897 7.921287185772228 13.46817031720918 5.478303508930462 2 -1 -2
843 1 1 0.5897 4.943439640098921 16.79769081774173 4.5095548146890465 0 2 1
321 1 1 0.5897 4.9295143456597 16.355862857990374 0.9737079547865237 1 -3 2
443 1 1 0.5897 5.1812185076864115 13.353338827917662 2.2117112082132055 7 4 0
520 1 2 -1.1794 6.336516419370301 15.33451552742891 7.409003020273918 -5 -1 -1
111 1 1 0.5897 5.990781821706694 13.535436031478476 9.989628094912826 -1 -2 -8
229 1 2 -1.1794 7.276496116377397 11.92902495264289 5.9310267635322855 3 4 2
765 1 1 0.5897 8.489304974719124 15.891508264181928 10.072041322315489 -5 0 -4
109 1 2 -1.1794 5.294260053816276 13.623562932632632 9.339026101980572 -1 -2 -8
522 1 1 0.5897 6.076023857253156 14.70593204528427 8.082215295251828 -5 -1 -1
521 1 1 0.5897 6.674595590465965 14.79465473753973 6.694544484271121 -5 -1 -1
110 1 1 0.5897 5.248065531158263 12.76466970362488 8.919071403531293 -1 -2 -8
763 1 2 -1.1794 7.8359590404272925 16.267811137310886 10.661720920971725 -5 0 -4
568 1 2 -1.1794 8.802269649709505 16.756286990060786 7.53955778425049 0 -1 -1
643 1 2 -1.1794 7.322772899478831 12.451100296501544 10.59777119559585 4 -3 0
570 1 1 0.5897 7.997786965912792 16.263646168924645 7.377393216125014 0 -1 -1
404 1 1 0.5897 5.913435127162808 16.833397819757373 10.720310293883824 6 -3 0
645 1 1 0.5897 7.448974489377803 11.823452576362492 9.886210524441651 4 -3 0
392 1 1 0.5897 7.302520357068834 13.384943556490633 14.96709770856281 4 -4 0
391 1 2 -1.1794 7.478834689885305 13.19593704804543 14.045474796320397 4 -4 0
484 1 2 -1.1794 8.811084008664483 15.312101767815834 13.096648489044002 0 1 0
485 1 1 0.5897 8.402437685632528 14.492471418610428 13.374893622169553 0 1 0
393 1 1 0.5897 6.650869514388217 13.377134777589921 13.600696317585047 4 -4 0
486 1 1 0.5897 8.413505017592074 15.980153114582018 13.655073123720282 0 1 0
764 1 1 0.5897 7.977943446770745 15.818872271985901 11.495080763387504 -5 0 -4
93 1 1 0.5897 7.311739576696532 16.769219732550255 15.548298711564325 2 -5 1
644 1 1 0.5897 8.038932304021209 12.270746503993111 11.206688828489593 4 -3 0
550 1 2 -1.1794 4.863966903161508 13.187483827622254 13.392659028888648 -1 6 -4
271 1 2 -1.1794 7.286394292222862 13.231540924655258 16.913570846523406 -3 3 2
60 1 1 0.5897 7.680542463380834 13.570513308549295 19.547446744386818 2 -1 -4
329 1 1 0.5897 5.540624786870885 15.759885024378683 19.720320718776414 6 5 0
420 1 1 0.5897 8.402304664339049 16.731165015581233 20.999309043927063 -7 -4 7
311 1 1 0.5897 8.364255180911822 15.598113383626215 17.359992726077465 -2 2 4
273 1 1 0.5897 6.921583654443662 13.392910610517884 17.783663642967262 -3 3 2
58 1 2 -1.1794 6.745776116338609 13.774514957904989 19.57532960845785 2 -1 -4
272 1 1 0.5897 7.591628681019397 12.324910511085418 16.94569310055001 -3 3 2
59 1 1 0.5897 6.368288552056213 13.094526332875606 20.13328693369521 2 -1 -4