LAMMPS data file via write_data, version 30 Jul 2021, timestep = 28250000

972 atoms
2 atom types
648 bonds
1 bond types
324 angles
1 angle types

0.09743452553882825 19.90256647445065 xlo xhi
0.16585247958478355 19.834148520394525 ylo yhi
0.13945991636703603 20.56053808363583 zlo zhi

Masses

1 1.008
2 15.999

Pair Coeffs # lj/cut/tip4p/long/omp

1 0 0
2 0.21084 3.1668

Bond Coeffs # harmonic/omp

1 450 0.9572

Angle Coeffs # harmonic/omp

1 55 104.52

Atoms # full

10 4 2 -1.1794 1.6209055520299627 4.06408017934765 4.12932555082239 0 0 0
11 4 1 0.5897 1.3475903569776453 3.373349611552839 3.52574772447804 0 0 0
31 11 2 -1.1794 1.0563333333948786 2.2273712460177872 2.150693135167178 0 0 0
33 11 1 0.5897 1.6034310625904142 2.548949137721097 1.434091064445961 0 0 0
23 8 1 0.5897 2.442803781412399 1.1311705798298686 4.080089038565593 0 0 0
12 4 1 0.5897 2.5668764588201824 4.134652163882361 4.0008297876582635 0 0 0
16 6 2 -1.1794 4.226872741852719 4.1099854269449345 3.6825233040020438 0 0 0
18 6 1 0.5897 4.479825965444005 3.2107599703719134 3.4742055945522634 0 0 0
4 2 2 -1.1794 4.614102890864312 1.4341306039095654 3.4177805355674034 0 0 0
236 79 1 0.5897 1.0050538048689954 0.4986947108511741 1.977331749678623 0 1 0
5 2 1 0.5897 4.531603147271164 0.6779219166369556 2.8369031206510833 0 0 0
17 6 1 0.5897 4.53917013812721 4.625402886675481 2.938888572049472 0 0 0
13 5 2 -1.1794 4.719016431979548 5.8966219966061395 1.5322682933945961 0 0 0
22 8 2 -1.1794 2.0114003715441635 1.045457530354934 4.93026509319843 0 0 0
140 47 1 0.5897 1.1142882732396158 9.456702842597373 2.7388209284797465 0 0 0
132 44 1 0.5897 1.0322220257692583 7.808913081353891 5.216490484066989 0 0 0
20 7 1 0.5897 1.3222023533051255 5.487915164080751 2.9899222690685745 0 0 0
139 47 2 -1.1794 1.0000594200273978 8.901208324531867 1.9677648032582036 0 0 0
19 7 2 -1.1794 1.1425970268464498 6.050487774434367 2.236656027175193 0 0 0
141 47 1 0.5897 1.0735504649427363 8.007714102979154 2.3028450402600957 0 0 0
674 225 1 0.5897 1.8933605804552183 5.573917227703561 0.46109890782344154 0 0 1
114 38 1 0.5897 3.3500611043676725 7.785408977883991 3.9342596937630607 0 0 0
21 7 1 0.5897 0.24332309939241517 5.837600499790564 1.9870499105781356 0 0 0
110 37 1 0.5897 2.1925062438978857 9.142989081124343 0.6251216672667936 0 0 0
126 42 1 0.5897 4.212607592029567 9.714857092782212 3.3761543692226272 0 0 0
14 5 1 0.5897 4.036024464148593 5.634173161989099 0.9150806392372133 0 0 0
112 38 2 -1.1794 4.172021902415912 7.882457472112355 3.453383760379249 0 0 0
15 5 1 0.5897 4.3050340514069285 6.56491141468728 2.0782765281896984 0 0 0
6 2 1 0.5897 5.025017202720991 1.0855028621879015 4.208878694824024 0 0 0
130 44 2 -1.1794 1.9886236157393151 7.7844543480776505 5.184246640802936 0 0 0
3 1 1 0.5897 3.672504275292978 2.664175117689078 0.23597855417071434 0 0 0
111 37 1 0.5897 3.6575664243270527 9.263330202242665 0.26278613821314367 0 0 0
113 38 1 0.5897 4.852449477295563 7.795534770204544 4.121025796355541 0 0 0
32 11 1 0.5897 0.15916922706388886 2.335175302546668 1.8347872418477964 0 0 0
81 27 1 0.5897 0.20729889939560212 4.575395922935654 5.152387727918019 1 0 0
102 34 1 0.5897 0.17913155963975025 0.946307942901933 5.216416968730674 1 0 0
325 109 2 -1.1794 2.737598325690668 2.8791329730528563 7.0186913821728165 0 0 0
326 109 1 0.5897 2.6517782129693352 2.2589530078125124 6.294712409582198 0 0 0
327 109 1 0.5897 3.596311475076927 2.689436155744318 7.396754646167913 0 0 0
355 119 2 -1.1794 0.8944715992058309 2.0749568644221865 9.029036318033501 0 0 0
356 119 1 0.5897 1.5969311194167501 2.3495524987335648 8.439608104989576 0 0 0
27 9 1 0.5897 2.968488174415926 4.6318472156503665 6.459681721158161 0 0 0
328 110 2 -1.1794 4.033520935427198 1.3704097805225472 9.915971074800714 0 0 0
443 148 1 0.5897 1.2663880694529561 9.791340029943704 10.13977315501574 0 0 0
330 110 1 0.5897 4.2241351043192665 0.521030281399399 9.518152608419895 0 0 0
342 114 1 0.5897 4.268763584877895 4.830353026848417 9.695383735034168 0 0 0
25 9 2 -1.1794 2.8386554025130906 5.578617390327375 6.5120856339990505 0 0 0
337 113 2 -1.1794 4.784935826772705 6.0175951949229916 8.447190640759398 0 0 0
345 115 1 0.5897 0.9085487854846684 6.724403826353379 8.868383367762538 0 0 0
463 155 2 -1.1794 0.7294875554981466 8.548616594971461 9.028421273038951 0 0 0
435 145 1 0.5897 2.5144033669709103 8.772081881053603 6.577861575761964 0 0 0
26 9 1 0.5897 2.120510508402042 5.6882436545607336 7.135424924708603 0 0 0
433 145 2 -1.1794 2.7294559727507925 9.243958639498851 7.382392126441634 0 0 0
344 115 1 0.5897 1.0922910383161684 5.294139043968686 9.328732332697244 0 0 0
468 156 1 0.5897 4.441945288300293 9.206717453380298 7.559012838956542 0 0 0
343 115 2 -1.1794 0.8141837000449735 5.817593207522391 8.577183268071114 0 0 0
437 146 1 0.5897 4.428331666225579 7.663545101917519 9.426123184376063 0 0 0
464 155 1 0.5897 1.4527759749765718 8.79036679090393 8.449898827089578 0 0 0
339 113 1 0.5897 4.337389932884799 5.787425953554977 7.632956131947165 0 0 0
561 187 1 0.5897 0.9828542011814698 0.3514797444147272 8.96029834560561 0 1 0
438 146 1 0.5897 4.2695116552091354 9.079891251515283 9.936114212435161 0 0 0
24 8 1 0.5897 2.478060945860362 0.3319484726646946 5.365273458854714 0 0 0
436 146 2 -1.1794 4.137271144779109 8.165842430956513 10.187131399905859 0 0 0
341 114 1 0.5897 4.035014705055834 3.3467935069484978 9.884331283054765 0 0 0
340 114 2 -1.1794 3.9113388830271574 4.193167010941807 10.313739096800282 0 0 0
131 44 1 0.5897 2.219097940367912 6.928340382086787 5.544772732645543 0 0 0
649 217 2 -1.1794 2.3236834105752937 2.8401433179624576 13.932466973989056 0 0 0
650 217 1 0.5897 2.101119774410372 2.2454445317055076 13.216268277625165 0 0 0
348 116 1 0.5897 2.3861045937184673 1.2333267351623884 11.075871514773533 0 0 0
651 217 1 0.5897 1.7585745339801617 2.567411474417812 14.655328726649529 0 0 0
346 116 2 -1.1794 1.9332776424331413 0.9933651432613583 11.88432816437465 0 0 0
683 228 1 0.5897 4.12709574174206 2.6802197454005374 14.181476736204756 0 0 0
350 117 1 0.5897 2.6103205800061913 4.6199797673912 13.51893433454532 0 0 0
347 116 1 0.5897 1.0050575879853951 1.1159746749953336 11.68503387823027 0 0 0
332 111 1 0.5897 4.984432112921049 4.608072348759665 11.72735066608938 0 0 0
792 264 1 0.5897 4.743995135325656 9.038188149883723 14.333799503313045 0 0 0
349 117 2 -1.1794 2.796950716303878 5.552816922488989 13.414160765594083 0 0 0
661 221 2 -1.1794 4.857847538406062 5.769383845036602 15.224166537703992 0 0 0
454 152 2 -1.1794 1.9483573492788024 7.6395221202738455 11.921170536543896 0 0 0
334 112 2 -1.1794 1.0864853990342855 4.143677943980563 10.88917972385592 0 0 0
351 117 1 0.5897 3.529271164751052 5.719187318647794 14.007714019930514 0 0 0
668 223 1 0.5897 1.4014420958493676 5.92543911809099 14.634379747231414 0 0 0
757 253 2 -1.1794 2.8148656985117197 9.269938176762762 13.997084216947451 0 0 0
759 253 1 0.5897 2.4755780172852475 8.714976511923227 13.294895861435942 0 0 0
455 152 1 0.5897 2.546926283985714 7.829612218976699 11.198776017026 0 0 0
456 152 1 0.5897 2.291442437873557 6.835972034497915 12.311898451972581 0 0 0
336 112 1 0.5897 2.040103892316003 4.162433664751754 10.970485859369148 0 0 0
533 178 1 0.5897 0.20361110387452414 7.68017648606666 11.95514617230869 1 0 0
329 110 1 0.5897 4.459304845701231 1.3352264890382612 10.77254049443221 0 0 0
789 263 1 0.5897 1.6169258113372613 9.002915632915855 15.378167708425728 0 0 0
667 223 2 -1.1794 0.8113186249443477 6.010134646390658 15.383288458915002 0 0 0
335 112 1 0.5897 0.9056519105112325 3.36383729804705 10.364586853533151 0 0 0
658 220 2 -1.1794 1.2972373286500136 4.113872468461574 17.340913374727116 0 0 0
664 222 2 -1.1794 3.9938680704890883 3.8883340005347096 17.061783256499695 0 0 0
671 224 1 0.5897 2.2997470292916695 1.526050861312969 19.08915343789085 0 0 0
653 218 1 0.5897 3.3151278500716397 0.7012101014194705 17.202849531207832 0 0 0
670 224 2 -1.1794 2.070754101609287 0.8244041712806122 18.47976941173195 0 0 0
652 218 2 -1.1794 4.086296213480273 1.0190234461265102 16.733198612917207 0 0 0
672 224 1 0.5897 1.1170076196869267 0.7620660292997751 18.532937267080364 0 0 0
665 222 1 0.5897 3.072872465406588 3.9556847173530865 17.313875220442235 0 0 0
666 222 1 0.5897 4.115597374276442 2.9648301950630245 16.841973575310767 0 0 0
681 227 1 0.5897 0.8355997398736213 2.7560034210106408 16.455919620932647 0 0 0
654 218 1 0.5897 4.346686289869829 0.28606889280776626 16.175469007045606 0 0 0
659 220 1 0.5897 0.6952045571490216 4.180612063249326 18.082118411351566 0 0 0
679 227 2 -1.1794 0.665927298587472 2.042688756258557 15.840711137045973 0 0 0
762 254 1 0.5897 4.95268730572282 7.799802631119703 17.563279879646096 0 0 0
660 220 1 0.5897 1.0115964877615067 4.7995230176889505 16.73725182570537 0 0 0
669 223 1 0.5897 0.8965756611551373 6.924223925532232 15.653789097670176 0 0 0
787 263 2 -1.1794 0.9150520662344392 8.733978224870656 15.97089586815665 0 0 0
663 221 1 0.5897 4.532373092052444 6.548200252352063 15.675332583549164 0 0 0
761 254 1 0.5897 4.415863113219148 8.878306891132196 16.646627976493548 0 0 0
675 225 1 0.5897 2.422757524192286 5.998821539911721 19.529008606075386 0 0 0
788 263 1 0.5897 0.9635447130140521 9.35490565139488 16.697682200837725 0 0 0
760 254 2 -1.1794 4.478276442053432 7.928034079413494 16.741851030746368 0 0 0
778 260 2 -1.1794 2.1433350904689914 7.534304586409504 18.382414836865017 0 0 0
780 260 1 0.5897 2.858440003205894 7.574102391353148 17.74731928994658 0 0 0
779 260 1 0.5897 2.3544618311937007 8.212178654548076 19.024309510675465 0 0 0
662 221 1 0.5897 4.691225028877502 5.051351804570244 15.834703452687272 0 0 0
858 286 1 0.5897 0.3792618857052199 7.223453172266052 18.53578627249324 1 0 0
673 225 2 -1.1794 2.603790488965688 5.410361948111953 20.261839665331436 0 0 0
2 1 1 0.5897 2.5610325992692564 3.583218018427246 20.196830421673198 0 0 -1
884 295 1 0.5897 0.7099285232611637 0.3294646369248966 15.692826173080062 0 1 0
109 37 2 -1.1794 2.7773752446239772 9.360264947883303 20.320265998624258 0 0 -1
1 1 2 -1.1794 2.742904916226454 2.672651807755124 20.42877893878994 0 0 -1
240 80 1 0.5897 2.1697738645912565 14.06586009538386 4.503420958324173 0 0 0
129 43 1 0.5897 1.107770133651811 13.599343278480246 1.864353106787416 0 0 0
120 40 1 0.5897 1.395380967857958 11.571236980000347 2.8573754609928903 0 0 0
118 40 2 -1.1794 1.4624827013372195 10.929146403897244 3.564009834776104 0 0 0
119 40 1 0.5897 2.391743168228508 10.701275109535526 3.5937529477880834 0 0 0
127 43 2 -1.1794 0.9642450706211524 12.697572763754717 1.5776902390766612 0 0 0
124 42 2 -1.1794 4.05532098415442 10.643780890937709 3.544543529061853 0 0 0
222 74 1 0.5897 3.939126421944606 13.716059944725483 2.5004708543535124 0 0 0
123 41 1 0.5897 4.181697771944072 12.200946167318211 0.7113688548527433 0 0 0
783 261 1 0.5897 2.057109488450501 12.290807848747013 0.2911567861668527 0 0 1
890 297 1 0.5897 2.0928143410081765 18.7343081295966 0.6443256506170522 0 0 1
229 77 2 -1.1794 4.714042952460119 18.733028837479132 1.9761726647658238 0 0 0
248 83 1 0.5897 1.0788672088511526 16.159985757188288 2.9970776601356555 0 0 0
220 74 2 -1.1794 3.677942255397523 14.148313087335321 3.3135688250823483 0 0 0
227 76 1 0.5897 1.491991509753828 18.006630986630775 3.471308211617183 0 0 0
221 74 1 0.5897 4.028440262858725 15.035593708570447 3.236842428849734 0 0 0
249 83 1 0.5897 1.636635633570009 15.679881380817456 1.674093269452706 0 0 0
219 73 1 0.5897 3.6235448610573933 15.67480365358477 0.3509392115211291 0 0 0
247 83 2 -1.1794 0.9939348192978417 15.46094619177836 2.3488332235447613 0 0 0
233 78 1 0.5897 4.68508009880987 17.449938798407835 3.077346449696475 0 0 0
228 76 1 0.5897 0.9395473192986005 17.46942991116436 4.774414071875958 0 0 0
232 78 2 -1.1794 4.452910740522174 16.87933163201432 3.8099149974076547 0 0 0
226 76 2 -1.1794 1.6399059370071922 17.334105144736604 4.136073634475531 0 0 0
230 77 1 0.5897 4.22450517341943 18.7852865477308 1.1552643068896746 0 0 0
235 79 2 -1.1794 1.015931606642578 19.2160766558977 1.8695084905630845 0 0 0
234 78 1 0.5897 3.537243109902051 17.087630001281312 3.995631777596175 0 0 0
246 82 1 0.5897 4.969661939647275 13.950643931281526 4.575461811888406 0 0 0
122 41 1 0.5897 4.459595799947033 11.66182202981289 2.0984342198686883 0 0 0
237 79 1 0.5897 0.10064851595530655 18.98150157029503 1.7160084337899595 0 0 0
188 63 1 0.5897 0.15092119805058452 10.928655812153758 4.96371131638241 1 0 0
121 41 2 -1.1794 4.802313316808007 12.263329222992487 1.437477324416087 0 0 0
125 42 1 0.5897 4.524326618865686 10.822695202299343 4.3595681618923505 0 0 0
217 73 2 -1.1794 2.681979208593762 15.835182533429855 0.28715953946126205 0 0 0
133 45 2 -1.1794 2.2860387418502532 11.778059245502735 6.800938946809939 0 0 0
134 45 1 0.5897 1.6049777695565468 11.937460149172635 7.4544142135830755 0 0 0
135 45 1 0.5897 3.0813268121310458 12.142886357205697 7.189141081215496 0 0 0
453 151 1 0.5897 0.8701767449773309 12.0106689788036 9.57782367634395 0 0 0
451 151 2 -1.1794 0.6894351088071453 12.65873284087181 8.897046694718677 0 0 0
450 150 1 0.5897 4.2974809821789925 11.497408693107378 9.534400691166253 0 0 0
558 186 1 0.5897 4.236956584061369 17.501499827220428 9.816049591305942 0 0 0
573 191 1 0.5897 0.7213458812103234 14.635373739745814 9.450165278578078 0 0 0
553 185 2 -1.1794 4.782496780151105 18.760230599858417 8.650399738122328 0 0 0
543 181 1 0.5897 2.0350976079011045 15.436229127251732 6.35034376002698 0 0 0
572 191 1 0.5897 1.015491662831566 16.047278951159356 9.909902242732414 0 0 0
544 182 2 -1.1794 4.119522235179422 14.365511548878516 10.244767896025525 0 0 0
571 191 2 -1.1794 0.6393407898745497 15.550776416901169 9.183140186004593 0 0 0
241 81 2 -1.1794 2.8934926257026965 18.80658674779393 6.690950939804845 0 0 0
243 81 1 0.5897 2.3150217416941485 18.936747275014888 7.442420880432419 0 0 0
242 81 1 0.5897 2.673246188231245 17.93331523882042 6.367038202815399 0 0 0
559 187 2 -1.1794 0.9654099201614414 19.062891756151025 8.954192388732588 0 0 0
541 181 2 -1.1794 2.4064433201855784 15.989072087801382 7.037829346238236 0 0 0
555 185 1 0.5897 4.410986831914572 18.596608606072408 7.783532809596835 0 0 0
576 192 1 0.5897 4.097609966072587 15.510003258006407 7.4008056222012355 0 0 0
542 181 1 0.5897 1.7881407060778691 15.915750718695625 7.764886785336728 0 0 0
574 192 2 -1.1794 5.033903594991764 15.339851339335615 7.50444300515422 0 0 0
446 149 1 0.5897 4.35970658098142 13.364122410617766 8.690533687561778 0 0 0
239 80 1 0.5897 1.8779495409993958 13.310540253601365 5.782474718695224 0 0 0
445 149 2 -1.1794 4.596926859499153 12.555070472726976 8.237522204776855 0 0 0
434 145 1 0.5897 2.607675594567851 10.166632820264228 7.159148918064705 0 0 0
448 150 2 -1.1794 4.117216552784773 10.879004797695993 10.242366223480992 0 0 0
238 80 2 -1.1794 1.6216283053279144 14.088767078916499 5.287798930885328 0 0 0
457 153 2 -1.1794 2.521016780845212 12.002514813828425 13.306847531748552 0 0 0
458 153 1 0.5897 1.835855921154402 12.22452480986841 13.937355701068046 0 0 0
459 153 1 0.5897 3.338002270048321 12.234364283783284 13.748530065175462 0 0 0
562 188 2 -1.1794 2.023225912349172 14.208324136986672 11.90220913161372 0 0 0
563 188 1 0.5897 2.2311132896930372 13.390044417917546 12.353049044957862 0 0 0
556 186 2 -1.1794 4.165350728573467 17.057718226635096 10.661090465126572 0 0 0
642 214 1 0.5897 0.2441060846955482 14.207088749802546 11.939703563912499 1 0 0
442 148 2 -1.1794 1.3965355938373374 10.609492543034433 10.619061618241108 0 0 0
545 182 1 0.5897 3.357921511422894 14.16218446497424 10.787820373299576 0 0 0
758 253 1 0.5897 2.63847554621125 10.16349211622164 13.703038582400902 0 0 0
444 148 1 0.5897 2.347238366112837 10.703825151939737 10.67915517274362 0 0 0
552 184 1 0.5897 2.4092304173554884 17.27180167916506 11.116527974882382 0 0 0
564 188 1 0.5897 2.3654373051634936 14.892638196923269 12.477290430405409 0 0 0
865 289 2 -1.1794 2.7692280865047145 16.0372818246406 13.752615872250962 0 0 0
885 295 1 0.5897 1.687806076091666 19.138684469865986 14.91980681196368 0 0 0
567 189 1 0.5897 2.7685373982268695 19.39101490992539 12.982090463808074 0 0 0
546 182 1 0.5897 4.867882225163108 14.262936682105888 10.832763173192335 0 0 0
566 189 1 0.5897 2.7668153892490728 17.954613773344505 13.459666990230264 0 0 0
550 184 2 -1.1794 1.457708229854405 17.351542540731415 11.049011608358118 0 0 0
867 289 1 0.5897 2.18263332748044 15.893945991889492 14.495338378368794 0 0 0
866 289 1 0.5897 3.6470882224996317 15.907286260422834 14.111472786644269 0 0 0
879 293 1 0.5897 4.463182950250673 18.6808298408602 14.650457419303697 0 0 0
565 189 2 -1.1794 2.985561944975703 18.844123189828586 13.737056118814184 0 0 0
449 150 1 0.5897 4.762958263112978 11.090935665179744 10.916431363518855 0 0 0
896 299 1 0.5897 0.21300881810805974 15.903383230933859 15.312458761784777 0 0 0
620 207 1 0.5897 0.14168800559280334 17.72809995810959 12.17138883648725 1 0 0
769 257 2 -1.1794 4.67570330888364 12.628534601132715 14.962080658418035 0 0 0
551 184 1 0.5897 1.3202647822921632 18.06072936390303 10.421107106577878 0 0 0
557 186 1 0.5897 4.213777353226192 16.126019715733502 10.44759328398681 0 0 0
775 259 2 -1.1794 0.8061635248038491 12.73382712618946 15.355676989861244 0 0 0
883 295 2 -1.1794 0.8855893748057295 19.091561255317593 15.439951175098553 0 0 0
888 296 1 0.5897 2.2377507621719968 13.390202990941301 18.94526903817777 0 0 0
768 256 1 0.5897 1.243132944072385 11.697240874671635 16.81817477389594 0 0 0
773 258 1 0.5897 3.2296866169751737 10.831397617783132 17.397296682367973 0 0 0
766 256 2 -1.1794 1.4033519560427394 11.051425940601327 17.50619344874086 0 0 0
886 296 2 -1.1794 1.969996678048269 14.222291556502347 18.555457659120314 0 0 0
772 258 2 -1.1794 4.113863305505789 10.6534012668578 17.0765601916289 0 0 0
774 258 1 0.5897 4.271586676579293 11.330821070486707 16.4190393700883 0 0 0
767 256 1 0.5897 0.6824463335844317 11.174763800072704 18.123752895838365 0 0 0
869 290 1 0.5897 3.296997642054717 14.299472333994775 17.305963487967617 0 0 0
887 296 1 0.5897 2.124610512721756 14.870009562878918 19.242976539474085 0 0 0
891 297 1 0.5897 2.57695706731918 19.172779592149787 19.699685281411675 0 0 0
782 261 1 0.5897 2.8100829716568616 11.134931539779897 20.08888356244558 0 0 0
889 297 2 -1.1794 2.821331223651188 18.634606333514775 20.4525588876187 0 0 0
868 290 2 -1.1794 4.105042209596839 14.537702182624905 16.85141807292485 0 0 0
218 73 1 0.5897 2.612360621150646 16.74923419903046 20.433162959456524 0 0 -1
878 293 1 0.5897 4.667397167764585 18.006689880883748 15.990466950246343 0 0 0
897 299 1 0.5897 1.0119402152651689 15.959036104370432 16.597192710849562 0 0 0
870 290 1 0.5897 4.803775814102404 14.2786084805283 17.45218378901351 0 0 0
882 294 1 0.5897 4.003064873595556 16.21830450648369 17.184684314227418 0 0 0
880 294 2 -1.1794 3.963746521477417 17.139292589358348 17.442003587940988 0 0 0
876 292 1 0.5897 1.0710510322606446 18.11155298106123 16.909394485676287 0 0 0
874 292 2 -1.1794 1.2478017751902644 17.50142439641907 17.625373745458667 0 0 0
875 292 1 0.5897 0.5137408155325278 17.619737343213437 18.228235983938823 0 0 0
881 294 1 0.5897 3.05239480828498 17.277644891092173 17.70005020567764 0 0 0
965 322 1 0.5897 0.24321285968130066 14.206427607329351 18.669448650230905 1 0 0
895 299 2 -1.1794 0.9378700435720341 15.479628070989925 15.772056041562248 0 0 0
873 291 1 0.5897 5.037059221495017 17.530253543506035 18.788794593787458 0 0 0
771 257 1 0.5897 4.496345251406774 13.320524999457941 15.598547587513231 0 0 0
781 261 2 -1.1794 2.741300471649553 12.08940318242293 20.073804752311624 0 0 0
777 259 1 0.5897 0.8953184177496842 13.675439637399997 15.501983417204672 0 0 0
46 16 2 -1.1794 8.13552313702972 4.387542233313921 3.8142555198577033 0 0 0
175 59 2 -1.1794 7.796072108869355 8.976744089129724 1.9084046065120202 0 0 0
67 23 2 -1.1794 7.526599844225584 2.2525930546116193 2.0833200056215864 0 0 0
177 59 1 0.5897 8.373009970268686 9.204842366945408 1.1794451648348259 0 0 0
69 23 1 0.5897 6.761107427449745 2.489763671114398 1.5598043624449922 0 0 0
48 16 1 0.5897 7.455084495218446 4.5097247455793505 4.476348400118381 0 0 0
68 23 1 0.5897 8.252038846114239 2.246668150390261 1.4588128222912418 0 0 0
47 16 1 0.5897 7.914375220581886 3.556879382925499 3.393375938889545 0 0 0
273 91 1 0.5897 7.404034209690185 0.4709458337906509 2.046046406205429 0 1 0
56 19 1 0.5897 6.637168606278228 6.154684757973538 1.8156914916759053 0 0 0
53 18 1 0.5897 9.995898275463738 4.345433141047013 3.773130659839776 0 0 0
9 3 1 0.5897 5.305365912046768 4.67630228830177 5.0483296989111155 0 0 0
143 48 1 0.5897 6.217991602366333 9.054008900280289 1.177954204415802 0 0 0
55 19 2 -1.1794 7.580668677552843 6.254595802274118 1.9428548521968894 0 0 0
57 19 1 0.5897 7.812125849101678 5.569891135586647 2.570320843939354 0 0 0
34 12 2 -1.1794 5.399310359646695 2.55689315605563 0.42534110545758175 0 0 0
176 59 1 0.5897 7.869057268918147 8.02542374188674 1.9835291225863874 0 0 0
711 237 1 0.5897 8.621302426052699 5.703075153788073 0.5045005489116314 0 0 1
166 56 2 -1.1794 8.75466323842023 7.6474070414868 4.9368375449025335 0 0 0
142 48 2 -1.1794 5.442330592651909 9.047632570750855 0.6170401745388001 0 0 0
138 46 1 0.5897 6.969347199882521 7.686082122927229 5.090958051321841 0 0 0
359 120 1 0.5897 6.067633749968996 2.5939459979749957 8.207275028599174 0 0 0
360 120 1 0.5897 5.566135924451081 2.0651731364904355 6.8803340449204295 0 0 0
8 3 1 0.5897 5.876368274254708 4.086584772410648 6.320357610471107 0 0 0
500 167 1 0.5897 7.72709947569167 9.423680250420084 9.71169028427427 0 0 0
466 156 2 -1.1794 5.398998602763852 9.215067123225378 7.57690329368594 0 0 0
338 113 1 0.5897 5.704818457967909 5.810251244048482 8.28239618236691 0 0 0
392 131 1 0.5897 8.287305175700517 2.485996060317852 8.360841500593308 0 0 0
358 120 2 -1.1794 5.439484877629026 2.7762497055672806 7.5083696403906215 0 0 0
393 131 1 0.5897 7.708032782868734 1.2188288012656452 8.952623841512048 0 0 0
391 131 2 -1.1794 7.6616380360411656 2.1727927372298055 9.014065173744022 0 0 0
362 121 1 0.5897 9.216588292681234 3.790778760979704 6.817962442959031 0 0 0
361 121 2 -1.1794 9.403975935249306 2.886069828783877 7.06775964897003 0 0 0
501 167 1 0.5897 6.715162853808168 8.870843610047539 8.730712016087532 0 0 0
59 20 1 0.5897 9.057207767040715 1.6152892948178974 5.8774781358447745 0 0 0
62 21 1 0.5897 8.685995221744855 5.69168424945669 7.095053209120448 0 0 0
381 127 1 0.5897 7.799757565939106 5.453993376610113 9.171870405388114 0 0 0
467 156 1 0.5897 5.657612723189932 8.652220211577541 6.847188705628628 0 0 0
470 157 1 0.5897 8.498080178432746 9.122765362904344 7.786477608880463 0 0 0
7 3 2 -1.1794 5.950436136843559 4.841058807279307 5.73609561682577 0 0 0
380 127 1 0.5897 7.633358979594717 6.884221467975304 8.704873285325952 0 0 0
469 157 2 -1.1794 9.055155296117709 9.395321596915915 7.057343852486898 0 0 0
61 21 2 -1.1794 9.36737179402039 5.4852716333794875 6.455205685809713 0 0 0
499 167 2 -1.1794 7.5604463869063245 8.677343409798365 9.136119245607539 0 0 0
379 127 2 -1.1794 7.542875616606834 5.977329568196194 8.412738523337042 0 0 0
168 56 1 0.5897 8.93311927311455 8.312373489577864 5.601718225824207 0 0 0
137 46 1 0.5897 5.95580517716764 6.681372133018655 5.595985320212235 0 0 0
371 124 1 0.5897 7.578120483325539 3.4832904642353073 10.289893548025416 0 0 0
29 10 1 0.5897 6.821099047713753 0.93460707265489 5.498808544749553 0 0 0
28 10 2 -1.1794 5.91447521212492 0.8041861128830112 5.77693612081967 0 0 0
167 56 1 0.5897 8.971645571938351 6.818173118728994 5.362678707276049 0 0 0
471 157 1 0.5897 9.94632166707157 9.340269734364382 7.402495321960013 0 0 0
136 46 2 -1.1794 6.056267889887231 7.605151945430993 5.366781459209572 0 0 0
58 20 2 -1.1794 8.672174832787436 0.9811464121127157 5.272707300685284 0 0 0
791 264 1 0.5897 6.133888181078177 8.96578522033606 14.929708293216892 0 0 0
331 111 2 -1.1794 5.6776309644473955 4.7259579879566305 12.37686086414685 0 0 0
372 124 1 0.5897 7.04390505189774 4.509900488121334 11.26577139184361 0 0 0
717 239 1 0.5897 6.368444085062045 2.4311585137804195 15.183597520889503 0 0 0
684 228 1 0.5897 5.156789265076239 3.6108886179398385 13.577009268973551 0 0 0
352 118 2 -1.1794 5.653984151326208 1.3178341120857877 11.974882422551286 0 0 0
354 118 1 0.5897 5.512743620856002 1.9665307944176804 12.664342163628328 0 0 0
386 129 1 0.5897 9.056429749287387 4.787969281594173 13.601453580589341 0 0 0
686 229 1 0.5897 8.281654388801051 2.7882495466633612 14.371813200903846 0 0 0
382 128 2 -1.1794 8.397650520401855 0.9527447558602501 11.862043858957291 0 0 0
383 128 1 0.5897 8.592714490987833 1.6511331717892572 12.486785101828678 0 0 0
685 229 2 -1.1794 8.83897084913399 2.951121063442394 13.610800621168991 0 0 0
793 265 2 -1.1794 9.273051773641761 9.241784733605577 14.07528398576561 0 0 0
353 118 1 0.5897 6.600200878535021 1.3236675703565637 11.8300149574511 0 0 0
384 128 1 0.5897 8.762814011755742 1.2630009840594054 11.033418064329284 0 0 0
491 164 1 0.5897 9.331152232969897 7.702429077640615 11.195099902490787 0 0 0
370 124 2 -1.1794 7.796811498683358 4.31639419375389 10.707213923716296 0 0 0
385 129 2 -1.1794 9.155603022637111 5.676262779285163 13.94363451216797 0 0 0
461 154 1 0.5897 5.873814016654756 7.949731119846783 12.879153386064269 0 0 0
790 264 2 -1.1794 5.667327231682286 9.172465073863778 14.119858246846675 0 0 0
462 154 1 0.5897 5.442512402073798 7.777980715397296 11.438177834768787 0 0 0
460 154 2 -1.1794 6.066266300600806 7.449865262583535 12.085886658166451 0 0 0
492 164 1 0.5897 7.923657032433636 7.804712762313725 11.743417958336163 0 0 0
490 164 2 -1.1794 8.82514421430841 7.61402239898062 12.002819298572103 0 0 0
387 129 1 0.5897 9.015532536822331 6.242632745041324 13.184847401049618 0 0 0
333 111 1 0.5897 5.831607899984735 5.670387450230147 12.394748318564115 0 0 0
794 265 1 0.5897 9.121599136611776 8.709577886901572 13.294270892336472 0 0 0
682 228 2 -1.1794 5.070702465421584 2.831252132092148 14.125481457766 0 0 0
705 235 1 0.5897 8.011609372146843 6.056141010143724 15.249379180692811 0 0 0
377 126 1 0.5897 9.644651023353878 4.201302843606043 10.550096845780041 0 0 0
824 275 1 0.5897 8.215465674276434 8.978514600146783 15.42181717869303 0 0 0
687 229 1 0.5897 9.724439535801231 2.751019207097163 13.914489591908398 0 0 0
709 237 2 -1.1794 9.238213352997441 5.4906062505229665 20.225191324201056 0 0 0
677 226 1 0.5897 5.485848191892903 0.9037252467473257 18.05310539576157 0 0 0
655 219 2 -1.1794 5.787325650293143 4.657752236072177 19.08773048533994 0 0 0
710 237 1 0.5897 9.089733248013147 4.561814811216603 20.048283627044526 0 0 0
706 236 2 -1.1794 8.72415927729163 0.6882296218788297 18.571833791662215 0 0 0
689 230 1 0.5897 9.947010897726555 0.9206506527389027 17.167508952874307 0 0 0
702 234 1 0.5897 9.86491025705464 4.073074769608455 17.663686706655078 0 0 0
823 275 2 -1.1794 7.5720831644488475 8.878499770255551 16.123488640141417 0 0 0
676 226 2 -1.1794 6.01853199518827 0.7131752110041542 18.825243960129868 0 0 0
716 239 1 0.5897 7.3730861777379815 1.4495694792275065 15.748333722445544 0 0 0
657 219 1 0.5897 6.619625728079435 4.396021812835283 18.69392671434315 0 0 0
695 232 1 0.5897 7.767400740199751 3.428505959796234 17.187771221834794 0 0 0
38 13 1 0.5897 9.189087447635709 2.0189761706074636 19.597543084735612 0 0 -1
694 232 2 -1.1794 8.159179405814976 4.139032004077713 17.695489781238848 0 0 0
708 236 1 0.5897 7.767861208495429 0.7022169608766593 18.531249100364192 0 0 0
786 262 1 0.5897 7.024259399431933 7.539461319353215 18.85176429765807 0 0 0
715 239 2 -1.1794 7.166943200197161 2.3833594226286707 15.709366370030313 0 0 0
696 232 1 0.5897 8.009955455365606 4.922491512239637 17.16634802623529 0 0 0
814 272 2 -1.1794 8.894061378712559 7.703317779095053 18.55498139576335 0 0 0
825 275 1 0.5897 7.530266660838719 7.9349123551111616 16.278011678256576 0 0 0
815 272 1 0.5897 9.160027414510358 6.977458995645845 19.119332720098825 0 0 0
816 272 1 0.5897 9.07470621931767 8.488016423930901 19.072364869617253 0 0 0
785 262 1 0.5897 6.046986924955421 6.389488808351349 18.970540098794288 0 0 0
784 262 2 -1.1794 6.08906390622989 7.343723088400949 18.910323471678645 0 0 0
703 235 2 -1.1794 7.489121938933018 6.17830466368997 16.042061491479895 0 0 0
144 48 1 0.5897 5.535634112847027 8.255845315651177 20.50856675697566 0 0 -1
36 12 1 0.5897 5.595032937015174 3.309674405466963 20.28869206905909 0 0 -1
656 219 1 0.5897 5.124533899249742 4.378488683377703 18.456079800298795 0 0 0
35 12 1 0.5897 5.568911558323581 1.79622517826984 20.290811245384546 0 0 -1
37 13 2 -1.1794 9.388063024234953 2.5821118083241266 20.3454997486336 0 0 -1
145 49 2 -1.1794 9.5279494373001 9.638447821836849 20.372844014762176 0 0 -1
704 235 1 0.5897 6.587518676001068 6.020074554379157 15.762046174739616 0 0 0
164 55 1 0.5897 6.55195944741749 12.316029736969751 1.7326794380419237 0 0 0
285 95 1 0.5897 7.628106226042895 14.465669150285699 2.2082851332702096 0 0 0
251 84 1 0.5897 6.1153301124432895 15.264636882450471 0.9808697379386377 0 0 0
276 92 1 0.5897 8.72824219255402 14.050101204538414 4.627844311815918 0 0 0
819 273 1 0.5897 8.317782924681358 12.45067253432845 0.49163127162308046 0 0 1
156 52 1 0.5897 8.94567698703782 10.800166718363172 4.170517376308688 0 0 0
154 52 2 -1.1794 7.992152091477362 10.74074423575285 4.110596138215946 0 0 0
163 55 2 -1.1794 7.427659417960373 12.560575608412655 2.0321097486993835 0 0 0
165 55 1 0.5897 7.557599115104373 12.053584890971969 2.8334997089525764 0 0 0
231 77 1 0.5897 5.618123038848302 18.928088380926084 1.729365747028768 0 0 0
275 92 1 0.5897 7.319769341156652 13.933623021441427 5.17078525112183 0 0 0
272 91 1 0.5897 7.5103156481016295 18.80145618148098 2.7463225449080633 0 0 0
283 95 2 -1.1794 7.647936702148576 15.401250804961077 2.007638559897451 0 0 0
927 309 1 0.5897 8.705185045619986 18.861323326516214 0.7033314942964021 0 0 1