LAMMPS data file via write_data, version 30 Jul 2021, timestep = 10500000

864 atoms
2 atom types
576 bonds
1 bond types
288 angles
1 angle types

-0.3695836949273783 18.577156094925392 xlo xhi
0.6562104956193622 22.972967304373853 ylo yhi
-0.4508912445629836 22.664087044563303 zlo zhi

Masses

1 1.00794
2 15.9994

Pair Coeffs # lj/cut/tip4p/long/omp

1 0 0
2 0.21084 3.1668

Bond Coeffs # harmonic/omp

1 450 0.9572

Angle Coeffs # harmonic/omp

1 55 104.52

Atoms # full

557 1 1 0.5897 6.056146146728521 4.711496773658841 4.2252484847672305 5 2 -3
861 1 1 0.5897 3.663166362456777 4.3638724776019355 4.018772050533308 2 -2 2
859 1 2 -1.1794 3.6750413065002903 5.00380471068296 3.306984140494271 2 -2 2
860 1 1 0.5897 3.4426725623355097 4.49968712612781 2.5271282310988297 2 -2 2
556 1 2 -1.1794 6.650702723811387 4.103996218773329 3.78506416043104 5 2 -3
558 1 1 0.5897 6.0768624622943666 3.4356981136026645 3.4103886382007826 5 2 -3
19 1 2 -1.1794 0.582140129168278 1.8486035951101443 3.4466372654781767 -4 -3 2
20 1 1 0.5897 0.7632597414479487 2.1102444549983597 4.349439470794051 -4 -3 1
21 1 1 0.5897 0.12953929741624348 2.600794241050956 3.064981703320218 -4 -3 2
508 1 2 -1.1794 5.352622448810334 1.908145397358528 2.5250789012232366 5 0 3
555 1 1 0.5897 8.994222027030434 1.5563058792905564 2.285783382194367 0 -5 3
509 1 1 0.5897 6.153154605590701 1.467595715530881 2.8103253951066 5 0 3
645 1 1 0.5897 8.761740340720289 4.493396455321655 4.031713802966595 3 -3 0
510 1 1 0.5897 5.551145859849779 2.218215236536276 1.6414749821031527 5 0 3
141 1 1 0.5897 2.2112348710892147 5.033577034026294 0.21560168464561924 2 -2 0
42 1 1 0.5897 4.112168469839853 3.5681745640370974 0.5354120911950627 -3 -1 5
55 1 2 -1.1794 8.513047308084131 3.538154401096273 0.07990285543096654 -4 -1 -1
201 1 1 0.5897 1.5759610105949102 5.7005401685952775 3.373069526873319 5 -2 -1
40 1 2 -1.1794 3.241285856287746 3.682885053505349 0.9158121529802989 -3 -1 5
199 1 2 -1.1794 0.71922559949116 6.019860162290428 3.656516573567121 5 -2 -1
198 1 1 0.5897 3.72836402926023 1.112871152864111 2.3570018982905 1 -1 2
554 1 1 0.5897 7.8466284230033985 0.7167415458268884 1.7659113811671667 0 -5 3
200 1 1 0.5897 0.09206068722939964 5.523369249510506 3.130709863187068 5 -2 -1
139 1 2 -1.1794 1.9727067468994535 5.956952966659559 0.13289881889893207 2 -2 0
642 1 1 0.5897 1.2991772850195027 1.1277700562450557 -0.4271840863565353 5 1 -4
41 1 1 0.5897 2.7146778299205456 2.985975678296759 0.524253035508269 -3 -1 5
747 1 1 0.5897 6.516960132233719 3.171982394232848 -0.01339573199556554 1 0 -8
745 1 2 -1.1794 5.602602699610895 2.8901340732938623 -0.0423517610965406 1 0 -8
553 1 2 -1.1794 8.086066080763455 1.3175127791256096 2.471642709388689 0 -5 3
187 1 2 -1.1794 8.008394202422087 0.9058487679481442 5.169975105279648 0 4 3
189 1 1 0.5897 8.205065665515646 1.2460406561418407 4.297106335923466 0 4 3
197 1 1 0.5897 2.2850723846581147 0.9540495794764434 2.785729937208584 1 -1 2
57 1 1 0.5897 8.72356928432452 3.220609922282027 0.9580577804684929 -4 -1 -1
435 1 1 0.5897 7.408822601377419 5.186917098865245 -0.3905249048721089 0 3 -1
95 1 1 0.5897 1.1545080334596554 9.606133625668932 1.0250749474763157 -3 1 2
367 1 2 -1.1794 4.11336201861105 9.67725252244625 -0.37393856737985925 2 6 -2
140 1 1 0.5897 2.6759067337213933 6.340457344145138 -0.39124746181293785 2 -2 0
69 1 1 0.5897 0.1088065734869812 8.778155031661845 2.9949017756729153 8 1 -3
863 1 1 0.5897 4.139649261388461 11.70379711973895 4.638767740541379 0 1 2
394 1 2 -1.1794 5.864308511281407 11.101338892083723 1.579707006512069 1 -1 6
664 1 2 -1.1794 7.815738077407611 7.624074079625701 1.3841884964507876 4 1 5
776 1 1 0.5897 3.3871852522835755 6.558871063746948 2.7021010661359823 3 -2 3
775 1 2 -1.1794 3.1663972245849497 7.406197990108545 2.315297555476898 3 -2 3
777 1 1 0.5897 2.794391999847891 7.190016105823697 1.460189141061753 3 -2 3
459 1 1 0.5897 4.75487024488946 8.18939744183995 2.6363509047136033 1 0 1
458 1 1 0.5897 5.719168283915333 8.305339921205082 3.7977198789274462 1 0 1
94 1 2 -1.1794 1.2448044034739485 10.012127163100368 0.16291063682881723 -4 1 2
67 1 2 -1.1794 0.930508693745415 9.076464197955538 2.604864562184892 8 1 -3
434 1 1 0.5897 7.180540257549285 6.630238723577693 0.005457132387455044 0 3 -1
665 1 1 0.5897 7.01084233620662 7.836473530586037 1.8567750659898858 4 1 5
369 1 1 0.5897 3.204557865832766 9.962874638815954 -0.28017276047692363 2 6 -3
396 1 1 0.5897 5.250346769425436 10.763193805852376 0.9277756662824308 1 -1 5
68 1 1 0.5897 1.5650326138012285 8.397025233409956 2.8329828197944122 8 1 -3
395 1 1 0.5897 6.081444101210154 10.342441566933006 2.1212387992355612 1 -1 6
457 1 2 -1.1794 5.591984030321231 8.578757360532975 2.8892187867678047 1 0 1
666 1 1 0.5897 8.513737374101808 7.763285148254529 2.0242886463290155 4 1 5
96 1 1 0.5897 0.5196287934759457 10.635044037908377 0.11382910039126792 -4 1 2
862 1 2 -1.1794 4.659416366420971 10.90571982911316 4.734745306539103 0 1 2
864 1 1 0.5897 4.434662963600896 10.379221527836535 3.967549075026966 0 1 2
152 1 1 0.5897 1.0758836583993583 10.007196970704815 4.0865225984021345 4 1 -4
151 1 2 -1.1794 1.1356892402084977 10.551106279942672 4.871955100532107 4 1 -3
269 1 1 0.5897 8.562690000427422 5.09302783535463 7.522362906015664 0 5 6
334 1 2 -1.1794 5.309715078734753 5.37484500794699 6.829142557790311 5 0 6
336 1 1 0.5897 6.145728973105263 4.987380514084485 7.088573217397797 5 0 6
270 1 1 0.5897 7.826834190641328 4.017503759890261 8.292976354943399 0 5 6
268 1 2 -1.1794 7.87090221241524 4.437358151419607 7.433857171500513 0 5 6
690 1 1 0.5897 3.708976498325039 5.7116171689646 7.755250584499196 2 -3 6
707 1 1 0.5897 1.9322293260882195 2.6618250238354406 6.003969117951909 2 -2 -7
706 1 2 -1.1794 1.074895987137603 2.2611293716566276 6.14799117063028 2 -2 -7
51 1 1 0.5897 -0.10479821994802246 5.394496645499948 9.172081648859551 7 3 -1
708 1 1 0.5897 0.49647740685642705 2.997208433130326 6.347821999809832 2 -2 -7
335 1 1 0.5897 5.547396643646352 6.208098418739006 6.4223062381612035 5 0 6
849 1 1 0.5897 7.988072445969747 2.0417190159399716 9.550663116646112 1 -2 5
132 1 1 0.5897 4.2504496415998565 4.088297918232348 6.0549108621182866 -4 3 0
50 1 1 0.5897 1.377498447831234 5.356238323139952 8.86642198650296 7 3 -1
49 1 2 -1.1794 0.7063540583716483 4.946685471437773 9.412484741606763 7 3 -1
847 1 2 -1.1794 7.925111682340939 2.971297853370206 9.770317205475052 1 -2 5
131 1 1 0.5897 4.291036148464964 2.63572556615991 5.630112152234087 -4 3 0
281 1 1 0.5897 8.933240606476879 3.3319550024882116 6.8551333368122105 -4 1 1
650 1 1 0.5897 3.4091705199927023 0.9615590446788735 9.704834797604098 1 -2 0
130 1 2 -1.1794 3.7386415149658205 3.4170408037166125 5.603504839409371 -4 3 0
688 1 2 -1.1794 3.0262485743379166 6.09624914060821 8.305025046526419 2 -3 6
651 1 1 0.5897 4.250176246520008 1.8907917288248157 10.554175007951233 1 -2 0
761 1 1 0.5897 6.011935374359548 1.1527150362914507 5.703463395172379 1 -4 0
480 1 1 0.5897 -0.04391657202582433 4.208505310022435 8.111373188479833 -4 1 -2
649 1 2 -1.1794 3.4233590023081875 1.408408028104064 10.551267641257155 1 -2 0
848 1 1 0.5897 8.545769890694938 3.090614212047571 10.48926630662493 1 -2 5
101 1 1 0.5897 6.340099311055454 3.0851524908698527 10.698008877888714 6 -4 0
760 1 2 -1.1794 5.070999159132878 1.042346599303559 5.840451857618625 1 -4 0
713 1 1 0.5897 0.7611957342983062 4.610589291729131 10.989337523780195 -4 -1 1
282 1 1 0.5897 8.943281302372904 2.000214170985755 6.135093654223318 -4 1 1
250 1 2 -1.1794 8.54115779326189 8.580031182946561 6.291523278837113 6 -4 4
155 1 1 0.5897 7.4979671384213145 11.76378761227049 8.271019027004924 6 4 -6
623 1 1 0.5897 6.193765183598698 11.512004591736257 5.946322065216039 6 -2 1
156 1 1 0.5897 6.547159030195106 11.100806592785021 9.244942715479432 6 4 -6
494 1 1 0.5897 3.342614143087849 8.03444766856405 10.949666740331732 -3 -1 -3
252 1 1 0.5897 9.089838628970407 8.850900457581638 5.555386655292739 6 -4 4
559 1 2 -1.1794 1.2431963220545688 8.775596704620554 7.091812288743657 5 1 1
560 1 1 0.5897 0.6304167280827955 8.0739158581057 6.871678320302878 5 1 1
493 1 2 -1.1794 4.256650287185942 7.750203357676593 10.95662278247355 -3 -1 -3
689 1 1 0.5897 3.4900148252161314 6.402956761947482 9.084238395173312 2 -3 6
154 1 2 -1.1794 7.256542961321715 11.74173437040576 9.19706048064921 6 4 -6
465 1 1 0.5897 5.565273336177873 8.318866052512403 6.112176062757352 9 3 -2
464 1 1 0.5897 7.008315166060487 8.019537515162575 5.765638947022165 9 3 -2
398 1 1 0.5897 3.315367249058408 8.655604588633455 6.791077115910517 3 3 -4
561 1 1 0.5897 1.363259246983993 8.701145938771187 8.038572390438478 5 1 1
463 1 2 -1.1794 6.110531452289325 7.760213452340735 5.558172638737066 9 3 -2
84 1 1 0.5897 4.76561691389145 9.29043039537738 10.053517049278328 -5 -2 -5
82 1 2 -1.1794 5.136784776505442 10.005631598247232 9.536769056342546 -5 -2 -5
399 1 1 0.5897 4.071427354638258 9.912956725818367 6.417538875990463 3 3 -4
359 1 1 0.5897 4.12575257147213 11.672187025427657 10.275517323391133 1 -4 -4
153 1 1 0.5897 1.261982220967143 9.927180118905584 5.586872125531408 4 1 -3
266 1 1 0.5897 6.826984737367386 8.747427191573411 10.900618612448646 -7 -1 -4
83 1 1 0.5897 4.75660979382037 9.8944889993133 8.66531971662823 -5 -2 -5
397 1 2 -1.1794 4.076171808274286 9.182367492659774 7.036039768014748 3 3 -4
622 1 2 -1.1794 7.005893235814005 11.597158164051498 6.445874500624611 6 -2 1
251 1 1 0.5897 8.75607223811528 9.197334896552494 6.99088489900225 6 -4 4
123 1 1 0.5897 8.976211564869725 10.43512669194936 8.945545917504255 1 -3 1
535 1 2 -1.1794 0.728648168408345 11.53569274543659 10.653131564987406 10 6 3
635 1 1 0.5897 1.3192767930101474 9.836475842897965 10.606782183646708 -7 -1 1
634 1 2 -1.1794 1.7556469323357553 8.998093523635768 10.758429682507835 -7 -1 1
285 1 1 0.5897 -0.17582585347689875 6.74125123656883 5.411238753866379 6 0 0
119 1 1 0.5897 9.066332170019892 6.982763561882492 10.884548965868715 1 1 -1
536 1 1 0.5897 0.006019649669006144 11.75511756758165 10.064928503634283 10 6 3
636 1 1 0.5897 1.0403043226966213 8.370890784791186 10.864257877010786 -7 -1 1
339 1 1 0.5897 5.331055213377898 2.298989000612538 14.692854253311504 -3 1 7
337 1 2 -1.1794 5.98166435546902 2.333997848763236 13.991577091276572 -3 1 7
338 1 1 0.5897 6.467940397190272 3.1420751996512095 14.15546877709326 -3 1 7
802 1 2 -1.1794 7.2248460275326725 4.511037191325555 15.337878338200559 7 1 -4
102 1 1 0.5897 5.9058190142325415 2.510417411621178 12.029629132004144 6 -4 0
22 1 2 -1.1794 0.8980393638467852 4.901137651535334 14.780485205538547 -4 2 1
803 1 1 0.5897 8.161925319798849 4.687005206727688 15.252878464586932 7 1 -4
638 1 1 0.5897 1.6355214978637886 3.7221839822791773 16.288502487693876 -6 -1 1
286 1 2 -1.1794 4.144167973471439 1.83201054963639 16.05101483813869 3 0 0
714 1 1 0.5897 1.2464955885956375 3.5828953352687614 11.989543285344713 -4 -1 1
23 1 1 0.5897 1.6331826383993278 5.513388874032167 14.747969204448209 -4 2 1
24 1 1 0.5897 0.6360880950336634 4.791838961162452 13.86628142014218 -4 2 1
712 1 2 -1.1794 1.1038774225123125 4.522958212792785 11.878865543362616 -4 -1 1
584 1 1 0.5897 3.102518827805818 4.9015898751339915 11.741329341460357 5 -4 0
583 1 2 -1.1794 3.8880309511400704 5.359759603301983 12.040248861622317 5 -4 0
585 1 1 0.5897 4.586760954952996 4.709292836818764 11.969670980462691 5 -4 0
844 1 2 -1.1794 0.7111693045615031 1.6039189082291148 11.843032281939532 2 -2 4
288 1 1 0.5897 3.7035952901998197 1.01086567685309 15.832073518502456 3 0 0
287 1 1 0.5897 3.458555422086706 2.3764162471231836 16.438124364601506 3 0 0
804 1 1 0.5897 6.810898688304251 5.370218210971827 15.255685399808678 7 1 -4
845 1 1 0.5897 0.8312927006447182 1.1725562837197452 12.689079312927955 2 -2 4
795 1 1 0.5897 7.011857437619565 0.7920359417955459 14.100934212494206 -3 2 6
846 1 1 0.5897 1.4997514334139581 1.383534122474014 11.3471736742159 2 -2 4
100 1 2 -1.1794 5.5945243699523335 3.0418395576474273 11.296831955942787 6 -4 0
501 1 1 0.5897 3.2138682838523436 6.110082767232748 13.634717116519573 -2 0 -3
476 1 1 0.5897 8.586493078375696 11.188859250012426 11.640664307120545 6 -4 -2
618 1 1 0.5897 -0.3624081556553449 6.4996562053039435 11.400492659101404 -1 5 1
158 1 1 0.5897 4.511564949867423 11.361770923718927 13.43367780305715 2 1 -3
511 1 2 -1.1794 7.084084634510115 9.103021488678094 13.956394170175322 -1 2 -9
513 1 1 0.5897 7.7931365661282666 9.740851027298557 14.038539536292703 -1 2 -9
159 1 1 0.5897 3.773048337561794 10.147429425552804 13.955374114665329 2 1 -3
817 1 2 -1.1794 1.9977129534769915 9.301146941608875 13.812919118714136 4 1 1
531 1 1 0.5897 5.8394370005681235 7.52568003192057 15.916154025689144 -4 -4 -5
529 1 2 -1.1794 5.406506499669568 6.87579050637921 15.36251953474293 -4 -4 -5
512 1 1 0.5897 6.293825320738481 9.591772575653552 14.18653695196686 -1 2 -9
499 1 2 -1.1794 2.8169658001517974 6.662636422175034 14.308110293799288 -2 0 -3
267 1 1 0.5897 7.4766807734677965 8.971960739311694 12.24952156182914 -7 -1 -4
500 1 1 0.5897 3.4732785692639934 6.701984668135035 15.003817566754465 -2 0 -3
818 1 1 0.5897 2.4047784705860535 8.439122883950672 13.89963559242683 4 1 1
530 1 1 0.5897 5.76246824202503 7.030576300185733 14.487517243126515 -4 -4 -5
157 1 2 -1.1794 4.580349809133462 10.649088939674833 14.069050410485145 2 1 -3
662 1 1 0.5897 0.19648841402436934 9.42696157067148 15.105098527880893 -6 -4 2
495 1 1 0.5897 4.233097920826996 6.875785422463592 11.345447449803991 -3 -1 -3
537 1 1 0.5897 0.32869357584334524 11.500960692109627 11.522112431989614 10 6 3
819 1 1 0.5897 1.6657681717854262 9.320589526886586 12.915290900767912 4 0 1
265 1 2 -1.1794 7.661327730233106 8.976235031015088 11.310273447206532 -7 -1 -4
62 1 1 0.5897 4.300381281345946 11.58236189373796 15.700566216342898 -1 1 0
362 1 1 0.5897 9.0887020744269 11.394154781949954 15.415371196209213 2 -2 -2
275 1 1 0.5897 4.754365591529817 4.873851411952098 18.506653546144527 -5 5 -4
276 1 1 0.5897 3.429552129487658 5.601833375287697 18.59011830098109 -5 5 -4
274 1 2 -1.1794 3.813021130679691 4.748823677880772 18.386092266072836 -5 5 -4
382 1 2 -1.1794 2.6316216751826667 2.5922813140630074 20.221203779760117 -10 -2 1
384 1 1 0.5897 1.9125743326966793 2.1832239724725424 19.73959404921456 -10 -2 1
641 1 1 0.5897 1.9292492258709713 2.2263799913968807 21.85822698855909 5 1 -5
383 1 1 0.5897 3.0571675910747347 3.1611926533071144 19.579634914910763 -10 -2 1
656 1 1 0.5897 6.805439329372489 3.482784119006967 18.147404929090925 0 3 0
746 1 1 0.5897 5.543819851650426 2.346341112551214 22.28702677360014 1 0 -9
237 1 1 0.5897 5.367630112110055 1.6761661892326107 17.85305980381493 0 1 -1
263 1 1 0.5897 0.5808543671686892 2.132083180906943 18.159949588627725 6 -3 6
262 1 2 -1.1794 0.13663693982802905 1.667441912596623 18.86922739876887 6 -3 6
655 1 2 -1.1794 6.57499117867431 4.411224839230963 18.112848536990157 0 3 0
491 1 1 0.5897 4.187414835319922 1.5206644557737 20.639412912475677 -5 1 4
657 1 1 0.5897 6.745732967089121 4.667295386640272 17.206424119162676 1 3 0
492 1 1 0.5897 5.547847024427616 1.4609216613433822 19.97779697246621 -5 1 4
235 1 2 -1.1794 6.223984748490651 1.6925922381170517 18.280480386657665 0 1 -1
490 1 2 -1.1794 5.103633181393936 1.302818284517282 20.81085040402707 -5 1 4
239 1 1 0.5897 8.425654291132153 4.313352041711298 18.54339595994535 -6 -5 0
433 1 2 -1.1794 6.93621423224331 5.977611039282321 22.464167399179573 0 3 -2
236 1 1 0.5897 6.748015620289279 1.0573601170279854 17.79245682121426 0 1 -1
264 1 1 0.5897 0.29125217792299096 0.7412565236343482 18.683227407147676 6 -3 6
637 1 2 -1.1794 1.967890471201999 3.2331884616865616 17.04132757665768 -6 -1 1
639 1 1 0.5897 2.5297759302750054 3.855806728987627 17.502827576906974 -6 -1 1
640 1 2 -1.1794 1.3985132318735587 2.0786931766967944 22.641057304540393 5 1 -5
782 1 1 0.5897 -0.2037926727932946 3.085237065518309 22.62213090072179 -3 -1 1
461 1 1 0.5897 0.7996763401396803 9.827614476416697 20.179377322359848 5 3 1
726 1 1 0.5897 0.27848725931009355 6.348825980930211 22.57988458699127 0 -4 2
460 1 2 -1.1794 0.34301041173251445 10.668779340905628 20.163831545566815 5 3 1
410 1 1 0.5897 8.397066127077116 8.561761015785038 20.66188540458633 5 3 -6
409 1 2 -1.1794 7.462036518486308 8.367347945406069 20.727252443101513 5 3 -6
764 1 1 0.5897 5.850237261359782 9.174269610607567 17.73407188462903 -5 2 -3
765 1 1 0.5897 6.64454468072041 8.213884314777026 18.59363657518137 -5 2 -3
763 1 2 -1.1794 6.546012782356739 8.518226565948769 17.69142510629007 -5 2 -3
148 1 2 -1.1794 5.956242658656826 10.806377519459282 20.593320888382898 -1 -2 1
117 1 1 0.5897 8.588844816582093 8.933574487526814 17.180959536043424 -3 -2 3
411 1 1 0.5897 7.419101968487009 7.5695769820909655 21.254545772937732 5 3 -6
149 1 1 0.5897 5.537368398710446 10.946029758597609 21.442640203607795 -1 -2 1
462 1 1 0.5897 0.037806300585237984 10.759487123767798 19.261095769783942 5 3 1
608 1 1 0.5897 3.411940987589644 8.2906534082693 18.648893014128618 4 5 2
609 1 1 0.5897 2.0574577570165835 7.642782233956901 18.843110257655944 4 5 2
150 1 1 0.5897 6.405530952503601 9.965855859424508 20.682622528567194 -1 -2 1
607 1 2 -1.1794 2.9922766359175212 7.502572044858816 18.994011370293705 4 5 2
759 1 1 0.5897 4.020725847406686 7.01773123746611 21.02419907100475 2 2 3
521 1 1 0.5897 -0.22634025550444795 7.21314256460497 20.431802196772814 -1 0 -4
103 1 2 -1.1794 4.180885871930152 10.082165941179015 18.486523351589327 5 2 4
757 1 2 -1.1794 4.169038549046845 6.808367079290857 21.946414411873818 2 2 3
758 1 1 0.5897 5.079390682365373 6.514646355472667 21.98244105608162 2 2 3
105 1 1 0.5897 4.136559582339105 10.801701002813596 17.85675849678458 5 2 4
104 1 1 0.5897 4.776430009071542 10.395439607984887 19.167330076820463 5 2 4
520 1 2 -1.1794 0.04712843475728773 7.700218778190521 19.654438601840496 -1 0 -4
368 1 1 0.5897 4.0503421625878415 8.779283833527046 22.41549787346738 2 6 -3
391 1 2 -1.1794 6.54545498220293 15.535390937452615 4.867910845571268 4 -2 0
388 1 2 -1.1794 0.4073624219418256 15.005140228844398 0.4836795908820801 2 4 4
393 1 1 0.5897 5.747821555457424 15.133702772177601 5.212491841584434 4 -2 0
392 1 1 0.5897 6.723792794486904 15.058062271797013 4.057567528518541 4 -2 0
387 1 1 0.5897 2.3162538198872995 13.353568866958621 4.604165105758907 -4 1 1
385 1 2 -1.1794 3.218878781506817 13.258752963545737 4.299879661568575 -4 1 1
408 1 1 0.5897 7.691004345934525 16.436703726062415 2.398805789040671 -3 1 4
785 1 1 0.5897 2.6808174717603426 15.400462978755517 2.4123740443629815 3 3 4
406 1 2 -1.1794 8.551666911549974 16.811727959325008 2.2119150190238854 -3 1 4
784 1 2 -1.1794 3.055400137801419 14.980937199367826 1.6377865717261613 3 3 4
786 1 1 0.5897 3.892730451231385 15.425503094819769 1.5053412901401655 3 3 4
772 1 2 -1.1794 0.6619392400110371 13.334657108755577 4.9227704884414445 1 -1 3
318 1 1 0.5897 7.544656320932009 13.293188836676872 2.7115731984285634 -7 -7 0
76 1 2 -1.1794 2.448377966896922 16.81808689640005 3.8564363021891266 -8 -4 -4
389 1 1 0.5897 1.3486773130901661 14.889152978584452 0.6132256462658388 2 4 3
774 1 1 0.5897 0.28143285628310755 13.628437130741911 4.094992300790412 1 -1 3
316 1 2 -1.1794 6.658591142824609 13.594674777166164 2.5108131323554734 -7 -7 0
78 1 1 0.5897 1.608566301796586 17.27633512594669 3.8237991730501637 -8 -4 -4
386 1 1 0.5897 3.179188905975755 13.459272813554978 3.364715490711717 -4 1 1
317 1 1 0.5897 6.242231841983861 12.847212156542637 2.081550013091959 -7 -7 -1
720 1 1 0.5897 2.399155670836206 12.129000002513818 0.27549418807750425 6 6 2
390 1 1 0.5897 0.0067912049109015715 14.585404662985875 1.2450457441636582 2 4 4
773 1 1 0.5897 0.7608796245308702 12.388229503574825 4.818923762273295 1 -1 3
527 1 1 0.5897 8.237235550436411 16.39752466331271 0.3312009484497993 -1 -4 -1
719 1 1 0.5897 3.0681970785681703 13.487055989808248 0.28724505058042193 6 6 2
718 1 2 -1.1794 2.638610934359424 12.859838762557352 -0.29444553767100745 6 6 2
429 1 1 0.5897 4.574313853891472 20.00506077370755 -0.23736006139338858 -1 2 -1
474 1 1 0.5897 0.7788286203964987 19.316695201201657 5.002282625882988 4 2 -1
77 1 1 0.5897 3.0840305706931717 17.45907858192929 3.5380208311086965 -8 -4 -4
427 1 2 -1.1794 3.8077957674541185 19.592693760953427 0.16107748877196326 -1 2 -1
523 1 2 -1.1794 1.7090646997266923 21.54049124018421 0.1837019605866359 1 -1 4
219 1 1 0.5897 6.985356158030671 21.55636162420116 -0.015038961335083423 6 -2 -2
626 1 1 0.5897 2.8816415545022314 21.03929117673668 5.012174494918519 -4 -3 1
218 1 1 0.5897 8.476726931458568 21.406529576825847 0.1982460144919611 6 -2 -2
504 1 1 0.5897 7.939021777942962 20.14613135473777 3.9989435143706373 -6 -1 0
195 1 1 0.5897 -0.1338054241835363 18.71024420567584 2.5844327223394394 5 -3 0
546 1 1 0.5897 7.538733156012572 19.089457349186286 2.3414372401025902 -1 1 2
625 1 2 -1.1794 3.698050653743576 21.27422803822784 4.5710627724715 -4 -3 1
524 1 1 0.5897 2.382790914067972 20.868185874683096 0.0815407890049753 1 -1 4
428 1 1 0.5897 4.122775778369987 19.2634725282098 1.0029203639149213 -1 2 -1
597 1 1 0.5897 4.13983910466076 19.787917281464626 3.4148203850344094 4 -2 1
196 1 2 -1.1794 3.0536276493619665 22.76901867029446 2.5139951981710413 1 -2 2
545 1 1 0.5897 7.218970381758113 20.498093266857445 1.8880435143293166 -1 1 2
544 1 2 -1.1794 7.016594806369847 19.858296466156137 2.570689561494679 -1 1 2
193 1 2 -1.1794 0.057217699397729416 18.10488861814117 3.3009177567570824 5 -3 0
217 1 2 -1.1794 7.659780336432959 21.586378039400774 0.6636411449124244 6 -2 -2
827 1 1 0.5897 0.05609684470472881 20.64910492714254 0.833743095946454 -2 2 0
596 1 1 0.5897 5.295159834270666 19.209124748683085 2.625967485309879 5 -2 1
627 1 1 0.5897 3.426207482122973 21.84052647710089 3.8487626401515174 -4 -3 1
595 1 2 -1.1794 4.401504501151778 19.017515010818844 2.9105276516015244 4 -2 1
525 1 1 0.5897 1.949705912529311 22.001213625199096 0.9875413559144888 1 -1 4
473 1 1 0.5897 0.20479289465649053 20.717536152323078 5.015741351820126 4 2 -1
502 1 2 -1.1794 8.20987168957938 20.30899564670498 4.9025067995688385 -6 -1 0
762 1 1 0.5897 4.814960002272236 22.68239556236642 5.213691792707279 1 -5 0
188 1 1 0.5897 7.758783968430896 22.310499682672567 5.0214262268424585 0 3 3
211 1 2 -1.1794 6.159841132914243 14.423952168058934 8.813082082005078 3 3 2
212 1 1 0.5897 7.04954973245218 14.773428646017 8.863923035241376 3 3 2
213 1 1 0.5897 6.274462826595831 13.473635488533255 8.820970292892989 3 3 2
538 1 2 -1.1794 1.4203633569057528 16.00253640420943 8.039128529485785 1 -6 0
539 1 1 0.5897 1.2812238522564086 16.20201535966919 8.964958742310477 1 -6 0
540 1 1 0.5897 2.1499735762567744 15.38290619463335 8.034149613758602 1 -6 0
506 1 1 0.5897 5.993149531487955 16.23865890292256 8.31980457891258 0 1 0
507 1 1 0.5897 4.907853576355368 16.986593235225104 7.574843423914757 0 1 0
170 1 1 0.5897 3.307660114157337 13.627072825462017 9.145288343967724 0 2 -3
505 1 2 -1.1794 5.631596148821564 17.11516239378291 8.188046126579305 0 1 0
469 1 2 -1.1794 0.9410366613781325 16.318319991968607 10.833981206045557 -1 -6 1
837 1 1 0.5897 0.06400691909144712 15.055288178279055 7.4399318713432 -1 1 -4
471 1 1 0.5897 0.4755165066763556 17.134177646268785 10.649679690300498 -1 -6 1
358 1 2 -1.1794 3.4418316405368286 12.335666527628465 10.366923918095875 1 -4 -4
169 1 2 -1.1794 3.4992935489779295 14.452017498698208 8.699120576907225 0 2 -3
541 1 2 -1.1794 8.547263990500113 15.673879256701621 8.505540105824975 -5 -1 2
610 1 2 -1.1794 8.684443834688066 14.485218197082743 6.030215221200949 1 2 -2
624 1 1 0.5897 7.520664053123831 12.240885500430501 5.95910964676398 6 -2 1
360 1 1 0.5897 2.6246429278716326 11.837387082855548 10.38245624981954 1 -4 -4
171 1 1 0.5897 4.3971049863133675 14.661325646938153 8.956912826209312 0 2 -3
611 1 1 0.5897 8.760644829244404 14.901549216263641 6.888802653327795 1 2 -2
542 1 1 0.5897 8.472203300887843 16.627852105798922 8.480933067337633 -5 -1 2
612 1 1 0.5897 7.845373086388646 14.793353934534094 5.687691575579378 1 2 -2
26 1 1 0.5897 6.607772757144344 13.615183063735554 10.810109058276302 -4 6 8
503 1 1 0.5897 7.531260243295138 19.893943706819094 5.434975594383506 -6 -1 0
415 1 2 -1.1794 0.47256408295329544 22.04832211945375 7.275123540537228 -3 -6 -3
222 1 1 0.5897 2.620702842839094 17.58072036827272 7.100544593458406 2 -3 5
741 1 1 0.5897 6.301702939346999 20.349544670141125 8.099834509206197 -2 2 0
740 1 1 0.5897 6.0412262214891825 19.734154887958397 9.458335941224316 -2 2 0
601 1 2 -1.1794 8.019541685904514 22.324947084611463 11.090593702062279 1 5 -2
220 1 2 -1.1794 3.343315544217241 17.871658632657443 6.544225891415753 2 -3 5
52 1 2 -1.1794 8.641031392922539 18.466844383119003 8.86819556493974 -4 0 2
602 1 1 0.5897 8.874100221615583 22.752869094560644 11.036422072563717 1 5 -3
53 1 1 0.5897 7.788038403106073 18.898771809913196 8.914678706546397 -4 0 2
739 1 2 -1.1794 6.620395360914032 20.344930775360375 9.002449143321122 -2 2 0
564 1 1 0.5897 2.4586085465111154 20.297831623433716 9.462733696952371 6 -2 3
225 1 1 0.5897 4.016277403519621 18.921928714842643 10.423753132052795 2 -2 -6
562 1 2 -1.1794 2.41510701269235 19.68917025916309 10.200253654897045 6 -2 3
603 1 1 0.5897 8.17529489114428 21.436458589092357 10.770195449202491 1 5 -2
791 1 1 0.5897 2.2815069960937366 22.16839091900809 7.84465607238179 1 2 3
790 1 2 -1.1794 3.1984889835023798 22.13406484399108 8.117188695479962 1 2 3
667 1 2 -1.1794 5.80337594644836 19.469545372826698 6.135838882577162 -6 -2 0
223 1 2 -1.1794 4.913785643666386 18.59856610047337 10.344809652192932 2 -2 -6
416 1 1 0.5897 0.533914029907496 21.398708235989833 6.5747296762041385 -3 -6 -3
417 1 1 0.5897 0.6290057091204269 22.88628502701873 6.839627193337395 -3 -6 -3
792 1 1 0.5897 3.6793079627528504 22.534538601596616 7.3927776393856295 1 2 3
668 1 1 0.5897 4.996243762617068 19.74427810785748 5.700689242939299 -6 -2 -1
224 1 1 0.5897 4.9276210502627436 18.13040730516404 9.509968257706763 2 -2 -6
221 1 1 0.5897 3.2038770075523058 17.41800531260925 5.7129254477193125 2 -3 5
669 1 1 0.5897 5.578945481259255 18.6391370709316 6.555778417715237 -6 -2 0
780 1 1 0.5897 0.4710010094454806 19.410938689178444 10.274719929222462 0 0 -1
563 1 1 0.5897 2.5316194331857917 20.24077870624613 10.973848806719644 6 -2 3
54 1 1 0.5897 9.036811197370827 18.80312021740275 8.06408868695624 -4 0 2
778 1 2 -1.1794 -0.31589464816973367 18.888980509155008 10.431843800615802 0 0 -1
472 1 2 -1.1794 0.931476427553009 20.193970444264572 5.353548337552501 4 2 -1
768 1 1 0.5897 3.693564307208419 14.211702059593376 13.00519199468586 1 -2 2
36 1 1 0.5897 7.382810324159 15.164780978861758 14.996158433456428 -7 3 0
58 1 2 -1.1794 2.314785806340251 15.549049519470774 13.269262700500668 5 -3 -3
59 1 1 0.5897 1.6464835608825985 14.935018275582493 13.573619976414019 5 -3 -3
573 1 1 0.5897 7.760562302039338 15.075624724761138 12.465783192752983 6 0 -7
60 1 1 0.5897 1.983905116117798 15.86689117979351 12.429149468640222 5 -3 -3
25 1 2 -1.1794 6.7832004777294905 13.582538609410307 11.750566890026967 -4 6 8
766 1 2 -1.1794 4.150071346341038 13.393494793480242 12.809110449599785 1 -2 2
571 1 2 -1.1794 7.92637094363371 15.813740505268056 13.05228987443821 6 0 -7
61 1 2 -1.1794 4.208078860207776 12.011472315313052 16.551255436881213 -1 1 0
824 1 1 0.5897 2.824786260582795 16.510825127836885 14.965798665251048 1 8 3
767 1 1 0.5897 3.8322735770959904 13.143315918947929 11.941508649449077 1 -2 2
823 1 2 -1.1794 3.0924879681231205 16.90557285784649 15.795743855172434 1 8 3
34 1 2 -1.1794 7.4246330390194935 14.918104857251661 15.920123221453688 -7 3 0
27 1 1 0.5897 5.930079644395419 13.729502660500414 12.159078863609553 -4 6 8
448 1 2 -1.1794 0.6904357474344276 13.950198959916957 14.724685952849246 3 -4 -4
450 1 1 0.5897 0.8996379403945647 13.509681971589833 15.54838946507732 3 -4 -4
825 1 1 0.5897 2.3091883411599925 16.865067876188746 16.344469683717854 1 8 3
449 1 1 0.5897 0.20353647136516484 13.298072904452145 14.22068274003482 3 -4 -4
63 1 1 0.5897 4.580653038787976 12.883667467851359 16.421784336633678 -1 1 0
35 1 1 0.5897 6.513628079196695 14.931940842286131 16.213693112288937 -7 3 0
17 1 1 0.5897 3.9894753371107736 15.310121820694656 16.520814009452558 -3 3 4
816 1 1 0.5897 8.854111962148608 13.610904464302893 16.387456412214014 -4 10 -5
572 1 1 0.5897 8.878482927970214 15.834150435752264 13.149124300343972 6 0 -7
167 1 1 0.5897 8.050460519245664 16.57346403317966 16.761514088035156 -3 1 4
475 1 2 -1.1794 8.981880207441874 11.920090116095961 12.115365902376594 6 -4 -2
477 1 1 0.5897 8.3040965337367 12.595999723714874 12.122711129659033 6 -4 -2
470 1 1 0.5897 0.27128334068582516 15.735369692666477 11.191605019100413 -1 -6 1
107 1 1 0.5897 7.153859463705832 17.689879610880237 12.805407280376306 1 0 4
43 1 2 -1.1794 4.242586549238208 19.33962266463041 16.182011007758803 3 4 -1
326 1 1 0.5897 8.284255909969712 19.42543969118332 12.76203773521419 0 -3 -3
794 1 1 0.5897 7.606375558965399 22.177910791442986 13.06552782704191 -3 1 6
793 1 2 -1.1794 7.479290650155308 22.278525769013036 14.008947464642212 -3 1 6
257 1 1 0.5897 5.529865080224818 21.15836007309219 13.946732466333362 -3 -1 -1
108 1 1 0.5897 6.005543014952424 18.42857266546996 12.151337076989938 1 0 4
45 1 1 0.5897 3.807808677820681 18.525706469806455 15.927426667687856 3 4 -1
163 1 2 -1.1794 1.4444454884627629 22.557727514550518 14.358669297808166 -2 3 -2
256 1 2 -1.1794 4.979363717096974 20.397224277955004 13.762570761426213 -3 -1 -1
106 1 2 -1.1794 6.718101897464903 18.54182462532228 12.780417143068005 1 0 4
44 1 1 0.5897 4.4718389666718625 19.75885715862346 15.352552295482072 3 4 -1
164 1 1 0.5897 1.953032415071545 22.19401559007589 13.633859341807257 -2 3 -2
687 1 1 0.5897 3.1366773814394984 22.166689122366922 11.772502384886241 7 -6 -2
12 1 1 0.5897 3.2985012706092633 20.90117069703782 16.294883695003108 0 1 5
581 1 1 0.5897 7.933507325809634 21.709095842467274 16.064476818370707 -5 -3 0