LAMMPS data file via write_data, version 30 Jul 2021, timestep = 8000000

864 atoms
2 atom types
576 bonds
1 bond types
288 angles
1 angle types

0.6073193672492128 17.600253032754907 xlo xhi
1.8068732643102656 21.82230453570037 ylo yhi
0.7409282095061069 21.472267590483106 zlo zhi

Masses

1 1.00794
2 15.9994

Pair Coeffs # lj/cut/tip4p/long/omp

1 0 0
2 0.21084 3.1668

Bond Coeffs # harmonic/omp

1 450 0.9572

Angle Coeffs # harmonic/omp

1 55 104.52

Atoms # full

752 1 1 0.5897 9.036405310253194 6.604991432001427 1.5573013283586539 0 1 0
675 1 1 0.5897 7.059645199409413 5.317662712745139 3.5824226496640277 -4 0 -3
753 1 1 0.5897 7.573375216550365 6.436877830944293 1.9080509136742398 0 1 0
438 1 1 0.5897 8.498105480500824 4.042244610443037 2.367357118674867 -2 5 0
589 1 2 -1.1794 0.7787913818007457 3.4508922559434856 4.436903929657113 1 3 1
43 1 2 -1.1794 8.83243186935489 3.0452153255300995 4.925104723509437 5 8 -2
197 1 1 0.5897 2.820622223390965 5.884630963122178 3.110058893658308 3 -2 2
208 1 2 -1.1794 4.004047306978348 4.637099555000681 2.4672136456507445 2 0 2
590 1 1 0.5897 1.6401050769683758 3.8038995939568663 4.6598468696480095 1 3 1
808 1 2 -1.1794 6.15962801382183 2.0981172598430926 3.679217863018763 6 -1 -5
210 1 1 0.5897 3.925450893617222 3.7583695378539725 2.095931875410282 2 0 2
461 1 1 0.5897 3.812053729441397 4.325560555617448 4.2594543923998405 2 5 -2
673 1 2 -1.1794 6.985417733346815 4.72684333427911 2.8330188716632683 -4 0 -3
810 1 1 0.5897 6.809713468978726 2.7710332025425055 3.4773646679733936 6 -1 -5
209 1 1 0.5897 4.26638864684463 5.186938774358321 1.7289450030189624 2 0 2
674 1 1 0.5897 6.045311807197196 4.6746104426089135 2.6608005628744307 -4 0 -3
196 1 2 -1.1794 2.314805887265762 6.65994327400793 3.3535222428280633 3 -2 2
460 1 2 -1.1794 3.3932302387631226 4.121169075124105 5.095513235464309 2 5 -2
499 1 2 -1.1794 4.110274132229691 2.282020934538831 1.3609297510628995 -5 1 -4
272 1 1 0.5897 3.3907770258855674 5.737029316010124 5.772688216336354 3 3 3
462 1 1 0.5897 4.115456628741763 3.8668279084402553 5.6698786786075255 2 5 -2
44 1 1 0.5897 9.072850829923846 3.96914120575667 4.993838670885003 5 8 -2
282 1 1 0.5897 1.3430372655858758 1.81875443149078 5.294869894884312 -5 4 0
740 1 1 0.5897 6.028201097560529 2.6637202599562357 5.683663568212087 2 2 2
273 1 1 0.5897 4.532968411170351 6.729832153586265 5.734184587503803 3 3 3
628 1 2 -1.1794 7.15692375011202 5.47503787877773 7.288645880330401 0 -3 6
768 1 1 0.5897 2.4325012877020242 6.550518427751937 7.771838445182226 -4 -1 1
271 1 2 -1.1794 3.718294682400572 6.530818825507957 6.195558543988798 3 3 3
665 1 1 0.5897 3.3008049254713634 3.445682650392204 8.929316466141453 2 5 2
492 1 1 0.5897 8.45521156560044 4.949806072592295 8.571208974330558 -1 4 0
149 1 1 0.5897 1.5234400785234623 2.820505022625211 7.307596784782352 -4 -1 2
630 1 1 0.5897 7.46773198841216 5.962574826588816 6.525838066558236 0 -3 6
515 1 1 0.5897 8.040193042299652 3.484237966735866 10.388987477228465 -4 -3 0
666 1 1 0.5897 4.2048773545902085 2.2975385604034115 8.534108149242762 2 5 2
148 1 2 -1.1794 1.5889573629316556 3.385825451680838 8.077205867610353 -4 -1 2
588 1 1 0.5897 4.95848458753496 5.11086733530157 9.44763581237509 1 4 6
586 1 2 -1.1794 5.54854989470727 5.472508725671531 10.108858728312475 1 4 6
150 1 1 0.5897 1.2500094374141808 2.8526017152586904 8.79620510316645 -4 -1 2
739 1 2 -1.1794 5.870923427428427 3.1879210045060224 6.468970912788146 2 2 2
664 1 2 -1.1794 4.201571856000383 3.1309325104372956 9.004927785274598 2 5 2
516 1 1 0.5897 7.2110927484861485 2.4239200701269388 9.696134519994253 -4 -3 0
767 1 1 0.5897 1.8765390328174956 5.447394313713746 8.64692327888175 -4 -1 1
741 1 1 0.5897 5.831056587457731 2.548597096726089 7.180205926339688 2 2 2
629 1 1 0.5897 6.740832875517746 4.695039946446941 6.921708860941563 0 -3 6
514 1 2 -1.1794 7.247926281165458 2.956791803778982 10.490403078697979 -4 -3 0
642 1 1 0.5897 4.53995819403327 2.8972593593380926 10.730694625118758 5 3 -3
229 1 2 -1.1794 0.6996522528316719 2.5935624817878136 10.614833569802663 1 6 2
587 1 1 0.5897 6.152805402093391 4.757430305552033 10.30811707995113 1 4 6
766 1 2 -1.1794 2.0839869748628725 6.381820268993447 8.647198217621025 -4 -1 1
776 1 1 0.5897 8.749280695148233 3.030392452085394 13.329491041793498 3 -3 -1
389 1 1 0.5897 2.2835237784595366 6.273327017986783 15.425217359896324 -4 6 5
775 1 2 -1.1794 8.460341279674982 2.321479064788516 13.904053249455167 3 -3 -1
725 1 1 0.5897 5.409517447936918 4.722096760725127 13.724906689401008 5 -5 4
506 1 1 0.5897 7.024823699076878 5.985386333702755 12.920797916275744 4 1 -6
505 1 2 -1.1794 7.856589067561393 6.026007631405859 12.448852809999753 4 1 -6
390 1 1 0.5897 2.710902365786688 5.421281246004154 14.249164892933761 -4 6 6
388 1 2 -1.1794 2.9603533848894834 6.196044000520428 14.752836322726738 -4 6 6
333 1 1 0.5897 1.9467663532115305 3.3976239273183264 14.095888910863078 -2 0 -3
332 1 1 0.5897 1.2531138487574065 4.265539857045506 13.06762196043584 -2 0 -3
567 1 1 0.5897 5.181939735432065 2.833162843715952 12.989963859274354 0 5 -6
537 1 1 0.5897 8.733967931139233 2.462384599543937 15.581505155180531 4 6 3
695 1 1 0.5897 6.563526631526689 4.973052075183393 15.144068755435521 3 -2 2
565 1 2 -1.1794 5.529086453110516 2.990708993073176 13.8679426417363 0 5 -6
331 1 2 -1.1794 2.1176389146729075 4.052062209876916 13.418612390096278 -2 0 -3
74 1 1 0.5897 1.8600978832339106 2.192227669005203 15.64087490364419 2 -1 5
726 1 1 0.5897 4.525517640291322 5.923690374105471 13.982730757187468 5 -5 4
724 1 2 -1.1794 5.441225036981932 5.667024934995736 13.874164374974699 5 -5 4
777 1 1 0.5897 7.5098232570197965 2.4235116970182293 13.95171953916876 3 -3 -1
694 1 2 -1.1794 7.243355828944709 4.494912070764553 15.618831212519035 3 -2 2
641 1 1 0.5897 3.539086547490129 2.9679297064616925 11.864274701895631 5 3 -3
669 1 1 0.5897 9.07872050849132 5.147884894812556 15.121873236723156 -7 -2 1
640 1 2 -1.1794 4.372613854965904 2.5692946348310293 11.614234746289627 5 3 -3
566 1 1 0.5897 5.446072782075078 2.147722622543522 14.313653905384323 0 5 -6
6 1 1 0.5897 8.995081690859472 4.715312365180356 12.386401769150698 6 -1 0
696 1 1 0.5897 6.763211277219082 3.956271454155762 16.247713153909764 3 -2 2
85 1 2 -1.1794 6.174408678418983 3.0681641329753857 20.269685135584183 3 6 -1
730 1 2 -1.1794 0.6779258711428453 5.64590328827447 16.597541327153728 1 0 -6
158 1 1 0.5897 7.9489984100353945 5.1241460031807815 19.433667097364115 2 3 -2
97 1 2 -1.1794 5.119549519165813 5.9347624600710605 17.640604853720674 0 -5 7
439 1 2 -1.1794 4.33076046419 6.4269632967473855 20.993468157757164 0 2 0
441 1 1 0.5897 4.046615926972699 5.67278099044057 20.477047479013216 0 2 0
98 1 1 0.5897 5.698602079532119 5.51029585059544 18.2736955072263 0 -5 7
568 1 2 -1.1794 2.875237361623386 4.476941390248712 19.996542703488956 -2 1 -1
569 1 1 0.5897 3.030938988461927 4.187396172687258 19.097605044406535 -2 1 -1
774 1 1 0.5897 2.2271201997422345 4.66582532639503 16.835325621478994 -1 -5 3
501 1 1 0.5897 4.72409480191802 2.575415908707702 21.418966916131403 -5 1 -5
87 1 1 0.5897 5.979541627841665 2.6539456901196963 19.42907724930913 3 6 -1
178 1 2 -1.1794 5.674416192728852 2.964378808586939 17.40701305781306 -6 5 -5
570 1 1 0.5897 2.0551919841096553 4.968550614437634 19.95168325663637 -2 1 -1
404 1 1 0.5897 1.9879610856823047 2.8541036142928204 20.278807668967808 8 -3 2
162 1 1 0.5897 7.708911225635563 6.096819203948684 16.417842131785896 0 4 5
86 1 1 0.5897 6.389562709162753 3.9738120906848424 20.04679285768063 3 6 -1
157 1 2 -1.1794 7.197495785672125 5.44096878533915 19.934707614640473 2 3 -2
179 1 1 0.5897 4.759224572040272 3.228424810615323 17.3127449661271 -6 5 -5
99 1 1 0.5897 4.495802477803954 5.252927410595975 17.391149161707865 0 -5 7
772 1 2 -1.1794 2.940350413734414 4.092123988425126 17.11528764403546 -1 -5 3
180 1 1 0.5897 5.746689802389498 2.1609561189265847 16.8917784480591 -6 5 -5
403 1 2 -1.1794 1.7248917145060436 1.9449639953332005 20.135838368477636 8 -3 2
603 1 1 0.5897 7.487239069170376 1.8457044640842213 20.649040646625977 3 6 -3
159 1 1 0.5897 7.565004680595844 6.091400587145283 20.533074643922937 2 3 -2
773 1 1 0.5897 3.1369774732334164 3.5600378938925648 16.344269181714033 -1 -5 3
686 1 1 0.5897 9.080727853800209 3.7269715482461208 17.767586818780423 6 -5 -1
440 1 1 0.5897 5.0517142882304835 6.804756894486788 20.489815457522802 0 2 0
7 1 2 -1.1794 8.088045711646167 11.48433919119786 5.342412673162425 3 -1 0
168 1 1 0.5897 7.976950849101512 8.725557045864987 1.4174461778564384 -1 1 4
496 1 2 -1.1794 6.162750124713404 7.269583713560458 4.555272696154604 2 -3 -1
625 1 2 -1.1794 2.192313280998598 8.236887529490899 0.9318469702963283 -5 -3 2
167 1 1 0.5897 7.587408398479798 10.119798116571761 1.8602862773078468 -1 1 4
498 1 1 0.5897 6.948904612430929 7.809924782653067 4.4766510779052435 2 -3 -2
497 1 1 0.5897 5.497640346992273 7.738896909088693 4.051735433912557 2 -3 -1
352 1 2 -1.1794 4.4292801157983135 9.64016678672892 5.658124733444789 6 3 1
661 1 2 -1.1794 4.1689385695649435 8.659601274333788 3.084106200977934 1 -4 0
136 1 2 -1.1794 8.410871038791136 8.797252071502264 4.445697246687786 3 -8 0
377 1 1 0.5897 2.586326055462934 11.48643424649964 3.2225966137315916 4 3 5
166 1 2 -1.1794 8.228273225245493 9.645096631446028 1.331020888610443 -1 1 4
555 1 1 0.5897 5.541117115111331 11.138563641563778 3.0045094200856974 -9 -6 3
662 1 1 0.5897 4.4354060530384185 9.224033968101981 2.3584465637087706 1 -4 0
138 1 1 0.5897 8.141936261585009 9.586230926320063 4.916184994146413 3 -8 0
198 1 1 0.5897 2.8824113485325618 7.397110957307572 3.1284709118249263 3 -2 2
399 1 1 0.5897 1.6381127383215623 9.40914275450804 2.155442293010009 4 0 -6
663 1 1 0.5897 4.214039794927421 9.223770418760507 3.85603351257637 1 -4 0
397 1 2 -1.1794 1.316507929942544 10.178440030252737 2.6254789559301295 4 0 -6
554 1 1 0.5897 6.688657321850976 11.352039105373915 3.9685160014899394 -9 -6 3
751 1 2 -1.1794 8.176129288190626 7.003915980977159 1.4270864707739226 0 1 0
553 1 2 -1.1794 6.491648536049095 11.246014298725557 3.0378646497805377 -9 -6 3
398 1 1 0.5897 0.7266932523955472 10.608673965239541 2.0064471257842253 4 0 -6
226 1 2 -1.1794 4.796947161557532 10.2067860311924 0.8391304895520588 3 -4 2
503 1 1 0.5897 1.0703048859119932 6.963816044866975 4.626933759378671 -4 1 3
124 1 2 -1.1794 8.41364052368547 9.161355124602714 8.059879776581935 -1 -1 2
698 1 1 0.5897 3.065090297586905 8.1968932492718 9.338188077742458 1 1 -4
466 1 2 -1.1794 7.48202891196847 8.075915096134633 10.477911039071884 4 0 2
251 1 1 0.5897 1.2757288119287504 8.587092385693479 5.987763292407614 10 -3 2
269 1 1 0.5897 1.6555377965094662 10.51271592361835 7.822406830976111 1 7 6
697 1 2 -1.1794 3.6216701680246883 8.971568273571606 9.417720982647907 1 1 -4
560 1 1 0.5897 5.080913648564034 8.314437603629688 8.25184811224414 5 0 3
561 1 1 0.5897 5.9552337836615985 7.301920789363692 7.5431938964601475 5 0 3
252 1 1 0.5897 2.580882818529755 9.335942747653077 6.153779860063772 10 -3 2
699 1 1 0.5897 4.243062762174268 8.750394337473669 10.11135701962784 1 1 -4
692 1 1 0.5897 5.672993129161196 11.227822766548428 9.886214769617412 2 -1 4
9 1 1 0.5897 8.184303132223892 11.560865755513877 6.291646224286139 3 -1 0
693 1 1 0.5897 4.323300664803181 10.614061115589188 9.580631886468472 2 -1 4
559 1 2 -1.1794 5.871678218435806 8.239352879562134 7.717789805072681 5 0 3
443 1 1 0.5897 7.900054177851454 11.262966056320584 10.705627497897321 5 4 -4
691 1 2 -1.1794 4.783400508739477 11.45273789332611 9.61379701650436 2 -1 4
268 1 2 -1.1794 1.4238975686705777 11.212279946908195 8.433249573670413 1 7 6
250 1 2 -1.1794 1.6806655285685 9.303005724775675 6.477338464842386 10 -3 2
467 1 1 0.5897 8.059950206240453 8.286209302160808 9.744458671538615 4 0 2
126 1 1 0.5897 7.4878772537091045 8.949366185526038 7.940754333681677 -1 -1 2
468 1 1 0.5897 6.9118881344940375 7.3836805388150735 10.143365134094207 4 0 2
442 1 2 -1.1794 7.065419521997782 10.825232581889587 10.872777621977457 5 4 -4
633 1 1 0.5897 1.2358921418716062 10.178975942158184 10.15016706911927 7 4 6
125 1 1 0.5897 8.430124186532403 10.112286695339888 8.167724077327865 -1 -1 2
444 1 1 0.5897 7.287600813569918 9.895491836911901 10.921595869212586 5 4 -4
353 1 1 0.5897 4.906937401708401 9.13920066801609 6.319225241252316 6 3 1
354 1 1 0.5897 4.3588696199781705 10.52004560922753 6.028296343281116 6 3 1
2 1 1 0.5897 0.6245591817983893 7.57772212591482 8.717443268220306 3 -8 4
631 1 2 -1.1794 0.9848966235725654 10.285265689950206 11.067736383133337 7 4 6
531 1 1 0.5897 1.4437284981882774 8.700523830541357 11.715478400501722 -3 0 -5
199 1 2 -1.1794 3.833281517737486 10.43878898780251 12.161035496363164 1 -2 0
728 1 1 0.5897 3.4271057470136657 10.065712026276058 15.093538803035031 0 2 -1
204 1 1 0.5897 6.078062041041452 8.714440510041367 14.18855061513203 -8 -1 1
619 1 2 -1.1794 4.723153427895133 7.665235499218264 11.618474158544712 -1 -2 4
152 1 1 0.5897 7.847030902419907 8.839012376060651 14.271216591344068 3 0 -3
727 1 2 -1.1794 3.7097736609579486 10.945003054747866 14.842306465997224 0 2 -1
824 1 1 0.5897 4.90537392000958 7.602530892546996 15.815905291597412 -2 7 0
729 1 1 0.5897 3.578927246245313 10.977542299359936 13.894677857763822 0 2 -1
529 1 2 -1.1794 1.806439796645283 7.9257561585904295 12.144830048127018 -3 0 -5
200 1 1 0.5897 4.622150842677863 9.962446574096496 12.419977469729945 1 -2 0
621 1 1 0.5897 4.942110833819139 6.825591216092358 11.21445749748316 -1 -2 4
431 1 1 0.5897 1.8734461191907974 8.233135494286492 14.2810841908016 -5 -2 -3
620 1 1 0.5897 3.772518294517971 7.638675519688077 11.727023786149665 -1 -2 4
202 1 2 -1.1794 6.54307537313198 9.0405333220783 13.418101182815688 -8 -1 1
151 1 2 -1.1794 8.69561137375245 8.760824641220896 14.707094101203563 3 0 -2
432 1 1 0.5897 2.5770812828560943 8.272771765195587 15.62091645284601 -5 -2 -3
203 1 1 0.5897 6.258190837294392 8.468178476621189 12.705770307648509 -8 -1 1
632 1 1 0.5897 1.7999439198777714 10.513839244015372 11.514544333535158 7 4 6
430 1 2 -1.1794 2.0632131179765034 8.811774326938796 15.019580663332833 -5 -2 -3
738 1 1 0.5897 7.120398019595454 11.554185259007243 12.681924103849003 1 -2 1
153 1 1 0.5897 8.537248978833077 8.159082056831963 15.43448946671116 3 0 -2
201 1 1 0.5897 4.080190128559253 10.891254490082142 11.35446260418013 1 -2 0
823 1 2 -1.1794 5.601673031173184 8.25161004137585 15.715498507432683 -2 7 0
825 1 1 0.5897 6.367232653411237 7.847393888423432 16.123793290246354 -2 7 0
530 1 1 0.5897 1.1514639637435677 7.242790996437003 12.00069652265958 -3 0 -5
359 1 1 0.5897 8.881232072415782 11.577064853971134 14.247306483073116 4 -3 -3
507 1 1 0.5897 7.8568394979086005 6.890045802481317 12.037008073778606 4 1 -6
737 1 1 0.5897 6.849340636269768 11.094877905493874 14.098727734514176 1 -2 1
456 1 1 0.5897 8.630043502112763 9.89327551215378 16.217370455599912 0 -1 -1
856 1 2 -1.1794 8.855849494481944 8.601454274887562 19.342792856977752 5 -1 -3
161 1 1 0.5897 8.166452936564415 6.8783963152092955 17.630913587646184 0 4 5
857 1 1 0.5897 8.745569207344989 9.252030620157688 18.649429051348683 5 -1 -3
447 1 1 0.5897 5.564983737239449 9.525726857755831 17.189926974020494 4 0 -3
446 1 1 0.5897 6.6768265582843 10.43639358762244 17.66556422083071 3 0 -3
634 1 2 -1.1794 6.321110729020655 8.325450251342545 19.914777889776232 -8 3 2
508 1 2 -1.1794 1.3063149736244142 11.618585186312169 19.78262124685707 4 -3 2
635 1 1 0.5897 6.19351681592322 8.84342280727912 19.12004802016324 -8 3 2
455 1 1 0.5897 9.068092059272175 10.966030558933308 17.19167201519332 0 -1 -1
858 1 1 0.5897 7.975836751477817 8.478441691350394 19.698620933163944 5 -1 -3
445 1 2 -1.1794 5.819713964659564 10.092892458200367 17.917666893911452 3 0 -3
140 1 1 0.5897 3.3053990244501836 9.20335915862092 18.494668284281573 -5 -4 3
139 1 2 -1.1794 3.419212987172539 10.041405628553946 18.94290677859285 -5 -4 3
574 1 2 -1.1794 3.0235137297229135 7.733028061392493 17.443110072842245 4 -1 0
627 1 1 0.5897 1.8225712922576762 8.460165898480904 20.809016925004784 -5 -3 1
636 1 1 0.5897 6.0232807443020375 8.895845082814736 20.623398830461433 -8 3 2
454 1 2 -1.1794 8.470470313918533 10.223756643402956 17.101403457859014 0 -1 -1
547 1 2 -1.1794 8.025574207714842 11.671000578363042 19.937062564572372 6 -1 5
188 1 1 0.5897 0.909818929313619 9.194173735219088 18.68312370783704 -1 4 1
141 1 1 0.5897 4.238031886015239 10.391804725561778 18.592300380333896 -5 -4 3
576 1 1 0.5897 2.4184100570086047 7.560168973570969 18.164321030276078 4 -1 0
549 1 1 0.5897 8.267897808554473 10.847413109301199 20.36034594681403 6 -1 5
227 1 1 0.5897 4.183427608446614 9.995888700792749 20.86670346773915 3 -4 1
160 1 2 -1.1794 7.848902500648317 6.989111236596903 16.73474322183435 0 4 5
261 1 1 0.5897 1.1810412616122825 11.778629446277666 16.553706699602795 -3 2 4
575 1 1 0.5897 3.8264906847505213 7.273282959360617 17.688134090448912 4 -1 0
510 1 1 0.5897 2.005587794840564 11.058056966570458 19.446478826235868 4 -3 2
187 1 2 -1.1794 0.9667928226540006 8.480318746936168 19.318212790234647 -1 4 1
228 1 1 0.5897 5.04233424298093 11.117938498099598 21.409891451181487 3 -4 1
626 1 1 0.5897 2.9341662517322114 7.666524005003965 21.461886647072028 -5 -3 1
182 1 1 0.5897 0.6214963951501382 9.640884511570272 16.371898596167206 -4 3 -1
684 1 1 0.5897 2.926320306669131 14.946150087931473 3.792781266839828 4 -3 -2
683 1 1 0.5897 2.576802540726224 15.632324744765137 5.096142348636701 4 -3 -2
829 1 2 -1.1794 4.127125022474906 14.21307550013629 2.522448902241077 5 3 4
682 1 2 -1.1794 2.2453644150049 14.994885732606472 4.463685977530918 4 -3 -2
376 1 2 -1.1794 3.291171083656839 11.918655496266588 3.7048459315496016 4 3 5
103 1 2 -1.1794 8.463979248919069 13.083271501674382 2.141775085045256 6 -1 5
713 1 1 0.5897 6.762343827657211 15.647818485188676 2.1962606669542213 -8 -1 4
712 1 2 -1.1794 6.766756689052708 15.083945479651955 2.9697234955729552 -8 -1 4
245 1 1 0.5897 0.7669132153256731 15.587688993877189 3.667892266801801 -6 2 -2
105 1 1 0.5897 9.041036867692695 12.97132375370063 2.897182922291318 6 -1 5
104 1 1 0.5897 7.803151349853094 12.397971339634655 2.240949515771649 6 -1 5
714 1 1 0.5897 7.301895785592976 14.332128875966346 2.715593786519885 -8 -1 4
11 1 1 0.5897 7.194230662999507 16.526323031419963 4.024180451481889 -5 1 8
749 1 1 0.5897 1.8381879887480645 13.461675757415644 5.439777027208175 3 2 3
813 1 1 0.5897 5.393424706546554 14.91820955848421 5.152969848080996 -6 4 -1
831 1 1 0.5897 4.136111006274647 13.343336718131617 2.9220130486527367 5 3 4
830 1 1 0.5897 4.992208497201149 14.574610587453945 2.7150698710141974 5 3 4
264 1 1 0.5897 3.0007944804832536 13.953741449906012 1.2543647394684152 5 -6 6
748 1 2 -1.1794 1.749392329783633 12.614057709507016 5.875471437529306 3 2 3
378 1 1 0.5897 2.9124626271344485 12.110459878457766 4.56273652433837 4 3 5
470 1 1 0.5897 5.198912587762977 13.315362310682163 1.161324545641788 -3 -2 4
8 1 1 0.5897 8.876450608999981 11.89487659698226 4.987382547377338 3 -1 0
648 1 1 0.5897 7.748977356161257 14.40008491859621 5.779137914989444 -6 1 1
519 1 1 0.5897 8.55879566348458 14.478693557598984 0.7414069688700167 -2 -3 -2
814 1 2 -1.1794 8.974451402102211 12.73325549198345 11.053871119476124 -4 10 -3
384 1 1 0.5897 5.440610857611876 14.244991574942881 10.762984634227797 -12 -2 1
604 1 2 -1.1794 4.412328121783549 12.115522772016945 6.993091684538626 -4 4 -1
863 1 1 0.5897 1.671896192622766 15.021858951166292 7.439305657017823 -2 -1 5
862 1 2 -1.1794 2.6098583526113974 15.199130140937363 7.368795134486513 -2 -1 5
651 1 1 0.5897 6.817129005936145 15.0252198606154 9.022110048654582 0 0 1
649 1 2 -1.1794 7.735432911564991 14.942230451369342 8.765172644555959 0 0 1
383 1 1 0.5897 4.89717571183956 15.612530403756375 10.407678226413674 -12 -2 1
812 1 1 0.5897 5.626222396782477 15.455772982432249 6.548888737037499 -6 4 -1
750 1 1 0.5897 2.4551842043770513 12.601405485109415 6.521916710522727 3 2 3
418 1 2 -1.1794 2.6274919424152494 13.474261221906566 9.593336727109937 -9 -3 4
524 1 1 0.5897 1.0864794934103839 15.654604915738496 10.107468599470245 2 -1 4
382 1 2 -1.1794 5.076686096953571 14.749222324361176 10.035334655755458 -12 -2 1
523 1 2 -1.1794 1.5444119536493077 16.495084697003243 10.099744932949942 2 -1 4
420 1 1 0.5897 3.5568242111606203 13.254334623828726 9.657788442398568 -9 -3 4
605 1 1 0.5897 4.986732112475804 12.797396185502889 6.644812068321058 -4 4 -1
419 1 1 0.5897 2.2058116832905528 12.658096212801787 9.324574109980015 -9 -3 4
650 1 1 0.5897 8.049819191961824 15.844186029854953 8.703465494996287 0 0 1
719 1 1 0.5897 8.291272513299495 12.882859016392178 8.437419402707947 1 3 1
606 1 1 0.5897 4.610063025037986 12.090270553174655 7.929270613689317 -4 4 -1
864 1 1 0.5897 2.97488833390377 14.893829865342036 8.199296884785621 -2 -1 5
647 1 1 0.5897 8.393068491901154 15.216462490656442 6.879345920719934 -6 1 1
718 1 2 -1.1794 8.560280008425108 12.033448829384986 8.08766452179903 1 3 1
270 1 1 0.5897 1.0800288902807154 11.91182362455547 7.8777288197846325 1 7 6
646 1 2 -1.1794 8.418530903674004 15.066255535058366 5.9343656161641 -6 1 1
811 1 2 -1.1794 5.647058661376996 14.64817065617745 6.035531710482064 -6 4 -1
185 1 1 0.5897 4.1671084437789006 16.416851798509754 7.443917300018022 3 2 4
293 1 1 0.5897 3.324583811250868 16.73766400900928 10.877606120605808 -2 5 1
615 1 1 0.5897 4.467443604724929 14.052626532087041 15.84706871285158 -3 5 3
119 1 1 0.5897 8.729177223007838 15.3307625391131 12.365666056587123 4 -4 0
118 1 2 -1.1794 8.689671836083754 14.618763388866117 13.004162598421527 4 -4 0
256 1 2 -1.1794 5.423255434897006 13.477271732534424 12.584315802735157 2 -4 -3
689 1 1 0.5897 1.452792291165703 16.189562792844043 14.826544707622599 2 1 3
259 1 2 -1.1794 1.737419997177294 12.476253470709837 16.207386464564998 -3 2 4
458 1 1 0.5897 0.8989679940903851 12.603561762235435 12.850048933213605 -3 1 -1
307 1 2 -1.1794 5.420735216053446 12.584956460605524 16.05452188843526 4 5 2
111 1 1 0.5897 8.025011895325202 14.497367189313923 14.805112600454748 0 -1 -8
807 1 1 0.5897 6.279326734912283 15.980303111958843 14.484756174557337 4 -1 -1
485 1 1 0.5897 3.373405909414377 13.423305855121562 12.525190382134031 -3 3 -2
688 1 2 -1.1794 1.4580303329845394 15.731765169406748 15.667132155978733 2 1 3
690 1 1 0.5897 2.3470904411514395 15.386139951570806 15.746582687741816 2 1 3
484 1 2 -1.1794 2.4577775856540187 13.661218503258427 12.379613442817025 -3 3 -2
257 1 1 0.5897 5.702881127618417 14.335543256717965 12.902715492629738 2 -4 -3
258 1 1 0.5897 6.017180552836732 12.858506521253554 13.009274720999423 2 -4 -3
614 1 1 0.5897 4.590004568438288 15.088069147851176 14.74950597506175 -3 5 2
805 1 2 -1.1794 5.693992278874535 16.05409960187626 13.73102469001282 4 -1 -1
613 1 2 -1.1794 4.11709658501487 14.89556836367938 15.559138871967214 -3 5 3
120 1 1 0.5897 8.598504345596004 13.82651076950892 12.474813557834157 4 -4 0
110 1 1 0.5897 7.097364655699144 13.810303908635419 15.784494616899966 0 -1 -8
579 1 1 0.5897 1.4028078586409194 16.671128091724746 12.891202979614228 4 3 0
577 1 2 -1.1794 0.7662618545366789 15.956450252794953 12.876231561400795 4 3 0
260 1 1 0.5897 2.406208277516101 12.019065511348959 15.69760655651998 -3 2 4
578 1 1 0.5897 1.2964396873133641 15.16471997584222 12.785374749452476 4 3 0
109 1 2 -1.1794 7.467129016481165 14.665330403918375 15.564541981863675 0 -1 -8
309 1 1 0.5897 4.824417546180991 11.880853041982347 15.79993306977695 4 5 2
486 1 1 0.5897 2.384864382229803 13.76559783563446 11.430950073713554 -3 3 -2
191 1 1 0.5897 6.632266730584409 16.64603872658764 11.828945985055606 3 0 -6
736 1 2 -1.1794 7.192173558054158 11.832911843492063 13.594794515466823 1 -2 1
459 1 1 0.5897 0.8236576175820005 12.353581860761233 14.341225495232095 -3 1 -1
393 1 1 0.5897 1.1084208195480318 16.45781984579321 17.339145092289755 5 -4 0
408 1 1 0.5897 7.33410232059309 15.210503252885658 19.75018775609523 -4 0 6
263 1 1 0.5897 2.917811862327266 14.447389956608674 20.55701390336 5 -6 5
509 1 1 0.5897 1.7628288367609164 12.313542641417744 20.25676244206951 4 -3 2
471 1 1 0.5897 5.565651176450992 12.981678111417052 20.462319130478903 -3 -2 3
171 1 1 0.5897 8.717910027206534 15.118872288051898 16.7639196047609 -3 1 -1
548 1 1 0.5897 7.389874109465102 12.068630568778293 20.531998144041395 6 -1 5
240 1 1 0.5897 1.768434634352221 14.67374780343712 18.202947524835565 -2 -2 -3
469 1 2 -1.1794 5.8118727494421485 12.799283034574566 21.369111257986255 -3 -2 3
517 1 2 -1.1794 8.750069061777783 15.292923240232849 21.00732104036551 -2 -3 -3
623 1 1 0.5897 5.397998493064453 13.781691789285109 18.66467692654996 3 2 3
239 1 1 0.5897 2.321588753968605 13.498861248280061 17.424854810351903 -2 -2 -3
308 1 1 0.5897 5.472736843126974 12.522308044175247 17.00822173311603 4 5 2
262 1 2 -1.1794 2.4719650289096746 13.885527855774292 21.190810734072258 5 -6 5
624 1 1 0.5897 3.9537172604713997 13.328313217649587 18.645804190097486 3 2 3
407 1 1 0.5897 6.642042074543776 15.845348772969109 18.562856767091105 -4 0 6
622 1 2 -1.1794 4.848388595029745 13.001814614387872 18.74156996476254 3 2 3
238 1 2 -1.1794 2.465105825526345 14.017509422225851 18.216427492174986 -2 -2 -3
406 1 2 -1.1794 6.784299366735766 15.003036698273837 18.994643714622427 -4 0 6
311 1 1 0.5897 1.150042020172169 15.412049358915755 21.27746750675285 0 2 0
422 1 1 0.5897 4.0904944862944355 16.071324745887452 17.037755379074227 0 0 1
255 1 1 0.5897 5.2347631055529895 16.69179284304078 20.984088717670517 0 9 -8
391 1 2 -1.1794 0.8875709098751752 16.408514910609874 18.269192446364386 5 -4 0
434 1 1 0.5897 2.5639587256722898 16.713323248108495 19.72603894789168 2 3 -5
433 1 2 -1.1794 3.49317593377827 16.55056837536042 19.88801761754464 2 3 -5
39 1 1 0.5897 4.0433658063256885 17.74059138609508 4.454134757330532 2 0 1
48 1 1 0.5897 7.7270564427102455 18.82242619822784 3.6350755866551934 1 -4 1
63 1 1 0.5897 1.9075592609470884 19.77357574032548 1.8174589923635467 0 0 3
47 1 1 0.5897 8.413573673969797 20.109626377268505 3.230651197149616 1 -4 1
853 1 2 -1.1794 3.91405214985428 20.336398424669373 3.9227049112353227 2 2 4
46 1 2 -1.1794 7.602688869387889 19.61489759057525 3.112862188568746 1 -4 1
610 1 2 -1.1794 2.6582463928259643 17.8854393629351 5.702405046444175 1 1 -4
35 1 1 0.5897 5.494823376577276 18.728195721404386 1.094541294017738 -9 1 -1
61 1 2 -1.1794 1.749547156823538 20.713701843429238 1.9032457354357057 0 0 3
37 1 2 -1.1794 4.612011198879227 17.7233440854898 3.6843614345378204 2 0 1
38 1 1 0.5897 5.457610705731261 17.42290659533228 4.017335202456394 2 0 1
34 1 2 -1.1794 5.504114727263375 19.672858780917522 1.2485412854072904 -9 1 -1
36 1 1 0.5897 6.3331551972339915 19.834450290985515 1.6988196322981424 -9 1 -1
12 1 1 0.5897 7.701429710809338 16.948209252533168 5.386725099659735 -5 1 8
854 1 1 0.5897 4.236015296467175 19.622071552597745 3.372939100694499 2 2 4
144 1 1 0.5897 3.1956871668657874 17.62871936796259 2.0293998475144717 0 8 4
62 1 1 0.5897 2.4947312694839194 21.03708102620408 2.4094974970209817 0 0 3
611 1 1 0.5897 1.8957269107023107 18.102754216841298 5.16614874684766 1 1 -4
101 1 1 0.5897 5.0239133990311124 19.597815106191682 5.224103919052325 4 -3 -1
644 1 1 0.5897 8.541403187098744 18.168764793995567 1.1484952225064227 2 -4 0
855 1 1 0.5897 4.582365420311051 21.017434585707814 3.84701015493283 2 2 4
500 1 1 0.5897 4.534314175349476 21.536176909297247 1.756983211229437 -5 0 -4
10 1 2 -1.1794 7.3272408246111125 17.2960884289335 4.577316502592465 -5 1 8
143 1 1 0.5897 1.9536370571820867 17.275291791438935 1.2393459495062422 0 8 4
809 1 1 0.5897 6.6361533830365715 21.287428660892836 3.597856404330761 6 -2 -5
142 1 2 -1.1794 2.301491497484566 17.92154637917674 1.8537893261353473 0 8 4
21 1 1 0.5897 8.18083753769558 21.303988529884347 5.580712740688164 -2 -3 1
281 1 1 0.5897 2.088270583946417 20.522159782384655 5.172594475663128 -5 3 0
253 1 2 -1.1794 5.8589598785543995 16.95105704938792 0.9304853441386346 0 9 -7
280 1 2 -1.1794 1.5815805239133414 21.050233578744365 5.789586718105455 -5 3 0
102 1 1 0.5897 6.220130862289717 19.748377366836543 6.139603087970277 4 -3 -1
100 1 2 -1.1794 5.304793549982305 19.468667901351104 6.1299742385632605 4 -3 -1
78 1 1 0.5897 2.5601491781302133 19.874328976902156 9.422957965969141 -2 -7 -4
225 1 1 0.5897 5.348341531762528 18.809902850760643 9.864348744902077 4 -4 -5
562 1 2 -1.1794 8.39325933230199 17.487703602539302 7.905855773686401 5 1 5
223 1 2 -1.1794 6.067997910880409 18.641941412856 9.256027777221233 4 -4 -5
19 1 2 -1.1794 7.995709844414668 20.54066560960896 6.1277488282539645 -2 -3 1
77 1 1 0.5897 2.9502340575774118 18.758305326296107 10.368520393773526 -2 -7 -4
821 1 1 0.5897 2.54666778438377 20.681623295903822 7.409902753879123 4 1 5
224 1 1 0.5897 5.711973015723386 18.009625325584143 8.631837011072573 4 -4 -5
186 1 1 0.5897 4.786833511699308 17.644103353794396 6.810170997142959 3 2 4
709 1 2 -1.1794 6.864962233886479 21.361850184733406 8.346884979053993 -4 -1 -3
710 1 1 0.5897 7.478027633930305 21.17604340559673 7.635687533691571 -4 -1 -3
76 1 2 -1.1794 2.3978810156703414 19.537364315297715 10.304037828841885 -2 -7 -4
711 1 1 0.5897 6.466980030474332 20.514857049474152 8.548034093291733 -4 -1 -3
564 1 1 0.5897 7.785224296926383 18.17888271327455 8.168022405725322 5 1 5
20 1 1 0.5897 8.742338563413139 19.958304614084298 5.987744116268039 -2 -3 0
156 1 1 0.5897 8.988625538684198 20.115045282136702 9.56026641203666 2 2 -4
822 1 1 0.5897 3.8548488530786584 19.946024092002666 7.211697206146014 4 1 5
820 1 2 -1.1794 3.322228541239331 20.3763372393434 7.880510825750498 4 1 5
638 1 1 0.5897 1.2203583519815933 17.35964662800998 8.721777533752022 -6 1 0
184 1 2 -1.1794 4.966352117155592 16.943484055248284 7.43718481751086 3 2 4
192 1 1 0.5897 6.918858062612075 17.629048885077232 10.713883632616673 3 0 -6
637 1 2 -1.1794 1.0458397866464908 17.84409315359637 7.914880459457398 -6 1 0
612 1 1 0.5897 2.313074090886119 17.812989292543747 6.592258706682423 1 1 -4