LAMMPS data file via write_data, version 30 Jul 2021, timestep = 12500000

864 atoms
2 atom types
576 bonds
1 bond types
288 angles
1 angle types

0.4944761493869869 17.713096250612377 xlo xhi
1.6739588590668593 21.955218940937627 ylo yhi
0.6032597472883481 21.609936052705997 zlo zhi

Masses

1 1.00794
2 15.9994

Pair Coeffs # lj/cut/tip4p/long/omp

1 0 0
2 0.21084 3.1668

Bond Coeffs # harmonic/omp

1 450 0.9572

Angle Coeffs # harmonic/omp

1 55 104.52

Atoms # full

347 1 1 0.5897 8.543534381738867 4.546839310455725 5.043301259721221 -4 2 -5
333 1 1 0.5897 5.330324367354442 4.446878717071615 4.593335960648879 2 -4 -3
618 1 1 0.5897 2.097091750192794 3.7258379518090834 1.0711648390216815 -4 2 2
563 1 1 0.5897 7.26091840351201 2.1472148576751997 4.592600648224115 2 -3 3
531 1 1 0.5897 4.332796236716753 4.315684675784839 1.9946270136178224 0 -1 -6
419 1 1 0.5897 2.626181236296886 2.789029684717204 3.796288616113712 -5 -4 4
805 1 2 -1.1794 7.166066287543633 5.64500725372174 1.9245104338975791 2 0 -5
530 1 1 0.5897 3.4421734794502434 5.380227594075412 2.5994337088310764 0 -1 -6
529 1 2 -1.1794 3.48113125612823 4.73979991638414 1.8889843408571012 0 -1 -6
511 1 2 -1.1794 3.653047637239751 3.7412271123857717 4.998716694808115 0 2 0
418 1 2 -1.1794 1.870527458434559 2.4219574106788246 3.3373767222749153 -5 -4 4
807 1 1 0.5897 6.846391176307 6.546667430177598 1.8895945171814887 2 0 -5
491 1 1 0.5897 8.6938137103109 3.524166275016994 2.2905713186893504 2 1 3
806 1 1 0.5897 7.744654328809815 5.566015022127576 1.1659812528367823 2 0 -5
492 1 1 0.5897 8.90855083588132 2.1455666741290407 2.8783523915280917 2 1 3
332 1 1 0.5897 6.462517136332817 5.006264213333893 3.75824732067325 2 -4 -3
490 1 2 -1.1794 8.385154453247537 2.9401652705415215 2.9833960915910303 2 1 3
856 1 2 -1.1794 5.657129432522955 2.695570030033306 1.8848321855613448 -1 0 -3
331 1 2 -1.1794 6.205535595843914 4.828324903973916 4.663026677277875 2 -4 -3
617 1 1 0.5897 1.2614509585065532 2.5197181889786373 0.6981519044430897 -4 2 2
857 1 1 0.5897 6.432477551181336 3.023639311048359 2.340394897418211 -1 0 -3
420 1 1 0.5897 1.1952470823488124 3.096657200022377 3.4089598799387737 -5 -4 4
858 1 1 0.5897 5.780510685662493 2.9669356062259418 0.9751541093626888 -1 0 -3
512 1 1 0.5897 3.3334838229102783 4.522993664853804 5.449330710330151 0 2 0
513 1 1 0.5897 3.3772414149567145 3.013387236477215 5.555973198264622 0 2 0
415 1 2 -1.1794 3.5892434016656534 6.629174677062046 4.080890810412132 2 -2 -3
416 1 1 0.5897 2.7388576418668737 6.6687807911796915 4.51861497620728 2 -2 -3
348 1 1 0.5897 8.843325163739562 5.905924772132345 5.63924097800412 -4 2 -5
22 1 2 -1.1794 3.566890733432708 4.62204628426209 9.219778548888991 -6 1 1
238 1 2 -1.1794 6.19696304294867 5.6318002262788 7.294457381768971 -9 -3 1
329 1 1 0.5897 7.65882825638325 3.03558213476961 8.57770782838417 2 5 -1
136 1 2 -1.1794 3.0752199918183085 5.639354765783391 6.880602714278674 9 -9 0
240 1 1 0.5897 6.204097525340253 5.405761017767929 6.364302736242311 -9 -3 1
24 1 1 0.5897 3.267660671075057 4.966813660722567 8.378390650582027 -6 1 1
567 1 1 0.5897 5.264965818236282 2.0479402757538128 9.779521676997716 -4 2 -5
23 1 1 0.5897 2.804423248109437 4.695093272855426 9.793924714685707 -6 1 1
585 1 1 0.5897 0.5295678633144263 3.627834405075416 8.663902351552359 0 -7 4
565 1 2 -1.1794 4.6129998112967145 2.197290161425875 9.094703772207568 -4 2 -5
527 1 1 0.5897 6.924954232402985 3.692161796932112 11.053850659261379 -4 -5 -1
328 1 2 -1.1794 6.93234407007392 3.164057383939128 7.967746099921641 2 5 -1
139 1 2 -1.1794 7.765197727225195 6.173920366345619 9.63905789467938 -1 3 2
564 1 1 0.5897 7.398486772092092 2.078409696693292 6.098750275542055 2 -3 3
239 1 1 0.5897 6.402223224335905 4.811130964194296 7.742456700326745 -9 -3 1
566 1 1 0.5897 4.2958669409377155 3.086142382413037 9.25500480379416 -4 2 -5
140 1 1 0.5897 7.483474228941177 6.187606312011635 8.724288593055077 -1 3 2
141 1 1 0.5897 7.101066299800308 5.649788793614212 10.086898634584973 -1 3 2
330 1 1 0.5897 6.266226231354848 2.538412393735502 8.252701783344392 2 5 -1
138 1 1 0.5897 3.6207211248612583 6.423968788614318 6.824338344799287 9 -9 0
137 1 1 0.5897 2.2630579334273047 5.940418022272721 7.288170224877876 9 -9 0
376 1 2 -1.1794 0.7573573155027697 5.312387393462094 9.849684257272786 4 8 2
200 1 1 0.5897 2.545590085590673 2.3407414800822255 7.690455946357062 4 -7 2
338 1 1 0.5897 4.026979246552794 6.128804871208787 10.145974366887964 -3 -2 -2
199 1 2 -1.1794 2.6382231480654625 1.94834565137129 6.8222571558691305 4 -7 2
316 1 2 -1.1794 8.823882017827689 2.7331640508504838 10.322680413124733 -1 -1 -1
526 1 2 -1.1794 6.218577485399055 4.337579054406504 11.082318809069704 -4 -5 -1
409 1 2 -1.1794 0.7665941503325181 5.963442161741987 14.128154543704392 5 0 -5
276 1 1 0.5897 7.902552360914851 5.262133302198038 13.871967646166496 -4 3 2
810 1 1 0.5897 4.447442812727157 6.074886001032601 14.943046480678268 5 0 1
808 1 2 -1.1794 4.327721048826266 5.578747753525573 15.75288884094325 5 0 1
494 1 1 0.5897 8.502385969164083 2.1922431896932704 13.368624954295404 2 -1 -3
486 1 1 0.5897 2.8442013268390425 1.8541435113140374 15.790304920092453 -3 6 1
281 1 1 0.5897 0.501651948444553 4.16544396203436 14.564173459338852 -4 -2 1
274 1 2 -1.1794 7.5049883869186775 5.839341124270351 13.219966958779759 -4 3 2
722 1 1 0.5897 2.128198289778924 3.509591191366254 11.970487744461098 5 1 -4
809 1 1 0.5897 5.203459620904966 5.2589904193996695 15.97016373164661 5 0 1
647 1 1 0.5897 4.313620514520448 2.827336024239451 13.950747911661628 -7 -3 3
721 1 2 -1.1794 2.552992436743698 4.348394468412053 12.150212189207357 5 1 -4
723 1 1 0.5897 3.409993277817592 4.11220758573759 12.505348153749503 5 1 -4
646 1 2 -1.1794 4.975789296791142 3.285978635860067 13.433520916386477 -7 -3 3
538 1 2 -1.1794 2.037594892103299 1.8789076196612202 11.298986401144605 -10 -5 1
485 1 1 0.5897 2.142732479028902 2.610163802305051 14.681923522588109 -3 6 1
275 1 1 0.5897 7.025394539236981 5.2496980228652905 12.638043523204713 -4 3 2
484 1 2 -1.1794 2.9866300243055326 2.2260115515666192 14.919813240532358 -3 6 1
508 1 2 -1.1794 9.011850118962364 3.652901748487048 14.17424348981858 2 -1 5
528 1 1 0.5897 5.564999024062387 3.9524708996113107 11.66616031589041 -4 -5 -1
648 1 1 0.5897 5.716569094459155 3.3907905834880667 14.030675763824787 -7 -3 3
411 1 1 0.5897 1.3771522982605 5.542909749711015 13.522584686299963 5 0 -5
571 1 2 -1.1794 8.296028792334212 6.119487152789669 16.195147028963085 1 3 -5
89 1 1 0.5897 5.310126603872146 6.378889434266786 19.291581923200717 7 -3 1
42 1 1 0.5897 5.401504346867563 3.444210403101178 20.249677642332802 -2 1 4
40 1 2 -1.1794 6.189492578883024 3.868202788145135 20.58972144609359 -2 1 4
88 1 2 -1.1794 5.727362996955414 6.480425863140805 20.147111668433087 7 -3 1
663 1 1 0.5897 2.984087973410765 5.920144962561214 21.467834201698576 -5 -6 1
54 1 1 0.5897 3.10769976533695 2.8991753954983865 20.593282258451502 -2 1 -1
575 1 1 0.5897 3.4023801885773013 4.291245208582678 16.90950265352534 2 5 -3
166 1 2 -1.1794 8.184575799081005 6.203059576395386 19.008059068318378 -1 0 4
573 1 1 0.5897 8.034934567595485 5.790239736524447 17.055237365011124 1 3 -5
167 1 1 0.5897 7.374694927224685 6.478344761506554 19.437787143959678 -1 0 4
175 1 2 -1.1794 0.7893859774017125 1.839048393569649 19.0731328556504 -5 -3 6
661 1 2 -1.1794 2.6171930330232778 6.658576535937766 20.98158804143164 -5 -6 1
681 1 1 0.5897 6.020198360584699 2.918060060633862 16.85972261009601 3 -2 -4
37 1 2 -1.1794 8.445676909600728 2.164141160715715 19.83807330377861 -1 -2 -6
53 1 1 0.5897 3.450904446779126 3.1104042449153235 19.133923242041856 -2 1 -1
213 1 1 0.5897 8.6834172287272 5.08862612011763 20.40805524120819 1 0 3
52 1 2 -1.1794 3.817961508275941 2.7953705054749562 19.959969685061846 -2 1 -1
39 1 1 0.5897 7.760171553738494 2.7562708741232393 20.14763853557411 -1 -2 -6
41 1 1 0.5897 5.989300661939946 4.803902244959978 20.562550053222548 -2 1 4
576 1 1 0.5897 2.3104731703728696 4.45498636225494 17.94538556927105 2 5 -3
176 1 1 0.5897 1.1112028396662386 2.4694036459089697 19.717659756219756 -5 -3 6
574 1 2 -1.1794 2.9382903529535684 3.819590664704386 17.601229957100163 2 5 -3
662 1 1 0.5897 3.0113500449037365 6.5927473592096355 20.11174097288642 -5 -6 1
80 1 1 0.5897 1.2113074854076733 5.590213717118867 19.665850344158798 5 2 -4
616 1 2 -1.1794 1.538538735732362 3.3775576221744084 21.38282503483496 -4 2 1
596 1 1 0.5897 3.861113563467766 6.212288000992729 17.51601309251462 5 -5 3
79 1 2 -1.1794 0.9169483511993906 5.154166200256107 18.86613121516211 5 2 -4
595 1 2 -1.1794 3.6998251710675567 6.6358987300144525 18.35915293950122 4 -5 3
680 1 1 0.5897 7.397772700448444 3.502054689107435 16.62865949362093 3 -2 -4
813 1 1 0.5897 8.972819224874613 2.616888249952893 18.186444861345304 -4 6 1
38 1 1 0.5897 9.088794045328463 2.1500552810803844 20.546977513358822 -1 -2 -6
679 1 2 -1.1794 6.474912851735812 3.629403935848087 16.408547393449314 3 -2 -4
163 1 2 -1.1794 3.4133241994590615 8.845977169660564 1.5327668746031686 -5 2 -3
384 1 1 0.5897 2.4766108889742364 8.7731136657445 3.7869115876983432 -7 -1 -4
593 1 1 0.5897 6.786144075371466 8.697117921647937 1.501269887440978 -1 3 -4
259 1 2 -1.1794 5.201984375053885 11.33645249341183 4.472026922340471 1 -1 9
446 1 1 0.5897 8.764878902618747 10.289702218031236 0.8122050439210667 1 4 -1
190 1 2 -1.1794 0.6526357328701831 9.849123487697975 0.8518226800340821 1 2 -3
489 1 1 0.5897 8.281873554031023 8.099790086890502 4.365655927059816 2 -5 1
191 1 1 0.5897 1.4259128965793741 9.404114982299628 1.1987198018495837 1 2 -3
382 1 2 -1.1794 2.25479134827812 9.566456205927498 4.274488879764469 -7 -1 -4
134 1 1 0.5897 5.94411234663286 8.507734513245722 5.0871688247591305 0 -6 -2
135 1 1 0.5897 6.163709760829367 9.838749394108612 4.399926134313954 0 -6 -2
130 1 2 -1.1794 0.8243357120553703 6.778332795525746 4.746978062509676 -6 4 -1
260 1 1 0.5897 4.993639551040837 11.360372964874028 5.406053884529981 1 -1 9
383 1 1 0.5897 2.6232157064194705 10.279596488277045 3.7529247462858915 -7 -1 -4
417 1 1 0.5897 4.197861690722014 7.028936323694178 4.702258923958191 2 -2 -3
447 1 1 0.5897 7.770829626705202 11.050820144875756 1.6635222237223557 2 4 -1
592 1 2 -1.1794 6.145611590460602 8.088759183764932 1.869979838154023 -1 3 -4
131 1 1 0.5897 0.9517687232205376 7.180900202294434 5.606071522850275 -6 4 -1
594 1 1 0.5897 6.175919567530512 8.250714647455794 2.8129521465622616 -1 3 -4
445 1 2 -1.1794 7.998981294121113 10.167580033120593 1.37328838525297 1 4 -1
133 1 2 -1.1794 6.495087223638781 8.941385216626703 4.435464003455709 0 -6 -2
261 1 1 0.5897 4.428233076940709 11.703179352416624 4.044073432311018 1 -1 9
402 1 1 0.5897 0.5614740996268424 10.341631789473599 4.508999608308679 0 1 1
165 1 1 0.5897 4.195881377356056 8.6399897548301 2.044147432298061 -5 2 -3
164 1 1 0.5897 3.2204893846767817 8.039860658866498 1.0538986853128745 -5 2 -3
182 1 1 0.5897 2.332880140186507 10.223856312381955 9.95933753553799 -5 0 -5
58 1 2 -1.1794 1.0507066922589265 7.5703671443021445 7.551654305935968 6 3 -2
760 1 2 -1.1794 5.54477040590114 10.929365414303048 10.829291458571623 3 1 2
762 1 1 0.5897 5.633106810184278 10.340875856158538 10.07948693517434 3 1 2
235 1 2 -1.1794 7.034360232082198 10.210119882602802 7.263575134524156 0 -4 -2
251 1 1 0.5897 6.801452084234644 7.875321912806606 9.22477968256572 -1 -9 1
77 1 1 0.5897 4.726055462659129 8.63955066727786 6.700412906964485 -2 -4 -4
237 1 1 0.5897 7.485358047792453 10.329814538151794 8.099413815494668 0 -4 -2
632 1 1 0.5897 3.064712847100964 10.052038669000122 5.968310075285005 11 10 4
114 1 1 0.5897 9.096574520447742 7.713334751051393 7.700297076249315 -5 3 4
112 1 2 -1.1794 8.316886982660975 7.689299189417908 7.145434710706131 -5 3 4
59 1 1 0.5897 1.3373016900664376 8.2889773816918 8.115382971016576 6 3 -2
183 1 1 0.5897 1.2434306263156614 10.417035148179911 8.925928358043627 -6 0 -5
625 1 2 -1.1794 8.595067967998302 10.662466498314643 9.728592671617891 -5 -4 2
250 1 2 -1.1794 6.098949110074393 8.486293623317327 9.447326043221047 -1 -9 1
252 1 1 0.5897 5.486697297248661 7.968056232965468 9.96972658508892 -1 -9 1
236 1 1 0.5897 7.677160454019851 10.471998233269522 6.604354405741196 0 -4 -2
761 1 1 0.5897 5.888121557060658 11.767163105031658 10.518585102615981 3 1 2
181 1 2 -1.1794 2.049897106832079 9.929350344767466 9.093592657231289 -6 0 -5
76 1 2 -1.1794 4.865572803062122 7.75597840497484 6.359573953768457 -2 -4 -4
633 1 1 0.5897 3.0883431555819003 10.279008103254771 7.465049110658332 11 10 4
113 1 1 0.5897 7.8097352188325155 8.456581917142739 7.410781977902878 -5 3 4
78 1 1 0.5897 5.460311845684039 7.347258638281694 6.988511068149791 -2 -4 -4
631 1 2 -1.1794 3.6287883442892315 10.35758753854459 6.678794207172298 11 10 4
804 1 1 0.5897 8.631237463972154 7.4743473006027 10.781426377432112 4 4 0
626 1 1 0.5897 8.272880714732986 10.010898052993658 10.351486174617094 -5 -4 2
337 1 2 -1.1794 3.959701462228749 6.998096304058336 10.541112261545093 -3 -2 -2
854 1 1 0.5897 4.939208821770356 11.486305020556268 7.7816357332495505 -4 1 3
519 1 1 0.5897 5.742224743195153 6.939724443096339 13.332603369067968 1 0 -4
517 1 2 -1.1794 4.788098700435307 6.998489341228621 13.382876286698622 1 0 -4
339 1 1 0.5897 4.114822192434996 6.850287916988783 11.474086305231367 -3 -2 -2
724 1 2 -1.1794 1.7439295370044978 8.359769303517112 11.955843712672465 5 -6 5
741 1 1 0.5897 2.8844665631288366 8.803424944477403 15.564387592273679 2 0 2
820 1 2 -1.1794 1.0356506861392525 11.394821679429327 15.795664959296824 2 3 5
822 1 1 0.5897 1.0413484932529313 10.775128098516836 15.066081080703384 2 3 5
740 1 1 0.5897 3.95513298662698 9.871631001309519 15.495059466741747 2 0 2
518 1 1 0.5897 4.61936487098393 7.877193524392437 13.723080768461012 1 0 -4
726 1 1 0.5897 1.9191789468341036 9.300774941750065 11.944715731982345 5 -6 5
725 1 1 0.5897 2.398611852832209 7.986719566992876 11.365463307568598 5 -6 5
404 1 1 0.5897 7.9528515785901135 8.934894820688442 14.869224618604994 6 -2 -2
71 1 1 0.5897 8.91037113217176 10.674474275091207 12.489599011276294 11 -3 -1
739 1 2 -1.1794 3.697995143404579 9.031748329035855 15.11450117010471 2 0 2
70 1 2 -1.1794 8.971247536984377 11.59909587497161 12.72983982296178 11 -3 -1
301 1 2 -1.1794 6.683558961305168 9.296511045204655 12.900898940087378 -4 4 7
403 1 2 -1.1794 8.26697556528315 9.46383447848892 15.602627445202904 6 -2 -2
303 1 1 0.5897 7.2349079295443195 8.76384241864501 12.32765539259401 -4 4 7
434 1 1 0.5897 3.5901681281019275 10.91080326418841 11.153093720840847 -1 5 -6
387 1 1 0.5897 5.641429770314449 10.970613909203049 15.528113897651012 -5 4 -1
433 1 2 -1.1794 2.8825926988416644 10.888321269017622 11.797423512627935 -1 5 -6
55 1 2 -1.1794 1.402286284168635 7.94576687941035 16.220265542102 -3 2 -1
630 1 1 0.5897 0.6525186500569511 8.870312101262098 13.409165281818304 -2 -5 3
302 1 1 0.5897 6.455873721485481 10.061248193450682 12.372068662561475 -4 4 7
386 1 1 0.5897 6.97772753128334 10.637380948862527 16.15691961229273 -5 4 -1
57 1 1 0.5897 1.6564714290155944 7.20953236088491 15.663775687315331 -3 2 -1
435 1 1 0.5897 3.2782355472202385 11.227696869010764 12.600306282517963 -1 5 -6
385 1 2 -1.1794 6.131340948956784 11.042004502977345 16.347410571162918 -5 4 -1
802 1 2 -1.1794 8.662038884327556 8.251303426132592 11.339741349544829 4 4 0
602 1 1 0.5897 3.690550530937125 9.36701553365537 19.263659554403663 8 5 -3
319 1 2 -1.1794 7.5949703397249335 9.484060127890526 18.999972416564 5 -1 3
14 1 1 0.5897 5.145718955875896 10.457479459368832 20.587186634477174 -2 -5 -3
90 1 1 0.5897 5.693631632303985 7.421260396506555 20.320446884691112 7 -3 1
655 1 2 -1.1794 6.263877177417519 7.733960096640162 17.348104031931793 -8 4 1
27 1 1 0.5897 3.13912696901728 10.82868947053763 18.06931138084989 0 4 8
146 1 1 0.5897 0.5297930426415682 9.032093959261122 20.350073890107428 -1 5 -5
56 1 1 0.5897 1.9103114871729938 7.826597975515471 17.022793238466594 -3 2 -1
597 1 1 0.5897 3.8467257906693035 7.566927462098275 18.191966922475377 4 -5 3
13 1 2 -1.1794 5.013268519098581 9.522599361700676 20.429698063609575 -2 -5 -3
15 1 1 0.5897 4.4638922502801766 9.232035491382467 21.15778026235861 -2 -5 -3
321 1 1 0.5897 6.9624505166347115 9.640246136432157 19.70129731844146 5 -1 3
603 1 1 0.5897 2.2487474513162584 8.944864979343851 19.07603166863291 8 5 -2
320 1 1 0.5897 7.096701683688045 9.021651052437104 18.32598545913503 5 -1 3
168 1 1 0.5897 8.723846516516856 6.99356772886092 18.983357702169677 -1 0 4
413 1 1 0.5897 8.238861004296481 11.30624517704562 19.447807905526417 3 -1 3
657 1 1 0.5897 5.6819050982468795 8.027115159924453 16.646880838799103 -7 4 1
601 1 2 -1.1794 3.0124412792235735 9.264928642776793 18.595746076487185 8 5 -2
656 1 1 0.5897 7.0894842748670435 7.53387066206092 16.9068524354788 -8 4 1
696 1 1 0.5897 2.24321674217791 11.772021275314328 19.451182342702655 2 -2 0
25 1 2 -1.1794 3.1342651551206107 11.762570363222869 17.859141998019197 0 4 8
192 1 1 0.5897 0.9905944319000607 10.665442719001298 21.490080875575153 1 2 -4
300 1 1 0.5897 5.77410064697187 14.665517832159903 4.871028557874736 -7 0 0
73 1 2 -1.1794 2.0407669841408067 15.362309669429283 2.516502191725789 5 -1 1
473 1 1 0.5897 1.9564474156573781 12.187234655025913 2.5740983745519634 6 0 -5
432 1 1 0.5897 4.946108750262844 14.453351074372916 2.6989749329452266 -9 -1 -3
430 1 2 -1.1794 4.940973463250197 13.737837680209717 2.0630827002211625 -9 -1 -3
217 1 2 -1.1794 3.3663409073530652 16.506459153571576 5.326874441449795 3 -1 2
116 1 1 0.5897 7.9756502115052275 13.474118097320947 2.1623083992115038 -7 3 5
310 1 2 -1.1794 5.554847050845594 16.025985510448045 3.726936168319536 0 4 3
299 1 1 0.5897 6.313577225048975 13.260323949963295 4.708165795472027 -7 0 0
75 1 1 0.5897 2.4078918526018374 15.073949134845567 3.3522259046128 5 -1 1
700 1 2 -1.1794 8.883261030987011 14.823576887173418 1.2403048640437118 6 -1 0
210 1 1 0.5897 8.158758507559174 16.058691420028104 5.545685523543971 -1 -6 7
658 1 2 -1.1794 1.1062395591992935 13.248754028837945 5.233939748984632 1 2 1
208 1 2 -1.1794 7.809640015559165 16.839482197537755 5.115794190382866 -1 -6 7
74 1 1 0.5897 1.6699066735753993 16.2250401457952 2.7022191223542746 5 -1 1
474 1 1 0.5897 2.4263680156938934 12.702247332211824 3.9180030305619202 6 0 -5
312 1 1 0.5897 4.785693229622946 16.27873107495168 4.237670382546095 0 4 3
115 1 2 -1.1794 7.5042006605056 12.747647409118922 2.5701610155890746 -7 3 5
431 1 1 0.5897 4.152966264111549 13.236310912038046 2.272482224372312 -9 -1 -3
117 1 1 0.5897 6.582314831140708 12.924076593113455 2.3820980163177836 -7 3 5
298 1 2 -1.1794 6.1912730932685465 13.95381289265966 5.356601408082401 -7 0 0
459 1 1 0.5897 2.5068997687052015 14.768028262659675 0.8998036795084048 -4 0 0
311 1 1 0.5897 6.297504222468385 16.359425959879946 4.230531098706017 0 4 3
472 1 2 -1.1794 2.7381441006079883 12.276431211785138 3.1193755057160915 6 0 -5
683 1 1 0.5897 8.681537587983724 16.767072455720612 0.7930655347463615 0 0 -5
534 1 1 0.5897 3.6168915728079862 16.545972536659377 8.50953001306906 -3 -2 0
207 1 1 0.5897 2.6132632397653244 16.116497894120428 10.436333493188396 -5 4 -3
516 1 1 0.5897 8.022749067842764 14.112506895307867 6.204149051225194 -5 -6 2
514 1 2 -1.1794 8.798341201000381 14.611541921886609 6.460642571891294 -5 -6 2
51 1 1 0.5897 3.699010929202467 13.218476727291783 7.339191348944026 6 -3 -2
780 1 1 0.5897 8.018130591608358 12.335968574449181 10.374021627498184 -3 1 1
853 1 2 -1.1794 5.049475014084894 12.417019260583835 7.976414176546124 -4 1 3
49 1 2 -1.1794 2.9306979309881878 13.77716250697638 7.221333415713689 6 -3 -2
711 1 1 0.5897 7.355024538480042 15.988111887077173 9.154329521436525 0 -2 -1
533 1 1 0.5897 5.0290766475361135 16.0526826539164 8.275946430095958 -3 -2 0
779 1 1 0.5897 8.023078400593235 13.776349392702514 9.90764078367084 -3 1 1
709 1 2 -1.1794 6.456163230248169 16.18601564323844 9.417419999387535 0 -2 -1
532 1 2 -1.1794 4.233146799583489 16.31618466941513 7.813992094474876 -3 -2 0
47 1 1 0.5897 5.550793559777104 15.129813871080412 10.657887632074312 3 -3 1
50 1 1 0.5897 3.2837234162386038 14.666197075603055 7.185019346808671 6 -3 -2
620 1 1 0.5897 2.014936293762871 14.137312839115706 10.296690493040515 0 -3 7
778 1 2 -1.1794 7.539635746105614 13.160723882794045 10.458682659833569 -3 1 1
536 1 1 0.5897 1.7954077875651553 13.445281736683805 8.410113940833842 6 6 2
855 1 1 0.5897 5.732900963086473 12.709143241751134 7.373157040020259 -4 1 3
535 1 2 -1.1794 1.0600677866106736 13.248383679789212 8.990493827781364 6 6 2
621 1 1 0.5897 3.4052108038942097 14.193830040351116 10.893433915445796 0 -3 7
619 1 2 -1.1794 2.5123002602803464 14.51363561525794 11.022899620644077 0 -3 7
219 1 1 0.5897 3.309943587030433 16.58404433010232 6.279330977442498 3 -1 2
659 1 1 0.5897 1.6788731599860443 13.442727909923429 5.976097488594005 1 2 1
758 1 1 0.5897 7.3812042027969005 13.9784172143256 13.530206162253453 -1 1 3
46 1 2 -1.1794 5.3242722355083 14.418815183668604 11.257473327594555 3 -3 1
763 1 2 -1.1794 8.487899734874198 15.220004993910448 12.402801675530373 -6 3 -4
757 1 2 -1.1794 7.120957079132673 13.119528890833207 13.863245559297928 -1 1 3
268 1 2 -1.1794 4.911925844343104 15.434041119077335 13.71933538535991 2 0 3
129 1 1 0.5897 2.8733248062085956 15.2516132552362 14.019636167980206 -2 1 -9
393 1 1 0.5897 5.227023751334516 12.242911230747296 13.995113046868363 4 -6 -2
392 1 1 0.5897 3.9751314704552114 12.446944289307753 14.82171576896497 4 -6 -2
407 1 1 0.5897 7.326811588934771 13.822865954040076 15.688403108514764 -12 0 2
704 1 1 0.5897 1.2764206531519142 11.994650819295359 12.11406333442443 -2 2 -3
48 1 1 0.5897 6.072440760600194 13.823051667270827 11.216818066286393 3 -3 1
127 1 2 -1.1794 2.1012866885197434 15.568295798526904 13.550600626696056 -2 1 -9
270 1 1 0.5897 4.827624437121121 14.783831130545865 14.416806264527658 2 0 3
759 1 1 0.5897 7.822568499084211 12.53118987533485 13.584070004729446 -1 1 3
269 1 1 0.5897 5.026112728848447 14.91708451208776 12.921800711381746 2 0 3
128 1 1 0.5897 2.2200518748775737 15.255125111893335 12.653853636821145 -2 1 -9
765 1 1 0.5897 8.77957037051171 16.026025259946618 11.976646117039795 -6 3 -4
391 1 2 -1.1794 4.3494007699025685 11.889091612064874 14.139756976111784 4 -6 -2
475 1 2 -1.1794 4.082582033549387 13.999086765757704 15.92644176485603 4 -5 -3
764 1 1 0.5897 8.539397314499078 14.553889834200252 11.717253746867287 -6 3 -4
476 1 1 0.5897 3.3323979212730874 14.582118503929417 16.043156544077195 4 -5 -3
379 1 2 -1.1794 5.645301866937194 12.22928280269649 20.691197616472007 4 0 1
412 1 2 -1.1794 8.175289037947476 12.169783383114513 19.855983015403144 3 -1 3
744 1 1 0.5897 4.5089710770122196 12.89253624108134 18.285201013248756 0 0 2
458 1 1 0.5897 2.3172030844328013 14.861650719295477 20.407351803831375 -4 0 -1
702 1 1 0.5897 8.766843016600204 14.796601950520783 21.29721087891036 6 -1 -1
414 1 1 0.5897 7.408959861847628 12.10972287915828 20.426496472999915 3 -1 3
381 1 1 0.5897 5.635897102508542 12.7317188281715 19.87646075817525 4 0 1
457 1 2 -1.1794 2.7709984257439975 14.357697417113952 21.082946789831677 -4 0 -1
695 1 1 0.5897 2.2075475702320526 12.648880460130375 20.684867143649953 2 -2 0
45 1 1 0.5897 4.282166450509324 15.032924875862925 20.45945553539813 -4 6 -1
742 1 2 -1.1794 5.406578935397462 13.209839515084196 18.185432032120687 0 0 2
43 1 2 -1.1794 5.108547042260289 15.478997969976438 20.273855192345895 -4 6 -1
26 1 1 0.5897 2.2547340354352032 11.927480847736557 17.51911642698948 0 4 8
469 1 2 -1.1794 7.948225377420055 15.073475275429058 19.64801494268078 2 1 3
470 1 1 0.5897 8.197672000377871 14.151045627994696 19.591230438246168 2 1 3
102 1 1 0.5897 0.596368374306504 12.770692837174039 18.99563572841722 4 -5 -1
101 1 1 0.5897 0.832134552490416 14.215601538329297 18.609808069066315 4 -5 -1
477 1 1 0.5897 4.456695262848138 13.910915344671492 16.803137107908114 4 -5 -3
471 1 1 0.5897 6.991179056057357 15.064860305541378 19.629666567014894 2 1 3
408 1 1 0.5897 6.6020080453136885 13.959294861956486 17.01059107563262 -12 0 2
44 1 1 0.5897 5.255298321957958 16.039254748650926 21.036054880026402 -4 6 -1
451 1 2 -1.1794 1.3969126225852557 15.823761192053084 19.200658950904817 0 -2 1
452 1 1 0.5897 1.8229325982076405 16.030761591361163 18.36879220834362 0 -2 1
442 1 2 -1.1794 2.3080843372119153 16.226463910873164 16.700049147410542 3 4 -2
428 1 1 0.5897 7.134307775291801 16.201048677261188 16.498622622205936 2 -2 -2
453 1 1 0.5897 0.8960539820650119 16.610566152364115 19.416128403713024 0 -2 1
743 1 1 0.5897 5.892988276948952 12.454209516305317 17.855641649370952 0 0 2
834 1 1 0.5897 8.760023630422157 16.459761481512302 18.68778426736229 5 -2 -3
406 1 2 -1.1794 7.3607141649648495 14.284846744295775 16.52611653467716 -12 0 2
694 1 2 -1.1794 1.7511324420515761 11.923672002131234 20.258149306174715 2 -2 0
100 1 2 -1.1794 0.6480287215807093 13.35308424141693 18.237656992039817 4 -5 -1
380 1 1 0.5897 5.194602125323595 12.789023127598893 21.323564025310557 4 0 1
444 1 1 0.5897 3.0366214554497066 16.841150144366296 16.6121778290473 3 4 -2
443 1 1 0.5897 1.5380097783016526 16.726805651990425 16.429920261270006 3 4 -2
91 1 2 -1.1794 1.014665737072822 20.978422754788674 1.1483335830346388 1 -6 -2
306 1 1 0.5897 8.508566491521695 18.51181606014695 2.1831870975002556 6 -3 -9
831 1 1 0.5897 5.910485455460075 21.021698939170257 2.1727149490664517 4 9 -1
198 1 1 0.5897 3.74181682954728 20.590111018389678 4.736101407063176 -1 -3 -2
218 1 1 0.5897 2.7461712517727213 17.156261735841397 4.996008670281339 3 -1 2
589 1 2 -1.1794 1.633427286351911 18.030574898979886 3.613344656589647 6 2 4
591 1 1 0.5897 1.985591009094128 18.87928418385988 3.88167478687941 6 2 4
209 1 1 0.5897 8.579813270424374 17.280766362934017 4.757391739296428 -1 -6 7
448 1 2 -1.1794 2.4914983472788013 18.712911459012467 1.012512258505284 7 -3 -7
829 1 2 -1.1794 5.848250494947329 20.12156291550241 2.4925144901437983 4 9 -1
196 1 2 -1.1794 3.1932910757021498 20.34136289112024 3.9920708558835463 -1 -3 -2
830 1 1 0.5897 5.075606551203389 20.120553732730194 3.057633117489548 4 9 -1
314 1 1 0.5897 5.431714712412176 17.123358314246452 2.1458240588844806 -1 -3 0
305 1 1 0.5897 7.5499332987100845 19.444342237410048 2.892844630653432 6 -3 -9
197 1 1 0.5897 2.6177604009923474 21.09407212196991 3.855955432075517 -1 -3 -2
315 1 1 0.5897 5.704705798618225 18.519041865855094 1.6264773339711105 -1 -3 0
304 1 2 -1.1794 8.40366460692957 19.02159490827694 2.9865865841701247 6 -3 -9
93 1 1 0.5897 0.9236051637117453 21.29046759287899 2.0487064453585324 1 -6 -2
682 1 2 -1.1794 8.950585037585308 17.674414807634065 0.6492350474393974 0 0 -5
449 1 1 0.5897 3.4035573534557666 18.422971412416736 0.9923368066126166 7 -3 -7
506 1 1 0.5897 8.971386031822147 20.88705636530213 5.501232904229702 4 -1 1
92 1 1 0.5897 1.7980809638138966 20.428490718256768 1.1629801028493487 1 -6 -2
313 1 2 -1.1794 5.506676147286939 17.628591978544915 1.336218029902069 -1 -3 0
450 1 1 0.5897 2.1878920603853356 18.489021274855673 1.8923505059573835 7 -3 -7
257 1 1 0.5897 5.797212901195655 21.506604573707648 5.752273914639534 3 -3 1
590 1 1 0.5897 0.6834582574650696 18.141171311443735 3.6541489922793593 6 2 4
562 1 2 -1.1794 7.492223739530534 21.83259604300843 5.305192980134659 2 -4 3
745 1 2 -1.1794 8.015032541919481 19.87265127076998 8.210904027010502 4 3 -9
357 1 1 0.5897 5.403073004482137 18.04753845349689 6.960905089256372 6 3 2
746 1 1 0.5897 8.47509699264008 20.137092799126258 7.414177290129707 4 3 -9
184 1 2 -1.1794 3.7984237753394985 19.539620564016147 8.963493847229078 1 3 1
356 1 1 0.5897 6.782433348118977 18.092755130770115 6.338407467221001 6 3 2
160 1 2 -1.1794 2.342594617346368 19.241947013385577 6.7497096642108145 5 3 2
162 1 1 0.5897 1.688685057006664 18.543016458517066 6.734165258592168 5 3 2
11 1 1 0.5897 5.242476740504312 18.86665553509058 9.887053294647748 -3 -3 2
122 1 1 0.5897 0.9781014962855542 18.8017545102484 9.964379146846163 4 -5 -1
1 1 2 -1.1794 6.210866583996568 21.29584737054718 11.100626072329412 4 -10 3
123 1 1 0.5897 1.826918249054439 19.905909379592245 9.370679535055784 4 -5 -1
747 1 1 0.5897 7.261129218236459 19.372618833118544 7.8979633005186285 4 3 -9
186 1 1 0.5897 3.2605011069190697 19.518100844172785 8.171969964325534 1 3 1
355 1 2 -1.1794 6.136548956038853 18.637840124065818 6.787918948229708 6 3 2
258 1 1 0.5897 5.2767695383908055 20.264988946538466 6.444862043959692 3 -3 1
185 1 1 0.5897 4.1079781556352915 20.443748139792902 9.018793187421442 1 3 1
12 1 1 0.5897 6.395147882458973 19.50616967934544 10.631702578674881 -3 -3 2
10 1 2 -1.1794 6.065411879303348 18.65963689290892 10.330057458272664 -3 -3 2
540 1 1 0.5897 1.7117188387127178 21.460051178663917 10.733297816056291 -10 -6 1
161 1 1 0.5897 1.855017172176694 20.032043889059196 6.516492417617039 5 3 2
201 1 1 0.5897 3.5343479541814324 21.893452686241858 6.805182427995237 4 -8 2
121 1 2 -1.1794 0.9914283924548296 19.74634561925901 9.809794649402853 4 -5 -1
206 1 1 0.5897 2.79696159354212 17.618584231682203 10.482758268471084 -5 4 -3
710 1 1 0.5897 6.508313327358313 17.05523088847916 9.815041709594913 0 -2 -1
205 1 2 -1.1794 2.659621819104765 16.891145583474575 9.875877884670636 -5 4 -3
174 1 1 0.5897 1.0173813286575566 21.68904797318386 6.4907694028597405 9 -1 -3
256 1 2 -1.1794 4.9882779095547924 21.08228399345562 6.038479859075545 3 -3 1
143 1 1 0.5897 8.881639025610909 20.153625712951246 9.582093173682841 5 6 5
390 1 1 0.5897 4.239554666207193 17.87773907001184 14.883937888791854 3 6 5
637 1 2 -1.1794 6.205472528815857 20.543822744408708 14.63585530582485 -4 -4 5
67 1 2 -1.1794 3.8620628381126645 20.691120649616856 12.684206228155892 6 -7 -2
708 1 1 0.5897 6.2393216835374234 18.00095586387875 12.279708400322125 -1 1 -6
495 1 1 0.5897 7.451933717109084 21.395017406250126 13.528554901436177 2 -2 -3
359 1 1 0.5897 0.7655115990826911 21.11499082460493 13.184030657477722 6 5 -6