LAMMPS data file via write_data, version 30 Jul 2021, timestep = 40500000

972 atoms
2 atom types
648 bonds
1 bond types
324 angles
1 angle types

0.034888270754255046 19.965112729208258 xlo xhi
0.07678967408504 19.923211325894897 ylo yhi
0.013265860023512488 20.686732139961656 zlo zhi

Masses

1 1.008
2 15.999

Pair Coeffs # lj/cut/tip4p/long/omp

1 0 0
2 0.21084 3.1668

Bond Coeffs # harmonic/omp

1 450 0.9572

Angle Coeffs # harmonic/omp

1 55 104.52

Atoms # full

10 4 2 -1.1794 1.2297413564926425 4.158479203524768 3.7188221887479984 0 0 0
11 4 1 0.5897 1.0960406169687789 3.396795907746478 3.154706777283636 0 0 0
12 4 1 0.5897 2.1786277740328384 4.207862522471422 3.8344642070995794 0 0 0
33 11 1 0.5897 1.6268665392082946 2.427338677990163 1.4226663375506285 0 0 0
31 11 2 -1.1794 0.9344310991294519 2.1273650158426243 2.011588636819 0 0 0
18 6 1 0.5897 4.078811388636166 3.21920369085272 3.499092748462957 0 0 0
4 2 2 -1.1794 4.29741066617122 1.4559225233352744 3.2818612513419096 0 0 0
16 6 2 -1.1794 3.9395294520930033 4.1367598304691136 3.733381313555415 0 0 0
23 8 1 0.5897 2.750659267431252 1.1230764453668898 4.153436284963193 0 0 0
5 2 1 0.5897 4.381273346147711 0.8776977633612411 2.523596679049691 0 0 0
17 6 1 0.5897 4.233659210505002 4.6276417845654505 2.9660029897868014 0 0 0
236 79 1 0.5897 0.8719824176711385 0.30570684249482016 1.8153348951252513 0 1 0
22 8 2 -1.1794 2.0548051561993637 0.9623714540674703 4.790821582441372 0 0 0
126 42 1 0.5897 4.145161638748252 9.602641145603679 3.3034430211759616 0 0 0
3 1 1 0.5897 3.5995626989553595 2.708288092278968 0.2209691227932325 0 0 0
130 44 2 -1.1794 1.9086927794260897 7.484205382050858 5.033231619341777 0 0 0
140 47 1 0.5897 1.031034403668901 9.476765558291621 2.796769626626687 0 0 0
132 44 1 0.5897 0.952961153763956 7.467172110019203 4.983381478224717 0 0 0
13 5 2 -1.1794 4.730148552732619 5.823763995590043 1.6367530603310738 0 0 0
15 5 1 0.5897 4.490005684188725 6.591124081973621 2.1561267625878573 0 0 0
19 7 2 -1.1794 0.7078746598799062 6.137407150731291 1.8627975918427346 0 0 0
20 7 1 0.5897 0.8679679753442684 5.491874901761814 2.5512533888193185 0 0 0
110 37 1 0.5897 2.0134610313550967 9.335982797870773 0.7850263589691905 0 0 0
674 225 1 0.5897 1.9456165497903504 5.822011261101748 0.5539237456117078 0 0 1
114 38 1 0.5897 3.298789422041562 7.648347336642143 3.993721034967095 0 0 0
14 5 1 0.5897 4.110375223764155 5.824097359193185 0.9072417301876174 0 0 0
139 47 2 -1.1794 0.7302774018533157 8.930970758562145 2.0701450786988898 0 0 0
141 47 1 0.5897 0.8922648765269515 8.033582835131845 2.361110196581697 0 0 0
112 38 2 -1.1794 4.061925356852657 7.783738298778762 3.4319699184764474 0 0 0
113 38 1 0.5897 4.812108909564605 7.681474714320098 4.01767377632968 0 0 0
111 37 1 0.5897 3.4625544311594254 9.182415352975433 0.3746721054488592 0 0 0
102 34 1 0.5897 0.2560788421824842 0.8756313876491638 5.12983093198712 1 0 0
6 2 1 0.5897 4.963391978839879 1.145466852373702 3.8953590099731525 0 0 0
32 11 1 0.5897 0.12353400872455836 2.2829744571391606 1.5273479696545125 0 0 0
109 37 2 -1.1794 2.609927501312376 9.470216891073774 0.048450803304362466 0 0 0
325 109 2 -1.1794 2.6985285457380352 2.597060198921942 6.922312496320862 0 0 0
326 109 1 0.5897 2.6123922166125526 2.035144338923673 6.152136484008558 0 0 0
327 109 1 0.5897 3.6119073130553048 2.497864052176849 7.190848876164993 0 0 0
355 119 2 -1.1794 0.9135230547240164 2.005854879478731 8.993977170922422 0 0 0
356 119 1 0.5897 1.597262993066397 2.2322708060199217 8.36347411650189 0 0 0
27 9 1 0.5897 2.644941653209403 4.406551915633467 6.55699155384251 0 0 0
329 110 1 0.5897 4.193466733596624 0.9305686199211693 9.438196473084599 0 0 0
342 114 1 0.5897 4.189853648234019 4.882255049684314 9.737266615379738 0 0 0
437 146 1 0.5897 4.220710332165842 7.560041872541288 9.502396069143305 0 0 0
339 113 1 0.5897 4.060583091949064 5.890239361678608 7.62372420893303 0 0 0
328 110 2 -1.1794 4.0819374896489995 1.6432014129646149 10.06748542951406 0 0 0
335 112 1 0.5897 1.0932850596919603 3.433143520705637 10.127982881847652 0 0 0
463 155 2 -1.1794 0.7096736818385814 8.597095408607561 9.009954057980835 0 0 0
468 156 1 0.5897 4.452514230165165 9.395787299874986 7.410543976481111 0 0 0
438 146 1 0.5897 4.173108407441593 8.985523377581757 10.009917045622904 0 0 0
26 9 1 0.5897 1.8791872872603623 5.527045985078114 7.227828454698297 0 0 0
131 44 1 0.5897 2.141844565217096 6.656718267462004 5.45410284774856 0 0 0
343 115 2 -1.1794 0.7508414966370519 5.864075554095791 8.509172592067888 0 0 0
25 9 2 -1.1794 2.6029167651222833 5.3604593537807395 6.623878355590513 0 0 0
464 155 1 0.5897 1.431170608809163 8.82009234153654 8.421740123938438 0 0 0
337 113 2 -1.1794 4.542290434680322 6.071784922765845 8.430796106203314 0 0 0
344 115 1 0.5897 0.9139726140415259 5.404646474431684 9.33299294648654 0 0 0
433 145 2 -1.1794 2.6776037293920463 9.22751762377924 7.193023469541986 0 0 0
345 115 1 0.5897 0.8038428464841314 6.792124544247021 8.737466373357087 0 0 0
435 145 1 0.5897 2.332158930873657 8.77934546398826 6.420911703910204 0 0 0
561 187 1 0.5897 0.8099951986355245 0.1823649241574175 8.901576874315657 0 1 0
443 148 1 0.5897 1.0786045336427534 9.782769197124855 10.184529943199868 0 0 0
357 119 1 0.5897 0.09420370839345793 2.208847262803346 8.542587232017059 0 0 0
24 8 1 0.5897 2.3228702512142845 0.16195183350311737 5.242162852666026 0 0 0
341 114 1 0.5897 4.036358766294219 3.448782560801602 10.199259282917561 0 0 0
436 146 2 -1.1794 4.187524791613749 8.07604343974922 10.307995012207074 0 0 0
649 217 2 -1.1794 2.4036902748743296 2.773934066859263 13.743883566108575 0 0 0
650 217 1 0.5897 2.2726895169135735 2.1121534338181553 13.064770300526032 0 0 0
651 217 1 0.5897 1.8206519000074417 2.507215535517141 14.454695980416354 0 0 0
348 116 1 0.5897 2.3739922907595226 1.093802739080679 11.029591942234559 0 0 0
346 116 2 -1.1794 2.019499135576238 0.8031872002865669 11.869979836173536 0 0 0
350 117 1 0.5897 2.476505768283433 4.556626081415785 13.512888881408292 0 0 0
347 116 1 0.5897 1.0703287420929686 0.869964799936053 11.765995360235923 0 0 0
683 228 1 0.5897 4.153300690789426 2.620364729100802 14.16500487186928 0 0 0
336 112 1 0.5897 2.1693048639671746 4.310563788532106 10.731478633486315 0 0 0
330 110 1 0.5897 4.666202495650664 1.4178201935245291 10.791481830667584 0 0 0
661 221 2 -1.1794 4.626606181090909 5.890839639574522 15.322537421319634 0 0 0
340 114 2 -1.1794 3.9348745160238336 4.3538951278363 10.493677640018953 0 0 0
533 178 1 0.5897 0.295298428280276 7.622326419937026 11.971634847317862 1 0 0
351 117 1 0.5897 3.2900303460876263 5.6436190328312295 14.182618946833545 0 0 0
759 253 1 0.5897 2.450812309951459 8.67542588933991 13.323936178361622 0 0 0
668 223 1 0.5897 1.181896743738546 5.833846423255029 14.828329511075403 0 0 0
455 152 1 0.5897 2.771378914562706 7.681199656944902 11.306356184700881 0 0 0
456 152 1 0.5897 2.2898395498540367 6.749274129967898 12.398016193004786 0 0 0
454 152 2 -1.1794 2.076091901146527 7.5703591230571385 11.954877016685861 0 0 0
792 264 1 0.5897 4.502237829217706 9.104326479438019 14.334708344482468 0 0 0
349 117 2 -1.1794 2.508850204934192 5.503755056808855 13.647393308115149 0 0 0
757 253 2 -1.1794 2.6162044668356574 9.256345521494985 14.066575194266251 0 0 0
334 112 2 -1.1794 1.2195395869301051 4.200809479305746 10.685664719779652 0 0 0
789 263 1 0.5897 1.3361747085163354 8.89292355912869 15.290444620784193 0 0 0
405 135 1 0.5897 0.046156836981239735 4.393016291103486 12.129061907902711 1 0 0
653 218 1 0.5897 3.5179063726272948 1.097320696470892 17.617850999273667 0 0 0
652 218 2 -1.1794 4.381837928169994 1.252111265343939 17.235884888935256 0 0 0
664 222 2 -1.1794 4.142333337687554 4.04889479510394 17.298527040902588 0 0 0
671 224 1 0.5897 2.181305069955158 1.6203675861588556 19.375960932161693 0 0 0
666 222 1 0.5897 4.32688896698972 3.135984967280545 17.077764993443644 0 0 0
670 224 2 -1.1794 2.0259895869882856 0.9744805983540428 18.686742366325536 0 0 0
665 222 1 0.5897 3.207443402065115 4.061959291085516 17.50351515427687 0 0 0
681 227 1 0.5897 0.8974477188427994 2.598280249286569 16.521950180134116 0 0 0
672 224 1 0.5897 1.0729619909580719 0.930881976657944 18.609061033528562 0 0 0
658 220 2 -1.1794 1.450683182279542 4.190179544259164 17.538949085431565 0 0 0
659 220 1 0.5897 0.7585383023217687 4.210756470877023 18.19987135907313 0 0 0
654 218 1 0.5897 4.4431161390427 0.622252087530269 16.517661288728366 0 0 0
660 220 1 0.5897 1.184090557387123 4.843104292517648 16.891710746375562 0 0 0
662 221 1 0.5897 4.5061870087810325 5.147618562601606 15.913636620674758 0 0 0
679 227 2 -1.1794 0.7026418487404531 1.9141682244415146 15.881373683249182 0 0 0
669 223 1 0.5897 0.7032795328383141 6.930423117809206 15.755942372774173 0 0 0
884 295 1 0.5897 0.7377442860376576 0.2010144832942633 15.849049208664628 0 1 0
779 260 1 0.5897 2.334414249777489 8.280629165035311 19.329348018310036 0 0 0
675 225 1 0.5897 2.433430746589583 6.183648855110189 19.84046559686287 0 0 0
663 221 1 0.5897 4.446309530438891 6.6594770132064225 15.863788852703857 0 0 0
787 263 2 -1.1794 0.6472059983970203 8.712444806589554 15.93001576041193 0 0 0
858 286 1 0.5897 0.32970984875469433 7.373195679176493 18.67527293301006 1 0 0
780 260 1 0.5897 2.7863042963097437 7.626532234803655 18.04086968611756 0 0 0
761 254 1 0.5897 4.188589733091547 8.85988618322435 17.124245273207976 0 0 0
778 260 2 -1.1794 2.112547311451535 7.577344792041332 18.719065459815887 0 0 0
760 254 2 -1.1794 4.236934946840102 7.90711567956572 17.046285553243248 0 0 0
788 263 1 0.5897 0.7804500000902156 9.365438579737296 16.61715203531766 0 0 0
762 254 1 0.5897 4.90638927019995 7.6481865968504605 17.679599455692422 0 0 0
2 1 1 0.5897 2.5703805411407963 3.747024242277826 20.502477284574532 0 0 -1
667 223 2 -1.1794 0.6251450281753828 5.990797903441508 15.591047316679141 0 0 0
673 225 2 -1.1794 2.580582388349285 5.567238650809268 20.557898317627597 0 0 0
1 1 2 -1.1794 2.6803983209943603 2.807129862966055 20.646298854329622 0 0 -1
120 40 1 0.5897 1.2845165754006271 11.430758012189786 3.2431733225842367 0 0 0
129 43 1 0.5897 1.0795897073268257 13.571467594105172 2.0385500793718987 0 0 0
118 40 2 -1.1794 1.440636397805543 10.748613301885095 3.896312525911031 0 0 0
119 40 1 0.5897 2.3932766848093174 10.661578256179137 3.9294053193349243 0 0 0
240 80 1 0.5897 2.6479089495350023 14.050563327433519 4.319199910405709 0 0 0
127 43 2 -1.1794 0.9708013660103714 12.63213211320319 1.8902097517394323 0 0 0
123 41 1 0.5897 4.127095547694485 12.36032809293666 0.7180309802145054 0 0 0
222 74 1 0.5897 4.246749395698928 13.89593395585098 2.430896836179107 0 0 0
124 42 2 -1.1794 4.162403948222671 10.555880235659671 3.3884113410210226 0 0 0
783 261 1 0.5897 1.9776935017790038 12.389864521300797 0.34164023448425124 0 0 1
220 74 2 -1.1794 4.037754632323431 14.46454299699577 3.1720704360877807 0 0 0
122 41 1 0.5897 4.516818773455998 11.7022865914884 2.0246826684378028 0 0 0
121 41 2 -1.1794 4.7511153509119355 12.423988089256762 1.4411356140973244 0 0 0
125 42 1 0.5897 4.728989207272157 10.71940625963538 4.142451322647402 0 0 0
230 77 1 0.5897 4.113028878773565 19.008825744017898 0.7124933365107855 0 0 0
229 77 2 -1.1794 4.637887886085152 19.254745275813484 1.4743271939873464 0 0 0
247 83 2 -1.1794 1.081182221742806 15.397460520487734 2.0494708898822007 0 0 0
248 83 1 0.5897 1.2446669362103324 16.13162714113654 2.641544405558046 0 0 0
890 297 1 0.5897 2.0348132264019414 18.89143696050602 0.26917033030302584 0 0 1
226 76 2 -1.1794 1.4208965778373788 17.62768989763768 3.7205931128525647 0 0 0
228 76 1 0.5897 0.725033227686046 17.653323314570592 4.377422635551689 0 0 0
221 74 1 0.5897 4.207266908459099 15.349989198000497 2.8504119191142787 0 0 0
232 78 2 -1.1794 4.164939934728608 17.376255033346432 3.474910416470913 0 0 0
233 78 1 0.5897 4.344449355446894 17.97103752832922 2.7466658002189965 0 0 0
227 76 1 0.5897 1.1704898268414015 18.29292584486906 3.07945615988276 0 0 0
235 79 2 -1.1794 0.799262108129114 19.222829585452324 1.597846664303019 0 0 0
234 78 1 0.5897 3.225643755392883 17.46861131568307 3.6342778194563787 0 0 0
249 83 1 0.5897 1.6474074205829974 15.56580358669723 1.296220151019611 0 0 0
238 80 2 -1.1794 2.014017993534619 14.024242248353865 5.036009857639814 0 0 0
219 73 1 0.5897 3.490787323524341 15.799926406455786 0.08945481648762174 0 0 0
128 43 1 0.5897 0.03550119018543896 12.523036405500262 1.7184100441449286 0 0 0
317 106 1 0.5897 0.17346954259345537 13.83519097820039 4.821870794199816 1 0 0
133 45 2 -1.1794 2.5623892792842318 11.968256705921885 6.871827127424147 0 0 0
134 45 1 0.5897 1.8945763906954374 12.269231033957961 7.488042758328529 0 0 0
135 45 1 0.5897 3.393545869949573 12.191112113816578 7.291050504426053 0 0 0
453 151 1 0.5897 0.9052421469291368 11.951817780916256 9.609222314721562 0 0 0
451 151 2 -1.1794 0.8498740040650442 12.598958102886085 8.90604980485201 0 0 0
450 150 1 0.5897 4.339656226799903 11.442102655241566 9.494881832865952 0 0 0
446 149 1 0.5897 4.553042533093367 13.370701366707527 8.744065013686695 0 0 0
573 191 1 0.5897 0.8316072168165015 14.452464941667136 9.171966143635665 0 0 0
445 149 2 -1.1794 4.777383180102974 12.559582323053121 8.287996349742144 0 0 0
239 80 1 0.5897 2.2713355824451202 13.26303349778053 5.556204206532877 0 0 0
434 145 1 0.5897 2.563122775590028 10.158311601950476 7.001415127845995 0 0 0
543 181 1 0.5897 2.352424910735645 15.252949250506985 6.249268143205066 0 0 0
541 181 2 -1.1794 2.6101385767563587 15.90600532180767 6.899961554794461 0 0 0
576 192 1 0.5897 4.3815390694762675 15.909218108230696 7.225214343113201 0 0 0
542 181 1 0.5897 2.0406519772342464 15.735163584666639 7.650189084361887 0 0 0
242 81 1 0.5897 2.6103092720843377 17.739023212755832 6.51908038840837 0 0 0
559 187 2 -1.1794 0.8034920295429362 19.100226915527912 8.669349169498568 0 0 0
571 191 2 -1.1794 0.7472276873677659 15.385241815864429 8.974525448508258 0 0 0
572 191 1 0.5897 0.921405645449967 15.823533590315625 9.807551447864544 0 0 0
553 185 2 -1.1794 4.4445607792128 19.206963268987273 8.590439668857451 0 0 0
555 185 1 0.5897 3.943484067753547 19.116559911871484 7.7798127886965665 0 0 0
243 81 1 0.5897 1.8979135635767588 18.862489495773666 7.2417442401176135 0 0 0
241 81 2 -1.1794 2.5635648868831065 18.693423066058926 6.574932319586564 0 0 0
558 186 1 0.5897 4.190286536865087 17.92719384781295 9.879587778872414 0 0 0
544 182 2 -1.1794 4.195806652217326 14.608196397692593 10.115911189128575 0 0 0
551 184 1 0.5897 1.1615528076756383 17.923034239619668 10.047099307511857 0 0 0
557 186 1 0.5897 4.057454742929908 16.482726087537166 10.31281468595469 0 0 0
448 150 2 -1.1794 4.069681297962137 10.828271366803426 10.17799188624348 0 0 0
457 153 2 -1.1794 2.5637148076625857 12.00799921418582 13.43306492119625 0 0 0
458 153 1 0.5897 1.894199367051709 12.252157184243401 14.072154975994101 0 0 0
459 153 1 0.5897 3.389988137482927 12.084147017324616 13.910277344482084 0 0 0
562 188 2 -1.1794 2.008691171359996 14.100591995698075 11.693137227589741 0 0 0
563 188 1 0.5897 2.275868875495266 13.299473812976204 12.143763217617826 0 0 0
449 150 1 0.5897 4.666299503122686 11.00181526756162 10.906183009347984 0 0 0
442 148 2 -1.1794 1.3098413770566382 10.509341226774124 10.763227345707765 0 0 0
444 148 1 0.5897 2.2599565007194933 10.589777399821964 10.67951843505401 0 0 0
769 257 2 -1.1794 4.689084049431547 12.291964337987949 15.33301387681643 0 0 0
545 182 1 0.5897 3.4088355146763805 14.317640324430307 10.576891629227589 0 0 0
758 253 1 0.5897 2.558918125504205 10.138183078714894 13.69873724687002 0 0 0
877 293 2 -1.1794 4.738639301434503 19.14739807702132 15.394311344206798 0 0 0
567 189 1 0.5897 2.4512939763891217 19.278234812984714 12.912355097048577 0 0 0
550 184 2 -1.1794 1.3147385923138224 17.40487052593909 10.837282996412517 0 0 0
556 186 2 -1.1794 4.061976566379767 17.37751248025762 10.652721570047165 0 0 0
564 188 1 0.5897 2.267221554401853 14.80665934804654 12.28551200459393 0 0 0
866 289 1 0.5897 3.6260969553925317 15.895160302048135 13.735818486187254 0 0 0
867 289 1 0.5897 2.1879745252853255 15.832571721520448 14.204590268251712 0 0 0
566 189 1 0.5897 2.5789102366543175 17.850134628771627 13.398204243200054 0 0 0
885 295 1 0.5897 1.330883108173293 18.972014394811893 14.963809475280561 0 0 0
565 189 2 -1.1794 2.5810389601068855 18.75692075839669 13.704663624517998 0 0 0
879 293 1 0.5897 4.080659959501505 19.118344281994915 14.699663128087359 0 0 0
865 289 2 -1.1794 2.727676640301968 16.051308298974035 13.444838561394507 0 0 0
552 184 1 0.5897 2.2658838005893958 17.406341336086754 10.94458839640204 0 0 0
642 214 1 0.5897 0.23662621203783207 14.189596268457255 11.857960940123167 1 0 0
512 171 1 0.5897 0.06440288661504923 11.064093868418428 11.942712562305442 1 0 0
546 182 1 0.5897 4.907872126166863 14.455552238125476 10.737168213095394 0 0 0
896 299 1 0.5897 0.21408268004600337 15.635154310186856 15.106942034907425 0 0 0
768 256 1 0.5897 1.1688469122914058 11.482284156914632 16.88871588149315 0 0 0
888 296 1 0.5897 2.3422887074142458 13.437468785392952 18.987042132639637 0 0 0
766 256 2 -1.1794 1.3153899955358834 10.832019948617742 17.575733101506458 0 0 0
773 258 1 0.5897 3.1138046904895895 10.633464797501741 17.444679628074127 0 0 0
886 296 2 -1.1794 2.1320742467158165 14.209495743147011 18.4616458083524 0 0 0
774 258 1 0.5897 4.242202986521602 11.116199042044583 16.55828683638165 0 0 0
772 258 2 -1.1794 4.057898431625949 10.552189269032493 17.309461897602898 0 0 0
869 290 1 0.5897 3.4784469328916554 14.524091448213296 17.21610445374809 0 0 0
767 256 1 0.5897 0.6097202691122762 10.983816259390816 18.20445158600436 0 0 0
868 290 2 -1.1794 4.328331138035962 14.613649481881229 16.78491911817627 0 0 0
870 290 1 0.5897 4.9608642881639256 14.309851076327611 17.436004329636905 0 0 0
887 296 1 0.5897 2.254499151803658 14.947050868571916 19.059398051740885 0 0 0
771 257 1 0.5897 4.508610055333351 13.110580547588896 15.795116099339923 0 0 0
965 322 1 0.5897 0.4018040528117371 14.067892308788243 18.83174942769382 1 0 0
781 261 2 -1.1794 2.6301723216737707 12.240227114416768 20.330856982779192 0 0 0
782 261 1 0.5897 2.6340726711175697 11.29118672184917 20.206379376642875 0 0 0
882 294 1 0.5897 4.271143145605227 16.40648053903022 16.88692430457852 0 0 0
897 299 1 0.5897 1.0749310145422395 16.01020434294263 16.294558006456068 0 0 0
874 292 2 -1.1794 1.4098087144037874 17.296891893959234 17.522868525484352 0 0 0
889 297 2 -1.1794 2.7028129610420852 18.72734527442673 20.27693305949901 0 0 0
891 297 1 0.5897 2.511933166046908 19.35985451797822 19.58424764715626 0 0 0
880 294 2 -1.1794 4.143749939000564 17.272328139578676 17.27461081067595 0 0 0
875 292 1 0.5897 0.8028636024169464 17.340522109461453 18.261820879501705 0 0 0
878 293 1 0.5897 4.48094428113109 18.450981510798506 15.998366600352037 0 0 0
876 292 1 0.5897 1.1704931405974472 18.041742235082594 16.971328548431412 0 0 0
881 294 1 0.5897 3.1993151567526894 17.334837738556267 17.417202463431536 0 0 0
895 299 2 -1.1794 1.0476976328259167 15.432708482788543 15.531604535106847 0 0 0
218 73 1 0.5897 2.586983851869192 16.958598531767827 20.398988141114604 0 0 -1
777 259 1 0.5897 1.0403021375468293 13.625998244700769 15.694063009673867 0 0 0
775 259 2 -1.1794 0.9669662180423365 12.682425239212467 15.550945424786109 0 0 0
217 73 2 -1.1794 2.5813890923020493 16.01421316961148 20.554869744697427 0 0 -1
883 295 2 -1.1794 0.6989332460833648 19.107982558926686 15.669838592159687 0 0 0
142 48 2 -1.1794 5.322336722249683 8.891468346642057 0.41136839793007846 0 0 0
47 16 1 0.5897 7.762942431617724 3.443405322850307 3.4686795483893635 0 0 0
57 19 1 0.5897 7.699004929880285 5.436663499874424 2.6965013892570577 0 0 0
273 91 1 0.5897 7.51910919849501 0.3328260882106361 2.0831875919301943 0 1 0
34 12 2 -1.1794 5.2754228926117115 2.505756200807166 0.48236479652243236 0 0 0
69 23 1 0.5897 6.561721761688009 2.3988704530647453 1.851968820456859 0 0 0
48 16 1 0.5897 7.31642917287806 4.308244332964077 4.628346597307041 0 0 0
67 23 2 -1.1794 7.39765574025022 2.2002379610989897 2.2738734629357453 0 0 0
46 16 2 -1.1794 8.018535639062554 4.2074618313371195 3.9855458288191916 0 0 0
68 23 1 0.5897 8.048258873819496 2.3086423159286285 1.5801281176153028 0 0 0
53 18 1 0.5897 9.989756885629687 4.147435944695947 3.902761699166337 0 0 0
58 20 2 -1.1794 8.553621421522328 0.8552151358953546 4.9204331824115455 0 0 0
711 237 1 0.5897 8.703056062386368 5.643448932017931 0.5402404376769984 0 0 1
175 59 2 -1.1794 7.463209931855672 8.727594253889789 2.086941825460865 0 0 0
56 19 1 0.5897 6.609213579273575 5.7673332488122195 1.6989815402991857 0 0 0
166 56 2 -1.1794 8.653370191055137 7.52173911692042 4.936984352781414 0 0 0
176 59 1 0.5897 7.520100481021607 7.780340574025943 2.2120902991354563 0 0 0
177 59 1 0.5897 8.13961492764957 8.92513445687061 1.4390561618817486 0 0 0
55 19 2 -1.1794 7.533974214080519 5.924483447824871 1.8895613323456388 0 0 0
143 48 1 0.5897 6.000511911114656 8.850029399782777 1.0856643951312632 0 0 0
41 14 1 0.5897 9.873678790574145 1.0191777172344838 3.817882384772721 0 0 0
9 3 1 0.5897 5.05078925050432 4.543320786869044 5.067502189620642 0 0 0
37 13 2 -1.1794 9.088916977080379 2.58939177851556 0.1285411920776821 0 0 0
145 49 2 -1.1794 9.260214023772994 9.42443737822167 0.08608472863699439 0 0 0
155 52 1 0.5897 7.899914543481905 9.98416268982098 3.3163893330709255 0 0 0
149 50 1 0.5897 9.997776641856415 7.841457790771629 3.684734666676575 0 0 0
29 10 1 0.5897 6.809697143299524 0.8999486397573545 5.090970256774409 0 0 0
138 46 1 0.5897 6.8620897740261135 7.538632678635448 5.061153308747154 0 0 0
167 56 1 0.5897 8.815562777678732 6.70657068666064 5.411788607806253 0 0 0
361 121 2 -1.1794 9.03888918196988 2.683687653839199 6.825769230151113 0 0 0
391 131 2 -1.1794 7.602780009009152 2.142706887969503 9.050101301685519 0 0 0
59 20 1 0.5897 8.768627372358056 1.5412700273203082 5.55241210529189 0 0 0
359 120 1 0.5897 6.1089848150565205 2.5195844582336955 8.060781147067159 0 0 0
360 120 1 0.5897 5.713336415059501 1.984550255441876 6.700824466387582 0 0 0
8 3 1 0.5897 5.684953392798062 4.089012436352556 6.365069265866499 0 0 0
358 120 2 -1.1794 5.484132821150563 2.651816119349861 7.347758229121159 0 0 0
393 131 1 0.5897 7.4074090605806475 1.2075242200950338 8.991349394015113 0 0 0
392 131 1 0.5897 8.208774731641201 2.3071160473446812 8.327555328967858 0 0 0
7 3 2 -1.1794 5.7917130347670485 4.714967445539653 5.648754871637575 0 0 0
362 121 1 0.5897 9.00531814478821 3.6226377994860264 6.642915571659578 0 0 0
501 167 1 0.5897 6.675417366465794 9.025598033032818 8.604887074468573 0 0 0
381 127 1 0.5897 7.600033079688685 5.4421775178878 9.33450295190903 0 0 0
379 127 2 -1.1794 7.354810510403143 5.951363689080311 8.561881122459857 0 0 0
137 46 1 0.5897 5.895384810112448 6.488746095314918 5.5662022707906464 0 0 0
338 113 1 0.5897 5.455111429229437 5.883378157200932 8.212916194201991 0 0 0
380 127 1 0.5897 7.495064225288811 6.862235589308928 8.820427559650005 0 0 0
467 156 1 0.5897 5.578090279304109 8.611361814754346 6.770505334799665 0 0 0
500 167 1 0.5897 7.697497002658555 9.383868200750996 9.662756033858262 0 0 0
466 156 2 -1.1794 5.4056530919107315 9.371477168244365 7.3261599633276715 0 0 0
470 157 1 0.5897 8.62774164069687 9.299448174085368 7.572113833830078 0 0 0
168 56 1 0.5897 8.851537252364164 8.211692846998723 5.570222114252139 0 0 0
62 21 1 0.5897 8.492429553554269 5.560507498876588 7.290326956052943 0 0 0
469 157 2 -1.1794 9.19699638475673 9.430567513313543 6.8137657334149395 0 0 0
61 21 2 -1.1794 9.182988705100772 5.4251726182804045 6.641390578726655 0 0 0
499 167 2 -1.1794 7.536213700949872 8.776069761253174 8.941024328134477 0 0 0
371 124 1 0.5897 7.811345600237883 3.4857431664151033 10.207489745354204 0 0 0
28 10 2 -1.1794 5.896967346595942 0.7817449418658483 5.353964433399853 0 0 0
136 46 2 -1.1794 5.965013769967544 7.423992926020311 5.37473727902725 0 0 0
63 21 1 0.5897 9.992414324406537 5.643569720041542 7.103327647573027 0 0 0
363 121 1 0.5897 9.965064042967745 2.503523859599852 6.986844403260904 0 0 0
332 111 1 0.5897 5.1806335713505645 4.606162293437919 11.774030715812499 0 0 0
385 129 2 -1.1794 9.124451867960477 5.6630492050975265 14.023333036045356 0 0 0
682 228 2 -1.1794 5.106692920599583 2.7046528064653113 14.176729852375933 0 0 0
685 229 2 -1.1794 9.114954071945949 2.820295581814082 13.777462630112508 0 0 0
386 129 1 0.5897 9.014317223187094 4.749978943422675 13.758041786998064 0 0 0
331 111 2 -1.1794 5.887212938825087 4.711650466626931 12.41114727062622 0 0 0
372 124 1 0.5897 7.357572982415634 4.399324129087332 11.326232091983249 0 0 0
382 128 2 -1.1794 8.443556650691322 0.9367272981297844 11.902788883371986 0 0 0
684 228 1 0.5897 5.290049522356706 3.4376735109079912 13.58907769056635 0 0 0
354 118 1 0.5897 5.522208610673715 1.5170682749380902 12.93175292797606 0 0 0
384 128 1 0.5897 9.12004719689009 0.994081449916855 11.227965448440994 0 0 0
353 118 1 0.5897 6.625885439158702 1.0666906419111997 11.998432944474999 0 0 0
686 229 1 0.5897 8.62610497762429 2.654069156886886 14.583538260569853 0 0 0
383 128 1 0.5897 8.665600585711566 1.6295863397854295 12.524824319658185 0 0 0
352 118 2 -1.1794 5.690005629733925 0.9622215689314744 12.169957712604527 0 0 0
460 154 2 -1.1794 6.207465940259136 7.456285195199574 12.041619071016802 0 0 0
793 265 2 -1.1794 9.3175051179613 9.34930534632741 14.165844967445535 0 0 0
717 239 1 0.5897 6.531694162722215 2.4766210253597616 15.296385979443917 0 0 0
462 154 1 0.5897 5.565702422995097 7.577166257590488 11.341730391095224 0 0 0
492 164 1 0.5897 8.035773317751309 7.5275790658286015 11.823540340031835 0 0 0
490 164 2 -1.1794 8.955274764083493 7.527688634561203 12.08949112721433 0 0 0
491 164 1 0.5897 9.439926738979652 7.675412447373649 11.277298079323842 0 0 0
794 265 1 0.5897 9.196411263386763 8.829244077188516 13.371345741925348 0 0 0
461 154 1 0.5897 5.887039761175277 8.003892416030109 12.758403119533194 0 0 0
791 264 1 0.5897 5.927977585823413 9.066970695744367 14.842398780520956 0 0 0
790 264 2 -1.1794 5.411205608181128 9.18123411570175 14.044744908674872 0 0 0
387 129 1 0.5897 9.033546531655675 6.161501959994101 13.211149400903144 0 0 0
333 111 1 0.5897 5.958616955905622 5.657978837127156 12.535851910487365 0 0 0
705 235 1 0.5897 7.850375392888092 5.95391253501415 15.265398624784249 0 0 0
370 124 2 -1.1794 8.026264829683686 4.308277342865949 10.647356651788083 0 0 0
377 126 1 0.5897 9.898043466588243 4.154484740707972 10.609743346921451 0 0 0
824 275 1 0.5897 8.010305285272475 9.046445358054271 15.410840777531027 0 0 0
785 262 1 0.5897 6.090225422858685 6.4280852052307695 19.165089505929704 0 0 0
144 48 1 0.5897 5.590077456931783 8.24180333832583 20.43479587615253 0 0 -1
38 13 1 0.5897 8.909668852987645 2.011787285249037 20.060001929602734 0 0 -1
35 12 1 0.5897 5.509240087340194 1.7714036308072965 20.58810007636154 0 0 -1
816 272 1 0.5897 8.961883957576546 8.363803122428312 19.407936576448435 0 0 0
694 232 2 -1.1794 8.084746281431432 4.163666428071914 17.766164771106805 0 0 0
677 226 1 0.5897 5.459083698974993 0.8400546088492536 18.557805788886903 0 0 0
695 232 1 0.5897 7.844267220571378 3.373650223012526 17.282125290308407 0 0 0
708 236 1 0.5897 7.752627312838732 0.8096853680357041 18.738949253528492 0 0 0
715 239 2 -1.1794 7.332545319812832 2.310309624771521 15.793616833192493 0 0 0
655 219 2 -1.1794 5.837620754624184 4.665156593110276 19.41209020237908 0 0 0
657 219 1 0.5897 6.68244055074673 4.473957550895141 19.00471206428448 0 0 0
706 236 2 -1.1794 8.70156953782306 0.8401590781399875 18.61737145094331 0 0 0
716 239 1 0.5897 7.367629349927289 1.3577277988938679 15.880484981001148 0 0 0
676 226 2 -1.1794 6.001900726393614 0.6097714712143762 19.31190105035792 0 0 0
696 232 1 0.5897 7.870068876144118 4.883329044998086 17.17263176302942 0 0 0
704 235 1 0.5897 6.391795564090207 5.94109337858087 15.670657120985814 0 0 0
656 219 1 0.5897 5.195057620603578 4.494201672940449 18.723468071741106 0 0 0
702 234 1 0.5897 9.851342320262185 4.1663185762701085 17.687248133535515 0 0 0
703 235 2 -1.1794 7.268408893723271 6.132131074223824 16.00424337496638 0 0 0
814 272 2 -1.1794 8.862344325852627 7.630668651796885 18.8005721460576 0 0 0
784 262 2 -1.1794 6.180644930927035 7.351084473040884 18.928240169338963 0 0 0
815 272 1 0.5897 9.016049658642373 6.85259528287435 19.33652077340601 0 0 0
823 275 2 -1.1794 7.331870028613286 8.870114775055878 16.062713463989418 0 0 0
786 262 1 0.5897 7.120980091852298 7.474688623667944 18.79903384527242 0 0 0
825 275 1 0.5897 7.328968321997763 7.917341698903112 16.154376033126834 0 0 0
709 237 2 -1.1794 9.25649539266771 5.420487174491949 20.465152298890676 0 0 0
36 12 1 0.5897 5.489627723927662 3.284191312082435 20.64161991818248 0 0 -1
689 230 1 0.5897 9.987877987856315 1.206803123150778 17.46878171241182 0 0 0
707 236 1 0.5897 9.030063291699635 0.08305474205816665 19.102275482587206 0 0 0
710 237 1 0.5897 9.090875101437728 4.490117715274006 20.312917046355658 0 0 0
231 77 1 0.5897 5.540574607038643 19.24815923439082 1.1559906340994461 0 0 0
262 88 2 -1.1794 7.7555978126114695 17.46974344943024 3.70299773047719 0 0 0
156 52 1 0.5897 9.105627745240149 10.783321517326607 3.7629956909641873 0 0 0
163 55 2 -1.1794 7.443433465462636 12.740930679699854 2.08194433992461 0 0 0
165 55 1 0.5897 7.646720887039861 12.062683323682972 2.72611350565285 0 0 0
285 95 1 0.5897 7.567663101570284 14.57208710297629 2.12324261363317 0 0 0
164 55 1 0.5897 6.537708603383865 12.565732646971147 1.8266419535584044 0 0 0
276 92 1 0.5897 9.229733986361996 14.064094476854129 4.665097384270778 0 0 0
154 52 2 -1.1794 8.151513433542641 10.750318623486523 3.832105093992472 0 0 0
819 273 1 0.5897 8.559263054596574 12.36265931026035 0.7444673456727519 0 0 1
224 75 1 0.5897 5.264626448489681 17.65007191112683 4.774839137161076 0 0 0
246 82 1 0.5897 5.287851502025438 14.169986649806606 4.481757290636466 0 0 0