LAMMPS data file via write_data, version 30 Jul 2021, timestep = 29000000

972 atoms
2 atom types
648 bonds
1 bond types
324 angles
1 angle types

0.279073259728591 19.720927740264784 xlo xhi
0.12470759497724693 19.875293405017928 ylo yhi
0.022322114516315494 20.677675885494203 zlo zhi

Masses

1 1.008
2 15.999

Pair Coeffs # lj/cut/tip4p/long/omp

1 0 0
2 0.21084 3.1668

Bond Coeffs # harmonic/omp

1 450 0.9572

Angle Coeffs # harmonic/omp

1 55 104.52

Atoms # full

4 2 2 -1.1794 4.419563278008967 1.000420820121521 3.28173292196147 0 0 0
5 2 1 0.5897 4.608267680854981 0.4071467123165174 2.5546447971276325 0 0 0
32 11 1 0.5897 0.3136747247103422 2.323430342564695 1.5592305326227622 0 0 0
10 4 2 -1.1794 1.7582317396054294 4.078979151464829 4.046589837652767 0 0 0
11 4 1 0.5897 1.3779983903682593 3.3727595126343846 3.524138020095829 0 0 0
12 4 1 0.5897 2.7029639935208634 3.9875363515155016 3.9223819567374134 0 0 0
16 6 2 -1.1794 4.473742874989757 3.806441333426492 3.3604657909158355 0 0 0
18 6 1 0.5897 4.542361312508473 2.878483162299127 3.1357332233045656 0 0 0
23 8 1 0.5897 2.9448563345636707 0.8714449942743229 4.320674610402462 0 0 0
31 11 2 -1.1794 1.177768243553911 2.3311621724660743 1.971002614182792 0 0 0
33 11 1 0.5897 1.789296730501512 2.4455469800866205 1.2435540792906745 0 0 0
236 79 1 0.5897 1.4844675827501776 0.5447945457026978 2.201296308879602 0 1 0
17 6 1 0.5897 4.591439884470925 4.264310617240239 2.528163425453201 0 0 0
22 8 2 -1.1794 2.3279171626259916 0.9010944492713009 5.051944142759509 0 0 0
6 2 1 0.5897 4.975761145215329 0.689208842380857 3.9959049183542557 0 0 0
356 119 1 0.5897 1.6066194091820358 2.3108287287973983 8.425738818081722 0 0 0
342 114 1 0.5897 4.392372208986594 4.407189497205883 9.89375361927074 0 0 0
325 109 2 -1.1794 2.839319683677802 2.7909354227661582 7.031807514110415 0 0 0
326 109 1 0.5897 2.668439287139182 2.326693340194038 6.21236159334633 0 0 0
327 109 1 0.5897 3.7643679613264207 2.624752173956962 7.213362486671367 0 0 0
330 110 1 0.5897 4.023793502118394 0.6730267098256433 9.451021485314728 0 0 0
355 119 2 -1.1794 0.9287161557040383 1.925673987532504 8.9810004201522 0 0 0
27 9 1 0.5897 2.7245863758627387 4.758612906480267 6.389464573532693 0 0 0
81 27 1 0.5897 0.5232125349261246 4.441170340204591 5.328836274977305 1 0 0
328 110 2 -1.1794 3.8009321259219893 1.3188412712143398 10.121477275791733 0 0 0
24 8 1 0.5897 2.5488743300971057 0.13626823036759514 5.583456686409963 0 0 0
561 187 1 0.5897 1.380470594100749 0.24911889049518232 8.933048717862066 0 1 0
335 112 1 0.5897 1.131980217352401 3.2502161040677295 10.061962521471495 0 0 0
102 34 1 0.5897 0.5852143332601196 0.9710123955688257 5.362529048016655 1 0 0
334 112 2 -1.1794 1.2673745612583687 3.9802223384903876 10.666149598993584 0 0 0
329 110 1 0.5897 4.449169927625929 1.1811298789828018 10.81217368953012 0 0 0
346 116 2 -1.1794 2.195045804880449 0.8027973919263913 12.086404277694317 0 0 0
347 116 1 0.5897 1.2626762871227455 0.9505999696448494 11.927855924548972 0 0 0
348 116 1 0.5897 2.5988969943840527 0.8675608680719485 11.220994183574746 0 0 0
683 228 1 0.5897 4.415898389332766 2.5841733544445993 14.279728018065878 0 0 0
649 217 2 -1.1794 2.57308149828488 2.6247093842610796 14.108230076205466 0 0 0
650 217 1 0.5897 2.4901070240388217 2.006933356590891 13.381784640027432 0 0 0
651 217 1 0.5897 1.8305703907159228 2.425559991186968 14.678568688846447 0 0 0
350 117 1 0.5897 2.71513421678048 4.472875694538693 13.576862075296416 0 0 0
336 112 1 0.5897 2.2168195402375206 4.0249903045680195 10.77951238311529 0 0 0
340 114 2 -1.1794 4.10449485611341 3.937306717355511 10.676426501213585 0 0 0
405 135 1 0.5897 0.3562763528417469 4.477630580978078 12.039893135119735 1 0 0
341 114 1 0.5897 4.054441862493229 3.021646473212189 10.4018642653356 0 0 0
652 218 2 -1.1794 4.32895063088893 1.1995348153383336 17.06269337710782 0 0 0
653 218 1 0.5897 3.4319634721500956 0.9799915736583222 17.314724551885632 0 0 0
654 218 1 0.5897 4.612456792218038 0.46405374334654903 16.51959242393159 0 0 0
658 220 2 -1.1794 1.2695003062166395 4.092617957414997 17.705209870910814 0 0 0
659 220 1 0.5897 0.6466121880128258 4.211822644890394 18.42217108464171 0 0 0
664 222 2 -1.1794 4.062572057986985 3.94509544373729 17.420225274189356 0 0 0
665 222 1 0.5897 3.117250344771712 4.041915172060149 17.535400650581273 0 0 0
666 222 1 0.5897 4.184365922148489 3.020995281028835 17.20223828396299 0 0 0
670 224 2 -1.1794 1.9459030058023554 0.7833772293791045 18.396594141422952 0 0 0
671 224 1 0.5897 2.195438196459558 1.5571075053616532 18.901935293487007 0 0 0
672 224 1 0.5897 0.9909555581057768 0.8269247681465692 18.34684658509297 0 0 0
681 227 1 0.5897 0.8605073016149344 2.5382878268629585 16.687874332101977 0 0 0
679 227 2 -1.1794 0.7119185217413266 1.956428576941752 15.942491484180517 0 0 0
884 295 1 0.5897 1.1211729249454514 0.16986152354933864 15.866901429958098 0 1 0
2 1 1 0.5897 2.6633469221671398 3.517821033925961 20.467477904886465 0 0 -1
660 220 1 0.5897 1.0766535522962406 4.80743218685974 17.098475530750157 0 0 0
662 221 1 0.5897 4.613818903773564 4.895137973190503 15.947483889941823 0 0 0
3 1 1 0.5897 3.6230014704094433 2.3595825698588944 20.639716870875947 0 0 -1
1 1 2 -1.1794 2.704847728179213 2.561505919719933 20.459362960193978 0 0 -1
110 37 1 0.5897 2.0481634843380494 9.26088161519806 0.7769943246114825 0 0 0
141 47 1 0.5897 1.0172060645897063 8.017381737723934 2.3860548515276934 0 0 0
139 47 2 -1.1794 0.6383270344109429 8.856896734088465 2.1253073842761308 0 0 0
114 38 1 0.5897 3.5219883353143318 7.59183162721787 3.691178425519154 0 0 0
140 47 1 0.5897 0.8875731114023894 9.460450708867695 2.825191463612667 0 0 0
14 5 1 0.5897 4.416285759578377 5.70511694138423 0.8032037929016618 0 0 0
15 5 1 0.5897 4.912360225748946 6.615987985601079 1.9059984312904186 0 0 0
19 7 2 -1.1794 1.2744535493030333 6.115632328950279 2.0244019573529894 0 0 0
21 7 1 0.5897 0.3395576986775057 6.122531791909749 1.8190836660827439 0 0 0
112 38 2 -1.1794 4.334933597443288 7.791021312359173 3.2267216622695734 0 0 0
674 225 1 0.5897 2.3086049107019697 5.642018751077603 0.45573952535429024 0 0 1
126 42 1 0.5897 4.234426834528085 9.575276805499751 3.375982882386616 0 0 0
111 37 1 0.5897 3.4183358385351665 9.089010091936856 0.1564315092725353 0 0 0
130 44 2 -1.1794 2.1483634419783373 7.639007312498646 4.823367145090121 0 0 0
20 7 1 0.5897 1.358835223110689 5.483136271922403 2.7379033492216096 0 0 0
113 38 1 0.5897 5.022727021298476 7.658848786568555 3.8791987437730096 0 0 0
132 44 1 0.5897 1.2326917813309408 7.403599168813864 4.673620024056269 0 0 0
13 5 2 -1.1794 5.092893341212015 5.7799728592081525 1.476149012342776 0 0 0
131 44 1 0.5897 2.475223952892828 6.9646187937274044 5.418890286828752 0 0 0
464 155 1 0.5897 1.5584698957587453 9.003465054780161 8.420263024047237 0 0 0
438 146 1 0.5897 4.170002535443604 8.655240928592214 9.955078682701972 0 0 0
437 146 1 0.5897 4.1452371924465385 7.196285013745929 9.551412334295696 0 0 0
26 9 1 0.5897 2.014483698864564 5.812468900066722 7.212381149792928 0 0 0
435 145 1 0.5897 2.5903033236913697 8.878733029526272 6.053485562611158 0 0 0
433 145 2 -1.1794 2.7204157840843437 9.308529861531861 6.898815199987455 0 0 0
463 155 2 -1.1794 0.832666268578743 8.857560765114052 9.027046824530647 0 0 0
345 115 1 0.5897 1.069954679467999 7.0494382915967 9.00569968450544 0 0 0
468 156 1 0.5897 4.441266425123581 9.23132908220442 7.239656096395617 0 0 0
343 115 2 -1.1794 1.0986775607961512 6.142107566595316 8.70201649367928 0 0 0
339 113 1 0.5897 4.068236046743464 5.856999329332001 7.800461014470737 0 0 0
25 9 2 -1.1794 2.730580068882267 5.6949941696843105 6.5881479981554865 0 0 0
344 115 1 0.5897 1.2554929397768526 5.628617619919245 9.49446193983755 0 0 0
337 113 2 -1.1794 4.560408115852088 5.740267165536132 8.613093536247977 0 0 0
436 146 2 -1.1794 3.9353389352029984 7.7846975730395656 10.276646224076746 0 0 0
443 148 1 0.5897 1.3814135422639524 9.940010010956758 10.321242756788031 0 0 0
757 253 2 -1.1794 2.734987718926525 9.258205779418262 14.10274625158722 0 0 0
351 117 1 0.5897 3.698123043187591 5.539079588525042 14.011658828722581 0 0 0
349 117 2 -1.1794 2.8960426116557576 5.4101541612857025 13.505393954889628 0 0 0
759 253 1 0.5897 2.4196184017425733 8.783920865680486 13.33343234443989 0 0 0
668 223 1 0.5897 1.8652400061137728 5.895841884737458 14.995944722346449 0 0 0
454 152 2 -1.1794 2.012353900709968 7.583563890492202 12.087029776138047 0 0 0
455 152 1 0.5897 2.5733764541299435 7.768794160118798 11.333909225488476 0 0 0
456 152 1 0.5897 2.3848921668252294 6.791617060088496 12.474767944773363 0 0 0
792 264 1 0.5897 4.467780789317993 8.907662407591593 13.995251564072854 0 0 0
789 263 1 0.5897 1.6736034059097815 9.009413300732463 15.471012197679592 0 0 0
533 178 1 0.5897 0.2872116611862511 7.418853212107608 12.030101789181998 1 0 0
661 221 2 -1.1794 4.961228847645869 5.539691197497454 15.33095083895805 0 0 0
788 263 1 0.5897 1.3090335955914725 9.495768247965952 16.857516716845318 0 0 0
663 221 1 0.5897 4.713919173103847 6.3859934284365565 15.703662861096074 0 0 0
673 225 2 -1.1794 2.9419030445199845 5.4277582961167425 20.426079475037007 0 0 0
779 260 1 0.5897 2.555743306724485 8.12497689728314 19.26399488123478 0 0 0
780 260 1 0.5897 2.912863856252108 7.682466415308682 17.86097910267914 0 0 0
675 225 1 0.5897 2.7385035989978332 6.03345685112956 19.713345203794283 0 0 0
760 254 2 -1.1794 4.453977674936488 7.876981883416072 16.908576007435165 0 0 0
761 254 1 0.5897 4.5905307157577555 8.817186647048008 17.02561445145013 0 0 0
778 260 2 -1.1794 2.3563321451569017 7.458228054059612 18.60677652758043 0 0 0
787 263 2 -1.1794 1.0863575203303406 8.831176473749858 16.205600451198933 0 0 0
762 254 1 0.5897 5.003067466620397 7.469479889739534 17.578428629383936 0 0 0
669 223 1 0.5897 1.428291770389452 6.940902896108333 16.000397967605405 0 0 0
858 286 1 0.5897 0.5634422942691668 7.315731932386431 18.3703893326773 1 0 0
109 37 2 -1.1794 2.515052422378848 9.323807874979796 20.599110980791252 0 0 -1
667 223 2 -1.1794 1.311630062872018 6.0199336685398155 15.766891242304103 0 0 0
783 261 1 0.5897 2.0886263832730565 12.257485882079578 0.4882891334930549 0 0 1
118 40 2 -1.1794 1.4875609585964689 10.826270163640006 3.856502108156269 0 0 0
119 40 1 0.5897 2.4251091055562357 10.635354798144768 3.8856038091819247 0 0 0
120 40 1 0.5897 1.4135706033993394 11.576282762945878 3.2663457516529375 0 0 0
123 41 1 0.5897 4.2855914950067735 11.991195756539566 0.7120537797645891 0 0 0
222 74 1 0.5897 4.351143982559674 13.566094195040849 2.3591713773143823 0 0 0
124 42 2 -1.1794 4.137575259715508 10.49557007345082 3.6209104734842907 0 0 0
240 80 1 0.5897 2.4510165966962663 13.966305417148183 4.110666310065161 0 0 0
127 43 2 -1.1794 1.2293251823671532 12.856610846607051 1.9303149173909127 0 0 0
129 43 1 0.5897 1.3292742326633258 13.748058406093438 2.264458935269636 0 0 0
220 74 2 -1.1794 3.855251957233052 14.15563292540475 2.9273280853198664 0 0 0
125 42 1 0.5897 4.751165773352724 10.616897016616061 4.345479606234047 0 0 0
122 41 1 0.5897 4.636085898591907 11.515339989742015 2.1058074571599534 0 0 0
128 43 1 0.5897 0.3196099082903508 12.811254964453504 1.6359345338695002 0 0 0
238 80 2 -1.1794 1.8791412624792025 13.99279630381132 4.87780086658256 0 0 0
246 82 1 0.5897 5.1078798714125755 13.949427939807777 4.320796553026426 0 0 0
121 41 2 -1.1794 4.939355868966878 12.091327913875768 1.4040035869824474 0 0 0
133 45 2 -1.1794 2.7236091997483167 12.099111493714359 6.931970109126262 0 0 0
134 45 1 0.5897 2.1284281097087305 12.433958639907239 7.602716743025201 0 0 0
135 45 1 0.5897 3.5985439723215125 12.28272750873806 7.274129279480889 0 0 0
453 151 1 0.5897 1.3615670798562265 11.982223012834249 9.642673059335996 0 0 0
434 145 1 0.5897 2.537873217271118 10.232713059104404 6.728827240306079 0 0 0
573 191 1 0.5897 0.9885263295526824 14.652702366090539 9.378126096864651 0 0 0
450 150 1 0.5897 4.505408417160201 11.047516245432293 9.428835812335837 0 0 0
451 151 2 -1.1794 1.1396883309063557 12.716346151296358 9.069856195597856 0 0 0
445 149 2 -1.1794 4.997830523612316 12.553724328207759 8.439252211680174 0 0 0
239 80 1 0.5897 2.033659572815189 13.158645150487509 5.32122341759217 0 0 0
446 149 1 0.5897 4.8203182531536095 13.292472322220638 9.021503497252047 0 0 0
448 150 2 -1.1794 4.273250567365248 10.550869504632017 10.213493066667438 0 0 0
442 148 2 -1.1794 1.5951622634025917 10.688540584163855 10.878284925159571 0 0 0
449 150 1 0.5897 4.778625250897987 10.961057718972237 10.915341561990173 0 0 0
457 153 2 -1.1794 2.889319910332731 11.846184723169234 13.590515939019829 0 0 0
458 153 1 0.5897 2.2783090834682325 12.04065356472001 14.301216170362029 0 0 0
459 153 1 0.5897 3.7558279728142696 11.9583741518126 13.98149414696871 0 0 0
564 188 1 0.5897 2.387495526296048 14.834393654220476 12.473416281197863 0 0 0
444 148 1 0.5897 2.5415232364451703 10.796218141751261 10.782885776168314 0 0 0
562 188 2 -1.1794 2.181111625394472 14.02671301896061 12.002938710093634 0 0 0
563 188 1 0.5897 2.5736045485781007 13.3330758183516 12.53312552081993 0 0 0
769 257 2 -1.1794 4.9562137018964085 12.173943175708192 15.372445167754172 0 0 0
758 253 1 0.5897 2.6676494322867423 10.181634387827172 13.85971254117253 0 0 0
546 182 1 0.5897 5.114715871134163 14.018300154477592 11.284741488908514 0 0 0
545 182 1 0.5897 3.6255349268764183 13.94841242202015 11.021056793771063 0 0 0
642 214 1 0.5897 0.5322770467453779 13.854645067407212 12.088329299292681 1 0 0
775 259 2 -1.1794 1.0559091496655455 12.312617028903128 15.469939328931707 0 0 0
544 182 2 -1.1794 4.4664615487428385 14.080395444699683 10.583205763148998 0 0 0
766 256 2 -1.1794 1.4788571319059973 11.018398914714224 17.79265364760399 0 0 0
767 256 1 0.5897 0.635985635123743 11.023971962814002 18.24628198330025 0 0 0
768 256 1 0.5897 1.31646579519022 11.495296337839227 16.978764279482412 0 0 0
772 258 2 -1.1794 4.106569413317666 10.614707143974924 17.503552520261415 0 0 0
773 258 1 0.5897 3.180567202442416 10.717826870942714 17.723069670367288 0 0 0
774 258 1 0.5897 4.220142487558751 11.120277046910617 16.698734664428606 0 0 0
771 257 1 0.5897 4.6868541340785415 12.949471613854849 15.864688877085774 0 0 0
869 290 1 0.5897 3.368037117773978 14.141067137888134 17.505359968299842 0 0 0
868 290 2 -1.1794 4.140155509209139 14.215482904618531 16.944497585785477 0 0 0
886 296 2 -1.1794 2.110152467527664 14.10786874107962 18.80523232098607 0 0 0
888 296 1 0.5897 2.2611948218320297 13.26661702875532 19.23625045219015 0 0 0
781 261 2 -1.1794 2.740053158855696 12.056974461668533 20.47156126207544 0 0 0
870 290 1 0.5897 4.881462215012868 14.14289268671333 17.545716890314168 0 0 0
965 322 1 0.5897 0.31424203592427347 14.116272064422457 18.928822205195928 1 0 0
782 261 1 0.5897 2.6478882933392924 11.11612892215799 20.321101161451303 0 0 0
777 259 1 0.5897 1.0797506395207936 13.239352094254508 15.708522852527572 0 0 0
887 296 1 0.5897 2.2514932502278047 14.758671978556176 19.492800160974262 0 0 0
249 83 1 0.5897 1.499534842706171 15.756527426039368 1.4399607654524307 0 0 0
248 83 1 0.5897 1.2562911621999526 16.147238533778733 2.882171197314098 0 0 0
233 78 1 0.5897 4.800971008049547 17.367759337185674 2.6511036585042294 0 0 0
235 79 2 -1.1794 1.342315054838208 19.356438570003746 2.0809098742825936 0 0 0
226 76 2 -1.1794 2.065400251476939 17.392695308165116 3.8448840761266845 0 0 0
227 76 1 0.5897 1.9250044358315643 18.13215388027197 3.253475113328186 0 0 0
229 77 2 -1.1794 4.9589613211928 18.81913405849157 1.378238073980833 0 0 0
247 83 2 -1.1794 0.9529165810168346 15.550283538429756 2.1981651484436524 0 0 0
230 77 1 0.5897 4.524508401368316 18.849708837170162 0.5258733501072438 0 0 0
232 78 2 -1.1794 4.628039339660227 16.740621289603148 3.3532753357667255 0 0 0
228 76 1 0.5897 1.3636934617182828 17.466224231927953 4.491773651421174 0 0 0
234 78 1 0.5897 3.7199643747384066 16.907586884058084 3.6058846652287997 0 0 0
890 297 1 0.5897 2.2599638753052584 19.15612478572053 0.3275409947654928 0 0 1
221 74 1 0.5897 4.265680482082088 15.011309713704446 2.8020593208957405 0 0 0
219 73 1 0.5897 3.422367985770531 15.86937276816385 0.18625681538314554 0 0 0
237 79 1 0.5897 0.4185631574012349 19.282381225832907 1.8411576659619429 0 0 0
576 192 1 0.5897 4.290354715111104 15.408128601117962 7.343334899344746 0 0 0
559 187 2 -1.1794 1.3780810857211068 19.049906144719863 8.8138501508119 0 0 0
572 191 1 0.5897 1.0144043528288942 16.0882410188283 9.858413052588634 0 0 0
241 81 2 -1.1794 2.9022207610709176 18.48136942483437 6.630942621351603 0 0 0
242 81 1 0.5897 2.73685342049222 17.55080556258192 6.4791659484414215 0 0 0
243 81 1 0.5897 2.283822751992356 18.72582911251388 7.319466349597636 0 0 0
541 181 2 -1.1794 2.471692017800641 15.777593749438704 6.835191289249337 0 0 0
542 181 1 0.5897 1.8052994637327702 15.720134533290546 7.519934116026164 0 0 0
543 181 1 0.5897 2.2096154624295528 15.121208791608085 6.189627231760749 0 0 0
555 185 1 0.5897 4.373781782279377 18.52679547972005 7.924063457372376 0 0 0
571 191 2 -1.1794 0.7076389558294208 15.536070819460846 9.139205282365994 0 0 0
553 185 2 -1.1794 4.78114181750368 18.661317286148126 8.779741027139115 0 0 0
558 186 1 0.5897 4.7334088702005355 17.37909820277614 10.222872053715015 0 0 0
551 184 1 0.5897 1.6312685975322254 17.947726166503152 10.174221874151835 0 0 0
560 187 1 0.5897 0.5127226301958192 18.855388978911826 8.453844467204028 0 0 0
885 295 1 0.5897 1.8669172211669625 19.017417092681285 14.907518346314957 0 0 0
866 289 1 0.5897 3.6782570211637635 15.91483243450154 14.1956514472605 0 0 0
879 293 1 0.5897 4.499278479983534 18.918289012949067 14.916079114393144 0 0 0
867 289 1 0.5897 2.2210771705003145 15.618434119695205 14.47995613011183 0 0 0
550 184 2 -1.1794 1.7157454975733972 17.340031523204694 10.908955503114436 0 0 0
552 184 1 0.5897 2.6599489305658195 17.245231560115634 11.034652592186562 0 0 0
565 189 2 -1.1794 3.1952700194326527 18.7224372460567 13.761539028250771 0 0 0
566 189 1 0.5897 2.965409888121544 17.814498569214884 13.563698623637347 0 0 0
567 189 1 0.5897 2.8285110076351305 19.226616320988832 13.035212374580942 0 0 0
865 289 2 -1.1794 2.8012261577812416 16.001670708936988 13.822068904451344 0 0 0
556 186 2 -1.1794 4.497335528273501 16.835313691540364 10.974411390009887 0 0 0
557 186 1 0.5897 4.614291131777446 15.936513785219589 10.666540738124654 0 0 0
621 207 1 0.5897 0.5002101831887664 17.79857044428278 12.14831100847179 1 0 0
896 299 1 0.5897 0.32253605210792813 15.352984922032595 15.253473821076598 0 0 0
881 294 1 0.5897 3.2681039467870234 17.172490073821407 17.463849504741738 0 0 0
897 299 1 0.5897 1.1541202082226194 15.635198482638168 16.48664686214955 0 0 0
891 297 1 0.5897 2.52148437807123 19.30848716293496 19.49958104585432 0 0 0
882 294 1 0.5897 4.183536852424636 16.057644359169615 17.0043252194357 0 0 0
880 294 2 -1.1794 4.188919016438925 16.967654832917418 17.301256423794314 0 0 0
874 292 2 -1.1794 1.3906865768049113 17.097158843918812 17.538438615036803 0 0 0
878 293 1 0.5897 4.742235198636749 18.16494626782565 16.20656056035584 0 0 0
876 292 1 0.5897 1.2269695950688908 17.79406540787368 16.902998679922867 0 0 0
889 297 2 -1.1794 2.818532493720036 18.833452255098727 20.27568998164493 0 0 0
875 292 1 0.5897 0.9105322194297384 17.36823663324133 18.32087829866108 0 0 0
895 299 2 -1.1794 1.0208298049270879 14.986184867628552 15.795799919484665 0 0 0
883 295 2 -1.1794 1.1917401149462892 19.008079143994458 15.58596925535558 0 0 0
218 73 1 0.5897 2.422843259169676 16.90492760998312 20.3718655619752 0 0 -1
217 73 2 -1.1794 2.489560602004335 15.997434462972587 20.669050849274633 0 0 -1
69 23 1 0.5897 6.614800316960334 2.241709395758675 1.7781604895748122 0 0 0
9 3 1 0.5897 5.405362730488517 4.307981126564157 4.924277932257202 0 0 0
68 23 1 0.5897 8.098057925747522 2.4988452733341373 1.6172147739345113 0 0 0
67 23 2 -1.1794 7.433440867918706 2.2856780440637614 2.2722787004785867 0 0 0
46 16 2 -1.1794 8.080664798357176 4.384090987612033 3.7651610454285462 0 0 0
47 16 1 0.5897 7.821597615972963 3.6284532771722775 3.2377244130115055 0 0 0
48 16 1 0.5897 7.437482769789724 4.414194922623703 4.473432072829932 0 0 0
34 12 2 -1.1794 5.302471483848063 2.248078577202565 0.4787838289645872 0 0 0
273 91 1 0.5897 7.589643441170293 0.6479193354728995 1.6517468700664653 0 1 0
58 20 2 -1.1794 8.469896125535515 0.8361338241064231 4.914601731462733 0 0 0
53 18 1 0.5897 9.902380790613204 4.321380864126296 3.6436834631543413 0 0 0
39 13 1 0.5897 9.884989669793741 2.73121060360652 0.333702165995485 0 0 0
41 14 1 0.5897 9.756134989865743 1.2486361639403036 3.737992809759591 0 0 0
37 13 2 -1.1794 8.980711872199493 2.914071128470819 0.07845830456253822 0 0 0
8 3 1 0.5897 5.83376554419936 4.0050466189152445 6.344330659478802 0 0 0
391 131 2 -1.1794 7.554207641102266 2.142716904227499 8.986731252312454 0 0 0
393 131 1 0.5897 7.697130711629164 1.2086595979005714 9.139840754812338 0 0 0
360 120 1 0.5897 5.629488315554334 1.7238668474490062 6.82801618420642 0 0 0
361 121 2 -1.1794 9.045090138525119 2.8384709094201654 6.83584757695695 0 0 0
392 131 1 0.5897 8.111883881009469 2.3511295244980692 8.237191585140051 0 0 0
362 121 1 0.5897 9.005826850094726 3.7825521801234 6.68253843585728 0 0 0
358 120 2 -1.1794 5.44355024836665 2.474056081105419 7.392759307474921 0 0 0
359 120 1 0.5897 6.099970222074629 2.420051545740934 8.087341612381103 0 0 0
7 3 2 -1.1794 5.936103243064961 4.64946459771716 5.643962027484666 0 0 0
59 20 1 0.5897 8.620562646727787 1.54165695224865 5.543712664214605 0 0 0
363 121 1 0.5897 9.975822995694143 2.6545005197478067 6.9631262086375525 0 0 0
28 10 2 -1.1794 5.7961452646452365 0.42441070136091463 5.55762379826506 0 0 0
29 10 1 0.5897 6.667507538813779 0.5927689516586969 5.198917368249928 0 0 0
371 124 1 0.5897 7.9385743894996335 3.5131918597435297 10.123459723490269 0 0 0
352 118 2 -1.1794 5.875942155319492 0.8397746805960573 12.02123038194029 0 0 0
353 118 1 0.5897 6.7849167426586945 0.9167446881838542 11.73116388593518 0 0 0
386 129 1 0.5897 9.234431425214067 4.905581278427764 13.576304249023455 0 0 0
354 118 1 0.5897 5.832092942324324 1.370570766034481 12.816578692967436 0 0 0
372 124 1 0.5897 7.579076648819649 4.421808849435033 11.279802389682008 0 0 0
685 229 2 -1.1794 9.185769462585117 3.1260152680617117 13.728795336210833 0 0 0
382 128 2 -1.1794 8.629692181683836 1.099641880733085 11.989339676865953 0 0 0
383 128 1 0.5897 8.802921693635323 1.8988388485795482 12.48687634550559 0 0 0
384 128 1 0.5897 9.139548667996923 1.202012653625344 11.18572187123538 0 0 0
332 111 1 0.5897 5.395514942805189 4.3163318021135915 11.867617202615193 0 0 0
686 229 1 0.5897 8.642979533225857 2.7772580851305033 14.435891877011768 0 0 0
684 228 1 0.5897 5.627118651473906 3.2943106661060146 13.713429912448388 0 0 0
682 228 2 -1.1794 5.365923065952154 2.5071056264657607 14.191313288991715 0 0 0
331 111 2 -1.1794 6.106498638324133 4.513973411256527 12.477293678674872 0 0 0
370 124 2 -1.1794 8.254948353050116 4.26819764590203 10.619601934153932 0 0 0
717 239 1 0.5897 6.73786531711574 2.5087372150125615 15.33672727947072 0 0 0
657 219 1 0.5897 6.759953030163724 4.259074163409945 18.983826739119742 0 0 0
710 237 1 0.5897 9.222209599414873 4.655156227804059 20.422950375534846 0 0 0
655 219 2 -1.1794 5.92076876907751 4.33107107136636 19.438659853985335 0 0 0
707 236 1 0.5897 9.035954061602217 0.34292477750443595 19.110281155334818 0 0 0
677 226 1 0.5897 5.308141876010328 0.7216225851458967 18.660276104796772 0 0 0
36 12 1 0.5897 5.528399656553774 3.0072633430399347 20.596651390152587 0 0 -1
694 232 2 -1.1794 8.121024566270705 4.508713383645112 17.634144672131242 0 0 0
695 232 1 0.5897 7.976799430651227 3.785794860647358 17.02352122575516 0 0 0
676 226 2 -1.1794 5.950877019389688 0.36977179313511666 19.276195803113943 0 0 0
706 236 2 -1.1794 8.630132651454028 1.1555573271027852 18.80819836173412 0 0 0
708 236 1 0.5897 7.695290857265338 0.9547323016976248 18.763335158108788 0 0 0
715 239 2 -1.1794 7.562958787627378 2.4188624733473465 15.813615791891237 0 0 0
38 13 1 0.5897 8.847877573431141 2.400879879380625 19.93679379283759 0 0 -1
716 239 1 0.5897 7.742589611819608 1.4786465875893304 15.80737951611542 0 0 0
656 219 1 0.5897 5.26840086435031 4.103274237962127 18.776249864432565 0 0 0
35 12 1 0.5897 5.426782703652556 1.497306680649403 20.553468855093847 0 0 -1
689 230 1 0.5897 9.87016330632897 1.106333463382164 17.372874415448614 0 0 0
702 234 1 0.5897 9.90698613942629 4.247043346337328 17.4580657642229 0 0 0
143 48 1 0.5897 5.782181447140681 8.932916786221039 1.1280880475259454 0 0 0
176 59 1 0.5897 7.421343329434276 8.026742997399023 2.143370133334435 0 0 0
711 237 1 0.5897 8.63993170724066 5.835307179245769 0.516095640408055 0 0 1
57 19 1 0.5897 7.7783868482767895 5.6298765828362 2.666029425323469 0 0 0
175 59 2 -1.1794 7.308638821203696 8.976333386432746 2.099841095117556 0 0 0
55 19 2 -1.1794 7.617046689835758 6.22801351075375 1.9363445641627048 0 0 0
56 19 1 0.5897 6.752386850337003 5.979747400041048 1.6092069644290699 0 0 0
177 59 1 0.5897 7.936637106171862 9.262394867356269 1.4364929210747388 0 0 0
138 46 1 0.5897 7.091075445072284 7.486594560923234 5.041149632773685 0 0 0
166 56 2 -1.1794 8.880708883276561 7.607245955153294 5.0494209005818975 0 0 0
147 49 1 0.5897 9.9063666718669 9.304784024844839 0.42827873275083267 0 0 0
142 48 2 -1.1794 5.239171766871677 8.90879397584027 0.34019389359635627 0 0 0
145 49 2 -1.1794 9.022834359459871 9.3089782682772 0.05998928803706292 0 0 0
62 21 1 0.5897 8.539844037334378 5.785280116862432 7.379827298835661 0 0 0
501 167 1 0.5897 6.523472084296632 8.919003755059254 8.68567988794161 0 0 0
380 127 1 0.5897 7.145498339364134 6.894834903149033 8.981490406515979 0 0 0
469 157 2 -1.1794 8.942419133540412 9.541012916414049 7.150254912407261 0 0 0
499 167 2 -1.1794 7.29831174040097 8.711078330368784 9.207858147385835 0 0 0
137 46 1 0.5897 6.130952162654877 6.4606905918916615 5.604826294249395 0 0 0
61 21 2 -1.1794 9.170241184995515 5.529969913122684 6.706281183579065 0 0 0
467 156 1 0.5897 5.629772799854946 8.54928553159633 6.595977560681303 0 0 0
500 167 1 0.5897 7.403898808338869 9.46315962687925 9.790529876901266 0 0 0
470 157 1 0.5897 8.444522989408982 9.222828679911373 7.903321038581257 0 0 0
379 127 2 -1.1794 7.305346798544446 6.047605401841611 8.56561500700393 0 0 0
167 56 1 0.5897 8.981790483206565 6.776109957933678 5.513424597135785 0 0 0
381 127 1 0.5897 7.76084956283091 5.534650090302714 9.233182995449747 0 0 0
338 113 1 0.5897 5.4779223451582935 5.740798762626716 8.340209123093706 0 0 0
466 156 2 -1.1794 5.3867250254280075 9.112536970199931 7.330780248030689 0 0 0
168 56 1 0.5897 9.039796570047402 8.275313870865597 5.716216099183273 0 0 0
136 46 2 -1.1794 6.197031722760416 7.385809486284201 5.367978149398699 0 0 0
471 157 1 0.5897 9.853903927683703 9.340523952450644 7.363091656088342 0 0 0
385 129 2 -1.1794 9.269762528189517 5.8343543524509665 13.80527336901245 0 0 0
794 265 1 0.5897 9.130081899529742 8.70439152366877 13.28768381305891 0 0 0
491 164 1 0.5897 9.29702586235492 7.861170112333637 10.904404336828046 0 0 0
461 154 1 0.5897 6.0453335292134245 7.777375841901409 12.683799206978735 0 0 0
791 264 1 0.5897 5.763909847707909 8.861901101778763 14.776247764287113 0 0 0
793 265 2 -1.1794 9.192778311420213 9.223390172008159 14.089507151366643 0 0 0
333 111 1 0.5897 6.156933618671522 5.469863572367425 12.485430670428272 0 0 0
387 129 1 0.5897 9.234365143758149 6.290387520437518 12.96442880179112 0 0 0
460 154 2 -1.1794 6.157279252113584 7.231291467360126 11.905665498949341 0 0 0
490 164 2 -1.1794 8.84839034104711 7.770541131665296 11.745083782407637 0 0 0
492 164 1 0.5897 7.939866744662795 7.578326008985004 11.51282177553967 0 0 0
705 235 1 0.5897 7.8728892772952435 6.330943626153565 15.057394537270897 0 0 0
824 275 1 0.5897 7.976439463747022 9.25983202257152 15.365688999583702 0 0 0
790 264 2 -1.1794 5.4112931670306486 8.785413749585999 13.889672826429845 0 0 0
462 154 1 0.5897 5.381106439984726 7.408701427190019 11.37430467740066 0 0 0
814 272 2 -1.1794 8.486658581953675 7.53765232245078 18.74986833909889 0 0 0
786 262 1 0.5897 6.799906947424369 7.261949347886775 18.86779883817171 0 0 0
815 272 1 0.5897 8.696672625668782 6.785988278034766 19.30411238918368 0 0 0
825 275 1 0.5897 7.263120025508048 8.177690193409724 16.14809078703508 0 0 0
785 262 1 0.5897 5.882770821717473 6.108550438984834 19.21512911064663 0 0 0
823 275 2 -1.1794 7.236624174469733 9.11499685016609 15.955562088045527 0 0 0
816 272 1 0.5897 8.652990944857518 8.29934578925189 19.30525240516944 0 0 0
784 262 2 -1.1794 5.886399285535657 7.053773961229514 19.063948536626725 0 0 0
703 235 2 -1.1794 7.371305033706977 6.343211934707404 15.872558145062033 0 0 0
144 48 1 0.5897 5.654095511932039 8.250399183794993 20.438230359295353 0 0 -1
709 237 2 -1.1794 9.267821627932081 5.609294775390487 20.485211189675162 0 0 0
704 235 1 0.5897 6.53718148116098 5.931101887266741 15.647361335291619 0 0 0
797 266 1 0.5897 9.954113464517826 7.658236865686255 17.734091266814545 0 0 0
696 232 1 0.5897 7.925701308191128 5.295472508060881 17.125110701911886 0 0 0
154 52 2 -1.1794 7.9322048654921264 10.796205238367957 3.980439086035474 0 0 0
819 273 1 0.5897 8.826468200069176 12.279083675061823 0.5750645095925361 0 0 1
156 52 1 0.5897 8.877099467867119 10.869309019093546 3.8458038250636566 0 0 0
163 55 2 -1.1794 7.703609433703242 12.587605690925477 1.9175095508344155 0 0 0
164 55 1 0.5897 6.800586364818728 12.384708870159525 1.6733063057512938 0 0 0
165 55 1 0.5897 7.855360714828265 12.082648810508726 2.716381836295779 0 0 0
276 92 1 0.5897 9.061279204505807 14.119469013575912 4.476739079676432 0 0 0
285 95 1 0.5897 7.708725662909968 14.608169553241023 2.0802103516170103 0 0 0
155 52 1 0.5897 7.658074217824218 10.099087781049713 3.3844811769727063 0 0 0
275 92 1 0.5897 7.609546814416943 14.07149352728407 4.903640406335012 0 0 0