LAMMPS data file via write_data, version 30 Jul 2021, timestep = 11250000

1008 atoms
2 atom types
672 bonds
1 bond types
336 angles
1 angle types

-3.3274166408865415 14.937415640441989 xlo xhi
-0.31243632241033126 22.892435322410826 ylo yhi
-0.02164136878838363 19.25163936878802 zlo zhi
-0.05237279073306205 -6.4573942670069675 0.0425468408414036 xy xz yz

Masses

1 1.008
2 15.999

Pair Coeffs # lj/cut/tip4p/long/omp

1 0 0
2 0.21084 3.1668

Bond Coeffs # harmonic/omp

1 450 0.9572

Angle Coeffs # harmonic/omp

1 55 104.52

Atoms # full

122 41 1 0.5897 -2.6230833648632466 1.847261492273664 1.5720219326500982 1 0 0
55 19 2 -1.1794 -0.7862739597867443 3.8074211590846216 3.5693420828625353 0 0 0
56 19 1 0.5897 -1.5435095078405752 3.5275158293875575 3.0549343949629204 0 0 0
123 41 1 0.5897 -3.724759294834059 2.4261872548779677 2.4339493742652056 1 0 0
57 19 1 0.5897 -0.15551245113574064 4.1165495285969325 2.9191405927890197 0 0 0
86 29 1 0.5897 -2.4530483847437945 1.1826986891565137 3.6421415768758596 1 0 0
121 41 2 -1.1794 -2.7728861757518555 2.404528958796001 2.3357727037416245 1 0 0
19 7 2 -1.1794 0.891013635287627 2.536798987324459 0.19686078708082988 0 0 0
158 53 1 0.5897 -4.566290125491301 4.39003043404585 4.609771350061456 1 0 0
482 161 1 0.5897 -1.3535847800357306 -0.26873775552111817 1.0744001212027163 1 1 0
602 201 1 0.5897 -0.7213654582504625 5.417823795616963 0.4533939836363501 1 0 1
87 29 1 0.5897 -3.4968053937871826 0.9289157425526302 4.70889585101916 1 0 0
163 55 2 -1.1794 -2.584409940314467 0.8836657072711491 0.058436274763177254 1 0 0
114 38 1 0.5897 -3.6938621218012493 5.34960540500809 1.728870652197442 1 0 0
85 29 2 -1.1794 -2.558632087048001 0.8533272921134278 4.534670514209716 1 0 0
134 45 1 0.5897 -1.9580391088278744 2.6524746573015086 5.841072376538192 1 0 0
135 45 1 0.5897 -1.5457053381612416 3.7066799673179274 6.846546028315376 1 0 0
159 53 1 0.5897 -3.2929959590264586 4.646440589668056 5.387701002199387 1 0 0
124 42 2 -1.1794 -4.907798351137757 2.5403025187880965 7.362984635811738 1 0 0
125 42 1 0.5897 -5.542527949413465 3.2547298301919687 7.417557355657643 1 0 0
69 23 1 0.5897 -2.490199132422397 0.9958894427657858 8.818605056003433 0 0 0
133 45 2 -1.1794 -2.2952937710991796 3.3984688441111888 6.33715792694305 1 0 0
126 42 1 0.5897 -4.076735823978066 2.9722285399537074 7.165467994517499 1 0 0
67 23 2 -1.1794 -2.2459294434639108 0.25289430980862326 8.266649763177224 0 0 0
669 223 1 0.5897 -5.087673420202267 1.6830413471790722 9.120407000422412 1 0 0
98 33 1 0.5897 -4.178606079125292 5.339631671358541 8.650565269525377 1 0 0
157 53 2 -1.1794 -3.956051592790077 5.085612748459772 4.8549849977361905 1 0 0
97 33 2 -1.1794 -4.097214207270213 4.902559457002683 9.498264637019002 1 0 0
68 23 1 0.5897 -3.074962582958569 -0.05987362801552337 7.904395482433555 0 0 0
561 187 1 0.5897 -4.874677491349095 3.399237934892897 12.572817175167586 0 0 0
559 187 2 -1.1794 -4.127707573949348 3.8983114906782728 12.903460335404006 0 0 0
625 209 2 -1.1794 -6.148513660603078 2.3357633978951973 11.993990492263723 1 0 0
663 221 1 0.5897 -7.342046481555872 5.396895822569791 13.749618119142353 1 0 0
668 223 1 0.5897 -5.638551664130785 1.5808935777287836 10.526820248423943 1 0 0
667 223 2 -1.1794 -5.2429509949774715 1.0585418019922677 9.828996142712615 1 0 0
626 209 1 0.5897 -6.083525434513556 1.8003181387994482 12.784752906033203 1 0 0
662 221 1 0.5897 -7.637588911398931 3.9124068318423237 13.718551949327892 1 0 0
627 209 1 0.5897 -7.0823021801933095 2.3407198511851997 11.783513967172272 1 0 0
560 187 1 0.5897 -3.542086766179491 3.237372964059222 13.272910014235901 0 0 0
524 175 1 0.5897 -3.12847269354653 3.309751129536644 9.869689362155825 0 0 0
589 197 2 -1.1794 -5.966014929901198 0.769296931704647 14.208150578676804 1 0 0
523 175 2 -1.1794 -2.5411172292460202 2.5567366797764923 9.804265277405179 0 0 0
986 329 1 0.5897 -4.213752870687522 -0.23431973440764448 10.447372019393846 1 1 0
661 221 2 -1.1794 -7.296365567657078 4.604672992073245 14.284880769397683 1 0 0
591 197 1 0.5897 -5.293934095717429 0.10683125942507832 14.368548793612803 1 0 0
606 202 1 0.5897 -6.194896362937996 4.528988055938664 9.662022238795634 1 0 0
630 210 1 0.5897 -8.242810974444588 1.630155243038527 16.494115755277342 1 0 0
164 55 1 0.5897 -8.635558623993761 1.3868830762969333 18.597590328531258 1 0 -1
637 213 2 -1.1794 -5.6564436013141375 2.8693851533647075 16.039687319256622 1 0 0
628 210 2 -1.1794 -8.081854173960323 2.2940193982443 17.16476422678375 1 0 0
639 213 1 0.5897 -5.92987901900363 3.351571359100805 15.259333043679579 1 0 0
629 210 1 0.5897 -8.66681513418634 3.015540887894287 16.933483109075226 1 0 0
638 213 1 0.5897 -6.471504109566182 2.6881535806411727 16.507664485311537 1 0 0
590 197 1 0.5897 -5.90484987314498 1.3599333032170844 14.959019330230278 1 0 0
20 7 1 0.5897 -5.8959508195311265 1.8318344090379037 18.971136783318173 0 0 -1
601 201 2 -1.1794 -7.340398703977579 4.809912984958361 19.043162977997873 1 0 0
571 191 2 -1.1794 -5.891463488957218 0.21234157313328839 17.703442042739734 0 0 0
593 198 1 0.5897 -7.650146363688421 0.5002781712461656 14.783316881301346 1 0 0
603 201 1 0.5897 -6.728174190840024 4.100243296083243 19.237620937881957 1 0 0
101 34 1 0.5897 -9.221493681804837 4.2381624421757556 19.126459308823648 1 0 -1
253 85 2 -1.1794 -2.7264621285799038 8.466138454783678 4.734849955268454 1 0 0
146 49 1 0.5897 -1.4192426459744987 6.61196715429703 2.0434681871633384 1 0 0
112 38 2 -1.1794 -3.470596054897041 6.0633938205603775 2.326381749176279 1 0 0
289 97 2 -1.1794 -3.047596314925916 10.192715123691809 2.3656981088386275 1 0 0
145 49 2 -1.1794 -0.7886735344748108 6.97819678816239 1.4234288462341913 1 0 0
255 85 1 0.5897 -2.8054718474703915 8.626545647628495 3.794474148315852 1 0 0
147 49 1 0.5897 -1.2711605626234417 7.670122020004434 0.9709661669652665 1 0 0
113 38 1 0.5897 -3.584213962688699 5.689453891507279 3.2001559895394576 1 0 0
332 111 1 0.5897 -2.6606287550411443 9.55880935499257 0.6587083776923693 1 0 0
291 97 1 0.5897 -3.889899769941069 10.614157333159229 2.536386963544665 1 0 0
290 97 1 0.5897 -2.409629770171068 10.734623734326352 2.8301643361460176 1 0 0
224 75 1 0.5897 -0.5845419480172378 11.012283644240316 4.2405684232235785 0 0 0
187 63 2 -1.1794 0.7610334458866008 10.299546293778294 0.22485252258028382 0 0 0
200 67 1 0.5897 0.394630767287957 8.153461535559584 2.3754396217258282 0 0 0
8 3 1 0.5897 -1.0865842820558411 5.560586524545442 4.373842645817841 0 0 0
7 3 2 -1.1794 -0.6783233526638766 6.352589010295786 4.723765670053376 0 0 0
257 86 1 0.5897 -4.748988468068342 8.810684397741788 4.611124187823874 1 0 0
331 111 2 -1.1794 -2.3916655155129414 8.874506623940805 0.04573082695400489 1 0 0
109 37 2 -1.1794 -4.507642050921524 6.529974899621672 7.2680421050383925 1 0 0
837 279 1 0.5897 -5.940417121313736 8.302370118682814 9.24154505176006 1 0 0
301 101 2 -1.1794 -2.476586108424424 10.79757191645354 6.546693002109053 1 0 0
294 98 1 0.5897 -5.217786141428679 9.853199448360723 8.123551592801453 1 0 0
292 98 2 -1.1794 -5.042077348461978 10.378028780546256 7.34263260348534 1 0 0
236 79 1 0.5897 -3.2275189782914055 7.516101211482805 7.857252243249615 0 0 0
293 98 1 0.5897 -4.092900812989064 10.329010493783958 7.229188522936538 1 0 0
302 101 1 0.5897 -2.2866982405158787 9.875347195345029 6.374126708984812 1 0 0
237 79 1 0.5897 -2.535831842486101 8.692731091316881 8.512546821047241 0 0 0
111 37 1 0.5897 -5.374671441175993 6.929433880969046 7.197635430984793 1 0 0
110 37 1 0.5897 -4.352010889332515 6.14106798302564 6.407312561868078 1 0 0
235 79 2 -1.1794 -2.3610166394459724 7.858244240365641 8.077306638726997 0 0 0
303 101 1 0.5897 -1.723650673665623 11.107618023149927 7.050000603010788 1 0 0
254 85 1 0.5897 -2.028806669137991 7.814993474293866 4.809451501566358 1 0 0
616 206 2 -1.1794 -6.844733703633789 6.2796365577645465 12.268565429926145 1 0 0
650 217 1 0.5897 -3.597246229460643 7.247217527558418 11.99284300171958 1 0 0
512 171 1 0.5897 -4.662690043623018 6.940091796745052 14.316333328046937 0 0 0
759 253 1 0.5897 -5.835267048884433 8.926748177301755 13.286693397554734 1 0 0
649 217 2 -1.1794 -4.215404096295391 6.886996171639352 11.356869813786242 1 0 0
794 265 1 0.5897 -5.056238470392971 10.749533715676 12.150527370091055 1 0 0
651 217 1 0.5897 -4.971968290672919 6.623097938830671 11.880466212456735 1 0 0
795 265 1 0.5897 -5.749897600082304 9.834423476945123 11.163735817314429 1 0 0
793 265 2 -1.1794 -5.8738581080426595 10.27338984864787 12.005342664950025 1 0 0
835 279 2 -1.1794 -5.279463175115065 8.81121118767174 9.711237972677397 1 0 0
99 33 1 0.5897 -4.078475440694362 5.616559108732167 10.135641888132296 1 0 0
836 279 1 0.5897 -4.914943174360771 8.199122968561833 10.350568223077985 1 0 0
513 171 1 0.5897 -4.072845078547639 5.5662031847315525 14.07841080407035 0 0 0
618 206 1 0.5897 -6.854549226569782 5.7257831906028525 11.487840014386098 1 0 0
762 254 1 0.5897 -7.673942812839148 8.287053622091154 14.277145712390762 1 0 0
757 253 2 -1.1794 -5.778886319201332 8.381171139545275 14.07117491379623 1 0 0
617 206 1 0.5897 -7.375600121327532 7.039695328817795 12.030314030854052 1 0 0
805 269 2 -1.1794 -5.536819762550266 10.749012613161742 15.537877144244609 1 0 0
758 253 1 0.5897 -5.559281135357562 8.993101075566782 14.773837656325645 1 0 0
333 111 1 0.5897 -8.577986196898994 9.391736834345567 18.533268249962195 1 0 -1
741 247 1 0.5897 -5.970571413130466 8.769397090307159 18.295292229468227 0 0 0
796 266 2 -1.1794 -7.823825682189094 9.774459268755033 16.821326607550187 1 0 0
613 205 2 -1.1794 -7.83489345800419 6.439461934049122 16.64820688673507 1 0 0
798 266 1 0.5897 -8.253097500553334 9.248932911398084 16.146074137107206 1 0 0
740 247 1 0.5897 -6.455675455194925 7.538222704147864 17.559644396344346 0 0 0
797 266 1 0.5897 -7.012591603286488 10.075148453899386 16.411858385763146 1 0 0
739 247 2 -1.1794 -5.667744054192687 7.939748391065638 17.92610464283843 0 0 0
511 171 2 -1.1794 -3.971957894458277 6.350219195873476 14.618352441355961 0 0 0
807 269 1 0.5897 -4.989849729920072 11.185375928612995 16.19115354599311 1 0 0
615 205 1 0.5897 -7.76087971301348 5.833713839626594 15.910674672090956 1 0 0
614 205 1 0.5897 -7.636211866283174 5.9060152803388855 17.41776482660093 1 0 0
280 94 2 -1.1794 -3.4373433348454068 14.300347420866643 2.8241544538563925 1 0 0
423 141 1 0.5897 -2.3392778851502656 16.758280641973556 4.134525365417967 1 0 0
314 105 1 0.5897 -1.5537980516075645 14.521504076977136 2.478387945617943 1 0 0
500 167 1 0.5897 -1.5562613785455774 15.885897268638203 0.5808549571233739 1 0 0
499 167 2 -1.1794 -2.17983177771365 16.587453472335326 0.3931367695982608 1 0 0
282 94 1 0.5897 -3.8143607451513466 13.710496300238885 3.476946117490197 1 0 0
313 105 2 -1.1794 -0.8037911611603419 14.47851578865141 1.8852172340724447 1 0 0
315 105 1 0.5897 -0.632893037912337 13.542340442890216 1.7818051661568852 1 0 0
225 75 1 0.5897 -1.375539447930347 12.301961847699456 4.184814376599775 0 0 0
223 75 2 -1.1794 -1.1512858335473424 11.528486792101027 3.667308134002469 0 0 0
270 90 1 0.5897 -3.0410547812114865 12.41554313844504 0.37759422159352524 1 0 0
281 94 1 0.5897 -3.5547910652734034 13.843151031793731 1.9913447360747272 1 0 0
769 257 2 -1.1794 -1.3380100015119363 12.194518217509732 0.2673005087700965 1 0 1
771 257 1 0.5897 -0.7180768462106077 11.465173034875637 0.2727148249568525 1 0 1
327 109 1 0.5897 -3.863911180468058 13.145515684358049 5.59177699213472 1 0 0
403 135 2 -1.1794 -2.212522974769549 15.519272445104752 8.304667951991963 0 0 0
405 135 1 0.5897 -2.471936314088093 16.3618975011863 8.677543079205186 0 0 0
267 89 1 0.5897 -3.9284873016417263 12.759936860092145 8.783668689640951 1 0 0
277 93 2 -1.1794 -4.349293335150367 13.819303639852205 7.3033388198632645 1 0 0
278 93 1 0.5897 -3.704036874619163 14.452997598117397 7.6169948714995135 1 0 0
425 142 1 0.5897 -4.0579211918475115 16.068051577918062 5.113153287032159 1 0 0
279 93 1 0.5897 -5.195234688965115 14.231477151950788 7.478666796393824 1 0 0
326 109 1 0.5897 -3.3227085826749905 11.782370771930433 5.216197332047012 1 0 0
175 59 2 -1.1794 -0.8188752799484753 13.976372519082082 5.324822647620298 0 0 0
176 59 1 0.5897 -1.148213958143499 14.861385972277777 5.168059305231474 0 0 0
1004 335 1 0.5897 -4.825685945729147 16.933377678012352 9.513878234575548 1 0 0
424 142 2 -1.1794 -5.010287121838193 16.164073440130696 5.119091320433219 1 0 0
266 89 1 0.5897 -2.924168691428407 11.872248000514611 9.487456121821813 1 0 0
774 258 1 0.5897 -5.889535876173317 12.07250041756955 9.371942059284736 1 0 0
325 109 2 -1.1794 -3.8525616415550576 12.505298467101156 4.880174210054809 1 0 0
421 141 2 -1.1794 -2.201122057584305 16.43884585323037 5.026235944835269 1 0 0
462 154 1 0.5897 -4.847618045774119 17.02538382982911 6.752018408063776 1 0 0
404 135 1 0.5897 -1.5403453728633028 15.739028765707054 7.659632174495211 0 0 0
1003 335 2 -1.1794 -5.305594622479768 16.250775588025125 9.982860997339712 1 0 0
819 273 1 0.5897 -3.3801023849028553 13.857188587336513 10.968488377244705 1 0 0
727 243 2 -1.1794 -3.653902609132185 11.729622885609691 12.957616767994368 0 0 0
729 243 1 0.5897 -3.8030846684713957 12.54693319010764 13.433092377049395 0 0 0
818 273 1 0.5897 -4.577691181434838 14.409376536195532 11.711986225943742 1 0 0
784 262 2 -1.1794 -6.30058099535525 13.98373200789292 11.980717012226476 1 0 0
265 89 2 -1.1794 -3.6311944059054997 12.49554793528435 9.65431247573392 1 0 0
786 262 1 0.5897 -6.566864473650669 13.989498584625943 12.900132471465458 1 0 0
817 273 2 -1.1794 -3.714223799993532 14.654529959189885 11.379514303065486 1 0 0
831 277 1 0.5897 -7.623778302373677 12.421132797841128 14.18892193427985 1 0 0
962 321 1 0.5897 -5.795926715160684 17.066965949950827 12.948702182964537 1 0 0
773 258 1 0.5897 -6.407667897517108 12.55607682208547 10.709760597528732 1 0 0
1005 335 1 0.5897 -4.6261447513962635 15.660767207819331 10.309222223593967 1 0 0
785 262 1 0.5897 -6.808461384933703 14.688883053157424 11.579349621681338 1 0 0
907 303 2 -1.1794 -6.00211984866381 15.622081003500368 18.17036662418377 0 0 0
830 277 1 0.5897 -7.214662579655238 13.027985462976645 15.514319248331176 1 0 0
770 257 1 0.5897 -7.6771154543331654 12.646226887806856 18.68336023399754 1 0 0
908 303 1 0.5897 -5.2463996817651655 15.771719746788989 17.602342951018965 0 0 0
783 261 1 0.5897 -7.14967667654185 14.3136918621151 17.44307635775646 1 0 0
781 261 2 -1.1794 -7.842812768720528 13.668856188264284 17.301367741392728 1 0 0
782 261 1 0.5897 -8.655146233962704 14.153928794293563 17.446569305189097 1 0 0
925 309 2 -1.1794 -5.71629922126372 15.891183479280482 14.497042410707502 1 0 0
806 269 1 0.5897 -5.802659800791282 11.448794510546328 14.941313567612307 1 0 0
909 303 1 0.5897 -5.7148323597107975 14.939816630694798 18.777195585442684 0 0 0
926 309 1 0.5897 -4.991469537593004 15.269382076990654 14.562325275192165 1 0 0
927 309 1 0.5897 -5.446670044355493 16.631964384143984 15.040109964156983 1 0 0
965 322 1 0.5897 -8.23792321232688 17.05916228214724 16.191660791997197 1 0 0
930 310 1 0.5897 -7.6747143459057305 15.668840184419638 14.606795309085706 1 0 0
829 277 2 -1.1794 -6.9461214997517216 12.959401504994712 14.598105924874876 1 0 0
501 167 1 0.5897 -8.354812507438755 16.98265279794769 18.822574009137025 1 0 -1
481 161 2 -1.1794 -1.095726165867708 22.417983496881764 1.8170579967050746 1 0 0
391 131 2 -1.1794 -0.5525200458892172 19.337609389874377 3.290701871964756 0 0 0
483 161 1 0.5897 -1.8931495057163885 22.159725993207413 2.279232514526569 1 0 0
437 146 1 0.5897 -3.169726622469714 19.43557634509471 0.06477190767034773 1 0 0
458 153 1 0.5897 -2.539581425556868 17.540654601040846 1.8813754340704034 1 0 0
393 131 1 0.5897 -0.9327448855990363 20.141228198336638 3.645611086644327 0 0 0
448 150 2 -1.1794 -3.754244817480586 21.676086679841745 2.4271032388993694 1 0 0
457 153 2 -1.1794 -2.801767227110897 17.823213878056002 2.7575421042855788 1 0 0
459 153 1 0.5897 -2.1039644782269105 18.41559343268116 3.037665400869243 1 0 0
449 150 1 0.5897 -3.8441047742992565 21.048769852017813 1.7096056151059338 1 0 0
495 165 1 0.5897 -3.6216214390103714 20.832076340824393 4.195079770368336 1 0 0
938 313 1 0.5897 -0.7157397499331415 20.473916628769622 0.7084286281647122 1 0 1
392 131 1 0.5897 -0.26478322249818653 18.847687934228592 4.061061563776424 0 0 0
937 313 2 -1.1794 -0.9534352978984701 19.708600578317526 0.18480507574309257 1 0 1
939 313 1 0.5897 -0.24470924371850344 19.08363872276464 0.3377940307778678 1 0 1
355 119 2 -1.1794 1.0472910303571803 17.93008211635322 0.3335774462827759 0 0 0
493 165 2 -1.1794 -3.645963557069688 20.319736681259233 5.003249700517998 1 0 0
460 154 2 -1.1794 -4.755045285132529 17.789744290864846 7.320855822896684 1 0 0
471 157 1 0.5897 -2.946602465657517 18.46165361034517 7.06510210485659 1 0 0
470 157 1 0.5897 -2.4810017472819554 19.241167307839312 5.853752984421896 1 0 0
445 149 2 -1.1794 -4.40392648862257 21.837422852911242 7.085374688035381 1 0 0
446 149 1 0.5897 -4.126713569863025 21.310857752232906 7.835127358597144 1 0 0
494 165 1 0.5897 -3.9717395346053976 20.93022731151572 5.664686016792629 1 0 0
469 157 2 -1.1794 -2.183928439253268 18.605591966987568 6.50493766778164 1 0 0
345 115 1 0.5897 -1.481316215240141 22.625227468054298 5.217896459923378 0 0 0
447 149 1 0.5897 -5.300388804713039 22.09975330365478 7.294615711653744 1 0 0
461 154 1 0.5897 -5.341751536915283 18.443876657286605 6.941182955561952 1 0 0
422 141 1 0.5897 -2.140239405042822 17.232061419426437 5.558656631477421 1 0 0
433 145 2 -1.1794 -3.7545865132810996 20.27931058415052 9.320544227057182 1 0 0
435 145 1 0.5897 -4.648451457235164 19.95281005223287 9.423734158331785 1 0 0
343 115 2 -1.1794 -1.030768988701145 21.799796589780875 5.03926671544561 0 0 0
344 115 1 0.5897 -0.9193165800003014 21.396149930788305 5.899999132789217 0 0 0
953 318 1 0.5897 -7.267371441466623 21.881813226186768 11.981456439573863 1 0 0
985 329 2 -1.1794 -3.900107872184245 22.310916476993654 11.036590131966276 1 0 0
434 145 1 0.5897 -3.6679736967931142 20.95772908197318 9.990358912335967 1 0 0
954 318 1 0.5897 -5.760002264103926 21.869232212178733 12.121654346847498 1 0 0
895 299 2 -1.1794 -3.8507224786157384 19.303020152192378 12.981792424392246 0 0 0
896 299 1 0.5897 -4.543279804127751 18.822537188537357 12.528050739183602 0 0 0
848 283 1 0.5897 -4.248026694854413 20.986312560779897 14.006948844056433 0 0 0
961 321 2 -1.1794 -5.76960621521201 17.704419582733085 12.23512396050954 1 0 0
987 329 1 0.5897 -3.2474039547755567 22.785079274273052 11.55188466291645 1 0 0
952 318 2 -1.1794 -6.549503524142279 21.401639158757202 12.394184337462173 1 0 0
998 333 1 0.5897 -6.854321571253843 20.73877773485123 14.189248529852303 1 0 0
860 287 1 0.5897 -2.758897300263455 18.64503834516043 9.651735897550893 0 0 0
897 299 1 0.5897 -3.580734510915579 18.721145410723146 13.692280847192333 0 0 0
963 321 1 0.5897 -5.559038574704023 17.186356165311743 11.458189787500462 1 0 0
941 314 1 0.5897 -6.669398237430293 20.511433646017093 10.905901288724833 1 0 0
859 287 2 -1.1794 -2.251501871187705 17.852285840001933 9.826023503417646 0 0 0
997 333 2 -1.1794 -7.393073040120061 20.300430865326025 14.84785173574134 1 0 0
966 322 1 0.5897 -8.82040719823079 18.32708169522446 16.77923661466896 1 0 0
975 325 1 0.5897 -5.020946551624071 18.742117230056778 16.504819096901567 1 0 0
974 325 1 0.5897 -6.337523771139555 17.996099702493602 16.550369579388192 1 0 0
973 325 2 -1.1794 -5.578042289142227 18.157597405318167 15.990646382736877 1 0 0
949 317 2 -1.1794 -7.890313120568631 21.594140908616097 17.256387847580232 1 0 0
950 317 1 0.5897 -7.753336260356289 21.190768241507826 16.399140183964953 1 0 0
951 317 1 0.5897 -7.709186752131985 20.893528206531148 17.882951017963457 1 0 0
999 333 1 0.5897 -6.789022345652351 19.70942836234338 15.297433520396437 1 0 0
964 322 2 -1.1794 -8.195143170011267 17.625729174530207 16.96208429976382 1 0 0
573 191 1 0.5897 -5.442073860392641 22.809999935309406 18.24732697898506 0 -1 0
356 119 1 0.5897 -5.743244150711169 17.304050265371384 19.00817060183655 0 0 -1
847 283 2 -1.1794 -4.118031818526917 21.533543572215166 14.78157048762615 0 0 0
572 191 1 0.5897 -6.6686330609906594 22.89229131591023 17.36361743813515 0 -1 0
33 11 1 0.5897 0.5945089094005946 0.11556760890267787 2.1684941750850677 0 0 0
71 24 1 0.5897 2.8684455070554487 0.14397175812169916 1.6646351189904207 0 0 0
54 18 1 0.5897 3.4167472983810088 3.3237355201309255 2.6575580611576903 0 0 0
32 11 1 0.5897 1.1289066659173352 1.031793944591008 3.2489219730981613 0 0 0
48 16 1 0.5897 1.9478364269127786 5.078391315777758 3.0425079039116345 0 0 0
31 11 2 -1.1794 1.3086364156118862 0.7233614506809707 2.3607225543797794 0 0 0
52 18 2 -1.1794 4.155841319182833 3.0101158732818294 3.1788028328221833 0 0 0
46 16 2 -1.1794 1.7451945882388955 4.4821055598864 2.3215440426402303 0 0 0
78 26 1 0.5897 0.10000227109761362 2.55539843360995 4.610250043724048 0 0 0
53 18 1 0.5897 4.077045118754652 3.475704412168744 4.0115036247233835 0 0 0
528 176 1 0.5897 3.7488927933213034 1.6896356172490585 0.2271133677877536 0 0 1
70 24 2 -1.1794 3.6917541294241873 0.014424518832678368 1.193904666581263 0 0 0
47 16 1 0.5897 1.7856634922527643 5.0304316639451265 1.5380097501569756 0 0 0
21 7 1 0.5897 1.0333564359463736 2.1927863334693747 1.0787075910867845 0 0 0
18 6 1 0.5897 4.69599907650602 3.764645584796888 0.17616463206025004 0 0 0
6 2 1 0.5897 3.902630549446311 1.3126818552289128 4.0878681515317155 0 0 0
16 6 2 -1.1794 5.237395353900325 4.525179709412332 0.38790303795217124 0 0 0
4 2 2 -1.1794 4.070126972042988 0.5109564828994608 4.58328327560273 0 0 0
5 2 1 0.5897 3.2134906913688788 0.0899345481488174 4.655228828880018 0 0 0
45 15 1 0.5897 0.47082127520935746 4.67829435212667 7.37241979377192 0 0 0
77 26 1 0.5897 0.5012945323704852 1.666563293097675 5.768213563908934 0 0 0
59 20 1 0.5897 1.6324202710846425 3.3606306604007736 6.0399234906718196 0 0 0
34 12 2 -1.1794 0.21090022274161102 0.7511037103515674 7.1959624055996585 0 0 0
35 12 1 0.5897 0.45424313012556716 1.4985598756194771 7.742321041256518 0 0 0
76 26 2 -1.1794 0.833637328172034 2.0461197085753273 4.954785367789304 0 0 0
58 20 2 -1.1794 2.2033875078523177 4.020754419498079 6.433135974732606 0 0 0
43 15 2 -1.1794 -0.3988501461022187 5.077185391705865 7.400620087816365 0 0 0
60 20 1 0.5897 2.975916076160124 3.5317417981611077 6.716600717978974 0 0 0
36 12 1 0.5897 -0.6566449109107584 0.49648688803765484 7.510178113367939 0 0 0
22 8 2 -1.1794 0.4388781375451236 2.7847338650665074 9.337618710750377 0 0 0
44 15 1 0.5897 -0.5123630325741364 5.341003862180994 8.313768932028394 0 0 0
402 134 1 0.5897 2.8703711738992927 -0.26115535594901784 8.624895136875347 0 1 0
24 8 1 0.5897 0.9322167550738225 3.5598394903053583 9.606314744861608 0 0 0
557 186 1 0.5897 0.1640200808215626 2.3180840874647046 13.392569371606335 0 0 0
536 179 1 0.5897 -1.9595214113994288 1.058074604893206 13.151498757395325 0 0 0
576 192 1 0.5897 -0.09201818799940265 0.5741722859642815 11.514131099508337 0 0 0
558 186 1 0.5897 -0.12071828534524709 3.6758015012921588 12.78634624855644 0 0 0
550 184 2 -1.1794 -1.6445423170884075 4.9283333087958185 12.25245745098401 0 0 0
556 186 2 -1.1794 0.5799331132400374 3.1524650361255575 13.175554532057129 0 0 0
508 170 2 -1.1794 0.5655994443290409 0.6564653242370015 14.224293919257835 0 0 0
525 175 1 0.5897 -1.671768234361616 2.9399464754002373 9.687533461662706 0 0 0
535 179 2 -1.1794 -1.887592721527854 0.7813298568025302 12.237954141596079 0 0 0
537 179 1 0.5897 -2.2951674662555424 1.4898317456617582 11.73977513798907 0 0 0
23 8 1 0.5897 0.7058186426045996 2.104245275225778 9.95562903773228 0 0 0
574 192 2 -1.1794 0.7385667880143298 0.5654113853691515 11.038466632126122 0 0 0
520 174 2 -1.1794 1.827674341590967 4.937917687448606 10.385352365941305 0 0 0
552 184 1 0.5897 -2.52747786319551 4.585049507255377 12.389606408745282 0 0 0
575 192 1 0.5897 1.3930702728795294 0.34816767959142125 11.702365220831881 0 0 0
580 194 2 -1.1794 -2.4695328700406796 2.3365955706395836 14.405590963353198 0 0 0
539 180 1 0.5897 -3.028931469170497 1.3390223674607242 17.364370091768716 0 0 0
526 176 2 -1.1794 -2.869594891309414 2.4598514303020194 18.8997344249229 0 0 0
582 194 1 0.5897 -2.0536209658739395 2.9649209364340203 14.996044409946741 0 0 0
564 188 1 0.5897 -2.217948788048938 4.339001206913449 16.56358727586719 0 0 0
562 188 2 -1.1794 -1.3333127896244976 4.144961325907532 16.253751350809555 0 0 0
538 180 2 -1.1794 -3.3442772500830005 0.7689135272947785 16.66297527425918 0 0 0
581 194 1 0.5897 -2.854692023316143 1.6802927691408889 14.986211051773978 0 0 0
547 183 2 -1.1794 -3.8875601853600035 4.876640407178328 16.921000287821972 0 0 0
563 188 1 0.5897 -1.0383425815819551 4.958715397141575 15.84505345186593 0 0 0
540 180 1 0.5897 -4.260713911218147 0.6019208346125697 16.883149127086313 0 0 0
80 27 1 0.5897 -0.528317258059273 0.30592942559716096 18.85961277931846 0 0 -1
509 170 1 0.5897 0.6651542910637858 1.0954938436515715 15.069114355441485 0 0 0
549 183 1 0.5897 -4.303639409137425 4.096639590873574 16.553760486051893 0 0 0
546 182 1 0.5897 0.0921620202999538 2.8957127493845616 16.674382234346293 0 0 0
527 176 1 0.5897 -3.8034373418701106 2.647314830141307 18.994772126027268 0 0 0
694 232 2 -1.1794 3.925157792808424 10.039195396700888 0.28022012275850605 0 0 1
240 80 1 0.5897 3.1656783010610186 7.192869287612606 1.4083456188021122 0 0 0
220 74 2 -1.1794 3.6155809998311055 10.8170727565098 3.313608010122751 0 0 0
199 67 2 -1.1794 0.9694058276832722 8.83812282663426 2.717859152035295 0 0 0
238 80 2 -1.1794 3.515452781079584 7.743724581416798 2.1087964515511715 0 0 0
245 82 1 0.5897 0.8752950983507812 9.633508496890148 4.610775270392597 0 0 0
239 80 1 0.5897 3.93208310238742 8.475339847787476 1.6534139218774897 0 0 0
201 67 1 0.5897 1.8526859217663798 8.484509345714008 2.613061034143859 0 0 0
82 28 2 -1.1794 2.191769192006423 6.158303015771678 0.23684457965240513 0 0 0
696 232 1 0.5897 4.454949318891432 10.814544587984049 0.09476845424779544 0 0 1
221 74 1 0.5897 4.205130043674886 10.510522800765765 2.624615587591982 0 0 0
174 58 1 0.5897 3.501913186504189 9.380516786177004 4.405278206594845 0 0 0
12 4 1 0.5897 1.150181504156878 6.5266157547945 4.632697227046276 0 0 0
10 4 2 -1.1794 2.080194525523039 6.302912582029384 4.596975271516905 0 0 0
189 63 1 0.5897 0.9560419093229093 10.023858671451599 1.1205424499942096 0 0 0
228 76 1 0.5897 1.9855168344054208 11.127815046222096 6.11007871778717 0 0 0
64 22 2 -1.1794 2.153646290640367 7.078414842910995 8.663359641877932 0 0 0
191 64 1 0.5897 0.708937865919868 10.10750327188766 9.046277016727645 0 0 0
202 68 2 -1.1794 0.2505473705215242 8.28115876262289 7.202291165207628 0 0 0
246 82 1 0.5897 0.33097876812537974 9.590504245546736 6.0227790232051355 0 0 0
203 68 1 0.5897 -0.6170145049048386 7.997284169178025 7.490302768994014 0 0 0
204 68 1 0.5897 0.8595427193373526 7.751460303971946 7.716912965396725 0 0 0
244 82 2 -1.1794 0.5646214938199998 10.196641185147028 5.319785890098733 0 0 0
65 22 1 0.5897 2.4691141267275105 7.8424482311338455 9.146194656008557 0 0 0
172 58 2 -1.1794 3.5587893548717453 8.758048543245632 5.130220371106172 0 0 0
66 22 1 0.5897 2.8709907722552614 6.856664876518768 8.069683928203114 0 0 0
588 196 1 0.5897 -1.527920345465429 6.778264082747873 9.398284622075694 0 0 0
9 3 1 0.5897 -0.6424493305668975 6.206603375247668 5.66910857793956 0 0 0
11 4 1 0.5897 2.2440879501598427 5.8271686628948585 5.411245229908124 0 0 0
173 58 1 0.5897 3.108331031062577 7.976045101247468 4.810933074248671 0 0 0
587 196 1 0.5897 -1.1662619170074837 5.838761892342266 10.528997197484891 0 0 0
744 248 1 0.5897 -0.05056615644649698 7.659494468200892 10.955297944460751 0 0 0
703 235 2 -1.1794 -2.3337298353326075 8.757634654924653 12.095981350695759 0 0 0
742 248 2 -1.1794 0.1615331552268371 8.285768301963817 11.647542295489762 0 0 0
705 235 1 0.5897 -2.4316794912003408 9.264351093291403 12.902216641584964 0 0 0
743 248 1 0.5897 0.5957975084668479 9.007731263139588 11.19324370894313 0 0 0
704 235 1 0.5897 -1.4013439936387453 8.544408043870202 12.058377042708962 0 0 0
724 242 2 -1.1794 0.4486304303638491 10.865903106259566 13.296377387136578 0 0 0
691 231 2 -1.1794 -2.0071423858062434 10.09647899653428 9.66963612014171 0 0 0
692 231 1 0.5897 -1.094697713916836 10.37311403991338 9.754454312068601 0 0 0
678 226 1 0.5897 0.6972856552546105 9.123622713896491 14.076532420418863 0 0 0
750 250 1 0.5897 -2.9838443635059138 10.520572901981069 14.285219086297106 0 0 0
192 64 1 0.5897 1.1900691613286423 11.17868260943538 10.002021474045925 0 0 0
586 196 2 -1.1794 -0.7981203745734162 6.276510572542983 9.761501428436285 0 0 0
190 64 2 -1.1794 0.7263010787930213 10.341741378562231 9.974270910867485 0 0 0
551 184 1 0.5897 -1.519435092200693 5.55923760815791 12.961475968331126 0 0 0
522 174 1 0.5897 1.6005363256483633 5.742273283281292 9.918781749213434 0 0 0
693 231 1 0.5897 -2.2377280920316607 9.761229916952226 10.536037959498314 0 0 0
569 190 1 0.5897 -1.2259694630532119 6.0699962169356665 18.262183772569667 0 0 0
707 236 1 0.5897 -3.9223176338317547 8.495275929213923 16.997299565691723 0 0 0
706 236 2 -1.1794 -3.0158503483933297 8.784348130267333 17.102381743315984 0 0 0
695 232 1 0.5897 -2.6144802273205388 9.63939542310019 18.708572601373127 0 0 0
749 250 1 0.5897 -2.7441994472757028 9.466043218861602 15.344655929880343 0 0 0
708 236 1 0.5897 -2.5085463504885768 7.973603164412337 17.142422268729135 0 0 0
568 190 2 -1.1794 -1.0169307188652734 6.852132404609958 17.75150404723725 0 0 0
83 28 1 0.5897 -4.835660301807931 6.882737551494432 19.154671245246316 0 0 -1
570 190 1 0.5897 -0.11046777279395403 6.721706711687597 17.473050477139164 0 0 0
515 172 1 0.5897 -1.826829942176266 6.820622042803318 14.733853216688408 0 0 0
514 172 2 -1.1794 -1.0416208110718124 6.323514991845545 14.504599904131913 0 0 0
84 28 1 0.5897 -4.107541197724941 5.611584139623848 18.77246808414683 0 0 -1