LAMMPS (30 Jul 2021)
  using 1 OpenMP thread(s) per MPI task
package omp 0
using multi-threaded neighbor list subroutines
echo both

include		in.partitions
variable        pid world 0
include		in.temp
variable        temperature equal 249.93
variable	tempDamp equal 100.0
include		in.pressure
variable        pressure equal 5250.0
variable        pressureDamp equal 1000.0 # This is 1 ps
include		in.seed
variable        seed world 745823

units		real
atom_style	full
read_restart	restart.lmp.${pid}
read_restart	restart.lmp.0
Reading restart file ...
  restart file = 30 Jul 2021, LAMMPS = 30 Jul 2021
  restoring atom style full from restart
  orthogonal box = (0.45178494 1.6236742 0.55117657) to (17.755787 22.005504 21.662019)
  4 by 4 by 4 MPI processor grid
  restoring pair style lj/cut/tip4p/long/omp from restart
  restoring bond style harmonic/omp from restart
  restoring angle style harmonic/omp from restart
  864 atoms
  576 bonds
  288 angles
Finding 1-2 1-3 1-4 neighbors ...
  special bond factors lj:    0        0        0       
  special bond factors coul:  0        0        0       
     2 = max # of 1-2 neighbors
     1 = max # of 1-3 neighbors
     1 = max # of 1-4 neighbors
     2 = max # of special neighbors
  special bonds CPU = 0.752 seconds
  read_restart CPU = 1.025 seconds
include 	in.setup
variable	out_freq equal 1000
variable	out_freq2 equal 10000
variable	out_freq3 equal 1000

timestep	2.0

neigh_modify    delay 7 every 1

include		in.tip4p
# This is TIP4P/Ice

# create groups ###
group ox type 2
288 atoms in group ox
group hy type 1
576 atoms in group hy

# set charges - beside manually ###
set group ox charge -1.1794
Setting atom values ...
  288 settings made for charge
set group hy charge 0.5897
Setting atom values ...
  576 settings made for charge

# ### TIP3P Potential Parameters ###
pair_style lj/cut/tip4p/long/omp 2 1 1 1 0.1577 8.5
pair_coeff 1 1*2 0.000 0.000
pair_coeff 2 2 0.21084 3.1668
bond_style  harmonic
bond_coeff  1 450 0.9572
angle_style harmonic
angle_coeff 1 55 104.52
kspace_style pppm/tip4p/omp 1.0e-5
pair_modify tail yes

thermo          ${out_freq}
thermo          1000
thermo_style    custom step temp pe etotal epair emol press lx ly lz vol pxx pyy pzz pxy pxz pyz enthalpy

restart 	${out_freq3} restart.lmp.${pid} restart2.lmp.${pid}
restart 	1000 restart.lmp.${pid} restart2.lmp.${pid}
restart 	1000 restart.lmp.0 restart2.lmp.${pid}
restart 	1000 restart.lmp.0 restart2.lmp.0


include         in.dump
dump            myDump all atom ${out_freq2} dump.water.${pid}
dump            myDump all atom 10000 dump.water.${pid}
dump            myDump all atom 10000 dump.water.0
dump            myDump2 all dcd ${out_freq2} dump.dcd
dump            myDump2 all dcd 10000 dump.dcd
dump_modify     myDump append yes
dump_modify     myDump2 append yes


variable natoms 	equal  "count(all)"                        # NUMBER ATOMS
variable H      	equal  "enthalpy/v_natoms"                 # ENTHALPY-per-atom
variable Vol      	equal  "vol/v_natoms"                 # volume-per-atom
fix AVG all 		ave/time ${out_freq} 1 ${out_freq} v_Vol v_H file vol_enthalpy.dat
fix AVG all 		ave/time 1000 1 ${out_freq} v_Vol v_H file vol_enthalpy.dat
fix AVG all 		ave/time 1000 1 1000 v_Vol v_H file vol_enthalpy.dat


timer           timeout 23:50:00 every 1000
New timer settings: style=normal  mode=nosync  timeout=23:50:00

fix 		1 all shake 1e-6 200 0 b 1 a 1
       0 = # of size 2 clusters
       0 = # of size 3 clusters
       0 = # of size 4 clusters
     288 = # of frozen angles
  find clusters CPU = 0.281 seconds
fix             2 all nph iso ${pressure} ${pressure} ${pressureDamp}
fix             2 all nph iso 5250 ${pressure} ${pressureDamp}
fix             2 all nph iso 5250 5250 ${pressureDamp}
fix             2 all nph iso 5250 5250 1000
fix             3 all temp/csvr ${temperature} ${temperature} ${tempDamp} ${seed}
fix             3 all temp/csvr 249.93 ${temperature} ${tempDamp} ${seed}
fix             3 all temp/csvr 249.93 249.93 ${tempDamp} ${seed}
fix             3 all temp/csvr 249.93 249.93 100 ${seed}
fix             3 all temp/csvr 249.93 249.93 100 745823

run             250000
PPPM initialization ...
  extracting TIP4P info from pair style
  using 12-bit tables for long-range coulomb (../kspace.cpp:340)
  G vector (1/distance) = 0.37424056
  grid = 24 24 25
  stencil order = 5
  estimated absolute RMS force accuracy = 0.003074218
  estimated relative force accuracy = 9.2579161e-06
  using double precision FFTW3
  3d grid and FFT values/proc = 2730 288
Last active /omp style is kspace_style pppm/tip4p/omp
Neighbor list info ...
  update every 1 steps, delay 7 steps, check yes
  max neighbors/atom: 2000, page size: 100000
  master list distance cutoff = 10.8154
  ghost atom cutoff = 10.8154
  binsize = 5.4077, bins = 4 4 4
  1 neighbor lists, perpetual/occasional/extra = 1 0 0
  (1) pair lj/cut/tip4p/long/omp, perpetual
      attributes: half, newton on, omp
      pair build: half/bin/newton/omp
      stencil: half/bin/3d
      bin: standard
Per MPI rank memory allocation (min/avg/max) = 9.239 | 9.243 | 9.249 Mbytes
Step Temp PotEng TotEng E_pair E_mol Press Lx Ly Lz Volume Pxx Pyy Pzz Pxy Pxz Pyz Enthalpy 
 5250000     258.2371   -3897.9106   -3455.3011   -3897.9106            0    4731.1847    17.304003    20.381829    21.110843    7445.5245    5565.6978    5277.2917    3350.5645   -1028.1062   -1050.0181   -125.44402   -2941.5638 
 5251000    248.46565   -3903.3697   -3477.5081   -3903.3697            0    4634.1037    17.252802    20.321521    21.048378     7379.628    3917.6575    4075.9006    5908.7531    349.02932   -1719.6934   -638.78946   -2978.7659 
 5252000    243.01198   -3879.4317   -3462.9175   -3879.4317            0    6242.3123    17.188064    20.245269    20.969398    7296.8678    6094.7006    6423.5181    6208.7181    956.45894    852.28975   -1148.3604   -2798.6273 
 5253000     260.4747   -3955.7393   -3509.2946   -3955.7393            0    5350.9474    17.257649    20.327231    21.054291    7385.8496    3861.8784     6381.853    5809.1108   -315.88866   -546.63497    161.81517   -2932.9171 
 5254000    233.45254    -3930.713   -3530.5834    -3930.713            0    5264.5689    17.178964    20.234551    20.958296    7285.2845    5676.7272    3193.6619    6923.3175   -398.94369    7.4757631    -210.6663   -2971.2313 
 5255000    240.97181   -3872.8967   -3459.8792   -3872.8967            0    3597.1493    17.261723    20.332029    21.059261    7391.0816    3604.0231    3364.9123    3822.5126    1279.0407   -70.054219   -508.65182   -3072.1377 
 5256000    264.91232    -3920.474   -3466.4233    -3920.474            0    6147.5338    17.200694    20.260145    20.984806    7312.9651    6343.6336    6239.0825    5859.8854   -407.34154   -268.82831     608.7055    -2810.776 
 5257000    255.33377   -3888.6563   -3451.0229   -3888.6563            0    7713.9914     17.15913    20.211189    20.934099      7260.08    8444.3085    9235.6642    5462.0014    704.93433   -1579.5649   -697.59571   -2634.2592 
 5258000    251.09999   -3890.7751   -3460.3983   -3890.7751            0    6421.9217    17.229112    20.293618    21.019476    7349.2707    5494.6927    6024.0926    7746.9797    894.73882     132.8499    1027.7733   -2772.0866 
 5259000    264.66553   -3881.2038   -3427.5762   -3881.2038            0    6652.3424    17.135147     20.18294    20.904839      7229.68    7047.6999    5167.2217    7742.1057    1027.9008   -381.76837   -100.55107     -2726.17 
 5260000     253.1235   -3880.6505   -3446.8055   -3880.6505            0    3562.7458     17.32128     20.40218    21.131921    7467.8489    3235.1896    4650.3942    2802.6537    395.20771   -383.58686    496.34514   -3058.7836 
 5261000     255.6692   -3893.4809   -3455.2727   -3893.4809            0    5655.9433    17.213344    20.275045    21.000239     7329.111    6336.2795    6050.2303    4581.3199    38.322916   -78.578695     1212.937   -2850.7227 
 5262000    278.36527   -3915.2036   -3438.0951   -3915.2036            0    3461.1819    17.303165    20.380843    21.109821    7444.4434    4432.4751    3910.9834    2040.0872    38.892019   -449.21861    875.29439    -3062.316 
 5263000    262.32448   -3905.5964   -3455.9812   -3905.5964            0    4920.7091    17.291883    20.367554    21.096057    7429.8911    3969.4823     6721.114    4071.5311   -650.55147    916.89204    1431.6978   -2922.7863 
 5264000    251.51009   -3933.0172   -3501.9375   -3933.0172            0    3756.3666    17.214234    20.276094    21.001325    7330.2482    2256.7712    4660.6733    4351.6552   -1357.5905    -198.6922    1261.0779   -3100.3663 
 5265000    252.88153   -3899.2456   -3465.8153   -3899.2456            0      4946.63    17.211904    20.273349    20.998482     7327.272    4304.6844    5187.8009    5347.4046   -380.68233    978.45231    1514.4193   -2937.2147 
 5266000    252.28233   -3889.4667   -3457.0634   -3889.4667            0     7847.633    17.156438    20.208018    20.930814    7256.6633    8562.5664    8671.2461    6309.0866   -1991.3434    -591.8604    624.47398   -2626.5406 
 5267000    262.34551   -3925.2644   -3475.6132   -3925.2644            0    4842.5138      17.2883    20.363334    21.091686    7425.2739    6683.6209     3789.102    4054.8185   -77.248562   -1101.4141    192.94617   -2951.2174 
 5268000    245.53894   -3932.0185   -3511.1731   -3932.0185            0    5590.4408    17.245054    20.312396    21.038926    7369.6911    7716.8134    4003.4777    5051.0313    -224.5812    792.70915    1172.9933    -2910.316 
 5269000    248.41232    -3905.295   -3479.5248    -3905.295            0       6143.1    17.282004    20.355918    21.084005    7417.1643    5798.3179    5765.9246    6865.0576    211.50893     367.2385   -106.97353    -2815.015 
 5270000    241.59998   -3931.9485   -3517.8544   -3931.9485            0      4793.77    17.304193    20.382054    21.111076     7445.771    5098.2178    4484.8842    4798.2081    132.21543   -1263.2318   -259.59155   -2997.3041 
 5271000    246.54449   -3942.0537   -3519.4849   -3942.0537            0    5211.9916    17.306999    20.385359    21.114498    7449.3929    5916.6393    3980.1822    5739.1533    184.05125   -1268.3856    9.7722267    -2953.245 
 5272000    263.02325    -3905.805   -3454.9921    -3905.805            0    5855.0037    17.266674    20.337861    21.065301    7397.4429    5242.0969    6787.8732    5535.0409     976.5851   -705.56295   -1532.5784   -2823.3302 
 5273000    241.95784   -3919.7446   -3505.0371   -3919.7446            0    4011.7609    17.324374    20.405824    21.135696    7471.8516    4594.6756    3661.8953    3778.7117    988.28886   -1822.5085   -228.34445   -3067.8784 
 5274000    259.50687    -3887.283   -3442.4971    -3887.283            0    6543.6123    17.217871    20.280378    21.005763    7334.8962    7690.1327    6459.2673     5481.437   -1133.6163   -28.269799    -588.0362   -2742.5142 
 5275000    240.34629   -3900.0981   -3488.1527   -3900.0981            0    4541.9834    17.345206    20.430361    21.161111     7498.838    4806.5055    5073.2447    3746.1999    396.89306    503.21712    482.39044   -2991.4285 
 5276000     263.0568   -3910.8482   -3459.9778   -3910.8482            0    6171.6814    17.300926    20.378206     21.10709    7441.5543    7142.7793    6693.0812    4679.1837   -38.430331   -537.69728   -1015.1824   -2790.1811 
 5277000    259.21641   -3904.1024   -3459.8144   -3904.1024            0    4338.9207    17.378046    20.469043    21.201176    7541.5121    5182.4316    4037.5389    3796.7918   -323.02785   -180.08491    360.81453   -2982.5972 
 5278000    250.92986   -3911.1234   -3481.0382   -3911.1234            0    5613.4516     17.27164    20.343711    21.071361    7403.8281    4855.8412     5619.495    6365.0185   -444.83385    197.65167   -1311.4676   -2874.9132 
 5279000    246.28721   -3929.4132   -3507.2853   -3929.4132            0    7283.6102    17.250394    20.318686    21.045441    7376.5396    6051.7987     9237.578    6561.4539    -1540.536    437.46508    271.10587   -2723.7199 
 5280000    248.19483   -3886.1058   -3460.7083   -3886.1058            0    4839.2586    17.271739    20.343827    21.071481    7403.9551    3860.5649    4000.0859    6657.1252   -669.57394    1153.7697    814.03267   -2938.1696 
 5281000     262.7332   -3905.7446   -3455.4289   -3905.7446            0     5632.675    17.278466    20.351751    21.079688      7412.61    7727.6199    4264.0473    4906.3577     1298.372    232.37854   -1450.6776   -2846.5068 
 5282000    242.18793    -3879.707   -3464.6052    -3879.707            0    5456.3863    17.283757    20.357982    21.086143    7419.4211    5866.8192    6295.8663    4206.4734   -941.47105    711.15655   -384.08266   -2874.1988 
 5283000    244.64495   -3868.9537   -3449.6406   -3868.9537            0    6624.4086    17.243285    20.310312    21.036767    7367.4224    7304.0218    7969.1443    4600.0596      561.383    609.46538    992.29059   -2737.8724 
 5284000    241.48374   -3925.5002   -3511.6053   -3925.5002            0    5611.4857    17.281381    20.355184    21.083245    7416.3623    5559.1721    6626.1774    4649.1075    15.008836   -603.23041   -167.37569   -2904.6668 
 5285000    240.40645   -3925.5968   -3513.5484   -3925.5968            0    4969.3182    17.332121    20.414949    21.145147    7481.8792    4406.1793    7642.7078    2859.0674   -138.77376   -402.69591    -986.7783   -2971.3186 
 5286000    236.65971   -3900.5593   -3494.9326   -3900.5593            0    4723.2424    17.299547    20.376581    21.105407    7439.7745    4928.3742    4866.9513    4374.4017    810.50936   -258.11543    592.85198   -2982.4538 
 5287000    252.47798   -3902.1243   -3469.3857   -3902.1243            0    4598.3031    17.330529    20.413074    21.143205    7479.8185    4867.8337    4436.3892    4490.6864   -937.48181    631.69257    84.022281   -2967.7776 
 5288000    249.85383   -3873.3279    -3445.087   -3873.3279            0    7274.3333    17.163113     20.21588    20.938958    7265.1365    7142.3251     7651.962    7028.7127     917.3755   -199.87759   -680.65375   -2674.3382 
 5289000    252.97487   -3896.2731   -3462.6829   -3896.2731            0    3903.2053    17.178076    20.233505    20.957213    7284.1548    3885.7965    4488.8833     3334.936   -206.95938    964.49469    22.379513   -3048.0379 
 5290000    241.62752   -3908.2118   -3494.0705   -3908.2118            0    5156.3804    17.261971    20.332322    21.059564    7391.4007    6197.9499    4919.4065    4351.7848   -759.99143   -257.30817   -106.72903   -2938.2333 
 5291000    242.95226   -3895.0697   -3478.6578   -3895.0697            0    7304.9311    17.168422    20.222133    20.945435    7271.8804    7685.1213    8951.3191    5278.3528   -1228.5069    986.79834    -357.5815   -2703.9486 
 5292000    248.67134   -3913.6789   -3487.4648   -3913.6789            0    5282.8052    17.218683    20.281335    21.006754     7335.934    5808.8061    5065.9653    4973.6441    502.76879   -155.41227    2190.8857   -2922.2729 
 5293000    243.15184    -3866.532    -3449.778    -3866.532            0    4271.0473    17.293442     20.36939    21.097959    7431.9009     3397.783    5171.4512    4243.9076   -631.60337   -1237.6507   -183.72742   -2986.8535 
 5294000    250.20326   -3896.1119   -3467.2721   -3896.1119            0    7089.4453    17.215398    20.277465    21.002746    7331.7362    7487.9243    6121.2862    7659.1254   -113.82186     -1511.93   -1602.3959   -2709.2271 
 5295000    244.37068   -3959.6764   -3540.8334   -3959.6764            0    5023.0642     17.26878    20.340342    21.067872    7400.1512    5018.0434    4686.5198    5364.6294   -230.05776    918.05689    -1701.747   -2998.7261 
 5296000    276.29731   -3943.8307   -3470.2666   -3943.8307            0    5311.2993    17.258155    20.327827    21.054909    7386.4996    5156.1301    5122.1377    5655.6301    358.60555   -97.776197   -582.92761   -2898.1094 
 5297000     244.1432   -3919.9288   -3501.4757   -3919.9288            0     5041.824    17.290555     20.36599    21.094437    7428.1794     5826.789    4705.4101    4593.2729    778.24594    882.06799   -731.29073   -2955.2829 
 5298000    240.58153    -3911.496   -3499.1475    -3911.496            0    3067.9154    17.314977    20.394755    21.124231    7459.6992    1047.4773    4144.4847    4011.7842    563.72605    495.57076   -283.79526   -3165.3826 
 5299000    262.95698   -3925.9834   -3475.2841   -3925.9834            0    5353.4025     17.22673    20.290813    21.016571    7346.2237    7602.0898    2681.6875    5776.4301    937.37008    1545.1615      1208.69   -2901.7359 
 5300000    252.08078   -3942.6816   -3510.6238   -3942.6816            0    5169.0044    17.285924    20.360535    21.088786    7422.2121    6735.2444    4352.6939     4419.075    698.27991   -1.8120178    714.37302   -2951.1031 
 5301000    258.70787    -3926.842   -3483.4256    -3926.842            0     4511.011    17.212921    20.274547    20.999723    7328.5711    4798.1024    5118.7575     3616.173     392.8366   -14.348325    14.433307   -3001.2901 
 5302000    252.82961   -3953.4774   -3520.1361   -3953.4774            0    6211.0435    17.224203    20.287836    21.013488    7342.9911    6685.8806    5965.8243    5981.4255    750.85949    875.97268    528.70174   -2854.9955 
 5303000    244.31106   -3928.6875   -3509.9468   -3928.6875            0    8028.1194    17.132368    20.179666    20.901449     7226.163    6999.1136    7945.6943    9139.5503   -272.76197   -278.91977    1597.3871    -2663.894 
 5304000    256.43069   -3903.6734     -3464.16   -3903.6734            0    6355.9957    17.140743    20.189531    20.911666    7236.7655    6772.8317    6844.4193    5450.7362    1203.7188    244.39204   -1226.4626   -2793.3431 
 5305000    254.96468   -3947.4059   -3510.4051   -3947.4059            0     4974.622    17.198673    20.257765    20.982341    7310.3875    5608.0441    4311.1589     5004.663   -59.020798    -300.9454   -1274.0524   -2980.0383 
 5306000    261.25236   -3907.0381   -3459.2605   -3907.0381            0    6300.6165    17.136043    20.183995    20.905933    7230.8147    6775.4931    4876.8062    7249.5502    1676.9126    555.45954    272.75087   -2794.8351 
 5307000    254.75162   -3927.9821   -3491.3465   -3927.9821            0    5374.5091    17.160178    20.212423    20.935377      7261.41    4365.2778     4519.078    7239.1715    66.620781    365.69935    96.800252   -2922.1848 
 5308000    250.12234   -3911.0737   -3482.3726   -3911.0737            0    4902.2733    17.219442    20.282229    21.007679     7336.904    5004.3432    3526.4155    6176.0612    1316.3138    521.77629    427.33343   -2957.8234 
 5309000    249.21054   -3910.5495   -3483.4111   -3910.5495            0     6556.967    17.187849    20.245016    20.969136    7296.5943    8102.1252    7643.7725    3925.0033    399.87986    544.74499   -709.52842   -2785.6624 
 5310000    240.27374    -3938.257    -3526.436    -3938.257            0    4069.2763    17.169633     20.22356    20.946912    7273.4194    5175.2712    3138.7548    3893.8027   -1120.2443    228.84832    105.18676    -3094.786 
 5311000    248.94593   -3945.2225   -3518.5377   -3945.2225            0    4336.2621    17.281751    20.355621    21.083696    7416.8391    3120.7312    4654.4391    5233.6161   0.14814255   -1216.7249   -355.04428   -3049.4973 
 5312000    250.63285   -3914.1391    -3484.563   -3914.1391            0    3643.0987    17.318264    20.398628    21.128242    7463.9493    402.60973    5973.2872    4553.3992   -1225.3128   -611.14414   -1154.4702    -3087.997 
 5313000    263.75999   -3917.3972   -3465.3216   -3917.3972            0    4854.4576    17.264758    20.335605    21.062965    7394.9814    5127.3618    4112.8495    5323.1614   -1023.9454    624.28104    929.56864    -2941.777 
 5314000    249.97912    -3895.711   -3467.2553    -3895.711            0    5435.5844    17.230917    20.295744    21.021679    7351.5814    6237.5893    4724.4175    5344.7463    963.12578    821.48372    99.901536   -2884.4776 
 5315000    243.75029   -3936.4536    -3518.674   -3936.4536            0    3559.8191    17.311755     20.39096      21.1203    7455.5358    2744.1214    5547.0556    2388.2801   -128.70627    207.75468    677.38124   -3131.6101 
 5316000    255.81381   -3890.0945   -3451.6384   -3890.0945            0    5050.3861    17.268935    20.340524     21.06806    7400.3493    5537.2268     5651.018    3962.9133    100.88681    1217.4897    1985.5061   -2906.5679 
 5317000    243.04976   -3937.1466   -3520.5676   -3937.1466            0    4096.8281    17.257941    20.327574    21.054647    7386.2244    4862.5825     3089.402       4338.5   -552.14795   -1337.2937    542.63867   -3079.2552 
 5318000    234.44823    -3888.914   -3487.0778    -3888.914            0    4199.6994    17.280119    20.353698    21.081705    7414.7374    4005.9474      6485.11    2108.0409    918.65844   -618.33362     496.8174   -3032.9376 
 5319000    233.27292   -3934.0174   -3534.1956   -3934.0174            0    4970.6729    17.330156    20.412634     21.14275     7479.335    5940.0668    4448.1368    4523.8151   -327.33883    61.821697    1018.5768   -2992.0024 
 5320000    243.74244    -3915.273   -3497.5068    -3915.273            0    4687.8464    17.357155    20.444436    21.175689    7514.3466     5268.951    3889.7858    4904.8025    708.94165   -1088.9522   -476.18793   -2983.7703 
 5321000    254.76289   -3927.9049   -3491.2501   -3927.9049            0    5638.0689    17.294573    20.370723    21.099339    7433.3592    6628.1157    5347.8524    4938.2386    251.55674    1052.5019    1694.2491   -2880.0387 
 5322000    254.06646   -3865.8432   -3430.3819   -3865.8432            0    4059.7561    17.406423    20.502467    21.235796    7578.5165    2634.5365    4399.0367    5145.6952   -52.495706   -524.10209   -978.09458   -2981.6778 
 5323000    247.44038   -3926.3874   -3502.2831   -3926.3874            0    7103.1694    17.218116    20.280667    21.006062    7335.2093    7804.4603    5141.0192    8364.0285     -1128.67    1115.8884   -606.60937   -2742.4108 
 5324000    252.05163   -3912.3649    -3480.357   -3912.3649            0    6231.9923    17.229428     20.29399    21.019861    7349.6749    5500.1109    6424.3167    6771.5494   -92.694749   -253.14487    109.17781   -2812.3655 
 5325000     246.9428   -3911.3861   -3488.1346   -3911.3861            0     7503.453     17.25426     20.32324    21.050157    7381.5003     9799.472    6464.5911     6246.296   -1036.5955   -248.48376   -244.36795   -2680.3758 
 5326000    236.44273   -3920.9786   -3515.7238   -3920.9786            0    3610.2096    17.351554    20.437839    21.168855    7507.0742    3731.6917    2946.1821    4152.7549   -1126.4724    26.115563    205.04993   -3120.4673 
 5327000    249.84905     -3948.99   -3520.7573     -3948.99            0    5112.0575    17.259003    20.328826    21.055943    7387.5883    5472.2505    3176.9881     6686.934   -1041.7062    99.620251     719.6815   -2969.9822 
 5328000    261.68377    -3912.693   -3464.1759    -3912.693            0    2971.4637     17.33735    20.421108    21.151527    7488.6536    3715.5152    2842.3732    2356.5026     701.5399   -283.81658    1922.7319   -3139.6495 
 5329000    264.84571   -3951.0314   -3497.0949   -3951.0314            0    5658.2934    17.229194    20.293714    21.019576    7349.3757    5293.9329    6518.3911     5162.556    88.027432    789.63134    414.02749   -2890.6215 
 5330000    268.94787   -3902.8105    -3441.843   -3902.8105            0    4480.2257    17.287281    20.362133    21.090442    7423.9602    5280.7405    2991.0719    5168.8648     398.3575    2173.2349   -297.68822   -2956.7652 
 5331000    249.64837   -3886.1822   -3458.2934   -3886.1822            0    5613.0537    17.273475    20.345872    21.073599    7406.1876    5250.3745    5794.8455    5793.9409   -626.51305   -356.25959   -826.69219   -2852.0182 
 5332000    245.58933   -3903.3639   -3482.4322   -3903.3639            0    5634.5385    17.262721    20.333206     21.06048    7392.3646    5330.1175    5694.6537    5878.8443   -855.41706   -92.340602    132.92447   -2874.9723 
 5333000    243.75231   -3910.0292   -3492.2461   -3910.0292            0    7028.2899    17.228206    20.292552    21.018372    7348.1124    8878.3409    6796.8572    5409.6717   -736.17197   -333.40816   -703.50865   -2739.0616 
 5334000    263.90717   -3864.3596   -3412.0318   -3864.3596            0     6656.971    17.258785    20.328569    21.055677    7387.3083    5500.4872    6136.0368    8334.3889   -1285.7392    645.15676   -1001.8858   -2694.8342 
 5335000    249.62422   -3899.3531   -3471.5057   -3899.3531            0    4372.8064     17.30123    20.378564     21.10746    7441.9463    4650.1094    1952.1983    6516.1116    1937.3505   -265.27022     214.9295   -2996.9112 
 5336000    245.42311   -3890.7817   -3470.1349   -3890.7817            0    4734.1574    17.319264    20.399805    21.129461    7465.2418    4381.4278    4911.4204    4909.6241   -218.44901   -897.29513    984.09076   -2954.7135 
 5337000    240.97204   -3892.2446   -3479.2268   -3892.2446            0    4589.3487    17.252401     20.32105    21.047889    7379.1144    4024.7781    4410.5487    5332.7191    416.00174     134.8015    660.98395   -2985.3357 
 5338000    277.62724   -3917.3041   -3441.4605   -3917.3041            0    3598.9819    17.324264    20.405695    21.135561    7471.7092    3356.3605    3380.3488    4060.2365   -700.59183   -609.67728   -855.05792   -3049.2895 
 5339000    240.84802   -3894.8123    -3482.007   -3894.8123            0    5162.1206    17.218891    20.281579    21.007007    7336.1992    4004.8023     6178.806    5302.7534    1954.5038   -770.13323   -1812.5458   -2929.7069 
 5340000    251.44189   -3909.8622   -3478.8994   -3909.8622            0    3693.4342    17.290321    20.365714    21.094151    7427.8777    3852.0584    3158.3196    4069.9247    685.13694    887.64594    753.82239   -3078.7971 
 5341000    236.44727   -3916.7678   -3511.5053   -3916.7678            0    3684.8527    17.283659    20.357868    21.086024    7419.2958    3904.0717     3677.609    3472.8774   -31.733917   -115.43248    580.03217   -3112.7938 
 5342000    261.73129   -3925.9162   -3477.3178   -3925.9162            0    5852.3873    17.236468    20.302282     21.02845    7358.6882    6400.9459    4745.2208    6410.9952   -1368.7238   -1355.8934    449.98521   -2849.2459 
 5343000    243.99947   -3916.3132   -3498.1064   -3916.3132            0    5789.9053     17.24937    20.317479    21.044191    7375.2254    5526.4525    5849.9092    5993.3543   -442.68345    68.262701    598.53352   -2875.3437 
 5344000    247.60938   -3914.8383   -3490.4443   -3914.8383            0    3673.8165    17.207141     20.26774    20.992672    7321.1915    4141.8438    2829.0856    4050.5201   -379.16701    350.55366    653.03219   -3098.1834 
 5345000    256.25289   -3957.3583   -3518.1496   -3957.3583            0    6357.3136    17.162819    20.215533    20.938599    7264.7627     6118.262    5177.2323    7776.4465    375.33642   -267.79611    731.97374   -2844.5979 
 5346000     249.0406   -3913.8371     -3486.99   -3913.8371            0    5316.3474    17.258807    20.328595    21.055704    7387.3369    5655.2531    5293.0236    5000.7653   -503.25837   -145.86202    310.86564   -2914.2241 
 5347000    258.72985   -3948.0239   -3504.5698   -3948.0239            0    4961.2533    17.236347     20.30214    21.028303    7358.5334    4438.7357    6607.3715    3837.6528    772.20468    -992.6365    106.23488   -2972.1446 
 5348000    223.98406   -3920.5546   -3536.6536   -3920.5546            0    6256.8325    17.250989    20.319386    21.046166    7377.3021    4849.2408    5545.5645    8375.6922   -695.09851    1366.2702    419.03968   -2863.4786 
 5349000     257.5707   -3945.2226   -3503.7552   -3945.2226            0    5516.8955    17.237269    20.303226    21.029428    7359.7142     6463.769     3393.241    6693.6766    896.09541    399.27524    694.48054   -2911.6054 
 5350000    236.77668   -3928.5144   -3522.6873   -3928.5144            0     6233.893    17.254807    20.323883    21.050824    7382.2013    5926.7818    5975.1712    6799.7261    275.25094     -1560.49    694.05302    -2851.535 
 5351000     234.1034   -3930.3995   -3529.1543   -3930.3995            0    4728.3765    17.210163    20.271299    20.996358    7325.0489    6202.1885    3933.0293    4049.9116    864.96637   -71.658846    158.51835   -3024.0298 
 5352000    262.78952    -3933.734   -3483.3218    -3933.734            0    5540.9151    17.190896    20.248605    20.972853    7300.4754    6266.7244    5300.4515    5055.5692    2516.5881   -413.92141    522.68837   -2893.3809 
 5353000     244.8352   -3916.9293   -3497.2902   -3916.9293            0    4420.7223    17.250809    20.319174    21.045947    7377.0713    3522.2859    5223.1068    4516.7741   -95.771014   -1.6515425    1065.5244   -3021.6778 
 5354000    243.26316   -3927.5635   -3510.6188   -3927.5635            0    4296.1103    17.226388     20.29041    21.016153    7345.7861    2777.2921    5142.8601    4968.1786    384.70275    580.22041   -1618.4911   -3050.3732 
 5355000     252.6893   -3916.0485   -3482.9477   -3916.0485            0    3642.5617     17.30027    20.377433    21.106289    7440.7071    3705.4795    3247.0014    3975.2043    471.64124     101.0081   -577.03545   -3087.6748 
 5356000    235.99325   -3943.4758   -3538.9915   -3943.4758            0    5714.8302    17.313741      20.3933    21.122724    7458.1025    4952.7332    6413.3578    5778.3997   -481.19684    219.96224    365.39195   -2917.3964 
 5357000     248.3018   -3947.2607   -3521.6799   -3947.2607            0    4394.5857    17.354917      20.4418    21.172958    7511.4398    3271.5645    4630.4882    5281.7044   -314.00825   -961.36451   -440.85224   -3040.2678 
 5358000    248.50883    -3909.869   -3483.9334    -3909.869            0    4856.6922    17.279258    20.352683    21.080654    7413.6286    5086.4673    5667.9785    3815.6307    357.85351   -1039.4722   -118.47825    -2958.827 
 5359000    253.40561   -3910.4984   -3476.1699   -3910.4984            0    6036.6902    17.317743    20.398014    21.127606    7463.2754    6161.0111    6427.3082    5521.7512    1046.7838   -95.491245    2101.6771   -2819.1111 
 5360000    246.70703   -3913.0992   -3490.2518   -3913.0992            0    3354.5643    17.334177    20.417371    21.147656    7484.5433    2467.2383    3084.0758    4512.3789   -305.35449   -228.28109   -301.65252   -3124.0863 
 5361000    263.77897   -3931.5522   -3479.4441   -3931.5522            0    5716.2263    17.237769    20.303815    21.030038     7360.355    6272.7038    6556.4878    4319.4874   -1217.4652    806.60706    241.53207   -2865.8459 
 5362000     256.4854   -3940.9945   -3501.3873   -3940.9945            0    4398.0607    17.300466    20.377664    21.106528    7440.9603    3412.0586    6246.5586     3535.565    120.04063    514.79814    549.58183   -3024.1151 
 5363000    243.07349   -3934.7998   -3518.1801   -3934.7998            0    5801.4826    17.233533    20.298825     21.02487    7354.9298    6579.6054    5351.6409    5473.2014     328.6749   -562.35889   -688.20825   -2895.8893 
 5364000    258.45526   -3908.6195    -3465.636   -3908.6195            0    3148.8172    17.402614     20.49798    21.231148    7573.5421    2628.7064    3442.9979    3374.7474    189.83306   -605.06528    103.61736   -3117.8418 
 5365000    259.00512   -3903.9014   -3459.9755   -3903.9014            0    6181.4894    17.182117    20.238264    20.962143    7289.2964    5913.9542    7327.3091    5303.2051    1071.4908    498.94706   -264.11968   -2802.8404 
 5366000    248.44141   -3929.9541   -3504.1341   -3929.9541            0    6424.3239    17.207939    20.268679    20.993645    7322.2096     7498.197    4761.6092    7013.1655    274.22536    460.11746    677.54257   -2818.1003 
 5367000    246.19403   -3933.0255   -3511.0574   -3933.0255            0     6083.789    17.192614    20.250628    20.974949    7302.6638    6385.8843    7761.4061    4104.0765    1240.1036    732.84663   -130.12328   -2863.1225 
 5368000    236.63923   -3907.7659   -3502.1744   -3907.7659            0     5552.612    17.230004    20.294669    21.020565    7350.4126    6525.0773    3566.6102    6566.1484   -1107.6018    108.51394    920.16233   -2906.9442 
 5369000     248.4878    -3910.785   -3484.8854    -3910.785            0    7757.4433    17.221416    20.284553    21.010088    7339.4273    7739.5721    8465.9662    7066.7916    211.27872   -403.22859     107.1428   -2654.5441 
 5370000    235.99453   -3905.9195   -3501.4329   -3905.9195            0    5632.3958    17.297486    20.374153    21.102892    7437.1157     7689.875    5039.6227    4167.6899   -280.95479    185.87806   -777.11457   -2890.5281 
 5371000    256.22387   -3944.7254   -3505.5664   -3944.7254            0    3703.9625    17.390507     20.48372    21.216377    7557.7459    4631.1553    2667.5106    3813.2217   -206.89321    508.56251    491.31818   -3097.3084 
 5372000    249.89174    -3876.285   -3447.9792    -3876.285            0    6466.1857    17.287882    20.362842    21.091176    7424.7355    5737.7022    5963.0658     7697.789    765.33885    1423.3367   -17.058197   -2747.8067 
 5373000    242.63549    -3916.806   -3500.9371    -3916.806            0    6118.4461    17.218928    20.281623    21.007052     7336.247     7013.199    6014.2638    5327.8753    48.233733    429.13147    361.46706   -2846.3145 
 5374000    261.52022   -3906.1041   -3457.8674   -3906.1041            0    5823.7177    17.215805    20.277944    21.003241    7332.2551     4741.497    5785.4859    6944.1702   -127.85974    828.61237   -589.61384   -2835.1174 
 5375000    260.72415   -3880.5791   -3433.7068   -3880.5791            0    4897.7339    17.293452    20.369402    21.097971     7431.914    3880.2461    5030.8343    5782.1214   -989.42664    495.00225    6.4518495   -2902.8569 
 5376000    250.36354    -3887.915   -3458.8005    -3887.915            0    6212.4197    17.177451    20.232768     20.95645    7283.3589    6342.3936    5229.5343    7065.3313    -1022.688    1685.5029    796.96731   -2798.9153 
 5377000    256.06436   -3905.3051   -3466.4195   -3905.3051            0    5749.4538     17.21064    20.271861    20.996941    7325.6586    6467.4187    6618.0018    4162.9409    1492.2069   -1164.3554   -967.11053   -2852.1639 
 5378000    255.99303   -3915.6283    -3476.865   -3915.6283            0    4651.0509    17.246235    20.313787    21.040366     7371.205    4924.0663    6033.4481    2995.6382   -331.68711    -233.0164   -318.64849   -2976.8703 
 5379000    267.34143   -3923.7751    -3465.561   -3923.7751            0    3309.9799    17.238286    20.304424    21.030669    7361.0178    3478.1776    2881.4988    3570.2635    314.93387   -444.86389    1894.2684   -3110.2251 
 5380000    249.00521   -3964.0978   -3537.3113   -3964.0978            0    6012.6014    17.191127    20.248877    20.973135    7300.7695    5831.4046    6544.9269    5661.4727   -762.99113   -1087.7253    205.63571   -2897.1242 
 5381000    241.64636   -3947.2803   -3533.1067   -3947.2803            0     7039.573    17.165256    20.218404    20.941572    7267.8577     6844.016    7455.6865    6819.0164    1725.0856   -1596.2022   -1734.3888   -2786.9525 
 5382000    253.65977   -3908.9377   -3474.1735   -3908.9377            0    3882.0035    17.201523    20.261121    20.985817     7314.022     3924.991    6003.5515    1717.4679   -1602.9171    151.11449   -574.35616   -3060.0899 
 5383000    243.30847   -3912.8192   -3495.7968   -3912.8192            0    5056.3092    17.189199    20.246605    20.970782    7298.3128    4959.4372    3641.4826    6568.0077   -456.89297    1409.4662   -289.57372   -2957.6113 
 5384000    234.81769   -3921.2789   -3518.8094   -3921.2789            0    4106.5212    17.218365    20.280959    21.006365    7335.5266    2441.9637    4803.7211    5073.8788   -139.18205     296.6946   -358.87089   -3079.4892 
 5385000    238.19772   -3960.3312   -3552.0684   -3960.3312            0    6239.6539    17.174125     20.22885    20.952392    7279.1291     7370.365    5702.7861    5645.8106    852.94119    253.94986    567.97945   -2889.6753 
 5386000    246.92085   -3928.9921   -3505.7782   -3928.9921            0    5061.9354    17.177552    20.232887    20.956573    7283.4875    5721.4422    3823.0913    5641.2725    45.181667     795.3509   -125.77776   -2968.0883 
 5387000    249.86363   -3964.4368   -3536.1791   -3964.4368            0    5929.0134    17.174836    20.229689     20.95326     7280.034    5999.9047    5306.4176    6480.7178     656.3052    86.043762    -2714.331   -2906.6849 
 5388000    255.04855   -3947.5642   -3510.4197   -3947.5642            0    4459.7729    17.210255    20.271407    20.996471    7325.1666    3889.8683    3753.1572    5736.2933   -954.80853    1440.0777     1599.374    -3033.982 
 5389000    228.29932   -3959.2782    -3567.981   -3959.2782            0    3468.5744    17.268358    20.339845    21.067356     7399.608    2909.3154    3985.6429    3510.7648    41.981139    177.84121    467.15468   -3193.6673 
 5390000    244.20085   -3932.4233   -3513.8714   -3932.4233            0    4686.1685    17.201692    20.261321    20.986024    7314.2378    4385.6798     5447.833    4224.9928    1564.6347   -1302.4647   -568.94716   -3013.9947 
 5391000    251.35042   -3959.8009   -3528.9949   -3959.8009            0    2561.9467    17.256609    20.326006    21.053023    7384.5152    4018.4767    1917.3171    1750.0462    1027.8532    -797.8834    1435.2077   -3253.0845 
 5392000    243.04967   -3909.8369   -3493.2581   -3909.8369            0    6233.8844    17.152571    20.203462    20.926096    7251.7569    5751.4005    5742.8846    7207.3682    324.30862   -425.21697    344.86389    -2833.966 
 5393000    247.98855   -3933.2357   -3508.1918   -3933.2357            0    4778.5002    17.183975    20.240453     20.96441    7291.6618    3314.8419    6605.7954    4414.8634    1123.4011   -1008.8832   -764.50401   -3000.0394 
 5394000    250.70928   -3925.8891   -3496.1819   -3925.8891            0    6313.6367    17.182575    20.238804    20.962702    7289.8796    6038.7275    6800.9332    6101.2493   -570.25166   -299.35673   -726.25877    -2824.945 
 5395000    272.65462   -3950.0101   -3482.6895   -3950.0101            0    5208.4787    17.213742    20.275514    21.000725    7329.6197    5145.1627    6113.3316    4366.9418   -230.20942   -1002.5501    630.98547   -2925.9292 
 5396000    245.60674   -3950.1719   -3529.2104   -3950.1719            0    2728.1322    17.289359    20.364581    21.092978    7426.6383    3786.8224    1231.1687    3166.4055    1135.5194    353.57757   -620.72164   -3233.7266 
 5397000    232.96931   -3921.1969   -3521.8955   -3921.1969            0    4294.7899    17.231782    20.296763    21.022733    7352.6879    4757.1335     3822.272    4304.9642    46.942478   -981.64588    209.24861   -3061.3591 
 5398000    238.62426   -3937.6688   -3528.6749   -3937.6688            0    3869.2703    17.262928    20.333449    21.060732      7392.63    3558.5419    3282.7052    4766.5638   -146.21484    278.21328    551.32405   -3111.5137 
 5399000    263.03673   -3895.3603   -3444.5244   -3895.3603            0     6537.577    17.205401     20.26569    20.990549    7318.9706    5405.5116    8046.4963     6160.723    182.62513    167.35535    879.97868   -2746.7055 
 5400000    247.68248   -3933.9136   -3509.3943   -3933.9136            0    6181.0545    17.194286    20.252597    20.976988    7304.7945    5072.4261    6542.0665    6928.6709   -37.869815   -444.07047    -783.3764   -2850.9084 
 5401000    246.90147   -3911.4987    -3488.318   -3911.4987            0    5203.2196    17.172077    20.226438    20.949894    7276.5254    3911.0986    7072.2794    4626.2809   -110.99201    975.83036    233.80026   -2936.1489 
 5402000    236.68467   -3942.5748   -3536.9053   -3942.5748            0    4943.0056    17.192371    20.250342    20.974652    7302.3541    4707.5591    4030.6249    6090.8328    323.08927    1677.6365   -391.11187   -3010.4884 
 5403000    251.80003   -3926.8437   -3495.2671   -3926.8437            0    5370.2983    17.172012    20.226362    20.949815    7276.4432    4374.0441    6836.9142    4899.9365   -720.27172    743.98153    927.29631   -2925.3739 
 5404000    235.72284   -3929.3315   -3525.3106   -3929.3315            0     5900.244    17.231076    20.295931    21.021872    7351.7843    5690.7186    5481.3773     6528.636    -560.5329    1080.0752   -44.823355   -2892.6969 
 5405000    252.47188   -3939.6379   -3506.9098   -3939.6379            0    5477.8646    17.209229    20.270199    20.995219    7323.8567    4341.1709    3630.3152    8462.1075    319.88315   -91.501096    70.530697   -2921.8139 
 5406000    231.79498   -3960.0326   -3562.7439   -3960.0326            0     4542.792    17.230934    20.295764    21.021699    7351.6032    2964.7455    5331.1094     5332.521   -1170.8503   -694.48503   -90.618928   -3075.6858 
 5407000    242.99008   -3928.3482   -3511.8715   -3928.3482            0    4597.2864    17.237357    20.303329    21.029535    7359.8268     3631.909     5116.714    5043.2362    21.023589    8.8172766   -177.72498   -3018.4194 
 5408000    246.39526   -3956.8042   -3534.4911   -3956.8042            0    3838.1039    17.242181    20.309011     21.03542    7366.0077    4600.8482    3619.6972    3293.7662   -929.47869   -1605.1505    752.18012   -3122.1803 
 5409000    243.61997   -3901.8484   -3484.2921   -3901.8484            0    6393.2509    17.153675    20.204763    20.927443    7253.1576    6545.0912    4621.8734     8012.788   -324.75574   -317.01605    323.43094   -2808.0149 
 5410000    266.13889   -3922.0876   -3465.9346   -3922.0876            0     5047.908    17.214605     20.27653    21.001777    7330.7218    6038.6028    4425.1619    4679.9594   -1014.7831   -113.52259   -1385.3902   -2926.2575 
 5411000    241.35333   -3934.5877   -3520.9163   -3934.5877            0    6089.6829    17.189325    20.246754    20.970936    7298.4733    5527.2016    5641.6673    7100.1798    101.34831     175.9932    2.6956311    -2872.726 
 5412000    242.98327   -3909.0071   -3492.5421   -3909.0071            0    5240.2457    17.240442    20.306964    21.033299    7363.7797    4716.9422    5745.2483    5258.5465   -694.61979    426.68063   -1482.3461   -2929.7754 
 5413000     255.3022   -3904.4494   -3466.8702   -3904.4494            0    6174.1071     17.11209    20.155781    20.876709    7200.5344     5043.082    6282.3718    7196.8675     233.9901   -22.410659   -299.38315   -2818.5123 
 5414000    254.97532   -3943.6118   -3506.5929   -3943.6118            0    5364.7172    17.199561    20.258811    20.983424    7311.5199    3974.2625     5904.379      6215.51    1083.5267    820.12124   -58.198762   -2934.5476 
 5415000     246.6352   -3907.9064   -3485.1821   -3907.9064            0    3829.0994     17.22241    20.285724      21.0113    7340.6983     5845.305    2750.7091     2891.284    327.86859   -2111.6589   -301.27723   -3075.2519 
 5416000    246.11328   -3880.5987    -3458.769   -3880.5987            0    4087.5122    17.231656    20.296615    21.022581    7352.5277    5134.2183    3389.5015    3738.8167   -1199.8039   -672.48998   -544.22426   -3020.4688 
 5417000    240.62864   -3909.9204   -3497.4912   -3909.9204            0    5184.4876    17.232801    20.297964    21.023977    7353.9933    5341.8787    5146.1543    5065.4298    -1135.254   -284.02994   -100.58271   -2941.4525 
 5418000    279.11127   -3907.2835   -3428.8963   -3907.2835            0    5302.6659    17.195861    20.254453    20.978911    7306.8027    4763.9073    6229.5229    4914.5676    515.74377   -686.66473    280.23433   -2863.8324 
 5419000    258.21857   -3898.1424   -3455.5646   -3898.1424            0    5994.6406    17.164739    20.217796    20.940942    7267.2021    5429.3581    7544.5423    5010.0215    64.519203   -869.66387     132.8649   -2820.2245 
 5420000    243.49851   -3856.7055   -3439.3574   -3856.7055            0    7002.0025    17.114856    20.159039    20.880084    7204.0266    5796.9327    6863.0089    8346.0659    31.577128    -681.0098   -36.912165   -2703.7036 
 5421000    239.69299   -3882.4296    -3471.604   -3882.4296            0     4824.836    17.221049    20.284121     21.00964    7338.9583     4543.774    5462.7524    4467.9816   -336.97678   -1023.7907    434.54745   -2955.1962 
 5422000    239.91657   -3884.4344   -3473.2256   -3884.4344            0    6170.5069    17.160239    20.212495    20.935452    7261.4877    7411.3256    7293.2292    3806.9659   -437.70826    1481.2811   -1168.0703   -2819.7606 
 5423000    249.20361   -3923.2971   -3496.1706   -3923.2971            0    5233.8779    17.178528    20.234037    20.957764    7284.7291    3252.7175    5069.0218    7379.8943   -39.453072   -667.20067   -43.168457   -2940.1218 
 5424000    248.08546   -3931.7128   -3506.5028   -3931.7128            0    5382.0158     17.15976    20.211931    20.934867    7260.8796    5705.1612    6399.9264    4040.9599    462.03662   -1061.0013   -457.45458   -2936.5878 
 5425000    248.53899   -3902.9828   -3476.9954   -3902.9828            0    4350.5657    17.196483    20.255185    20.979669    7307.5953     3518.086    3612.8316    5920.7795    419.22307    -1196.592    170.98878   -3013.3392 
 5426000    248.20145   -3923.0434   -3497.6346   -3923.0434            0    3774.6762    17.219042    20.281756     21.00719    7336.3917    3930.9527    2470.1928    4922.8832   -401.36063   -1131.4675   -235.52773   -3093.7678 
 5427000    250.15555   -3892.8556   -3464.0976   -3892.8556            0    5073.0714    17.184345    20.240889    20.964861    7292.1328    5521.4081    4337.7628    5360.0435    -355.8979   -380.24343    230.06723   -2924.5852 
 5428000    253.89045   -3911.8213   -3476.6617   -3911.8213            0    4575.7445    17.206258    20.266699    20.991595     7320.064    4713.8345    4289.6093    4723.7896    -791.1678    228.40902   -461.92294   -2988.1753 
 5429000    248.75329   -3927.2882   -3500.9336   -3927.2882            0     4322.013    17.269824    20.341571    21.069144    7401.4922    4118.8021    3948.5942    4898.6426    88.944872   -167.68042    1310.4997   -3034.4018 
 5430000    236.47784    -3896.994   -3491.6791    -3896.994            0     6129.387     17.12154    20.166913    20.888239    7212.4709    5740.9792    7544.0215    5103.1605    727.08373    482.19887    862.62213   -2846.9504 
 5431000      256.456   -3917.9439   -3478.3871   -3917.9439            0    4998.4442    17.189458    20.246911    20.971098    7298.6431    4416.5996    3684.2265    6894.5064   -572.04756   -1034.6284    1371.0857   -2946.3366 
 5432000    259.82472   -3904.9276   -3459.5969   -3904.9276            0     4209.989    17.264967    20.335851     21.06322    7395.2502    3469.5531     4493.965    4666.4487   -625.21641     541.9995   -271.73831   -3005.5406 
 5433000    244.92318   -3926.5072   -3506.7172   -3926.5072            0    4787.0643    17.152143    20.202958    20.925574    7251.2142    3943.3958    6202.7509    4215.0463     878.6767    1439.7134    521.99796   -3000.4779 
 5434000    247.05553   -3933.3975   -3509.9528   -3933.3975            0    3614.3146     17.28214    20.356079    21.084171    7417.3398    2537.2509    4562.5994    3743.0933   -388.43218    206.56763    109.29605   -3118.9769 
 5435000    253.50417   -3910.1979   -3475.7004   -3910.1979            0    6500.9287    17.203284    20.263196    20.987966    7316.2686    7213.5658    6812.6921    5476.5282    3.9352092   -307.61336     1578.739   -2782.0496 
 5436000    237.72968    -3874.353   -3466.8925    -3874.353            0    4913.9256    17.259832    20.329802    21.056955     7388.653    4676.1569    6269.4595    3796.1604   -702.77384   -417.82927    461.37385   -2937.3879 
 5437000    237.87967    -3920.403   -3512.6854    -3920.403            0    4688.9276    17.251699    20.320222    21.047032    7378.2128    5714.5967    3386.6747    4965.5113    171.90183   -993.59114   -1644.9704   -3008.1396 
 5438000    254.96735   -3905.2427   -3468.2374   -3905.2427            0     5526.374    17.251426    20.319901    21.046699    7377.8624    6167.5335    5568.4288    4843.1597   -1515.1009    -1794.016    162.03003   -2873.6075 
 5439000    243.67193   -3962.4437   -3544.7984   -3962.4437            0    3795.1023    17.255627    20.324849    21.051825    7383.2542    3201.0934    4250.4352    3933.7783     48.95097    719.50949    15.345729   -3136.1524 
 5440000    264.52392   -3912.6277   -3459.2427   -3912.6277            0    3954.3197    17.243781    20.310896    21.037372    7368.0585    3740.1747    2867.0488    5255.7357   -415.07765    1359.8607   -116.53834    -3034.329 
 5441000    253.83195   -3932.6974   -3497.6382   -3932.6974            0    5707.7429    17.189548    20.247017    20.971208     7298.758    6781.1382    5835.2351    4506.8555    779.77342    582.47317    560.49087    -2890.078 
 5442000    246.91101   -3906.9065   -3483.7095   -3906.9065            0    5191.7462    17.192361     20.25033     20.97464    7302.3414    4585.6696    5926.1775    5063.3915   -957.96683    1266.2579   -525.84479   -2930.8033 
 5443000    242.29086   -3913.4187   -3498.1405   -3913.4187            0    6137.8696    17.260133    20.330156    21.057322    7389.0393    6462.0393    6127.9025     5823.667   -106.98693   -276.01348   -780.77015   -2836.7141 
 5444000     255.6614   -3912.9539    -3474.759   -3912.9539            0    5290.0676    17.281074    20.354822     21.08287    7415.9665     6053.921    5494.5981    4321.6837   -1817.0693    558.85055   -494.35486   -2902.6157 
 5445000    263.57457   -3938.5353   -3486.7775   -3938.5353            0    5272.0138    17.262759     20.33325    21.060526    7392.4127      7118.73    4337.3075     4360.004   -147.12383    669.58977   -312.67379   -2918.3977 
 5446000    244.16012   -3911.3729   -3492.8908   -3911.3729            0    5369.8086    17.333983    20.417142    21.147419    7484.2915    6128.4548    4369.0798    5611.8913   -622.24515   -83.435372    647.85702   -2906.7723 
 5447000    249.92556   -3915.9602   -3487.5964   -3915.9602            0    5234.6496    17.301684    20.379099    21.108014    7442.5325    4947.9179    5223.5386    5532.4925    614.97594    655.12426   -568.70325   -2919.4186 
 5448000    255.38851   -3917.8452    -3480.118   -3917.8452            0    6199.9743    17.195232    20.253712    20.978143    7306.0011    5483.2117    5461.6051     7655.106   -762.00695     499.3116    1408.7174   -2819.5074 
 5449000    250.78144   -3892.2227   -3462.3919   -3892.2227            0    5415.0175    17.233569    20.298868    21.024914    7354.9758    5386.3476    5418.0196    5440.6852   -822.26375     271.8049    480.38016   -2881.5512 
 5450000    257.77995   -3913.0547   -3471.2287   -3913.0547            0    5025.1489     17.30954    20.388351    21.117598    7452.6745    4359.8582    5582.2153    5133.3732   -48.512733   -667.63782   -302.54113   -2925.0472 
 5451000    248.30377   -3900.2097   -3474.6256   -3900.2097            0    5236.7805    17.264902    20.335774     21.06314    7395.1662    6250.5524    3744.2782    5715.5108   -108.94743   -1039.0945    1493.1336    -2909.834 
 5452000    238.40803    -3862.992   -3454.3688    -3862.992            0    6908.4363    17.191907    20.249795    20.974086    7301.7628     6508.314    6662.9234    7554.0715    411.15843   -1489.7069   -557.57058   -2718.6983 
 5453000    242.72558    -3918.168   -3502.1447    -3918.168            0    5555.1198    17.242466    20.309347    21.035768    7366.3729    4566.7395    7015.4697    5083.1501    502.19807    87.748057    490.80219   -2905.3526 
 5454000    249.09913   -3937.1743   -3510.2269   -3937.1743            0    6422.5268    17.203461    20.263404    20.988182    7316.4944    7169.5809    6217.0421    5880.9574    -50.10301   -23.632637   -211.02271   -2824.9204 
 5455000    238.57818   -3930.2963   -3521.3814   -3930.2963            0     4895.636     17.23597    20.301696    21.027843    7358.0503    3460.2773    5965.1241    5261.5066    235.04203    771.43695    1255.1687   -2996.0326 
 5456000    243.21013   -3943.2058    -3526.352   -3943.2058            0    5974.0881    17.190423    20.248048    20.972276    7299.8729    5841.7339     5448.323    6632.2073   -461.76138   -186.75273   -412.27512   -2890.3436 
 5457000    242.36713   -3907.7128   -3492.3038   -3907.7128            0    5210.4815    17.194769    20.253166    20.977578    7305.4102    5797.0345     4507.359    5327.0511    465.70499    1622.8466   -795.66949   -2937.1692 
 5458000     267.0772   -3947.6712   -3489.9101   -3947.6712            0    6595.2003    17.153681    20.204771    20.927451     7253.166    3942.2414    7745.9436    8097.4158   -561.27145    449.52672    1065.2752   -2792.2699 
 5459000    249.96948   -3939.4895   -3511.0503   -3939.4895            0    5754.8218     17.13358    20.181094    20.902928     7227.697    6067.4832    5876.3399    5320.6424   -868.01108    2255.8831    213.58712   -2904.4429 
 5460000    265.92798   -3930.1602   -3474.3687   -3930.1602            0    6051.2884    17.156397     20.20797    20.930765    7256.6115    7266.5919    5700.1951    5187.0781    863.41107    217.13648    -210.8326   -2833.9594 
 5461000    254.36145   -3965.1638    -3529.197   -3965.1638            0    6630.2576    17.182833    20.239108    20.963016    7290.2076    7485.7562    7159.1636    5245.8531   -1176.0919    27.034052   -74.499977   -2824.2667 
 5462000    251.52682   -3940.7284     -3509.62   -3940.7284            0    5476.7837    17.241089    20.307725    21.034088    7364.6081    4998.8013     6131.756    5299.7939    717.98636      1037.32    120.83556   -2921.3846 
 5463000    250.41584   -3895.9761   -3466.7719   -3895.9761            0    5171.8756    17.210462    20.271651    20.996723    7325.4307    7221.1974    4934.0369    3360.3926    302.70273    119.40331   -1252.5609   -2914.2403 
 5464000    248.14085   -3921.2116   -3495.9066   -3921.2116            0    5845.7046    17.187944    20.245128    20.969252     7296.715    7035.8142    6107.7815    4393.5182    384.64546   -462.69571   -1662.8668   -2873.8354 
 5465000    241.41103   -3969.6929   -3555.9227   -3969.6929            0    6357.9296    17.101352    20.143134     20.86361    7186.9887     5800.421    5873.3956    7399.9723   -1162.1028   -489.11004    1453.8743   -2889.5172 
 5466000    238.85813   -3899.9283   -3490.5336   -3899.9283            0    4261.9314    17.174207    20.228947    20.952493    7279.2339    5468.5014    3749.1672    3568.1257    630.50316    -578.1593    90.438757   -3038.0863 
 5467000    232.85084   -3907.5499   -3508.4515   -3907.5499            0    4406.6799     17.31236    20.391674    21.121039    7456.3183    4763.9116    3813.5566    4642.5715   -2261.7351    429.17647    779.70378    -3029.257 
 5468000    252.32879   -3916.8566   -3484.3737   -3916.8566            0    5326.3561    17.261556    20.331833    21.059058    7390.8675    2169.7932    8716.3754    5092.8998    1582.9003    367.94153   -189.20785   -2910.2553 
 5469000    252.26592    -3886.491   -3454.1159    -3886.491            0     5276.958    17.234584    20.300064    21.026153    7356.2763    5401.2034    3951.8058     6477.865   -105.97702   -351.57763   -319.68155   -2887.9841 
 5470000    247.17039   -3938.8156    -3515.174   -3938.8156            0    5840.0903    17.154551    20.205796    20.928513    7254.2695    7229.8236    5096.8121    5193.6353   -978.48291    933.26791     296.0334   -2897.3154 
 5471000    233.06948   -3906.5304   -3507.0573   -3906.5304            0    5447.7778    17.196139    20.254781     20.97925    7307.1575    5762.9301    5102.5316    5477.8718   -2313.1167   -343.13164   -632.53244   -2926.5018 
 5472000    244.83386   -3938.8837   -3519.2468   -3938.8837            0     4445.055     17.25267    20.321366    21.048217    7379.4589    6176.5604    3508.8872    3649.7174    856.55504    -735.1476    670.50867   -3040.8618 
 5473000    245.18984   -3906.5198   -3486.2728   -3906.5198            0    5839.3676    17.208715    20.269594    20.994593    7323.2008     5073.359    6216.8445    6227.8992   -756.73791    74.759664   -28.135673   -2862.6203 
 5474000    248.87252   -3901.0938   -3474.5348   -3901.0938            0    3623.6788    17.285511    20.360049    21.088283    7421.6805     4591.061    4860.4419    1419.5336   -839.62391   -304.92804   -214.40442   -3082.3165 
 5475000    255.36782   -3937.2308   -3499.5391   -3937.2308            0    7625.1688    17.174366    20.229134    20.952686    7279.4354    7424.6061    7639.3884    7811.5119     1309.653   -303.44974    1869.4765   -2690.0276 
 5476000    234.53396    -3890.848   -3488.8648    -3890.848            0     3620.954    17.292394    20.368156     21.09668      7430.55    3854.3117    4102.5973     2905.953    729.14478   -463.48871    595.01871    -3096.473 
 5477000    270.57264   -3902.5338   -3438.7815   -3902.5338            0    5751.4147    17.241354    20.308037    21.034411    7364.9479    7869.2922    2551.3932    6833.5589   -54.902186    755.65513   -499.83015   -2821.0208 
 5478000    252.90395   -3902.4092   -3468.9405   -3902.4092            0    5378.8622    17.241888    20.308666    21.035063    7365.6323    6385.2301    4428.3701    5322.9865    196.96462     1124.718   -472.47959   -2891.1421 
 5479000    250.41142   -3916.5097   -3487.3131   -3916.5097            0    3094.7461    17.271123    20.343102     21.07073    7403.1635    2654.9796    4041.0723    2588.1863   -1035.0019   -220.10582   -414.12342    -3153.181 
 5480000    255.74879   -3887.7882   -3449.4435   -3887.7882            0    6012.8962    17.208935    20.269853    20.994861    7323.4815    5671.2642    7343.8851    5023.5394    876.85505   -885.07949    -749.1729   -2807.2334 
 5481000    261.89287   -3913.6785   -3464.8031   -3913.6785            0    6215.4208    17.195976    20.254588     20.97905    7306.9488    7859.9013    6190.8822    4595.4789   -83.933556    78.398679    601.44807   -2802.4608 
 5482000    256.79102   -3926.7568   -3486.6258   -3926.7568            0     3491.851    17.266552    20.337717    21.065153    7397.2864    3362.8912     5150.935    1961.7269   -1006.1636   -77.885124   -821.97579   -3109.9185 
 5483000    253.07061   -3952.3244     -3518.57   -3952.3244            0    5112.8702    17.154474    20.205705    20.928418    7254.1714     6210.784    3612.3165      5515.51    179.85792   -427.98676    1319.0157   -2977.6557 
 5484000    246.18863   -3895.5223   -3473.5634   -3895.5223            0    5131.6643    17.236412    20.302217    21.028383    7358.6173    7100.9047    4112.0581    4182.0302   -1030.4492   -1081.2147   -274.05356    -2922.844 
 5485000    234.34715   -3931.3714   -3529.7084   -3931.3714            0    4643.4269    17.232601    20.297727    21.023733    7353.7366    6290.8042    4934.8088    2704.6676   -1118.3634    1432.9523   -618.52086   -3031.7161 
 5486000    241.28072   -3941.7971   -3528.2503   -3941.7971            0    5302.9922    17.214735    20.276684    21.001936    7330.8883      5775.65    3896.6374    6236.6891    2301.4167   -613.78107   -803.53048   -2961.2889 
 5487000    253.52968   -3956.4667   -3521.9255   -3956.4667            0    5217.9142    17.263537    20.334167    21.061475     7393.413    4399.6807    4743.2224    6510.8396    867.99828   -358.80008   -1289.4413   -2959.3021 
 5488000    242.83956   -3905.0435   -3488.8248   -3905.0435            0    4418.2937    17.280848    20.354556    21.082594    7415.6757    3827.0013    3030.2058    6397.6739    868.66762   -268.10813     69.75867   -3010.9862 
 5489000    235.84505   -3925.4166   -3521.1863   -3925.4166            0    5872.5409    17.238338    20.304485    21.030732    7361.0842     6304.528    5134.9961    6178.0984   -85.813383    654.02294    476.02066   -2890.7463 
 5490000       242.31   -3915.0487   -3499.7377   -3915.0487            0    5197.5433    17.238375    20.304529    21.030777    7361.1311    3190.1266    6087.5863     6314.917    1494.6796   -184.81099   -373.13477   -2941.7578 
 5491000    243.12586   -3927.1571   -3510.4477   -3927.1571            0    5856.1446    17.185431    20.242168    20.966186    7293.5153    7626.1333    5398.3109    4543.9895   -462.76945   -506.44496    272.06104   -2887.5388 
 5492000    239.43288   -3906.3775   -3495.9977   -3906.3775            0    4408.1695    17.182137    20.238288    20.962167    7289.3219     3845.783    6170.3843    3208.3411   -715.55885   -1169.6639    1306.9005   -3027.3772 
 5493000    254.57334   -3911.5343   -3475.2043   -3911.5343            0    5790.9484    17.266045    20.337121    21.064535    7396.6357    6449.9612    5386.1895    5536.6945    29.285932   -1804.6362    129.49154   -2850.5211 
 5494000    260.03425   -3908.6513   -3462.9615   -3908.6513            0    6560.7892    17.202399    20.262154    20.986887    7315.1403    7215.9608    4221.2643    8245.1425    681.32071   -86.625279    175.53308   -2763.0315 
 5495000    256.90937   -3879.0673   -3438.7334   -3879.0673            0    4734.7724    17.212286    20.273799    20.998949    7327.7603       6236.4     3387.704    4580.2132    1228.6741   -91.368172     430.6175   -2932.7384 
 5496000    250.62174   -3906.8827   -3477.3256   -3906.8827            0    4149.5347    17.200316      20.2597    20.984345    7312.4826    3972.1418    3943.6525    4532.8098    324.59105    435.51249   -1201.6483   -3034.7982 
 5497000    239.16645   -3909.5436   -3499.6205   -3909.5436            0     6173.802    17.197036    20.255837    20.980344    7308.3009    5815.1725    6898.5831    5807.6505   -767.38723    1264.7272   -166.06545   -2841.5915 
 5498000    267.55604   -3915.5058   -3456.9239   -3915.5058            0     4780.262    17.199768    20.259055    20.983677    7311.7842    4170.4668    3122.1383    7048.1808   -411.43563   -368.15222   -511.75546   -2947.1813 
 5499000    236.23212   -3912.8058   -3507.9121   -3912.8058            0    6637.8263    17.161704    20.214221    20.937239    7263.3479    6855.4279    6633.6239    6424.4272    701.70463   -160.44421    1690.5771   -2804.7772 
 5500000    261.45872   -3900.2944   -3452.1631   -3900.2944            0    6585.1363    17.218629    20.281271    21.006687    7335.8647    6156.5771    6439.0884    7159.7435    1721.1843   -1191.8348    1349.1642   -2747.6453 
Loop time of 401.769 on 64 procs for 250000 steps with 864 atoms

Performance: 107.524 ns/day, 0.223 hours/ns, 622.248 timesteps/s
99.2% CPU use with 64 MPI tasks x 1 OpenMP threads

MPI task timing breakdown:
Section |  min time  |  avg time  |  max time  |%varavg| %total
---------------------------------------------------------------
Pair    | 20.755     | 25.748     | 29.811     |  47.3 |  6.41
Bond    | 0.27362    | 0.28183    | 0.29333    |   0.8 |  0.07
Kspace  | 171.43     | 179.72     | 188.21     |  28.1 | 44.73
Neigh   | 4.1454     | 4.8133     | 5.7267     |  18.3 |  1.20
Comm    | 81.346     | 92.348     | 101.59     |  45.9 | 22.99
Output  | 1.6508     | 1.6525     | 1.6637     |   0.3 |  0.41
Modify  | 87.688     | 91.406     | 96.34      |  19.8 | 22.75
Other   |            | 5.798      |            |       |  1.44

Nlocal:        13.5000 ave          18 max           8 min
Histogram: 1 0 5 9 5 10 14 7 6 7
Nghost:        2180.95 ave        2221 max        2146 min
Histogram: 5 5 7 11 8 6 9 6 4 3
Neighs:        4202.56 ave        5986 max        2510 min
Histogram: 2 5 4 14 13 6 7 7 3 3

Total # of neighbors = 268964
Ave neighs/atom = 311.30093
Ave special neighs/atom = 2.0000000
Neighbor list builds = 12636
Dangerous builds = 0

unfix		3
unfix		2
unfix		1

write_data	data.final.${pid}
write_data	data.final.0
System init for write_data ...
PPPM initialization ...
  extracting TIP4P info from pair style
  using 12-bit tables for long-range coulomb (../kspace.cpp:340)
  G vector (1/distance) = 0.37464708
  grid = 24 24 25
  stencil order = 5
  estimated absolute RMS force accuracy = 0.0030294047
  estimated relative force accuracy = 9.1229622e-06
  using double precision FFTW3
  3d grid and FFT values/proc = 2730 288
Last active /omp style is kspace_style pppm/tip4p/omp
WARNING: Not all mixed pair coeffs generated from mixing. Use write_data with 'pair ij' option to store all pair coeffs. (../write_data.cpp:312)

write_restart   restart.lmp.${pid}
write_restart   restart.lmp.0
System init for write_restart ...
PPPM initialization ...
  extracting TIP4P info from pair style
  using 12-bit tables for long-range coulomb (../kspace.cpp:340)
  G vector (1/distance) = 0.37464708
  grid = 24 24 25
  stencil order = 5
  estimated absolute RMS force accuracy = 0.0030294047
  estimated relative force accuracy = 9.1229622e-06
  using double precision FFTW3
  3d grid and FFT values/proc = 2730 288
Last active /omp style is kspace_style pppm/tip4p/omp
Total wall time: 0:06:44
