LAMMPS (30 Jul 2021)
  using 1 OpenMP thread(s) per MPI task
package omp 0
using multi-threaded neighbor list subroutines
echo both

include		in.partitions
variable        pid world 0
include		in.temp
variable        temperature equal 268.04
variable	tempDamp equal 100.0
include		in.pressure
variable        pressure equal 9000.0
variable        pressureDamp equal 1000.0 # This is 1 ps
include		in.seed
variable        seed world 745823

units		real
atom_style	full
read_restart	restart.lmp.${pid}
read_restart	restart.lmp.0
Reading restart file ...
  restart file = 30 Jul 2021, LAMMPS = 30 Jul 2021
  restoring atom style full from restart
  orthogonal box = (-0.11325626 -0.095085087 -0.15071601) to (24.843257 24.825086 22.960716)
  4 by 4 by 4 MPI processor grid
  restoring pair style lj/cut/tip4p/long/omp from restart
  restoring bond style harmonic/omp from restart
  restoring angle style harmonic/omp from restart
  1920 atoms
  1280 bonds
  640 angles
Finding 1-2 1-3 1-4 neighbors ...
  special bond factors lj:    0        0        0       
  special bond factors coul:  0        0        0       
     2 = max # of 1-2 neighbors
     1 = max # of 1-3 neighbors
     1 = max # of 1-4 neighbors
     2 = max # of special neighbors
  special bonds CPU = 1.174 seconds
  read_restart CPU = 1.387 seconds
include 	in.setup
variable	out_freq equal 1000
variable	out_freq2 equal 10000
variable	out_freq3 equal 1000

timestep	2.0

neigh_modify    delay 7 every 1

include		in.tip4p
# This is TIP4P/Ice

# create groups ###
group ox type 2
640 atoms in group ox
group hy type 1
1280 atoms in group hy

# set charges - beside manually ###
set group ox charge -1.1794
Setting atom values ...
  640 settings made for charge
set group hy charge 0.5897
Setting atom values ...
  1280 settings made for charge

# ### TIP3P Potential Parameters ###
pair_style lj/cut/tip4p/long/omp 2 1 1 1 0.1577 8.5
pair_coeff 1 1*2 0.000 0.000
pair_coeff 2 2 0.21084 3.1668
bond_style  harmonic
bond_coeff  1 450 0.9572
angle_style harmonic
angle_coeff 1 55 104.52
kspace_style pppm/tip4p/omp 1.0e-5
pair_modify tail yes

thermo          ${out_freq}
thermo          1000
thermo_style    custom step temp pe etotal epair emol press lx ly lz vol pxx pyy pzz pxy pxz pyz enthalpy

restart 	${out_freq3} restart.lmp.${pid} restart2.lmp.${pid}
restart 	1000 restart.lmp.${pid} restart2.lmp.${pid}
restart 	1000 restart.lmp.0 restart2.lmp.${pid}
restart 	1000 restart.lmp.0 restart2.lmp.0


include         in.dump
dump            myDump all atom ${out_freq2} dump.water.${pid}
dump            myDump all atom 10000 dump.water.${pid}
dump            myDump all atom 10000 dump.water.0
dump            myDump2 all dcd ${out_freq2} dump.dcd
dump            myDump2 all dcd 10000 dump.dcd
dump_modify     myDump append yes
dump_modify     myDump2 append yes


variable natoms 	equal  "count(all)"                        # NUMBER ATOMS
variable H      	equal  "enthalpy/v_natoms"                 # ENTHALPY-per-atom
variable Vol      	equal  "vol/v_natoms"                 # volume-per-atom
fix AVG all 		ave/time ${out_freq} 1 ${out_freq} v_Vol v_H file vol_enthalpy.dat
fix AVG all 		ave/time 1000 1 ${out_freq} v_Vol v_H file vol_enthalpy.dat
fix AVG all 		ave/time 1000 1 1000 v_Vol v_H file vol_enthalpy.dat




fix 		1 all shake 1e-6 200 0 b 1 a 1
       0 = # of size 2 clusters
       0 = # of size 3 clusters
       0 = # of size 4 clusters
     640 = # of frozen angles
  find clusters CPU = 0.408 seconds
fix             2 all nph aniso ${pressure} ${pressure} ${pressureDamp}
fix             2 all nph aniso 9000 ${pressure} ${pressureDamp}
fix             2 all nph aniso 9000 9000 ${pressureDamp}
fix             2 all nph aniso 9000 9000 1000
fix             3 all temp/csvr ${temperature} ${temperature} ${tempDamp} ${seed}
fix             3 all temp/csvr 268.04 ${temperature} ${tempDamp} ${seed}
fix             3 all temp/csvr 268.04 268.04 ${tempDamp} ${seed}
fix             3 all temp/csvr 268.04 268.04 100 ${seed}
fix             3 all temp/csvr 268.04 268.04 100 745823


run             250000
PPPM initialization ...
  extracting TIP4P info from pair style
  using 12-bit tables for long-range coulomb (../kspace.cpp:340)
  G vector (1/distance) = 0.37433656
  grid = 30 30 30
  stencil order = 5
  estimated absolute RMS force accuracy = 0.0032824732
  estimated relative force accuracy = 9.8850706e-06
  using double precision FFTW3
  3d grid and FFT values/proc = 3600 512
Last active /omp style is kspace_style pppm/tip4p/omp
Neighbor list info ...
  update every 1 steps, delay 7 steps, check yes
  max neighbors/atom: 2000, page size: 100000
  master list distance cutoff = 10.8154
  ghost atom cutoff = 10.8154
  binsize = 5.4077, bins = 5 5 5
  1 neighbor lists, perpetual/occasional/extra = 1 0 0
  (1) pair lj/cut/tip4p/long/omp, perpetual
      attributes: half, newton on, omp
      pair build: half/bin/newton/omp
      stencil: half/bin/3d
      bin: standard
Per MPI rank memory allocation (min/avg/max) = 9.331 | 9.339 | 9.344 Mbytes
Step Temp PotEng TotEng E_pair E_mol Press Lx Ly Lz Volume Pxx Pyy Pzz Pxy Pxz Pyz Enthalpy 
 4000000    275.50809   -9065.4107   -8015.0482   -9065.4107            0    8331.7557    24.956514    24.920171    23.111432    14373.475    8133.2247    9466.6205    7395.4219   -183.07341   -25.480578    171.31533   -6268.5256 
 4001000    263.90733   -9065.5838   -8059.4487   -9065.5838            0    9304.6246    25.121853    24.979952    22.848405    14338.349    7969.0933    8875.4087    11069.372    316.40733     785.3423    644.73462   -6113.7576 
 4002000    265.75929   -9052.9324   -8039.7368   -9052.9324            0    8384.3714    25.008345    24.953197    22.981018    14341.032    7130.9427    9486.6158    8535.5556   -842.42502   -1080.6533   -254.28118   -6286.1518 
 4003000    270.99714   -9084.3709   -8051.2062   -9084.3709            0    9152.3472    24.907874    24.879567    23.127705    14332.172     9000.138    9516.8839    8940.0198   -817.89527   -2268.8041   -671.11885   -6138.1822 
 4004000    257.23898   -9065.4225   -8084.7102   -9065.4225            0    8639.8204    25.090257    24.936412    22.923565     14342.38    7927.7411    8991.4883    9000.2319   -36.633708    134.29709   -184.75618   -6277.5284 
 4005000    263.68135   -9036.9475    -8031.674   -9036.9475            0    8256.8899    25.043618    24.984758     23.03802     14415.09    7476.7928     9246.653    8047.2239    734.93343   -1002.2453   -858.16324   -6295.8338 
 4006000    266.12356   -9023.6855   -8009.1011   -9023.6855            0     8213.871    25.039984    24.998891     22.98608    14388.638    6738.9208     8666.646    9236.0462    251.94657   -20.466259    538.32368   -6285.4734 
 4007000     269.5628   -9097.6234   -8069.9271   -9097.6234            0    8714.1321    24.965255     24.97481     23.01331    14348.857    10221.568    7533.5113    8387.3173    132.02398   -110.10263   -784.43169   -6246.3785 
 4008000    268.54684   -9112.0855   -8088.2625   -9112.0855            0    7871.0416    24.986915    24.949336    23.083109     14390.17    8033.0463    7866.8103    7713.2682   -47.836557    460.76307    1163.1791   -6436.3994 
 4009000    271.24784   -9043.2012   -8009.0807   -9043.2012            0     8407.425    25.003881    25.062918    22.968391    14393.606    8104.2033    8134.2821    8983.7895    10.697306   -333.45611    404.77973   -6244.2278 
 4010000    269.69281   -9052.2226   -8024.0306   -9052.2226            0     10531.64    24.827198     24.93095    23.062072     14274.63    11720.819    10371.163    9502.9371   -781.12932    421.91692   -746.53525   -5831.5451 
 4011000    261.31485   -9054.6613   -8058.4099   -9054.6613            0    8840.7724    24.938088    24.984396    23.062476    14369.377    8724.0917    8963.8278    8834.3978     504.7038    24.492266   -952.29981   -6205.7145 
 4012000    267.01991   -9030.2784   -8012.2767   -9030.2784            0    8621.1384    25.104559    24.987194    22.957503    14401.069    8934.3928    6941.5411    9987.4814    94.775296   -206.92261    200.84858   -6201.6236 
 4013000    268.16338   -9057.4442   -8035.0831   -9057.4442            0    7715.5534    25.004031    24.974934    23.085765    14416.461    8986.1114     7172.317    6988.2319    373.80665    674.00393    121.81231   -6412.8935 
 4014000    264.08516   -9100.9969   -8094.1838   -9100.9969            0    9042.9542    24.883324    24.857923     23.15396     14321.83    9026.7145    9805.4895    8296.6586    314.84547   -541.16119   -1466.9867   -6205.3892 
 4015000    271.76487   -9086.1333   -8050.0416   -9086.1333            0     9194.666    24.980578    25.010818    22.896516    14305.393    9101.8541    9287.1619     9194.982    450.39797    -163.5141     753.1081   -6131.7633 
 4016000     265.0175   -9043.6782   -8033.3107   -9043.6782            0    8746.7593    24.934861    25.049268    22.967997    14345.811    7546.2846    8997.2115    9696.7819    976.00673   -133.40262    1369.2806   -6203.3229 
 4017000    271.39261   -9075.3165   -8040.6441   -9075.3165            0    9233.1924    24.816667    24.953216    23.103944    14307.248    9325.6925    9832.8246      8541.06  -0.45047119    28.287357    202.26096   -6114.0781 
 4018000    261.30148    -9093.271   -8097.0706    -9093.271            0    7088.8396    24.985646    25.170793    22.899589    14401.747    7581.0668    5521.8857    8163.5662    572.31878   -357.50267    1342.5643   -6608.1683 
 4019000    269.35556   -9088.0278   -8061.1216   -9088.0278            0    9706.4422    24.874379    24.942282    23.049689    14300.575     10340.86    9801.4261     8977.041   -506.12754   -577.30513    362.41857   -6036.7536 
 4020000    267.20121    -9095.717   -8077.0241    -9095.717            0    8798.3619    24.902871    24.982114    23.040349    14334.008    9189.0099    8263.1328    8942.9429    39.224587   -568.28108    204.74196   -6237.7546 
 4021000    264.49001   -9073.4876    -8065.131   -9073.4876            0      8975.61    25.042483    24.986444    22.932833    14349.592    8394.0971    9083.4692    9449.2636    -3.093593   -1115.8701    35.788766   -6186.7685 
 4022000     275.6336   -9082.4734   -8031.6324   -9082.4734            0    7747.7831    24.994753    24.897208    23.157681    14411.015    7797.5867    8212.7884    7232.9741   -434.10317   -221.19811    511.52727   -6403.2819 
 4023000    260.68733   -9095.1936   -8101.3346   -9095.1936            0    8671.9035    25.013597     24.98571    22.962714    14351.294    8357.1983    7643.1251    10015.387    546.25175   -748.50708    -32.71872   -6286.3147 
 4024000    273.45749   -9026.7734   -7984.2287   -9026.7734            0     7490.875    24.980663    25.063554    23.047064    14429.864     7102.063    7507.9569     7862.605    347.85374   -439.53374    386.16926   -6407.8134 
 4025000    263.68904   -9054.9257   -8049.6228   -9054.9257            0    7726.2086    24.931415    25.067165    23.044232     14401.72    7195.4555    7694.2808    8288.8896    58.591223   -751.96616    631.77818   -6426.8538 
 4026000    269.97749   -9043.0154   -8013.7381   -9043.0154            0    8760.2635     24.92531    25.065804    23.016793    14380.269    9175.4149    9086.7804    8018.5953   -687.71683    1240.0503     320.3785   -6176.5227 
 4027000    266.74364   -9070.5222   -8053.5738   -9070.5222            0    7865.9784    24.935931    25.055865    23.037026    14393.334    8618.7867    7902.8117    7076.3367    545.88037   -959.26499    481.84634   -6402.4105 
 4028000    265.18918   -9086.5432   -8075.5211   -9086.5432            0    8637.5415    24.890986    25.067198     23.02592    14366.961    9320.0511     7535.196    9057.3773     140.8244   -860.22106   -430.77991   -6265.7196 
 4029000    274.59963   -9120.7635   -8073.8645   -9120.7635            0    9041.3382    24.936986    24.981664    22.957607    14301.841    8775.1088    9494.6924    8854.2133   -57.573154   -106.96708    1483.2048   -6188.0431 
 4030000    276.01652   -9053.6605   -8001.3596   -9053.6605            0    8647.7891    24.900157    24.957833    23.146302    14384.361    8442.6523    8870.0033    8630.7118    350.18541   -216.30237   -955.41674   -6187.2164 
 4031000    280.42162   -9060.8999   -7991.8048   -9060.8999            0    9048.4029      25.0329    24.878365     23.06892    14366.807    8488.3961    9681.5015    8975.3112   -928.44023   -310.28852   -1024.9911   -6095.9369 
 4032000    269.56728   -9041.5754    -8013.862   -9041.5754            0    8643.3793    25.163594    24.964297    22.861595    14361.458    6667.1673    9809.2237    9453.7469   -514.10653   -532.32583   -905.37124    -6203.531 
 4033000     270.2998   -9064.6047   -8034.0986   -9064.6047            0    8683.6518    24.937148    24.939454    23.085053    14357.029    10057.636    8729.3084    7264.0106   -492.17116    704.88721   -542.84114   -6215.8935 
 4034000    262.74377   -9104.5621    -8102.863   -9104.5621            0    7950.7081    24.911628    25.064253    23.022506    14375.053    8098.9915    7425.3198     8327.813   -1423.8175    496.03132    172.71006   -6436.0336 
 4035000    254.84598   -9088.9125   -8117.3234   -9088.9125            0    8298.1235    25.007748    25.081592    22.920212     14376.34    7557.3991    8059.3557    9277.6158    258.53511   0.63878637   -943.51767   -6377.5043 
 4036000    268.47455   -9091.6988   -8068.1513   -9091.6988            0    7997.3225     24.93102    24.826096    23.214388    14368.311    9024.6023    8447.6479    6519.7175    33.331469    1285.4837     430.3901   -6392.3358 
 4037000    263.13542    -9055.715   -8052.5228    -9055.715            0    10170.432    25.002072    24.911506    22.962768    14302.113    9843.2904     10015.24    10652.765   -92.061949    199.76859    445.72457   -5931.1573 
 4038000    281.13827   -9093.3025   -8021.4752   -9093.3025            0    9084.9088    25.097518    24.732367    23.026151    14292.816    8573.3298    10149.869    8531.5278    170.11092    93.301107    452.23922   -6127.7617 
 4039000    262.57022    -9084.727   -8083.6896    -9084.727            0    7788.9535    25.031661    24.952186    23.029942    14384.379    7672.3337    7551.2427    8143.2841   -890.13021    385.69901    410.87752   -6449.7119 
 4040000      255.049   -9038.4267   -8066.0636   -9038.4267            0    9635.1986    24.951536    24.954553    22.990466    14315.116     8735.566    10833.357    9336.6722   -142.44839   -907.59744    15.903941   -6054.5108 
 4041000    260.49632   -9090.3897    -8097.259   -9090.3897            0    9022.1671    24.907387    24.965406    23.055353     14336.35    7535.1447    10577.611    8953.7455   -342.76704    605.97246    1476.7556   -6210.8957 
 4042000    271.10493   -9099.6838   -8066.1081   -9099.6838            0    9356.5027    24.890886    24.922246    23.077614    14315.892    8988.3904    9508.1674    9572.9503   -224.46526   -133.03905   0.83377009   -6112.6332 
 4043000    275.38653   -9080.2257   -8030.3266   -9080.2257            0    9765.3649    25.000552    24.963076    22.851806    14261.599    9602.8331    9313.6412     10379.62   -460.39387   -988.75907   -296.46444   -5999.2207 
 4044000    274.49664   -9098.7858   -8052.2794   -9098.7858            0    9474.4496    24.936293    24.972024    22.961217    14298.173     8842.454    10119.525    9461.3698    332.14825   -1114.6774   -689.03386   -6076.6275 
 4045000    260.58111   -9114.0358   -8120.5818   -9114.0358            0    8396.3127    25.038491    24.873037    23.021734    14337.552     7685.689    10318.946    7184.3035   -492.45881    -923.2702    1201.6258   -6364.9255 
 4046000     276.3948   -9056.1294   -8002.3864   -9056.1294            0    9292.0973    25.026522    24.882046    23.044563    14350.105    8635.4426    9851.5007    9389.3487    555.14457   -686.12853   -936.65641   -6057.7218 
 4047000    258.42967    -9043.202   -8057.9502    -9043.202            0    11212.686    24.829949    24.956701    22.983183    14242.071    11917.025    10317.082     11403.95     229.6162    55.095219    1703.7634   -5729.0081 
 4048000    263.85771   -9064.4889    -8058.543   -9064.4889            0    9106.4595    24.918755     25.08056    22.889509    14305.401    9887.4233    8986.5011     8445.454   -65.457247    42.663353    312.10378   -6158.6659 
 4049000    274.76178    -9072.277   -8024.7598    -9072.277            0    8024.8489    24.953805    24.924591    23.150726    14398.904    8396.5692    8915.3704     6762.607   -122.31816   0.96445254   -932.98721   -6339.5957 
 4050000    281.23915   -9083.4406   -8011.2287   -9083.4406            0    9473.5128    24.962903     24.90749    23.004636    14303.437    9401.1101    9026.0831    9993.3451   -240.04516    1211.9776    601.54765   -6035.0449 
 4051000     271.3357   -9074.3158   -8039.8604   -9074.3158            0    9481.4382    25.067308    24.911148    22.926987    14316.881    8242.5011    9058.9238     11142.89    -659.6389   -564.03221    1190.2296   -6060.1643 
 4052000    266.04265   -9068.0094   -8053.7335   -9068.0094            0    9954.4875    25.020809    24.962731      22.8956    14300.311    9085.8098    10355.202    10422.451   -510.83171   -12.158125   -803.64849   -5977.6717 
 4053000    269.25785   -9087.9102   -8061.3765   -9087.9102            0    8538.9916    24.884826    25.042426    23.012531    14340.866    8420.1616    8791.4005    8405.4129   -620.04721    1545.1603     215.0042   -6275.4735 
 4054000    265.21384   -9055.0069   -8043.8908   -9055.0069            0     7882.386    24.944897    24.964615    23.128898    14403.284    7320.4837    9240.4451     7086.229   -506.18429   -770.88307   -617.54542   -6388.1395 
 4055000    269.42738   -9052.4442   -8025.2642   -9052.4442            0    8437.9732    25.006381     25.09824    22.922213    14386.352    7759.1693    8470.3935    9084.3568    218.35969   -722.43331   -419.52873   -6254.8914 
 4056000    265.18284   -9037.1239    -8026.126   -9037.1239            0    8282.5183    24.922788    25.062818    23.021764    14380.206    8442.6294    6765.0392    9639.8863    39.780958    648.37334    965.61143   -6289.1117 
 4057000    264.80357    -9060.304   -8050.7521    -9060.304            0    7922.1167    24.893002    25.194731    22.963918    14402.338    7783.3094    7925.7237     8057.317    209.33321   -339.88966    -390.8016   -6386.7644 
 4058000    259.54254   -9067.9271   -8078.4326   -9067.9271            0     8530.568    24.855022     25.00018    23.143221    14380.735    10154.726    8043.3938    7393.5846   -37.803119   -253.17987   -589.34938   -6289.3314 
 4059000    274.08204   -9088.3658     -8043.44   -9088.3658            0    9663.1981    24.963561    25.038168    22.835226    14272.972     9911.354    9066.5057    10011.735   -475.98888   -122.46096    233.49144   -6031.9811 
 4060000    263.11889   -9098.7112    -8095.582   -9098.7112            0    9765.0145    24.925519    24.952199    22.994949    14301.628    8993.9567    9716.0983    10584.988   -484.82884    942.67469    1234.3847   -6058.8482 
 4061000    264.53804   -9080.6633   -8072.1237   -9080.6633            0    8552.0005    24.895784    24.979758    23.110178    14372.004    8318.2539    8905.0912    8432.6563   -1023.1069   -700.97155   -457.88896   -6279.6164 
 4062000    271.23307   -9086.4717   -8052.4076   -9086.4717            0    7708.7339    24.983401    25.085928    22.966883    14394.076    7472.6078    7775.0848    7878.5089    467.42312   -137.34007    1135.3497   -6434.1683 
 4063000    275.39332   -9033.6914   -7983.7665   -9033.6914            0    9943.9218    24.938535    24.925163    23.075252    14343.508    9358.1063    11501.211    8972.4478   -716.78553   -1188.0439    298.85377   -5903.6436 
 4064000    268.15584   -9057.1792   -8034.8468   -9057.1792            0    8845.4465     24.96802    25.003298    22.945426    14324.436    8631.0821    8792.6836    9112.5737   -67.084453    108.16385   -1064.2721   -6186.9693 
 4065000    259.73761   -9102.4893   -8112.2511   -9102.4893            0    7880.7743    24.964302    25.019436    23.058105    14401.925     7767.796    7993.9141    7880.6128    -400.3525   -237.17665   -73.657855   -6456.9944 
 4066000    282.84572   -9064.9042   -7986.5673   -9064.9042            0    7350.0691     25.00345    25.120822    23.020246    14459.183     7484.349    7543.4524    7022.4057   -339.10753    83.609036    563.16598   -6436.6409 
 4067000    264.21367   -9106.5384   -8099.2354   -9106.5384            0    8209.4902     24.91153    25.026645    23.077791    14387.895    7581.0592     8647.644    8399.7675    172.00273     1106.089    745.18659    -6376.616 
 4068000    272.50605   -9114.7219   -8075.8045   -9114.7219            0    8637.0673    24.699543     25.00004    23.197518    14324.225    10701.328    7989.8277    7220.0457    929.13793    197.23654    929.30017   -6271.4856 
 4069000    269.80034   -9122.1789    -8093.577   -9122.1789            0    8989.9503    24.858216    25.113632    22.937368    14319.341    10053.861    7326.4121    9589.5772   -522.24824    147.31655    -305.6153   -6216.1795 
 4070000    261.83399   -9073.8267   -8075.5961   -9073.8267            0    9491.4687    24.924361    25.064294    22.915004    14315.267    9518.0006    8436.3689    10520.037   -110.62616   -1166.9803   -667.89395   -6094.0292 
 4071000    272.18962   -9082.7229   -8045.0119   -9082.7229            0    9346.0816    24.842913    24.969393    23.081097    14317.492    10343.794    9642.7682    8051.6823    45.445505   -899.31602    231.33312   -6093.4947 
 4072000    266.57683    -9020.634   -8004.3215    -9020.634            0    10282.955    24.863751    25.090019     22.89705    14283.913    11425.629    8567.1018    10856.133    361.78148    687.80371    355.60824   -5862.2153 
 4073000    258.40476   -9113.9241   -8128.7674   -9113.9241            0    9479.9777    24.889042    24.961996    22.967333    14269.148    9745.8379    9086.8553    9607.2398   -147.06512    214.81768    888.60634   -6155.9756 
 4074000    282.46536   -9097.1652   -8020.2784   -9097.1652            0    10430.977    24.686752    24.994513      23.0906     14247.67    11301.767    9603.2225    10387.942   -785.51075   -1605.9502   -404.60495   -5852.8501 
 4075000    270.65242   -9028.6132   -7996.7627   -9028.6132            0    10572.795     24.94004     24.96331    22.916049    14267.211    9865.6532    11344.799    10507.933   -827.47106   -1207.3692    877.01208   -5796.8535 
 4076000     272.4659    -9084.489   -8045.7247    -9084.489            0    10188.319    25.032018    24.889944    22.875951    14252.759    8121.8588    10705.007    11738.092   -777.13209   -649.65637    301.83356   -5927.9616 
 4077000    263.74598   -9093.0572   -8087.5372   -9093.0572            0    10690.361    24.892996    24.955793    22.944427    14253.639    11588.829    9171.0398    11311.214    260.95668   -519.84836    1266.6237   -5865.2815 
 4078000    281.09082   -9076.2063     -8004.56   -9076.2063            0    9591.7544    24.807693    24.978315    23.077777    14300.246    9181.6496    9883.4431    9710.1704    295.33886   -500.45782   -144.26056   -6004.1572 
 4079000     263.4539   -9069.0821   -8064.6757   -9069.0821            0    9212.5192    24.992537    24.960533    22.942464     14312.13    9062.1099     9269.091    9306.3566    1412.3389    407.66186   -574.29994   -6141.7675 
 4080000    270.82022   -9099.1709   -8066.6807   -9099.1709            0    6872.9964    25.095737    25.054105    22.962494    14437.697    5176.6944    8296.8981    7145.3967   -526.58926   -891.26493   -630.60017   -6619.5095 
 4081000    269.60759   -9045.3847   -8017.5176   -9045.3847            0    9280.1027    24.950767    24.875186    23.122266    14350.949    9028.6052    9842.4556    8969.2474    548.10662   -489.56623    815.84217   -6075.2489 
 4082000    263.58781   -9069.3468   -8064.4298   -9069.3468            0    9311.1797    25.005902    25.015892    22.906218    14328.869    10107.724    8640.4493    9185.3655   -140.70216    134.87133   -1513.8026   -6118.6553 
 4083000    268.08051   -9131.2154   -8109.1702   -9131.2154            0     8329.898    24.962341    24.906527    23.043413    14326.671    8641.5139    8250.7862    8097.3941    426.38056    692.31412   -73.958115    -6368.723 
 4084000    277.13853   -9060.8695   -8004.2911   -9060.8695            0    8383.5257    24.969873    24.947278     23.08662    14381.356    8594.0857    8100.4113    8456.0801   -351.57441   -512.24111    788.13656   -6245.9528 
 4085000    260.02199    -9058.298   -8066.9756    -9058.298            0    9400.9012    24.989867    24.972685    22.929349    14309.383    8520.6717    9893.7709    9788.2611   -437.49288   -373.94315     92.44281   -6105.1234 
 4086000    270.74194   -9075.5999   -8043.4082   -9075.5999            0    9162.3229    24.859424    24.979453    23.064732    14322.618    10363.483    8080.8376    9042.6479    370.15007   -517.54844   -133.66626   -6129.5758 
 4087000    269.37937   -9076.6862   -8049.6893   -9076.6862            0    9171.8132    24.880831    24.985699    23.041304    14323.971    10983.149     7617.116    8915.1747   -884.08489   -1432.4656   -743.86707   -6133.6936 
 4088000    278.96797   -9063.3236   -7999.7705   -9063.3236            0    10445.877    24.852501    25.074402    22.907112    14274.833    11233.289    9195.6874    10908.654    348.57606    519.00063   -955.78651   -5825.1082 
 4089000    258.13867   -9085.5078   -8101.3655   -9085.5078            0    10642.344    24.818717     24.98749    22.954968    14235.695    10674.771    10439.508    10812.753   -309.66883    1309.0025    832.64384   -5891.8765 
 4090000    269.06387   -9060.2349   -8034.4407   -9060.2349            0    10384.933    24.874677     25.08367    22.870412    14269.953    9889.4003    9848.8612    11416.539   -421.27095    218.38169     339.9468    -5873.205 
 4091000    257.27115   -9066.7913   -8085.9563   -9066.7913            0    9237.4236    24.852757    25.015819    23.032381    14319.509    8745.5901    10177.612    8789.0693    29.394837   -802.59557   -406.93339   -6156.8557 
 4092000    266.96422   -9063.2238   -8045.4344   -9063.2238            0    10079.799     24.80262    25.101442    22.926073     14273.35    11362.007    8301.7639    10575.627   -648.24867   -187.83151   -903.16001   -5947.2016 
 4093000    278.03173   -9098.2486   -8038.2648   -9098.2486            0    9609.6242    24.829174    25.029052     23.04982    14324.326    11372.602    7830.9073    9625.3633   -20.168556    -884.7606    285.45323   -6030.7605 
 4094000    266.76235   -9076.5167    -8059.497   -9076.5167            0     9420.559    24.856967    25.116636    22.913929    14305.701    9096.1291    9189.4137    9976.1341    87.271051    320.40682    1125.7141   -6094.0483 
 4095000    263.44814    -9129.801   -8125.4165    -9129.801            0    9724.4177    24.850034    24.974816    23.012162    14281.924    10046.347    10662.647    8464.2596   -252.83912   -1460.3618   -1206.4723   -6099.9447 
 4096000    274.40732   -9101.5807   -8055.4148   -9101.5807            0    8775.2152     24.83594     25.10115    22.945631    14304.551    8396.6862    7818.2527    10110.707    63.645887   -1870.9235    2106.5041    -6224.754 
 4097000    278.69494   -9104.7714   -8042.2591   -9104.7714            0    7636.6716    24.957003    25.055669    22.972966    14365.327    6983.3197     7385.972     8540.723   -70.725777    -776.6306    376.06133   -6442.3493 
 4098000    256.38276   -9102.3296   -8124.8816   -9102.3296            0    8250.2796    24.869078    25.096672    22.977863    14341.199    8318.8436     8509.772    7922.2232    936.53016    176.45206   -1099.3531   -6399.3219 
 4099000    266.37154    -9045.942   -8030.4122    -9045.942            0    8412.4065    24.955302    25.109822    22.947575    14379.483    8996.2051    7769.5029    8471.5116    203.75396    662.81764    397.68535   -6266.2464 
 4100000    255.68358   -9060.2769   -8085.4945   -9060.2769            0    9316.3469    24.865027    24.943708    23.068299    14307.558    9080.4223    9257.6465    9610.9719    843.05688   -458.30765   -451.25186   -6141.5357 
 4101000    265.10234   -9069.4625   -8058.7715   -9069.4625            0    9691.9748    24.896725    24.936203    23.038207    14302.805    8766.3781     10119.63    10189.916    25.399182   -629.29392    1502.0554   -6037.1055 
 4102000       275.26   -9069.0695   -8019.6529   -9069.0695            0    8756.4497    25.018203    25.046726    22.932153    14369.839    7994.9195     9723.821    8550.6085   -75.497561    55.756822    172.05907   -6184.5693 
 4103000    275.06056    -9086.689   -8038.0327    -9086.689            0    9270.0231    24.940248      24.8593     23.12104    14334.977    9006.7411    10176.792     8626.536   -409.02583     777.4483    -1094.997    -6100.033 
 4104000    270.15857   -9094.4499   -8064.4822   -9094.4499            0     7830.701    25.005396    25.063037    22.911459    14358.867    8303.8003    6600.5952    8587.7075    647.76682   -453.15417    715.87915   -6424.6602 
 4105000    268.41121    -9056.613    -8033.307    -9056.613            0    8982.0906    24.926296    25.002393    23.013989     14342.71    8987.0197      8821.48     9137.772    138.75121   -824.31753    181.35188   -6154.4898 
 4106000    265.57522   -9085.9333   -8073.4394   -9085.9333            0    10151.336    24.765545    24.946415    23.096444     14269.25    10091.356    10834.574    9528.0794   -263.36781   -12.864543    126.87414   -5960.9221 
 4107000    271.00223   -9076.4954   -8043.3113   -9076.4954            0    9758.2989     24.90911     25.12635     22.84762    14299.754    9375.3253     9359.351     10540.22   -26.650826   -279.97985    471.01117   -6008.2449 
 4108000    269.30149   -9073.0061    -8046.306   -9073.0061            0    8698.7858    24.862532    25.036291     23.03605    14339.149    9752.7654    8718.5399    7625.0521   -407.22265    -408.4572   -572.85848   -6227.2005 
 4109000    266.10535    -9081.676   -8067.1611    -9081.676            0      7876.25    24.781266    25.163279    23.043229    14369.248    9485.2517    6894.0212    7249.4772    1024.3986   -273.64997   -28.111076   -6416.6082 
 4110000    268.28708   -9106.5357    -8083.703   -9106.5357            0    8155.5839    24.868523    25.059032    23.046085    14361.885    8930.5981    7763.4884    7772.6651    6.8456932    -720.8208     1900.848   -6375.4886 
 4111000    269.65916   -9082.7269   -8054.6632   -9082.7269            0    7902.5955    24.957889    25.158058     22.97014    14422.768    7638.3973    7135.6006    8933.7887    550.92703    239.45562    2002.1247   -6392.4211 
 4112000    263.96617   -9055.7571   -8049.3977   -9055.7571            0    8362.4551    24.963312    25.082649    22.990125    14395.175    9881.7458     6177.715    9027.9043    3.6752135    64.330719    1535.5514   -6293.7933 
 4113000    271.69532   -9096.3529   -8060.5264   -9096.3529            0    7526.5063    24.925983    25.079542    23.046901    14407.361    7733.3127    7467.0634    7379.1427   -659.65059   -340.58703    561.87202   -6479.0827 
 4114000    279.21207    -9056.326   -7991.8422    -9056.326            0    7137.5424    24.992143     25.14657    22.947084    14421.478    8523.7645    5894.8288    6994.0339   -799.15636    -88.62933    436.75931   -6490.6568 
 4115000    278.16815   -9064.6325   -8004.1286   -9064.6325            0    9351.8133    24.889604    25.045014    23.028498    14355.056    9526.6568    9663.9336    8864.8495   -312.36941   -259.73205    91.687391   -6046.2913 
 4116000    259.02563   -9068.8761   -8081.3522   -9068.8761            0    9650.1935    24.946774    24.897451    23.044341    14313.095    9925.1075    9597.7505    9427.7224     123.6335   -834.35375    465.96103   -6066.9533 
 4117000    267.73274   -9134.8222   -8114.1029   -9134.8222            0    8641.6738    24.986326    24.979894    22.961212    14331.373     9351.804    6844.7221    9728.4952   -577.50989    36.882387    266.76721   -6307.9206 
 4118000     262.5047   -9110.5234   -8109.7357   -9110.5234            0    8931.3604    24.931655    24.997945    22.970358    14316.048    8808.2618    9213.4347    8772.3846    359.46504    73.432083    199.99035   -6245.0027 
 4119000     271.6914   -9075.1124   -8039.3008   -9075.1124            0    10949.888    24.981199    24.769873    23.029664    14250.321    9162.1841    12889.987    10797.493   -29.205681   -949.26851    -993.4239   -5763.6259 
 4120000    260.58839   -9056.7176   -8063.2358   -9056.7176            0    9286.9191    24.981407    24.955848    22.967686    14318.795    9459.6356     8693.021    9708.1007    -694.9534    1101.9315   -284.80536   -6123.8955 
 4121000    274.31865    -9099.875   -8054.0472    -9099.875            0    9490.1682    25.046703    24.883147    22.954684    14306.296    8879.3571    10203.176    9387.9721    740.31685   -587.01806    900.32484   -6073.9934 
 4122000    263.38962   -9025.8813     -8021.72   -9025.8813            0    9669.5138    25.024091    24.910442    23.008717    14342.741    8263.2979    10439.247    10305.997   -359.42714    2073.8809    38.115172   -5999.1075 
 4123000    261.54943   -9089.5996   -8092.4539   -9089.5996            0    8408.2771    24.874113    24.930881    23.168001    14367.255    9310.2542    8169.4937    7745.0835    254.65201   -335.76636   -415.70134   -6330.6535 
 4124000    277.01749   -9068.6347   -8012.5177   -9068.6347            0    10199.978    25.031796    25.037597    22.796827    14287.593    8988.1809    9131.1908    12480.563    625.78878   -1588.0959    401.30585   -5887.1493 
 4125000    272.17173   -9043.1221   -8005.4793   -9043.1221            0    8937.2766    24.904662    24.997999    23.019872    14331.406    8798.9373    9520.4475    8492.4451    33.592599   -1424.0168   -924.85578   -6137.5093 
 4126000    269.24961   -9089.2681   -8062.7658   -9089.2681            0    9080.8366    24.802803    25.003475    23.068958    14306.359    10282.879    8634.8489     8324.782    1151.0402   -180.04745    753.13644   -6168.1076 
 4127000    272.89883   -9063.4126   -8022.9978   -9063.4126            0     9854.236    25.010252    25.031141    22.808732    14279.068    9849.6648    8635.7706    11077.273   -300.06085    215.83373    212.74883    -5970.897 
 4128000    272.53465   -9106.5958   -8067.5695   -9106.5958            0    8590.3579    24.862205    24.900115    23.130261    14319.291    8651.6968    9872.7661    7246.6108    597.91494    104.24964   -410.62741   -6273.6263 
 4129000     275.9878   -9086.3167   -8034.1254   -9086.3167            0    9285.2641    24.898671    25.010166    22.985457    14313.502    9839.5586    8762.5849    9253.6488   -488.55499   -202.08469    107.24271   -6095.8474 
 4130000    261.36166   -9092.7335   -8096.3036   -9092.7335            0     8878.293    24.936654    25.034897    22.936324    14318.839     8211.364    9550.0365    8873.4784    193.89871     847.9823    445.72999    -6242.289 
 4131000      258.029   -9079.6613   -8095.9371   -9079.6613            0    10017.027    24.815748    24.972686    23.053634    14286.703    9953.0715    9826.1301    10271.879   -340.26598   -1181.4814   -871.21447   -6008.8203 
 4132000    263.53315   -9061.6223   -8056.9138   -9061.6223            0    7519.1337    24.958517    25.109812    22.985931    14405.367    8352.4514    7225.4055    6979.5442     262.5773    558.97799   -773.69337   -6477.2377 
 4133000    268.67588   -9093.8568   -8069.5418   -9093.8568            0    6890.0133    24.905936    25.110073     23.03232     14404.18    6892.6775      6248.17    7529.1924   -285.37591   -517.63617    201.03913   -6622.1555 
 4134000    264.81202   -9111.4692    -8101.885   -9111.4692            0    7529.1989    24.908654    25.030291    23.078079     14388.51    7899.7833     7266.699    7421.1145   -357.79492   -246.17646    213.45466   -6521.9454 
 4135000    264.39414   -9117.1121   -8109.1211   -9117.1121            0    9397.7321    24.749165    25.086999    23.027142    14297.145    10705.141    9566.8788    7921.1767   -829.56694   -883.60973    753.30117   -6149.6075 
 4136000    271.61785   -9082.1932   -8046.6621   -9082.1932            0    8003.3984    24.959139    24.943408    23.077377     14367.19    7228.8435    9114.5862    7666.7655   -714.16968   -562.19671    1251.7784   -6369.7042 
 4137000    262.54433   -9080.5207   -8079.5819   -9080.5207            0     8166.837     24.99577    24.918409    23.051689    14357.856    7097.4188     9187.752    8215.3401   -513.08444    811.64035    537.86349   -6369.4904 
 4138000    265.99109   -9073.0639   -8058.9845   -9073.0639            0    8306.9762    24.959526     24.87589    23.177601    14390.751    8341.3049    9413.2168     7166.407     1880.921   -66.980057     857.7694   -6315.5633 
 4139000    262.85773   -9095.7423   -8093.6088   -9095.7423            0    8712.9846    25.028996    24.985089    22.924244    14335.714    8050.2881    8872.0613    9216.6045    478.51346    -274.5092    517.34235   -6271.9704 
 4140000    269.54107    -9078.871   -8051.2575    -9078.871            0    8295.7323    25.002287    24.923757    23.073997    14378.583     7105.503    9656.5614    8125.1324    122.97646   -451.77084    842.47861   -6311.6683 
 4141000    263.37623   -9094.6228   -8090.5125   -9094.6228            0    8423.7236    25.011553    24.831782    23.107235    14351.474    8309.3933    8646.1018    8315.6758    345.91103    1587.9825   -297.40395   -6327.4142 
 4142000    270.60495   -9125.4117   -8093.7422   -9125.4117            0    8469.9704    25.150815    24.860123    22.907113    14322.726    7375.3701    8977.6984    9056.8425   -690.30863   -481.53397   -236.22969   -6324.5156 
 4143000    269.79941   -9089.6355    -8061.037   -9089.6355            0    7540.9523    25.063968    24.931256    23.053856    14405.806    6757.2528    8244.3382    7621.2658   -827.88817   -104.34125    86.049963   -6476.7289 
 4144000    267.90153   -9089.6721   -8068.3093   -9089.6721            0    8538.9984     24.95382    25.018397    22.976118    14344.096     8265.282     8217.944    9133.7693    -696.4569     936.5458   -828.94787   -6282.0027 
 4145000    276.47285   -9048.9991   -7994.9585   -9048.9991            0    9997.9264    24.918001    24.960125    23.024021    14319.938    9791.8376    9328.9112     10873.03     -663.058   -665.61386     58.07548   -5906.9756 
 4146000    263.31503    -9062.155    -8058.278    -9062.155            0    9581.9342    24.815949    24.987615    23.095956    14321.603    11441.887    8509.5491    8794.3661    171.76003    280.34755     639.0187   -6056.9388 
 4147000    262.24843   -9069.8681   -8070.0575   -9069.8681            0    10201.796      24.9179    25.012375    22.948324    14302.677    9817.6305    9129.8604    11657.896   -770.76253    143.51461    1020.6385   -5942.0663 
 4148000    267.37666   -9113.5386   -8094.1769   -9113.5386            0    10192.684    24.763611    25.063704    22.987213    14267.423    11410.876    9185.0476    9982.1279    30.465306    173.57011    177.50987   -5973.3267 
 4149000     264.8378   -9059.8094   -8050.1269   -9059.8094            0    8525.4191    24.867454    25.079032    23.038883    14368.238    8889.0197    8466.1879    8221.0498    174.02023    220.38766   -242.04545   -6263.6593 
 4150000    262.65927   -9077.4448   -8076.0679   -9077.4448            0    9344.0874    24.795324    25.258438    22.847056    14308.909    9904.7197    7037.3972    11090.145    535.23052   -207.07473   -201.22441   -6126.1366 
 4151000    268.56537   -9065.7629   -8041.8692   -9065.7629            0    9992.1148    24.838612    24.991893    23.023316    14292.044    10010.366     9296.716    10669.262    247.68914   -743.10444    243.88715   -5959.1648 
 4152000    257.56583   -9066.1649   -8084.2065   -9066.1649            0    8241.6195    24.976578     25.09004    22.918029    14361.889    9853.1592    7124.8868    7746.8126   -8.1822184    753.33751   -157.58333   -6357.9711 
 4153000    268.81738   -9073.8113   -8048.9569   -9073.8113            0    7744.4511    24.951914    25.035794     23.07207    14412.913    7556.5147    8459.3515    7217.4872    56.057775    177.19618   -279.93004   -6421.0922 
 4154000    260.35965   -9090.8986   -8098.2889   -9090.8986            0    8057.7105    24.944853     25.10071    22.932826    14359.011    8971.9408    7432.0755    7769.1153    1191.0402   -508.36511   -47.469465   -6410.9121 
 4155000    263.43428   -9069.7151   -8065.3835   -9069.7151            0    8491.2251    24.872581    24.970701    23.088684    14340.054    9755.7262    7586.0296    8131.9195     26.81318    657.55231    616.80131   -6289.5714 
 4156000    261.38472   -9145.6532   -8149.1355   -9145.6532            0    9690.0756    24.961308    25.062546    22.782904    14252.847    9241.3269     8111.763    11717.137   -655.76865   -457.43696    801.02415   -6134.9259 
 4157000    272.14856   -9111.0201   -8073.4657   -9111.0201            0    8531.1333    24.891129    24.962439    23.079704    14340.419    8617.7958    8785.7598    8189.8443   -401.54509     217.4828    2422.0018   -6289.2619 
 4158000      269.363   -9075.9802   -8049.0456   -9075.9802            0    8007.3887    24.963686    25.039565     23.00357    14379.068    8298.7045    7822.1025    7901.3592   -801.65105   -752.60854   -607.74562   -6369.8646 
 4159000    273.52274   -9074.4126   -8031.6192   -9074.4126            0    8904.2765    24.976282    24.936932    23.001314    14325.951    9127.3154    9977.2146    7608.2996    214.59941     243.2224    1259.5859   -6171.2549 
 4160000    259.32642    -9054.326   -8065.6554    -9054.326            0    9195.9681    25.032603    24.828779    23.075642     14342.18    9127.3742    9725.9505    8734.5795   -67.669629   -82.050272   -1311.4318   -6142.1717 
 4161000    263.14137   -9106.4379    -8103.223   -9106.4379            0     10755.61    24.947077    24.769928    23.000007    14212.563    9749.9304    12398.041     10118.86   -931.51632   -198.24207    1143.0661   -5873.8469 
 4162000    267.96318   -9081.3057   -8059.7078   -9081.3057            0    9113.9094    24.957505    24.947581     23.03386    14341.558    8525.2466    9102.2187     9714.263   -124.50959   -365.36734   -15.731714   -6153.4707 
 4163000    267.44921   -9062.6038   -8042.9654   -9062.6038            0    9395.4048     25.13694    24.856307    22.939864    14333.091    7967.5987    9738.9706    10479.645   -495.92684   -357.99458    657.22352   -6079.0118 
 4164000    272.20664   -9124.0396   -8086.2638   -9124.0396            0    8597.6924    24.980306    24.993577    22.920894    14310.596    8534.8684    7830.3206    9427.8881    108.40406    242.63435   -4.8720618   -6291.8793 
 4165000    267.63733   -9073.9743   -8053.6188   -9073.9743            0    9668.4387    24.792746    24.879526    23.204684    14313.386    10484.089    10283.277    8237.9503    254.26916    424.79275     33.28948   -6035.3703 
 4166000    267.49643   -9035.5699   -8015.7515   -9035.5699            0    9329.3667    24.958342    25.043761    22.938522    14337.741    8928.6316    10082.593    8976.8753    63.483157   -868.36557   -85.914765   -6064.9693 
 4167000    260.09189   -9117.6071   -8126.0182   -9117.6071            0    7463.2226    25.064114    25.098459    22.864486    14383.377    8152.7098    6252.5063    7984.4518    269.58425   -1270.2549    1024.1187   -6560.4819 
 4168000    277.48193   -9063.0613   -8005.1736   -9063.0613            0     8748.738    24.887504    24.985882    23.089099    14357.638     9444.253    8688.4525    8113.5083   -368.38654    213.18489    1023.3455   -6173.2629 
 4169000    266.48716   -9079.3498   -8063.3792   -9079.3498            0    8187.4699    24.959113    25.066962    22.982643    14379.071    8198.7083    7895.7764    8467.9252   -1266.9167   -1077.8288   -302.97274    -6346.434 
 4170000    264.11913   -9069.7568   -8062.8142   -9069.7568            0    9925.3924    24.919552    25.088403    22.855668    14289.175    9527.4215    9185.4017    11063.354    286.09163    41.728514    88.321798   -5994.4322 
 4171000    267.51364   -9081.0278   -8061.1438   -9081.0278            0    10006.898    24.827324    24.908358    23.135594    14307.233     9764.758    10696.004    9559.9326    635.34832   -138.98199   -583.24419   -5973.1412 
 4172000    263.00216   -9069.2173   -8066.5332   -9069.2173            0    10198.016    24.898722    24.993589    22.946776    14279.972    10497.711    9481.1239    10615.212    152.11874    97.014034    842.06547   -5942.7073 
 4173000    267.32499   -9072.0033   -8052.8385   -9072.0033            0    9418.6257    24.952588    25.032345    22.905682    14307.388    9415.9506    8224.5373    10615.389   -599.84344     73.91691   -524.83943   -6087.5615 
 4174000    266.50078   -9111.6917   -8095.6693   -9111.6917            0     8895.472    24.995235    24.884883    23.029366    14324.346    8395.0686    9766.3713    8524.9761    170.63999   -446.99502    243.49231   -6237.3527 
 4175000    269.49309   -9096.2257   -8068.7951   -9096.2257            0    8289.5073    25.004949    24.940573    22.984835    14334.211    7659.0851    9317.4217    7892.0151    -265.5763   -12.212105    709.81899   -6335.8756 
 4176000    270.74621   -9122.4126   -8090.2046   -9122.4126            0      9824.78    24.928093    24.848304    23.037469    14269.888    10578.223    9000.7024    9895.4148     549.5991     -554.987   -1075.9137   -6045.5531 
 4177000    267.61393   -9073.6747   -8053.4083   -9073.6747            0    9352.8818    24.985816    24.984055    22.940529    14320.557    8880.1548    8485.6773    10692.813    -506.8882   -1480.2001    831.23636   -6100.0531 
 4178000     256.8923   -9049.0542   -8069.6636   -9049.0542            0    8734.5563    24.938418    24.946298    23.073187    14354.319     8636.404    8688.4382    8878.8267   -680.04083   -202.08529    141.37441   -6241.1452 
 4179000    257.54656   -9054.9947   -8073.1098   -9054.9947            0    8654.0787    25.027787    24.945769    22.998167    14358.616    8031.6081    8625.4698    9305.1582   -70.776751    260.51035    386.81498   -6260.8965 
 4180000    265.98156   -9094.3964   -8080.3534   -9094.3964            0    8554.5356    25.105643    24.907845    22.966526      14361.6    8062.4341    8138.2465    9462.9263   -287.98152   -186.08424    456.91117   -6288.6128 
 4181000     264.6021   -9061.9875   -8053.2036   -9061.9875            0    9204.7294    24.976584    24.922238    22.976699     14302.36    9218.1914    9674.7093    8721.2876     997.5524   -417.37817    995.66039   -6133.2328 
 4182000    273.27952   -9055.2253   -8013.3591   -9055.2253            0    9162.2218    24.977004    24.820096    23.129183    14338.512    8488.6029    11373.815    7624.2481    52.723687    759.49519    1721.6669   -6097.4241 
 4183000    259.97469   -9052.9172   -8061.7752   -9052.9172            0    9204.9601    24.975015    24.929786    23.068568    14362.993     8121.964    9600.8072    9892.1089   -19.970065   -471.83137    177.90272   -6133.6166 
 4184000    264.20116   -9060.3436   -8053.0883   -9060.3436            0    8658.4812    25.098615    25.003765    22.875274    14355.603    8096.0534    8881.7666    8997.6235    40.004658   -618.26964   -488.76416   -6240.3335 
 4185000    273.97003   -9039.4143   -7994.9156   -9039.4143            0    9801.6187    25.011382    24.885887    22.979687    14303.257    10454.929     8927.584    10022.343    53.233055    528.54485   -571.15369   -5950.3143 
 4186000      272.687   -9050.9552    -8011.348   -9050.9552            0    8448.7212     24.99393    24.904479    23.123696    14393.595      8448.67    9365.5849    7531.9085    89.299482   -213.45333    900.80064   -6237.8278 
 4187000    263.10418   -9124.0853   -8121.0122   -9124.0853            0    8181.1766    25.030415    25.007255       22.923    14348.468      8365.92     7022.607    9155.0028    97.557276   -602.79505    488.96615   -6409.0381 
 4188000    277.09396   -9066.2386   -8009.8301   -9066.2386            0    10334.104    24.933925    24.824946    23.036923    14259.472    9314.1474    11526.946    10161.217   -648.71202   -328.73917   -384.57668   -5860.7523 
 4189000    261.29919   -9115.0434   -8118.8518   -9115.0434            0    9378.2062    24.953249    24.895943     22.96829    14268.698    9272.6376    10649.273    8212.7082   -257.46381    257.82389    434.72166   -6167.3003 
 4190000    271.71781   -9046.1823   -8010.2701   -9046.1823            0    9497.8316     25.01674    25.058632     22.86846    14335.901    9208.3638    9069.6512     10215.48    470.35822    336.11965    504.20735   -6024.5165 
 4191000    262.41876   -9059.7661   -8059.3061   -9059.7661            0    8794.0032    24.944262    25.004893    23.058365    14382.162    9500.7204    7698.0738    9183.2153    239.10801   -256.41865    814.85398   -6214.7721 
 4192000    267.96511   -9062.6682    -8041.063   -9062.6682            0      8290.38    24.931613    25.024062    23.052738    14382.378     9228.207    7243.7816    8399.1514   -338.60536    476.41699    6.1733596   -6302.1373 
 4193000    261.62939   -9062.2971   -8064.8465   -9062.2971            0    8237.1216     24.96414    25.045189    23.018501    14391.894    9008.5615     8392.614    7310.1895    185.19874    1186.9119   -1030.3531   -6335.9486 
 4194000    269.81104   -9099.5765   -8070.9338   -9099.5765            0    7435.4585    25.019477    24.891401    23.131431    14405.557    7010.6655    7741.7925    7553.9174    -252.3089   -1216.2128    866.95181   -6508.8162 
 4195000    267.48995   -9084.9002   -8065.1065   -9084.9002            0    8377.1962    25.047737    24.985371    22.927665    14348.751    7710.3112     9475.326    7945.9515    628.67124    683.83371     704.5173   -6312.0792 
 4196000    266.92613    -9053.691   -8036.0469    -9053.691            0    9141.8833    24.865059    25.038167    23.053445     14352.51    9908.2956    8464.2718    9053.0824    714.11311   -730.33646    92.633732   -6122.4985 
 4197000    270.13399   -9092.7468   -8062.8728   -9092.7468            0    8358.5228     24.84723    24.981943    23.177804    14387.207     9647.294    8323.3411    7104.9334    -591.6615   -500.75909   -624.20148   -6309.0654 
 4198000    277.28477   -9090.0223   -8032.8863   -9090.0223            0    8478.2529    25.127985    25.029174    22.792668    14335.054    6137.8149    8362.5335     10934.41   -22.518915   -386.82514   -185.16758   -6260.4053 
 4199000    268.09268   -9039.6515     -8017.56   -9039.6515            0    9704.0094    25.054055    24.889208    22.988268    14334.923    10207.641    9177.1592    9727.2276    -446.6775   -590.11187    312.43866   -5988.8384 
 4200000    275.74191   -9098.9857   -8047.7318   -9098.9857            0    10150.423      24.9053    24.848513     23.06952    14276.796    10095.923    10553.363     9801.983    533.32937   -129.78217   -869.47471   -5934.2876 
 4201000    274.80871   -9054.9675   -8007.2714   -9054.9675            0    10758.039     24.94128    24.943294    22.903377    14248.596     11514.15    10028.859    10731.106    193.13605    -179.3403   -275.40363   -5771.7385 
 4202000    260.92434   -9067.1581   -8072.3955   -9067.1581            0    10036.209    24.887567     24.93706    23.009976    14280.514    9641.9191    10707.277    9759.4298   -747.55261    564.61018    345.47917   -5982.1879 
 4203000    270.12944   -9130.2939   -8100.4373   -9130.2939            0    10209.738    24.774259    25.077668    22.901559    14228.295    11356.606    9554.3274    9718.2799   -66.981685   -336.89552     106.4256   -5981.8646 
 4204000    265.43489   -9042.2377   -8030.2788   -9042.2377            0    8950.1254    24.922448    24.991165    23.048869    14355.781    8717.6632    9694.6067    8438.1065      343.606     426.4979    857.75492   -6156.4417 
 4205000    262.94409   -9097.8665   -8095.4037   -9097.8665            0    8244.5099     24.90083    25.029619    23.016436    14345.184    9321.6295    6800.2682     8611.632   -90.675151    858.32351   -159.00377   -6370.5715 
 4206000     257.1279    -9127.921   -8147.6322    -9127.921            0    8524.2126    25.003082    24.961839    22.990964    14349.187    7657.7846    8554.5948    9360.2584    388.98428     179.9883    467.12425   -6363.7858 
 4207000    268.33551   -9073.8293    -8050.812   -9073.8293            0    9044.7202    24.964572    24.874217    23.080887    14332.635    8830.0355    10245.048    8059.0768   -284.95015   -149.00031   -373.02736   -6160.2232 
 4208000    260.74808   -9053.5852   -8059.4946   -9053.5852            0    8942.0099    25.020018    24.968892    22.974589    14352.734    7895.9346    10516.814    8413.2815    105.63657   -93.137455    125.15324   -6187.7539 
 4209000    269.11212   -9045.4603   -8019.4821   -9045.4603            0    8334.6584    25.012586    24.933545    23.089322    14399.711     7723.671    10084.105    7196.1996    40.331414    271.03399   -167.89149    -6269.162 
 4210000    276.63736   -9099.4283   -8044.7605   -9099.4283            0    8817.5451    25.063084    24.976894    22.891426    14329.986    7540.0503    9201.0521    9711.5329   -626.01465   -548.84088    577.44141    -6201.998 
 4211000    271.11421   -9079.2162   -8045.6052   -9079.2162            0    8293.2915    25.022919    24.962122    23.047568    14396.091    6936.4747    9769.9271    8173.4725   -371.79632    118.38782    649.55894   -6304.4102 
 4212000    265.96245   -9093.0272    -8079.057   -9093.0272            0    8478.5331     24.98993    24.939136    23.078454    14383.122    8624.4441    9427.8649    7383.2904    523.01817   -375.31759    441.62056   -6300.5738 
 4213000    271.31565   -9108.6182   -8074.2392   -9108.6182            0     8928.356    25.038098    24.875758    23.011472    14332.503    8586.2106    9762.2279    8436.6293    1464.7568   -629.22387    2095.8411   -6207.9909 
 4214000    265.44221   -9046.2977    -8034.311   -9046.2977            0    10166.187    25.126059    24.904644    22.861238    14305.547    7377.5294    11827.205    11293.827   -612.77543   -235.00612    671.41244   -5913.3218 
 4215000     270.2327   -9108.0309   -8077.7806   -9108.0309            0    8392.9971    24.908617    24.859598     23.14166    14329.737    8674.7755    9261.6122    7242.6035    -138.4096   -46.804197    242.31187   -6323.7741 
 4216000    257.39995   -9079.5321   -8098.2061   -9079.5321            0    8871.2065    24.968675    24.985629    23.036477    14371.491    8926.5734    8545.7349    9141.3111    533.19805    717.43035    -801.9501   -6238.8592 
 4217000    272.50063   -9078.5815   -8039.6848   -9078.5815            0     8936.177    25.081047    25.019448    22.841015    14333.056     7834.965    9300.4829     9673.083   -76.241137    973.95863    1438.7502   -6171.7297 
 4218000    265.57615   -9063.6146   -8051.1172   -9063.6146            0    9473.1534    24.970099    24.937391    23.001854    14323.004    9878.2144    9619.9443    8921.3016    773.69028   -253.34269   -286.14003   -6072.3051 
 4219000    268.38468   -9112.2977   -8089.0929   -9112.2977            0    9057.0288    25.100424    24.767271     22.99526     14295.44    8282.1478    11083.435    7805.5035   -164.05075   -644.64537   -937.34229   -6200.8444 
 4220000    265.49814   -9076.9212   -8064.7212   -9076.9212            0      9472.02     25.00997    24.961355    22.947031    14325.436     9900.398    8813.2364    9702.4258    540.07548    657.36127   -604.26828   -6085.8099 
 4221000     262.5475   -9050.6502   -8049.6994   -9050.6502            0    9277.4935    24.861551    25.072911    22.956595    14310.027    8763.1541    9221.8846    9847.4418   -501.60434    2078.3717    518.38319   -6113.5137 
 4222000    269.87873   -9103.8149   -8074.9141   -9103.8149            0    10350.371     24.79071    24.928572    23.071505    14258.121     10592.54    10163.825    10294.749   -1193.1631    -282.3698    983.18424   -5922.6572 
 4223000    263.71396   -9062.7074   -8057.3095   -9062.7074            0     9902.911    24.878717    25.144251     22.86698    14304.593    8929.2664    9522.3627    11257.104    888.77521    130.43986    197.22802   -5991.3859 
 4224000     273.0554   -9024.1778    -7983.166   -9024.1778            0    9851.6601    24.909405    25.024194    22.907599    14279.171    10611.814    9989.0872     8954.079   -1037.7695   -759.49605   -1050.1713   -5931.5867 
 4225000    268.76218   -9087.0514   -8062.4074   -9087.0514            0    9516.1375    24.774846    24.961004    23.123692    14299.807    10066.597    9267.1326    9214.6832   -318.76535   -1302.4452   -163.14179   -6077.8358 
 4226000    266.32842   -9074.7254     -8059.36   -9074.7254            0    9639.7675    24.935051    25.049884    22.888606    14296.684     10765.61    7341.6997    10811.993    118.80109    89.218771    48.888311   -6049.4446 
 4227000    269.59407   -9055.4294   -8027.6138   -9055.4294            0    7673.7898    24.916739    25.067976    23.054934    14400.393    8422.6599    7699.8503    6898.8593   -1669.7652   -831.14452   -1264.1096   -6416.0032 
 4228000    271.10466   -9068.8585   -8035.2839   -9068.8585            0    7525.6715    24.856598    25.162171    23.025935    14401.478    8845.7386    6685.9229    7045.3529   -595.28398   -330.68806     1152.265   -6454.6612 
 4229000    265.57847   -9077.7112    -8065.205   -9077.7112            0    9463.6802    24.899516    25.051053    22.940142    14309.122    9535.1851    9077.2813    9778.5743   -614.19268    89.961993     730.1095   -6090.2876 
 4230000    268.80579   -9061.0727   -8036.2624   -9061.0727            0    9523.7731    24.815671    25.012347    23.051977     14308.32    10591.631    8540.0253    9439.6629    684.72522    250.93683      6.78804   -6048.9161 
 4231000    269.51216   -9049.7314   -8022.2281   -9049.7314            0    8442.2822    24.851772    25.219572    22.924564    14367.995    9956.5397    6687.9342    8682.3728    23.304848    722.28587    465.32211   -6253.2115 
 4232000    270.64985    -9070.652   -8038.8113    -9070.652            0    9013.8026    24.875849    24.994725    23.031837    14320.391    8871.5267    9098.4848    9071.3963    532.21325   -1416.4988    417.97174   -6156.2948 
 4233000    277.01059   -9071.7266   -8015.6359   -9071.7266            0    9361.8935    24.821379    25.061779    22.989995    14301.338    10393.317    9036.9746    8655.3888    838.02066    422.53486    68.157623   -6063.0225 
 4234000    266.83339   -9060.7118   -8043.4212   -9060.7118            0    6983.9769    24.989491    25.068945    23.023707    14423.435    7547.9418     6192.234    7211.7549    775.32121    838.62767    96.396061   -6574.3347 
 4235000    256.11467   -9062.5777   -8086.1518   -9062.5777            0    9128.4294    24.963711    24.951346    22.988561    14319.073    8219.6724    9150.9413    10014.675   -959.63498   -916.30283    36.619197    -6179.871 
 4236000    269.86941    -9066.438   -8037.5727    -9066.438            0    9639.4068    25.016711    24.918054    22.925061    14290.743    8441.1288     10217.59    10259.501    38.336294   -769.57512    -854.3396   -6028.5677 
 4237000    264.54612   -9088.8253   -8080.2549   -9088.8253            0    9508.2836    24.977057    24.801893    23.076644     14295.48    8146.1518    11627.409    8751.2898    120.64966   -526.73998   -790.00329   -6097.9212 
 4238000    282.13638   -9066.9236    -7991.291   -9066.9236            0    7998.2571    24.997991    25.007398    22.991123    14372.549    8237.6738    7607.2886     8149.809    -20.98358   -1360.6285    -197.2062   -6314.7853 
 4239000    269.01988   -9075.3177   -8049.6913   -9075.3177            0    7865.2756    25.020598    25.111287    22.916361    14398.337    6944.8841     6843.234    9807.7086    -475.7405    370.14481   -68.213854   -6398.1016 
 4240000    275.24215   -9061.7379   -8012.3893   -9061.7379            0    8811.3649    24.876515    24.936632    23.152787    14362.519    9163.2746    8879.4417    8391.3783    411.58181   -1102.4926   -1086.8491   -6166.7379 
 4241000    267.23249   -9054.8657   -8036.0535   -9054.8657            0     8390.587    24.925902    25.096426    22.965099    14365.842    9077.0696    7241.5767    8853.1149    670.01694   -688.70391   -501.36451   -6278.1327 
 4242000    270.59528    -9064.139   -8032.5063    -9064.139            0    7928.7929    24.902923    25.118847    22.977619    14373.252    9691.1472    6647.2237    7448.0079   -543.67334   -291.13988    848.97552   -6370.4796 
 4243000     264.8296   -9070.2354   -8060.5842   -9070.2354            0     8532.378    24.863206    25.022514    23.056961    14344.656    10143.208    8290.8945    7163.0317   -167.35665    941.98401   -489.41205   -6275.5929 
 4244000    266.05145   -9107.0295     -8092.72   -9107.0295            0    7378.5999    24.924835    25.076364    23.061261    14413.847    7536.6201    6330.3251    8268.8545   -646.57085   -1430.8218    320.31929   -6541.6559 
 4245000    272.22437   -9084.0507   -8046.2073   -9084.0507            0     8561.948    24.991676    25.133487    22.887044    14375.993    8182.5561    7501.6053    10001.683    761.54663   -35.900969    558.19587   -6251.1169 
 4246000     270.4492    -9103.454   -8072.3783    -9103.454            0    8592.6779    24.890553    24.985883     23.06529    14344.591    9030.9663    8459.3148    8287.7527   -681.11665     214.8406    11.770736   -6274.7803 
 4247000    277.18792   -9058.3622   -8001.5955   -9058.3622            0    9315.1414    24.857288    24.920601    23.168791    14352.106    9186.6453    9297.3743    9461.4047    383.90704    102.52608    45.742068   -6051.8362 
 4248000    260.79985    -9091.553    -8097.265    -9091.553            0    8707.4178    24.980053    25.075265    22.891485    14338.801    8481.9981    7567.7723    10072.483   -527.87882    -161.5858     965.5365   -6276.3985 
 4249000    263.83559   -9139.2138   -8133.3522   -9139.2138            0    7734.8409    24.918727    25.086162    22.989473     14371.07    7827.9208    7255.4188    8121.1833   -199.21886   -647.69612    -466.6003   -6512.2277 
 4250000    273.94864   -9068.1972     -8023.78   -9068.1972            0    8068.8279    24.863108    25.071595    23.065464    14378.037    9428.1333    7807.1165    6971.2338   -140.46568    151.46755    235.35431   -6331.8362 
Loop time of 580.2 on 64 procs for 250000 steps with 1920 atoms

Performance: 74.457 ns/day, 0.322 hours/ns, 430.886 timesteps/s
99.1% CPU use with 64 MPI tasks x 1 OpenMP threads

MPI task timing breakdown:
Section |  min time  |  avg time  |  max time  |%varavg| %total
---------------------------------------------------------------
Pair    | 63.078     | 65.643     | 68.259     |  13.4 | 11.31
Bond    | 0.27795    | 0.28568    | 0.29836    |   0.8 |  0.05
Kspace  | 255.21     | 264.12     | 273.63     |  26.5 | 45.52
Neigh   | 6.8036     | 7.6149     | 8.4593     |  17.1 |  1.31
Comm    | 99.534     | 108.31     | 117.51     |  46.6 | 18.67
Output  | 1.3403     | 1.3439     | 1.3498     |   0.1 |  0.23
Modify  | 116.06     | 123.88     | 129.92     |  30.9 | 21.35
Other   |            | 9.007      |            |       |  1.55

Nlocal:        30.0000 ave          34 max          27 min
Histogram: 1 12 13 0 13 15 0 6 3 1
Nghost:        2802.53 ave        2842 max        2775 min
Histogram: 3 9 9 12 9 8 6 6 1 1
Neighs:        10561.5 ave       12061 max        9493 min
Histogram: 6 8 6 8 14 10 5 4 0 3

Total # of neighbors = 675936
Ave neighs/atom = 352.05000
Ave special neighs/atom = 2.0000000
Neighbor list builds = 11931
Dangerous builds = 1

unfix		3
unfix		2
unfix		1

write_data	data.final.${pid}
write_data	data.final.0
System init for write_data ...
PPPM initialization ...
  extracting TIP4P info from pair style
  using 12-bit tables for long-range coulomb (../kspace.cpp:340)
  G vector (1/distance) = 0.37429827
  grid = 30 30 30
  stencil order = 5
  estimated absolute RMS force accuracy = 0.0032887838
  estimated relative force accuracy = 9.9040748e-06
  using double precision FFTW3
  3d grid and FFT values/proc = 3600 512
Last active /omp style is kspace_style pppm/tip4p/omp
WARNING: Not all mixed pair coeffs generated from mixing. Use write_data with 'pair ij' option to store all pair coeffs. (../write_data.cpp:312)

write_restart   restart.lmp.${pid}
write_restart   restart.lmp.0
System init for write_restart ...
PPPM initialization ...
  extracting TIP4P info from pair style
  using 12-bit tables for long-range coulomb (../kspace.cpp:340)
  G vector (1/distance) = 0.37429827
  grid = 30 30 30
  stencil order = 5
  estimated absolute RMS force accuracy = 0.0032887838
  estimated relative force accuracy = 9.9040748e-06
  using double precision FFTW3
  3d grid and FFT values/proc = 3600 512
Last active /omp style is kspace_style pppm/tip4p/omp
Total wall time: 0:09:42
