LAMMPS data file via write_data, version 30 Jul 2021, timestep = 15000000

1920 atoms
2 atom types
1280 bonds
1 bond types
640 angles
1 angle types

0.08209110355946336 24.647909896442588 xlo xhi
0.08269603358864686 24.647304966407805 ylo yhi
0.09198103208906794 22.718018967914666 zlo zhi

Masses

1 1.008
2 15.999

Pair Coeffs # lj/cut/tip4p/long/omp

1 0 0
2 0.21084 3.1668

Bond Coeffs # harmonic/omp

1 450 0.9572

Angle Coeffs # harmonic/omp

1 55 104.52

Atoms # full

1 1 2 -1.1794 4.546704024892629 1.5740271572919418 4.248473405192838 0 0 0
2 1 1 0.5897 4.638869028844501 2.2896097262674515 4.87748350059489 0 0 0
3 1 1 0.5897 5.271095937678827 1.6986806606026785 3.6352867359214343 0 0 0
4 2 2 -1.1794 2.971974725166707 1.5559969340789688 1.9742912423973928 0 0 0
5 2 1 0.5897 3.34439994470575 1.5787656398381449 2.8557995000823846 0 0 0
6 2 1 0.5897 2.0251893086108472 1.5379568770921468 2.1141488654565253 0 0 0
9 3 1 0.5897 5.038694315908085 4.618940892116511 3.593429964897514 0 0 0
10 4 2 -1.1794 3.236013459938673 4.602766944336396 3.6686887197020335 0 0 0
11 4 1 0.5897 2.7966557366324674 5.3369695061798925 4.097778037543472 0 0 0
12 4 1 0.5897 2.8198227690654116 4.543420441452948 2.808724033769645 0 0 0
13 5 2 -1.1794 1.504249744430513 3.049825063422176 5.167524506562594 0 0 0
14 5 1 0.5897 2.2561898424528612 3.3651922825714493 4.66612712557506 0 0 0
15 5 1 0.5897 1.606314016981643 2.0982055718814094 5.180132825953017 0 0 0
19 7 2 -1.1794 4.664700253248161 3.311128168580607 0.7071335659827004 0 0 0
20 7 1 0.5897 3.907022944232399 2.8787750920827384 1.1011565822172658 0 0 0
21 7 1 0.5897 5.416843553444423 2.9565787079988968 1.1813080202853827 0 0 0
22 8 2 -1.1794 1.6549350937144163 4.492870823853432 1.4405714134090049 0 0 0
23 8 1 0.5897 0.891658857744739 4.5604343993614265 2.0142673836474065 0 0 0
24 8 1 0.5897 1.5810781986461624 5.245089258590309 0.8532786538303043 0 0 0
27 9 1 0.5897 4.65152489327049 5.143394068612768 0.6959874334407903 0 0 0
28 10 2 -1.1794 1.6753211527470635 0.3006388396659666 4.994393120095689 0 0 0
387 129 1 0.5897 4.1216549008758925 0.3171578545332779 1.2438733661987975 0 1 0
7 3 2 -1.1794 5.993388143845855 4.61671797930365 3.523836663358922 0 0 0
98 33 1 0.5897 0.2975510682882099 5.414744143390544 3.9164148437005393 1 0 0
16 6 2 -1.1794 0.24065675395287173 1.5418609801636405 2.071153062001875 0 0 0
25 9 2 -1.1794 4.622828218433651 6.100113512850418 0.7003017121883647 0 0 0
99 33 1 0.5897 0.26946838232713394 3.9059439881854274 4.036564783461602 1 0 0
47 16 1 0.5897 6.094241729071921 0.9856506039323738 1.706199756595528 0 0 0
867 289 1 0.5897 4.717480311721532 0.277236121140398 5.6199431203171075 0 1 0
150 50 1 0.5897 1.5573913205183418 6.111738017132681 5.766103601287739 0 0 0
496 166 2 -1.1794 0.19556182450269594 1.7671769224411684 7.918329986715682 0 0 0
492 164 1 0.5897 2.9420021065608517 4.064123518036601 9.811206448595826 0 0 0
579 193 1 0.5897 0.2977789926027471 5.430016864247306 9.745064340437796 1 0 0
1347 449 1 0.5897 4.626087204229285 0.28448783183186865 11.340659017955407 0 1 0
485 162 1 0.5897 3.3160355761149853 1.6758156978935235 8.641917242011472 0 0 0
491 164 1 0.5897 2.875869384712759 4.861089219175668 8.525754014480494 0 0 0
503 168 1 0.5897 0.9522861329746661 4.827928941533488 7.796049739481301 0 0 0
500 167 1 0.5897 3.931240800699602 3.020442622662995 6.87961008192641 0 0 0
484 162 2 -1.1794 2.9194634477640142 1.692314723465777 7.770863513846013 0 0 0
483 161 1 0.5897 4.654271085664041 2.273343009483309 10.585427780903416 0 0 0
501 167 1 0.5897 4.633832011668377 4.28846687424083 6.443400645663316 0 0 0
487 163 2 -1.1794 6.032765504992532 4.8410612138041715 9.215578791591833 0 0 0
490 164 2 -1.1794 3.3511757589286493 4.798989214513715 9.354309496889888 0 0 0
527 176 1 0.5897 5.889984768310063 0.8950608480627392 7.452429781157883 0 0 0
502 168 2 -1.1794 1.6787062210233343 4.91409601610299 7.17865985945126 0 0 0
486 162 1 0.5897 3.3579897788845314 0.9875923408749967 7.29413181630333 0 0 0
578 193 1 0.5897 0.3278618339952264 3.9211861040209004 9.62578660974956 1 0 0
498 166 1 0.5897 1.1491329302865019 1.7093948822040292 7.857902239322036 0 0 0
494 165 1 0.5897 1.5731450746679216 2.0108824899430715 10.686683837422645 0 0 0
528 176 1 0.5897 5.90169350076127 2.408848412833308 7.455675034544157 0 0 0
499 167 2 -1.1794 4.690055644771968 3.334573851851308 6.387886674172318 0 0 0
481 161 2 -1.1794 4.547279877522188 1.548132092476058 9.969938845805984 0 0 0
493 165 2 -1.1794 1.6407910466741555 2.960550263106954 10.588139337704016 0 0 0
508 170 2 -1.1794 1.4673604581718562 0.2219400081648798 10.5688317198967 0 0 0
504 168 1 0.5897 1.578570038591896 4.1700447510480085 6.584890514000384 0 0 0
489 163 1 0.5897 5.077545939200464 4.804391671194801 9.265571412162002 0 0 0
629 210 1 0.5897 2.2613295820215358 6.02120172927207 10.29044280305645 0 0 0
505 169 2 -1.1794 4.611855032829998 6.050436197871381 6.4708122003505215 0 0 0
482 161 1 0.5897 5.297141035640658 1.6217938830130094 9.379545386459911 0 0 0
961 321 2 -1.1794 4.521975540282358 1.77403801853 15.593133104969857 0 0 0
962 321 1 0.5897 5.247231681098788 1.7040835980091906 14.9723337378121 0 0 0
963 321 1 0.5897 4.627892356155024 1.0191221737081393 16.17199698409666 0 0 0
964 322 2 -1.1794 2.8710384911974964 1.6577016759414838 13.41323902664595 0 0 0
965 322 1 0.5897 3.250966964550616 1.6984903033372698 14.290887359962031 0 0 0
966 322 1 0.5897 1.9265565227431036 1.6131057771555934 13.562413810984333 0 0 0
970 324 2 -1.1794 3.2715168765880227 4.835870235415695 14.866764547734752 0 0 0
971 324 1 0.5897 4.221587175014419 4.720424995772899 14.884803693790513 0 0 0
972 324 1 0.5897 2.9279849685259296 4.0709194607258965 15.328322169482922 0 0 0
973 325 2 -1.1794 1.7109163605974245 3.01084725393434 16.31423340252313 0 0 0
975 325 1 0.5897 0.9836974036261777 3.4419618064808315 15.865289160381232 0 0 0
979 327 2 -1.1794 4.61058878613608 3.3365509759753316 12.04517223434097 0 0 0
980 327 1 0.5897 3.8399618206668693 2.925127346004856 12.436486129476402 0 0 0
981 327 1 0.5897 5.352031745215291 2.9470099278855333 12.508618981577943 0 0 0
982 328 2 -1.1794 1.42924416437759 4.540592299581502 12.86386272201756 0 0 0
983 328 1 0.5897 1.4588970164949377 5.2720849549122475 12.247224209362438 0 0 0
984 328 1 0.5897 2.161054767443408 4.699469108670181 13.460093013054568 0 0 0
987 329 1 0.5897 4.659514957060567 5.119830534922125 12.136473894674273 0 0 0
990 330 1 0.5897 1.6786468029290145 1.2109788504463563 16.38841976890013 0 0 0
967 323 2 -1.1794 6.019341748115376 4.704270466737042 14.931326835485985 0 0 0
1109 370 1 0.5897 0.7248174954905334 5.941930175227031 15.980824824902863 0 0 0
1346 449 1 0.5897 3.928761012432399 0.37378411199331574 12.68146821397914 0 1 0
1008 336 1 0.5897 5.952587119181888 0.9708758686079952 13.079444526311391 0 0 0
988 330 2 -1.1794 1.6458213342894596 0.2612290664760085 16.274166799295024 0 0 0
1110 370 1 0.5897 2.237437365430384 5.980347279409775 15.930407872172912 0 0 0
985 329 2 -1.1794 4.770480366329837 6.070535915392944 12.137846999607271 0 0 0
976 326 2 -1.1794 0.15206851438728974 1.5807774450131447 13.607773435190152 0 0 0
1058 353 1 0.5897 0.1706059964094287 4.668074450143711 14.205391709375938 1 0 0
1460 487 1 0.5897 4.589530890773944 2.914387124348723 16.97351110248413 0 0 0
495 165 1 0.5897 1.5290643097858094 3.3024153257611575 11.475215470561947 0 0 0
1469 490 1 0.5897 1.629428875363273 1.171659996422045 21.856784926796422 0 0 0
1590 530 1 0.5897 2.2943331541980796 6.081753790641363 21.67543458611206 0 0 0
974 325 1 0.5897 1.7587885695510708 3.4454220414187335 17.16576254226787 0 0 0
1464 488 1 0.5897 1.0292103814672766 4.7231987211743185 19.1109360055965 0 0 0
1539 513 1 0.5897 0.3142564975087365 5.510313734099526 20.978820797473013 1 0 0
1466 489 1 0.5897 4.567846838597645 5.071002377586008 17.80862269205673 0 0 0
1453 485 2 -1.1794 1.655441428271555 2.9542597388771017 21.78521284161298 0 0 0
1454 485 1 0.5897 2.330521983188428 3.500286913002618 21.382269517190657 0 0 0
386 129 1 0.5897 4.893184010323912 0.3887417272319824 22.569285268647512 0 1 -1
1465 489 2 -1.1794 4.4598964410447 6.022053227510131 17.81077889065198 0 0 0
1444 482 2 -1.1794 3.0427387330045614 1.4466771715935285 19.193846192083157 0 0 0
1463 488 1 0.5897 1.645018433309543 5.365154534393471 17.885935776154277 0 0 0
1446 482 1 0.5897 3.362216709513899 2.2137474315618793 18.718730382724395 0 0 0
1459 487 2 -1.1794 4.6377423519434435 3.309852204228743 17.84387659337422 0 0 0
1445 482 1 0.5897 2.091417688439835 1.5519569867771303 19.207680027525953 0 0 0
1450 484 2 -1.1794 3.360335181814787 4.827937576956826 20.715402246541593 0 0 0
1451 484 1 0.5897 4.313576271501961 4.781916409472086 20.64122951951331 0 0 0
1452 484 1 0.5897 3.0479986785873576 4.808323460004537 19.810782792329185 0 0 0
1461 487 1 0.5897 5.362700083038625 2.8561652834944016 18.27382969921718 0 0 0
1468 490 2 -1.1794 1.6079787647039683 0.21689397808485478 21.792626450096805 0 0 0
1456 486 2 -1.1794 0.2839307731441363 1.6381243441263003 19.07212063363899 0 0 0
1441 481 2 -1.1794 4.8628045405040865 1.5460493408530191 21.247230181379635 0 0 0
1462 488 2 -1.1794 1.7486627886968626 4.627346019060396 18.48685162512382 0 0 0
1488 496 1 0.5897 5.976465719199097 0.9234298520999592 18.53801923652008 0 0 0
1447 483 2 -1.1794 6.089236707556047 4.708901107839753 20.54281014295927 0 0 0
1443 481 1 0.5897 4.7426880173806785 2.2639554537497792 21.868832883103153 0 0 0
1442 481 1 0.5897 4.086516466273592 1.580191615859074 20.688217773562805 0 0 0
1538 513 1 0.5897 0.3486197184533216 3.9973746396823118 20.939635672105908 1 0 0
1826 609 1 0.5897 4.031650320701823 0.22569337870052042 18.181761448197456 0 1 0
1487 496 1 0.5897 5.999713411202947 1.6212240641791038 19.881328482199706 0 0 0
1455 485 1 0.5897 1.5704873102376458 3.2955062965035045 22.67548914057494 0 0 0
121 41 2 -1.1794 4.572114907537039 7.651614295839872 4.238707813310643 0 0 0
122 41 1 0.5897 3.8277707288882667 7.64593004346236 3.636875379408275 0 0 0
123 41 1 0.5897 5.340986634465171 7.68011138909413 3.669227786146738 0 0 0
124 42 2 -1.1794 2.909843576587754 7.803941518527576 2.053983684341178 0 0 0
125 42 1 0.5897 3.3026075866246174 7.054560518182315 1.606359834671043 0 0 0
126 42 1 0.5897 3.4229516682515344 8.55593823454646 1.7583059686672422 0 0 0
129 43 1 0.5897 5.113300256553001 10.819159447791975 3.5822195113490847 0 0 0
130 44 2 -1.1794 3.2997964039618775 10.915743276965927 3.5364521096447112 0 0 0
131 44 1 0.5897 2.941956176076411 11.69167557394519 3.967819028554457 0 0 0
132 44 1 0.5897 2.888070209426318 10.178931556972469 3.9878888761297566 0 0 0
133 45 2 -1.1794 1.643791578621284 9.150916274484787 4.893583704353978 0 0 0
135 45 1 0.5897 0.9510451674804119 9.589029397706229 4.399200035018366 0 0 0
137 46 1 0.5897 1.1412907101646952 7.835116463696152 2.1599076269309037 0 0 0
139 47 2 -1.1794 4.787884871553844 9.527242574466491 0.9514076967481587 0 0 0
140 47 1 0.5897 4.77931049161441 10.478772778762698 0.8481018927899978 0 0 0
142 48 2 -1.1794 1.5136715199160953 10.80712269507839 1.4688222449078483 0 0 0
143 48 1 0.5897 2.241586888639239 10.909058690074714 2.082035137978858 0 0 0
144 48 1 0.5897 1.637016218610823 11.510028276983759 0.830920136985381 0 0 0
149 50 1 0.5897 1.5983265595481189 7.385698781207063 4.949319364354929 0 0 0
148 50 2 -1.1794 1.5453720123965 6.433753078157072 4.864759040203864 0 0 0
127 43 2 -1.1794 6.0665160960541895 10.73472182281894 3.5590398587326786 0 0 0
218 73 1 0.5897 0.2759951389472849 10.865651909359213 2.789736880431376 1 0 0
136 46 2 -1.1794 0.19031753619950237 7.923582633339696 2.224025715677417 0 0 0
168 56 1 0.5897 6.063514743408394 8.414184067907113 1.7731067751281158 0 0 0
621 207 1 0.5897 4.587995591097189 8.938504262400043 5.583190424458049 0 0 0
270 90 1 0.5897 0.9421403643462894 12.218310356002288 4.600321627553073 0 0 0
26 9 1 0.5897 5.360543884603509 6.3598363063045475 1.252201253806412 0 0 0
507 169 1 0.5897 4.589013823580942 6.497477834452817 5.624715491390147 0 0 0
145 49 2 -1.1794 4.724141019582323 12.283940007404516 0.8115052972320965 0 0 0
1574 525 1 0.5897 1.5648253177385854 9.571321836525026 0.14508843720183723 0 0 1
134 45 1 0.5897 1.6615225293928315 9.605126529551512 5.735976236370931 0 0 0
604 202 2 -1.1794 2.987591707988004 7.710902681258856 7.9409289968137715 0 0 0
615 205 1 0.5897 0.9467183571843033 9.462926256480708 10.260623221796147 0 0 0
611 204 1 0.5897 4.284620767861622 10.860749897878456 9.264138667490263 0 0 0
607 203 2 -1.1794 6.039505368409066 10.854870070056574 9.322752563472486 0 0 0
616 206 2 -1.1794 0.26816686135179274 7.804191285516324 7.856500393667874 0 0 0
506 169 1 0.5897 3.9121603554474214 6.461526497009603 6.978445301311676 0 0 0
613 205 2 -1.1794 1.716493983883379 9.067991241416708 10.670177108264678 0 0 0
614 205 1 0.5897 2.4589612424079856 9.438602460172975 10.193045860200508 0 0 0
605 202 1 0.5897 3.316324059934305 8.475283901987996 7.467794384925898 0 0 0
626 209 1 0.5897 4.636188581189261 11.196537290288623 6.474599217781773 0 0 0
606 202 1 0.5897 2.0353649078043405 7.806052408427414 7.918617640877064 0 0 0
699 233 1 0.5897 0.43849473708702286 10.720490165790372 8.439003204128785 1 0 0
698 233 1 0.5897 0.4334390038542645 11.475966091502942 9.750931642262735 1 0 0
623 208 1 0.5897 2.3253486865443667 10.752433595433676 7.718956099761304 0 0 0
612 204 1 0.5897 2.961029198586834 11.467603493164555 9.678643352317279 0 0 0
601 201 2 -1.1794 4.77862607323449 7.809949555565849 10.022688289806892 0 0 0
602 201 1 0.5897 4.736813697421728 7.063559795530059 10.62047984610621 0 0 0
648 216 1 0.5897 5.935825207469894 7.07082514042754 7.304966067498159 0 0 0
630 210 1 0.5897 1.584972819144923 7.2914477562931035 10.76035013608584 0 0 0
624 208 1 0.5897 1.7130140437807186 11.473861041101392 6.537208705482778 0 0 0
619 207 2 -1.1794 4.634267730459349 9.411681819417845 6.413976934672305 0 0 0
622 208 2 -1.1794 1.5915384103405295 10.713310762826428 7.105544314438266 0 0 0
625 209 2 -1.1794 4.591161621688338 12.152058934535857 6.441349722996939 0 0 0
1101 367 1 0.5897 4.685478816305137 9.007668317440022 11.337057210385193 0 0 0
620 207 1 0.5897 5.314964264641089 8.957975286768008 6.911025313870758 0 0 0
628 210 2 -1.1794 1.5075032142864364 6.337834627149464 10.78819687969506 0 0 0
647 216 1 0.5897 5.889465404673267 7.772051140833157 8.645887092947486 0 0 0
610 204 2 -1.1794 3.3384629257578062 10.73438432992055 9.1927017176843 0 0 0
603 201 1 0.5897 4.0644106755424865 7.661387572389898 9.402926437148949 0 0 0
1081 361 2 -1.1794 4.733105523296571 7.7581589044133095 15.67793999512813 0 0 0
1082 361 1 0.5897 4.77616178623032 8.522112864978617 16.253020775554106 0 0 0
1083 361 1 0.5897 4.658317910547683 7.013016342359541 16.274069753159473 0 0 0
1084 362 2 -1.1794 3.008719224719436 7.70025911193334 13.52335851825432 0 0 0
1085 362 1 0.5897 3.4676088778500866 7.668004659973343 14.362797001586726 0 0 0
1086 362 1 0.5897 3.44517245686176 8.400370045913727 13.038007608235354 0 0 0
1089 363 1 0.5897 5.063673775954414 10.750128231965709 15.006323778794037 0 0 0
1090 364 2 -1.1794 3.3130252661451496 10.790548815124845 14.92804475293661 0 0 0
1091 364 1 0.5897 2.882891298749046 11.559660364452165 15.301744382979765 0 0 0
1092 364 1 0.5897 2.9417635944829517 10.050758167427144 15.40875165040102 0 0 0
1093 365 2 -1.1794 1.6625798190653216 9.11233746357496 16.45819842843428 0 0 0
1094 365 1 0.5897 1.5640913262791698 8.162035976587315 16.400036060895935 0 0 0
1095 365 1 0.5897 0.9380575164099493 9.460913084506357 15.938747327237893 0 0 0
1097 366 1 0.5897 1.2137198314283755 7.768752182618967 13.47024238487579 0 0 0
1099 367 2 -1.1794 4.684095389304049 9.469062439822572 12.1757230660562 0 0 0
1100 367 1 0.5897 5.374510147925048 9.044078241230203 12.684617230728964 0 0 0
1102 368 2 -1.1794 1.593592766675625 10.831280228914821 12.76881437852708 0 0 0
1103 368 1 0.5897 1.7187635686830343 10.095256174768524 12.169811919670572 0 0 0
1104 368 1 0.5897 2.316231288012025 10.758825821901818 13.392372995482326 0 0 0
1107 369 1 0.5897 4.698042005639232 11.247224469454281 12.099042723143489 0 0 0
1087 363 2 -1.1794 6.01345171802795 10.630933157741882 15.007424032672095 0 0 0
1179 393 1 0.5897 0.4105617789102103 10.657150711714191 14.097757234244106 1 0 0
1127 376 1 0.5897 5.96406151662607 7.791364157181162 14.362745554189159 0 0 0
1105 369 2 -1.1794 4.7357473309846085 12.194141668822942 12.233515848524718 0 0 0
1128 376 1 0.5897 6.024936630261222 7.110489050686313 13.011952510862038 0 0 0
1096 366 2 -1.1794 0.2635920047507465 7.81872685451697 13.365133767866027 0 0 0
1178 393 1 0.5897 0.3415384289563527 11.42370529370838 15.40142647666072 1 0 0
986 329 1 0.5897 4.037817259500315 6.396890205897201 12.660308405717105 0 0 0
1108 370 2 -1.1794 1.4839233267497225 6.383646889994704 16.361485132307585 0 0 0
750 250 1 0.5897 1.697299594818224 12.137840345971231 11.461125362605783 0 0 0
1561 521 2 -1.1794 4.911537732665059 7.955293341582651 21.273530624901092 0 0 0
1230 410 1 0.5897 1.6671617669785257 12.208208165522649 17.108951592643905 0 0 0
1589 530 1 0.5897 1.5831478256156997 7.353487601143577 22.08617211556028 0 0 0
1588 530 2 -1.1794 1.4953945809016655 6.400404158812266 22.095470096117772 0 0 0
1587 529 1 0.5897 4.755610478550059 11.290394035804079 17.757367684561565 0 0 0
1572 524 1 0.5897 4.369503091352005 10.834887421265266 20.58339139283214 0 0 0
1584 528 1 0.5897 1.7411126333212248 10.197246570940711 17.929754107105964 0 0 0
1571 524 1 0.5897 3.0551327959830714 10.861859424990719 19.83257122326843 0 0 0
1467 489 1 0.5897 5.27266649427159 6.354950371326972 18.191376640348835 0 0 0
141 47 1 0.5897 4.727998544895239 9.188345100741929 22.684237509034766 0 0 -1
1575 525 1 0.5897 2.3154604727749173 9.59174763390039 21.4565396161292 0 0 0
1579 527 2 -1.1794 4.767532509320467 9.46547959371496 17.85337895553004 0 0 0
1658 553 1 0.5897 0.3143460282764766 10.104383328065595 20.998295931051935 1 0 0
1562 521 1 0.5897 4.775309553425173 7.221316535495658 21.87263288538886 0 0 0
1564 522 2 -1.1794 2.989314471572507 7.8628511976397295 19.260724414620107 0 0 0
1585 529 2 -1.1794 4.717709056297827 12.242663562030868 17.66847739370715 0 0 0
1710 570 1 0.5897 2.4415113289396984 12.091343878623013 21.58331349343873 0 0 0
1580 527 1 0.5897 3.9802762585167946 9.093798558380685 18.251306695903537 0 0 0
1576 526 2 -1.1794 0.2872260298866126 7.661514018492735 19.107118830288606 0 0 0
1583 528 1 0.5897 1.0710888508343928 10.933406677127323 19.070400277418564 0 0 0
1573 525 2 -1.1794 1.6150981364695884 9.133743870861878 21.92127546074955 0 0 0
1582 528 2 -1.1794 1.8339063442788441 10.965561755994022 18.49302818559277 0 0 0
1581 527 1 0.5897 5.48674758400397 8.947884980378994 18.215420622809923 0 0 0
1608 536 1 0.5897 6.05562437193857 7.675318050502213 19.884536870625837 0 0 0
1709 570 1 0.5897 0.9306025778791083 12.085798026238209 21.487600814617274 0 0 0
1570 524 2 -1.1794 3.4215595603442392 10.83076422526473 20.71633600613974 0 0 0
1566 522 1 0.5897 3.3238814859932972 7.131024988010934 18.74236035317375 0 0 0
1563 521 1 0.5897 4.151026357170467 7.935239590771913 20.692580350544212 0 0 0
1565 522 1 0.5897 2.0372267765336787 7.784129031555353 19.200560387866716 0 0 0
1567 523 2 -1.1794 6.1117696753671344 10.859366463479773 20.57090432245407 0 0 0
241 81 2 -1.1794 4.728274014606766 14.008078038199427 4.378251493987353 0 0 0
242 81 1 0.5897 4.610152645294171 13.272444181983545 4.979162197754681 0 0 0
243 81 1 0.5897 3.9889668102553384 13.945073114199824 3.773489297714926 0 0 0
244 82 2 -1.1794 2.9065427709190668 13.768640292096968 2.279821397154721 0 0 0
245 82 1 0.5897 1.9599285853179096 13.909229487804323 2.2588027982742687 0 0 0
246 82 1 0.5897 3.2714147944242837 14.521767414710197 1.8152028242790754 0 0 0
250 84 2 -1.1794 3.273961196527036 17.115134181285 3.778736959214594 0 0 0
251 84 1 0.5897 2.8935704677714957 17.080321956514478 2.9010315657170485 0 0 0
252 84 1 0.5897 4.21749342823877 17.042972030384252 3.6344215703725786 0 0 0
253 85 2 -1.1794 1.5055315514716385 15.327728416747336 4.935123297169177 0 0 0
254 85 1 0.5897 0.7638615292926592 15.788285566284182 4.542608291542668 0 0 0
255 85 1 0.5897 2.2771301291920016 15.77337233028344 4.585416686540741 0 0 0
259 87 2 -1.1794 4.563606234700965 15.607779143835762 0.9524199404089796 0 0 0
260 87 1 0.5897 4.605891836304495 16.55878398665708 0.8526339173722586 0 0 0
262 88 2 -1.1794 1.5964377529242892 17.004194264527378 1.6049175116421321 0 0 0
263 88 1 0.5897 1.6226884104647226 16.236160694473604 1.0342753390234782 0 0 0
264 88 1 0.5897 1.596886110766902 17.749480204940514 1.00429331467924 0 0 0
269 90 1 0.5897 1.558706964448166 13.53376710875554 5.0259960954171525 0 0 0
288 96 1 0.5897 5.946890089406296 14.67954971877767 1.7104313851114121 0 0 0
268 90 2 -1.1794 1.679665832273849 12.586247512710603 5.0870896144590505 0 0 0
247 83 2 -1.1794 6.016233313964723 16.980410196524254 3.6712557944934328 0 0 0
146 49 1 0.5897 5.451700591410892 12.725564806393555 1.249547796436521 0 0 0
338 113 1 0.5897 0.3024816925412226 17.039593284108584 2.857189941717596 1 0 0
147 49 1 0.5897 3.941242232348557 12.622923760178134 1.245589045655494 0 0 0
265 89 2 -1.1794 4.664073020869003 18.34271836602197 0.8424447168487806 0 0 0
287 96 1 0.5897 6.0555406201927235 13.963843379768026 3.0400524027820373 0 0 0
389 130 1 0.5897 2.1719867231552743 18.37786906101745 4.581539178647038 0 0 0
339 113 1 0.5897 0.14659570406879968 17.761241976313485 4.178877032040672 1 0 0
256 86 2 -1.1794 0.15273955588875654 14.019940230758499 2.2289354684528906 0 0 0
740 247 1 0.5897 4.827539283209871 15.222064753015264 5.734859478710689 0 0 0
727 243 2 -1.1794 6.117517502681535 16.788197928926497 9.2663606487749 0 0 0
723 241 1 0.5897 5.478878122187727 13.70919575678204 9.378003102600353 0 0 0
818 273 1 0.5897 0.3657995895786582 16.957746638548866 8.52103867492946 1 0 0
1221 407 1 0.5897 4.860632832256393 15.140128616538021 11.221075963907737 0 0 0
735 245 1 0.5897 1.038928150679137 15.648421523898817 10.234227800692375 0 0 0
745 249 2 -1.1794 4.721950545230553 18.32081646027671 6.399452499496019 0 0 0
741 247 1 0.5897 4.789349433444261 16.536317910624017 6.485230051889908 0 0 0
748 250 2 -1.1794 1.7195556498151745 12.489749432859591 10.57122498040315 0 0 0
730 244 2 -1.1794 3.385670721989747 17.032981049757876 9.32841440587287 0 0 0
768 256 1 0.5897 6.104146534409433 14.47997408486873 7.446851070472089 0 0 0
736 246 2 -1.1794 0.30254996242784526 13.974772844885297 7.741941641252661 0 0 0
722 241 1 0.5897 3.971045906540063 13.840896729961473 9.411638349121601 0 0 0
870 290 1 0.5897 2.3923905375789403 18.24586300490361 10.354818343660003 0 0 0
627 209 1 0.5897 5.3623587476264465 12.445661085238823 6.92645261212192 0 0 0
733 245 2 -1.1794 1.7713790318166256 15.211161208141233 10.6684826091839 0 0 0
725 242 1 0.5897 3.4921366684286803 14.70846729538776 7.495227148880293 0 0 0
731 244 1 0.5897 2.901590065387658 17.08912792379473 8.504526962491566 0 0 0
743 248 1 0.5897 1.5391600032105763 17.78075020841742 6.601377663777842 0 0 0
721 241 2 -1.1794 4.7361625778676055 13.75377450533608 9.980222915658887 0 0 0
732 244 1 0.5897 2.9491265440559733 16.33457584236211 9.816135362079066 0 0 0
869 290 1 0.5897 0.8808759384517708 18.16044354996382 10.346881797888106 0 0 0
726 242 1 0.5897 3.351700891841763 13.205040708808228 7.387102193012684 0 0 0
749 250 1 0.5897 1.7139599149888933 13.43966571854095 10.688628009881667 0 0 0
742 248 2 -1.1794 1.5891580214555074 17.002737888625088 7.156708169399328 0 0 0
728 243 1 0.5897 5.164326311832483 16.872043024354948 9.240206766086748 0 0 0
737 246 1 0.5897 1.2510357459583679 13.99355518218347 7.869653066589919 0 0 0
724 242 2 -1.1794 3.0083992795473122 13.965534804666747 7.856135769483086 0 0 0
744 248 1 0.5897 1.623012032744217 16.270433892919776 6.541250559327787 0 0 0
739 247 2 -1.1794 4.856786915380126 15.590773803755472 6.617726777805763 0 0 0
1106 369 1 0.5897 4.764061933542418 12.561058107458452 11.349871993348467 0 0 0
1201 401 2 -1.1794 4.63691947750995 14.093719980467023 15.648679106282154 0 0 0
1202 401 1 0.5897 5.397198841612548 14.009331631430832 15.073234975862615 0 0 0
1203 401 1 0.5897 4.695506752439179 13.340055071255966 16.235838467758043 0 0 0
1204 402 2 -1.1794 3.0723186735422106 13.978102154546473 13.455622327242006 0 0 0
1205 402 1 0.5897 3.501829239063518 14.05881752355016 14.307257047222294 0 0 0
1206 402 1 0.5897 3.527933621083833 13.255000514228863 13.024637253573037 0 0 0
1210 404 2 -1.1794 3.395515596119037 16.993235288977733 14.908550922863567 0 0 0
1211 404 1 0.5897 3.0639340569058424 17.698595739397447 15.464185824292574 0 0 0
1212 404 1 0.5897 4.347670352321541 17.082569428866275 14.949881649423205 0 0 0
1213 405 2 -1.1794 1.6457348114567403 15.252285308431338 16.283022919210055 0 0 0
1214 405 1 0.5897 0.9121029971788684 15.75664498991161 15.931377345546519 0 0 0
1215 405 1 0.5897 2.420782831071086 15.64207751352998 15.878514390848128 0 0 0
1218 406 1 0.5897 1.2879708099180622 13.900899270984484 13.573406214793078 0 0 0
1219 407 2 -1.1794 4.799561026054306 15.646208772865702 12.031257411371191 0 0 0
1220 407 1 0.5897 4.10859848098302 15.213636887571933 12.532963927789519 0 0 0
1222 408 2 -1.1794 1.5606822062821077 16.825648727018507 12.859792942498922 0 0 0
1223 408 1 0.5897 1.615247873694716 17.551163868383753 12.23781639708715 0 0 0
1224 408 1 0.5897 2.3087574652257943 16.95294990105409 13.443281028586746 0 0 0
1227 409 1 0.5897 4.623965542217899 17.377025816527055 12.098320866236246 0 0 0
1229 410 1 0.5897 1.614631613604617 13.483245461734597 16.294514045984002 0 0 0
1298 433 1 0.5897 0.314240925784605 16.974527623757766 14.197036487961016 1 0 0
1228 410 2 -1.1794 1.5778060217772025 12.530358891598853 16.212015108039523 0 0 0
1225 409 2 -1.1794 4.506005208341342 18.32687117255992 12.104257329190318 0 0 0
1247 416 1 0.5897 6.053429911809609 14.704904709858734 13.042602983188774 0 0 0
1216 406 2 -1.1794 0.336015480833186 13.808004036744142 13.535475777125539 0 0 0
734 245 1 0.5897 1.7892946874844675 15.589002827084913 11.547783271993769 0 0 0
1350 450 1 0.5897 1.0492392418867706 18.369462561874116 15.93969915606372 0 0 0
1248 416 1 0.5897 6.069769317147022 13.193375169589102 13.124534845030405 0 0 0
1207 403 2 -1.1794 6.1477041460982 17.01855312114461 14.948467193480203 0 0 0
1700 567 1 0.5897 4.749777690503847 15.242568860400096 16.995894040455056 0 0 0
261 87 1 0.5897 4.555359396667134 15.272554981673522 22.6819002119418 0 0 -1
1704 568 1 0.5897 1.662120928276952 17.696870907564264 17.9192533748234 0 0 0
1586 529 1 0.5897 5.4414111996069545 12.562930697591808 18.206950329773917 0 0 0
1686 562 1 0.5897 3.4319785619993115 13.953471923279368 19.96993102277417 0 0 0
1703 568 1 0.5897 1.6481532499673164 16.18428046744587 17.859454004646402 0 0 0
1689 563 1 0.5897 5.051370807882577 17.128363531883277 20.622504132952542 0 0 0
1694 565 1 0.5897 0.9488014945696298 15.55779401896442 21.606297510536933 0 0 0
1779 593 1 0.5897 0.3260204059140674 17.56539556229368 21.164688600287548 1 0 0
1682 561 1 0.5897 5.347119987130106 13.923029313133855 20.699886146716516 0 0 0
1695 565 1 0.5897 1.611485253811899 14.264511811364711 22.030632973539404 0 0 0
1728 576 1 0.5897 6.035875927886789 14.623331510153232 18.73855138164609 0 0 0
1696 566 2 -1.1794 0.29269439970171496 13.720188904872861 19.15520540402897 0 0 0
1707 569 1 0.5897 4.7743122347444045 17.43018119094813 17.808424500441724 0 0 0
1702 568 2 -1.1794 1.6180935918230621 16.917821487597603 18.473634148405573 0 0 0
1693 565 2 -1.1794 1.6720723615396889 15.21446906862001 22.13096332001792 0 0 0
1687 563 2 -1.1794 6.001499963476896 17.106457390747448 20.736797389825 0 0 0
1708 570 2 -1.1794 1.6582411891210485 12.500996327249105 21.950647859271633 0 0 0
1701 567 1 0.5897 4.011231789358808 15.219796452265998 18.317272005508073 0 0 0
1778 593 1 0.5897 0.3623012930766666 16.877085325911715 19.81678256388846 1 0 0
1699 567 2 -1.1794 4.729224613556319 15.65632859545204 17.85881469691082 0 0 0
1830 610 1 0.5897 2.242206487765375 18.3024060278203 21.5412964106673 0 0 0
1683 561 1 0.5897 4.717941126234924 13.293991947707507 21.924794126623596 0 0 0
1705 569 2 -1.1794 4.839034111785984 18.376247404436253 17.93852656968879 0 0 0
1685 562 1 0.5897 3.479029554633002 13.230642525403997 18.640557186147596 0 0 0
1692 564 1 0.5897 2.748328513200454 16.974390726879005 19.864150908450718 0 0 0
1684 562 2 -1.1794 3.008407064077527 13.91782754765875 19.112263480195075 0 0 0
1697 566 1 0.5897 1.247190124192018 13.789315718236626 19.134056623242685 0 0 0
1690 564 2 -1.1794 3.2538394853349617 16.983234083529204 20.67695972531456 0 0 0
1691 564 1 0.5897 2.874764156595426 16.279114155217584 21.203008951528403 0 0 0
1681 561 2 -1.1794 4.624402165530495 14.028804042784524 21.318571860084276 0 0 0
361 121 2 -1.1794 4.747092953360522 20.105928804953876 4.304914461144003 0 0 0
362 121 1 0.5897 3.997325788845762 20.012136440913338 3.7172634196485554 0 0 0
363 121 1 0.5897 4.700110171855553 19.34066111754709 4.877937761679914 0 0 0
364 122 2 -1.1794 2.956658833325055 19.991403206949553 2.255047102863662 0 0 0
365 122 1 0.5897 3.2477783058573015 20.7277327233565 1.7172064023122935 0 0 0
366 122 1 0.5897 2.0011476776070314 20.02157106914526 2.206295823130202 0 0 0
370 124 2 -1.1794 3.325297621098253 23.166211137942977 3.4505922084954697 0 0 0
371 124 1 0.5897 4.277091988344825 23.09821547036037 3.5264328322699483 0 0 0
372 124 1 0.5897 2.990681794224055 22.42644946070346 3.9575332205938 0 0 0
373 125 2 -1.1794 1.7431239525007334 21.46568155485922 4.934510214125742 0 0 0
375 125 1 0.5897 1.0088297197364013 21.867812272547127 4.470437142715933 0 0 0
379 127 2 -1.1794 4.533765650271792 21.772242311007517 0.7868237601456237 0 0 0
380 127 1 0.5897 4.713196786608208 22.71231011030911 0.8021814703060344 0 0 0
381 127 1 0.5897 5.27295063885347 21.379253107530666 1.2509650196396516 0 0 0
382 128 2 -1.1794 1.4302975643408602 23.17297862283588 1.418454136982351 0 0 0