LAMMPS data file via write_data, version 30 Jul 2021, timestep = 26250000

864 atoms
2 atom types
576 bonds
1 bond types
288 angles
1 angle types

0.7052860368556342 17.50228636314999 xlo xhi
1.9222650607587042 21.706912739243663 ylo yhi
0.8604473176143852 21.352748482373944 zlo zhi

Masses

1 1.00794
2 15.9994

Pair Coeffs # lj/cut/tip4p/long/omp

1 0 0
2 0.21084 3.1668

Bond Coeffs # harmonic/omp

1 450 0.9572

Angle Coeffs # harmonic/omp

1 55 104.52

Atoms # full

781 1 2 -1.1794 3.2126836102249663 6.056239548678911 2.114942769236371 -3 0 1
300 1 1 0.5897 2.8040385882103314 2.5526388789957695 1.5233437506807372 -6 -3 6
580 1 2 -1.1794 1.83955751028642 3.7768943730323215 3.7022576729646453 -2 -5 -2
796 1 2 -1.1794 4.003363303910864 5.52377003641211 5.784528155486012 -4 -2 -2
741 1 1 0.5897 1.3048381880009339 3.988764848594321 1.5829631288293964 3 -1 -3
582 1 1 0.5897 2.698234013248073 3.432241587980781 3.9474253587108423 -2 -5 -2
782 1 1 0.5897 3.239919364716143 5.116766174273792 2.2962298126778418 -3 0 1
581 1 1 0.5897 1.6899627364487837 4.50213591235484 4.308777083087051 -2 -5 -2
298 1 2 -1.1794 3.2683107850950606 3.3042087795468165 1.1547184690684775 -6 -3 6
607 1 2 -1.1794 4.387567863768053 2.602003659465061 4.202380543400161 3 5 5
798 1 1 0.5897 4.54408619900855 5.305743486245472 5.025375197296006 -4 -2 -2
761 1 1 0.5897 1.5450546432485153 6.737101016898539 5.5476195530881185 3 -2 0
783 1 1 0.5897 4.107827187716829 6.356947445281514 2.2716424573203624 -3 0 1
760 1 2 -1.1794 1.1975469226081583 6.109993306011574 4.913422082386181 3 -2 0
299 1 1 0.5897 4.194366428718034 3.1062958919320645 1.2943911408338784 -6 -3 6
762 1 1 0.5897 1.0953616102108086 6.615704446959008 4.107168956194235 3 -2 0
797 1 1 0.5897 3.9821347209386713 6.480647803064665 5.7971873953178505 -4 -2 -2
720 1 1 0.5897 4.890201602955911 2.2186071945167 5.768394292597786 9 6 -5
361 1 2 -1.1794 2.745847166203824 3.40635049116267 7.021404491201648 0 -2 -1
67 1 2 -1.1794 4.065527888534332 6.695615644476184 8.72242329081186 3 1 -8
429 1 1 0.5897 2.7775928249685204 4.152625429143056 10.895264602532679 -1 2 1
185 1 1 0.5897 1.5568068596635836 5.197106050563198 9.332227272608424 -3 8 2
363 1 1 0.5897 1.996185195869993 3.9279668704829476 7.308014298741025 0 -2 -1
427 1 2 -1.1794 2.7336435271936215 5.082014240247206 10.670459486029586 -1 2 1
186 1 1 0.5897 1.4415913406596954 6.067235123990783 8.09873465564452 -3 8 2
184 1 2 -1.1794 1.0525057292491393 5.303983299385665 8.525694767245152 -3 8 2
593 1 1 0.5897 2.9839839766389678 2.242851231668657 8.506571727320265 4 -4 -7
69 1 1 0.5897 3.7981917031522743 6.279684980383908 9.542042043081633 3 1 -8
362 1 1 0.5897 3.3282892380733644 4.0362813240505195 6.5969428804137795 0 -2 -1
854 1 1 0.5897 4.039878022710781 2.9826444977748943 11.434171076889944 -2 2 0
537 1 1 0.5897 3.45752530578858 3.124110022134529 15.079502929498673 9 6 -1
121 1 2 -1.1794 2.2983770293426558 4.380568763030126 15.478644674843657 1 0 1
123 1 1 0.5897 2.715949533315384 5.228130360386106 15.631909284746142 1 0 1
122 1 1 0.5897 1.8294321219523995 4.490166444107873 14.65142249652735 1 0 1
388 1 2 -1.1794 2.4946934569728403 6.386909537783096 13.09103124215033 -4 8 6
853 1 2 -1.1794 3.2671043059556455 2.4331295454240265 11.564939735210112 -2 2 0
622 1 2 -1.1794 1.0777266478958802 3.424452656881063 13.053693620222289 5 6 4
428 1 1 0.5897 2.571399965010899 5.523196325458496 11.504286240623083 -1 2 1
17 1 1 0.5897 4.101355692934086 5.157750272750906 13.40834886119059 -1 6 2
535 1 2 -1.1794 4.072751318208089 2.4550749994462344 14.779227184231363 9 6 -1
623 1 1 0.5897 1.8441162529859134 3.013110442391903 12.65411321550387 5 6 4
334 1 2 -1.1794 4.017397702553507 6.470287793730637 16.188830559267934 5 8 2
18 1 1 0.5897 4.582525047549618 3.8015286524578293 13.878459080693668 -1 6 2
624 1 1 0.5897 0.7883542746574113 4.070052640336042 12.408954110502892 5 6 4
389 1 1 0.5897 1.6355984876587735 6.80897419428038 13.084016559905738 -4 8 5
16 1 2 -1.1794 4.8246559151922455 4.537576379123379 13.316469402021303 -1 6 2
396 1 1 0.5897 2.850060375453658 3.401006983880955 19.830936587720714 3 3 1
4 1 2 -1.1794 1.5146904670507717 5.358277247228703 18.148887614724842 6 2 0
394 1 2 -1.1794 2.7029412810299096 2.9734696685780855 18.987251111531215 3 3 2
335 1 1 0.5897 4.376530202702085 5.767838717534049 16.730870910223864 5 8 2
111 1 1 0.5897 4.3339932758038096 3.8921457702009956 18.264568669603797 -1 3 -12
395 1 1 0.5897 2.1857661336746643 3.6037769392153622 18.485776436368987 3 3 2
5 1 1 0.5897 2.133160652520818 5.783977954525639 18.742607384471945 6 2 0
6 1 1 0.5897 0.7284737474471328 5.223140697653124 18.677876266616337 6 2 0
598 1 2 -1.1794 3.2002178148536644 6.628756904232272 19.847770699734482 -2 -5 -9
600 1 1 0.5897 3.3923087910639738 6.344861231267928 20.741491309940905 -2 -5 -9
570 1 1 0.5897 1.3092669889986321 1.9614548990974612 19.730474546550425 5 -2 1
230 1 1 0.5897 0.9585050313708365 3.5978522424744743 16.434090420085465 -1 8 3
22 1 2 -1.1794 2.0914407342078754 9.426070740436783 4.961429066883317 -5 0 4
23 1 1 0.5897 2.626282016091193 8.990986994569816 5.625415051358399 -5 0 4
24 1 1 0.5897 2.5752776614433843 9.302561499772057 4.144761462400589 -5 0 4
857 1 1 0.5897 3.388127820200638 10.837984028724499 1.192833354841874 1 -2 -3
822 1 1 0.5897 4.0605123900064015 9.85286605240469 2.9733045795434396 3 -3 5
856 1 2 -1.1794 3.7508557192579235 11.349609804549718 1.9159528927519391 1 -2 -3
274 1 2 -1.1794 0.9399756566625956 7.595070567828983 2.446582659929927 0 -5 -3
321 1 1 0.5897 4.420719424443282 11.506363995448002 4.85786289825695 5 1 -3
820 1 2 -1.1794 4.17672012515792 8.94455682989588 3.252035613008307 3 -3 5
275 1 1 0.5897 1.7859648579135488 7.191193141620022 2.2529670377605613 0 -5 -3
821 1 1 0.5897 4.628662915664348 9.007680059966756 4.093453319101139 3 -3 5
786 1 1 0.5897 0.7695939622327401 9.442267383051245 1.8191278385272773 6 6 1
505 1 2 -1.1794 1.0629351298233005 7.80512385328453 10.415224722478658 0 4 -2
422 1 1 0.5897 1.3880582894608269 10.530939779398068 7.538246570981183 -6 -2 7
280 1 2 -1.1794 4.33878246852896 10.984557639898558 7.61331996179566 2 -1 6
56 1 1 0.5897 1.4943237178594504 8.312899805970638 7.480566790239583 0 -7 1
282 1 1 0.5897 3.455347996133739 10.724403252836503 7.874241987852333 2 -1 6
423 1 1 0.5897 1.5214759423440247 10.117291895025167 8.988406204722779 -6 -2 7
305 1 1 0.5897 4.652521531614679 9.525036289516509 6.507099517344296 4 1 -3
55 1 2 -1.1794 1.8432654090282872 7.523585474177481 7.066476532676066 0 -7 1
421 1 2 -1.1794 1.9588182536324208 10.052379953794047 8.139442178603456 -6 -2 7
68 1 1 0.5897 4.61147268651327 7.433265514614797 8.994553382098324 3 1 -8
770 1 1 0.5897 4.0766486073531265 8.753107992343239 10.776210348100253 1 -5 1
57 1 1 0.5897 2.616904693671763 7.302533452192869 7.584977835516675 0 -7 1
304 1 2 -1.1794 4.6948759425386335 8.689411290273068 6.042110530366056 4 1 -3
106 1 2 -1.1794 2.196702893784948 11.022224259201097 10.846520875798971 1 1 4
771 1 1 0.5897 2.6338929593606064 8.313628474075978 10.907443284805803 1 -5 1
21 1 1 0.5897 1.3538668215836527 9.095860432319128 13.905122672272261 -7 -6 -6
140 1 1 0.5897 3.9051791855564693 10.30905787322547 13.750335939626755 -3 -1 -1
107 1 1 0.5897 1.4793820710588594 11.135944634636823 11.470011199542892 1 1 4
840 1 1 0.5897 2.553483027115581 9.733803443462183 15.814665862358133 0 -6 -4
839 1 1 0.5897 1.3691958319442996 10.458064212288463 15.21067096984422 0 -6 -4
769 1 2 -1.1794 3.3748520624416294 8.640946558003993 11.417411628906493 1 -5 1
838 1 2 -1.1794 2.275742323390037 10.208551390010356 15.031281179793973 0 -6 -4
108 1 1 0.5897 2.6821702391720517 10.26535028015178 11.174668639966308 1 1 4
19 1 2 -1.1794 0.7525288411932302 8.432959702506214 13.565731799077447 -7 -6 -6
390 1 1 0.5897 3.0791312025080755 7.025498413314798 12.68251651739231 -4 8 6
139 1 2 -1.1794 4.844597210321497 10.373735338219966 13.578484279591557 -3 -1 -1
546 1 1 0.5897 2.402444391470872 8.703723033475832 17.81376750942058 -6 6 2
560 1 1 0.5897 3.573685500528592 11.63779363974447 17.97718463888679 5 1 0
766 1 2 -1.1794 2.70521048783964 9.59813387128251 20.510941160528397 2 -2 3
545 1 1 0.5897 3.7612436615154485 9.36575802772046 17.899081426577617 -6 6 2
768 1 1 0.5897 2.634014082467564 8.652090311696899 20.383815550651434 2 -2 3
767 1 1 0.5897 1.8338974454717711 9.867459946224612 20.80162670774672 2 -2 3
654 1 1 0.5897 0.8198669076724664 10.123310801314846 18.558144823346474 2 -2 -5
544 1 2 -1.1794 3.2159484603548134 8.828000853784548 17.324887284227287 -6 6 2
561 1 1 0.5897 3.377600373244108 10.871973490778593 19.268296582198424 5 1 0
336 1 1 0.5897 3.787597883446809 7.160157171602678 16.811321323218763 5 8 2
559 1 2 -1.1794 4.056553140680196 11.209325928950811 18.683932510283256 5 1 0
599 1 1 0.5897 3.965991338220395 7.141445799526267 19.589001013111314 -2 -5 -9
653 1 1 0.5897 1.0733638451790148 11.453302233492062 17.88084820352457 2 -2 -5
791 1 1 0.5897 3.642278832655565 14.887414514327848 1.6759182160526898 1 6 -3
632 1 1 0.5897 2.168453475044805 16.438457959735324 3.849855812790998 4 12 5
737 1 1 0.5897 1.1577295043375395 14.83376608703222 5.150101941073389 -4 -2 -1
264 1 1 0.5897 1.874565489441832 12.350632368716507 4.710163664953972 -1 -1 9
262 1 2 -1.1794 2.709182520767488 12.819123802190783 4.69365002890419 -1 -1 9
790 1 2 -1.1794 3.175601836353909 14.079448878730192 1.889539945167486 1 6 -3
263 1 1 0.5897 2.6987636828555166 13.298809602825044 3.86538707805072 -1 -1 9
858 1 1 0.5897 3.614002413009544 12.261011072717064 1.6574286377838472 1 -2 -3
633 1 1 0.5897 3.2005626274526864 15.758281398548986 4.723908534065979 4 12 5
792 1 1 0.5897 2.3947592399319846 14.09988347990848 1.336275343116915 1 6 -3
631 1 2 -1.1794 2.360905017994898 16.2163665419547 4.760823511041261 4 12 5
400 1 2 -1.1794 1.7395708840667787 16.7558037108154 2.2381202900064494 -2 -7 3
401 1 1 0.5897 1.1281868263334247 16.01936075799071 2.2291315626122725 -2 -7 3
216 1 1 0.5897 4.342825955019222 14.38411558403507 7.144628142377667 -3 0 1
413 1 1 0.5897 1.9683059868522454 16.63896764974743 7.953361257886751 0 -2 1
455 1 1 0.5897 3.2265993015576164 15.780057192179243 11.03060689306601 -5 -3 2
530 1 1 0.5897 2.3098267834907658 13.698275470915853 8.956390127609266 -6 -2 -5
214 1 2 -1.1794 3.4014391488771745 14.229183009203107 7.222145550913832 -3 0 1
529 1 2 -1.1794 1.5998461791273793 13.20968834892616 9.372859598681282 -6 -2 -5
414 1 1 0.5897 3.184994948168544 15.867315146566877 7.488475378719415 0 -2 1
215 1 1 0.5897 3.1885388256764853 13.667375942734568 6.47696854275969 -3 0 1
454 1 2 -1.1794 3.7231662538991466 15.156286061209803 10.500929518953406 -5 -3 2
531 1 1 0.5897 2.0335345126050473 12.465979554523065 9.79123811125847 -6 -2 -5
500 1 1 0.5897 4.493774214448735 13.646839957010862 9.319300744377681 0 -1 -3
456 1 1 0.5897 4.628657469842992 15.461583193006181 10.55659406032531 -5 -3 2
412 1 2 -1.1794 2.810246179157176 16.74781578921271 7.511192243550856 0 -2 1
281 1 1 0.5897 4.429534346810357 11.881627566434469 7.934640809943039 2 -1 6
527 1 1 0.5897 4.101257727771136 13.572333300286846 11.842149818746892 -6 -4 -1
439 1 2 -1.1794 3.7621778467604363 14.638622473733792 14.57911540838605 0 0 2
441 1 1 0.5897 3.7317522032786785 14.092536570864763 13.793548396366784 0 0 2
526 1 2 -1.1794 3.8276880917193328 12.89684510339928 12.462710336179594 -6 -4 -1
584 1 1 0.5897 2.1727878924352284 15.110694904721452 15.632019921589011 4 -6 5
802 1 2 -1.1794 1.7767892512244905 16.221877270039844 12.446114604198295 3 2 -4
528 1 1 0.5897 3.4151720528844995 12.225068758559175 11.919785046898184 -6 -4 -1
804 1 1 0.5897 2.4261765075398785 16.202123467360522 13.149059591119448 3 2 -4
583 1 2 -1.1794 1.338695275165691 14.909346313350934 16.056249419110483 4 -6 5
77 1 1 0.5897 2.502350867977462 11.892338452739326 16.004347894570465 -6 -2 -7
440 1 1 0.5897 4.673832172735194 14.924485619545004 14.637497220721803 0 0 2
203 1 1 0.5897 3.9484305045157972 15.345417644684353 19.73980252287044 -5 5 11
665 1 1 0.5897 1.2443228548517147 12.543132730757542 19.71817737973455 11 -2 2
819 1 1 0.5897 2.8978251701382116 16.64778937930038 21.34140148706151 4 -10 -4
664 1 2 -1.1794 1.7119062221929708 13.262909284274762 20.141878108784063 11 -2 2
405 1 1 0.5897 3.5602130133721066 16.366732825002607 18.068741770699198 6 1 -1
204 1 1 0.5897 3.1071899857015848 14.153739481337166 19.334707882195758 -5 5 11
202 1 2 -1.1794 3.87835134874667 14.658678707086022 19.07669976040752 -5 5 11
76 1 2 -1.1794 2.5085530811954517 12.493421798735032 16.74926227682821 -6 -2 -7
666 1 1 0.5897 1.2665052912367707 14.052407881023646 19.834397571878263 11 -2 2
78 1 1 0.5897 2.0676293054752484 13.279518682071746 16.426997941283943 -6 -2 -7
817 1 2 -1.1794 3.776266622584643 16.566143530859893 20.969998866787165 4 -9 -4
585 1 1 0.5897 0.9751711282393732 15.763810571926282 16.2885579308222 4 -6 5
542 1 1 0.5897 2.949511042630025 18.188440254636518 4.807476858840209 -6 3 -2
409 1 2 -1.1794 1.5739527983509563 20.69360198873788 1.9102208210316116 11 5 -3
461 1 1 0.5897 1.7069529664811507 21.51793559930328 5.91808036399019 2 -2 0
460 1 2 -1.1794 1.3629658575901993 20.839529362161016 5.336995503632606 2 -2 0
543 1 1 0.5897 2.732885573643043 19.685759187284326 4.75258242557877 -6 3 -2
279 1 1 0.5897 4.513602432197228 17.9241205181028 3.4981395302844462 2 4 1
411 1 1 0.5897 1.2071724050775718 20.089376325877485 2.555679007215182 11 5 -3
402 1 1 0.5897 1.2117288010988023 17.50246936163689 2.5211352779594494 -2 -7 3
410 1 1 0.5897 2.3429906747349643 20.23931890704604 1.566084555012633 11 5 -3
541 1 2 -1.1794 3.371663242582331 19.005084860698304 4.540769747164807 -6 3 -2
608 1 1 0.5897 4.693043275454578 21.602752688703085 3.7458648865727633 3 4 5
462 1 1 0.5897 0.8659989714541154 21.32002568142287 4.6748997965273285 2 -2 0
818 1 1 0.5897 4.359388336609717 16.877580466956672 1.1699482743181326 4 -9 -3
218 1 1 0.5897 4.059733762260141 19.196221424557038 1.0353001663843528 8 -1 -7
795 1 1 0.5897 1.6872316107218293 20.123228861973512 8.483693577790163 -2 -1 5
270 1 1 0.5897 4.570538210093625 18.710189268459587 6.35585926252821 1 3 5
213 1 1 0.5897 3.486275400444711 17.892448258809253 8.67609788112501 8 1 1
558 1 1 0.5897 2.034909382330066 18.660348419193042 10.76045157554569 3 -7 1
211 1 2 -1.1794 3.599869918073285 18.278838643557506 9.544452120966728 8 1 1
212 1 1 0.5897 4.331671852222831 18.88736399888954 9.44247700035825 8 1 1
594 1 1 0.5897 4.026516861724443 21.005474512310933 8.90732193271882 4 -5 -7
592 1 2 -1.1794 3.106227416776283 21.237126823366147 9.032554728989828 4 -5 -7
793 1 2 -1.1794 0.9422828235332801 19.755161109640383 8.008513083455293 -2 -1 5
692 1 1 0.5897 1.0492762551234773 17.183006577253494 6.020296050670516 0 1 1
855 1 1 0.5897 3.2311636480146757 21.664572433408427 10.784616975654433 -2 1 0
253 1 2 -1.1794 2.5088693623628857 20.140429816256212 13.824437079246735 2 8 -7
255 1 1 0.5897 2.7921776566794603 19.450074643512647 14.423923008984202 2 8 -7
539 1 1 0.5897 3.3022094236687924 17.862598915376672 16.135676004939825 4 -4 2
556 1 2 -1.1794 1.5123907067197444 18.76605344912816 11.555450624648978 3 -7 1
540 1 1 0.5897 3.7211957019042723 17.94161529103774 14.683064862162443 4 -4 2
254 1 1 0.5897 2.1943017498681305 19.67242166253139 13.050974028163107 2 8 -7
103 1 2 -1.1794 4.487387492019162 17.831060400281835 12.311051990878408 -4 -2 7
536 1 1 0.5897 3.5182086241940826 21.508261591167237 14.507723865547549 9 5 -1
387 1 1 0.5897 4.704308677258082 21.072222821678913 16.001203821779985 -6 1 1
538 1 2 -1.1794 2.948708624732021 17.911148085540976 15.24747741654861 4 -4 2
105 1 1 0.5897 4.015896613228624 18.118663192100204 11.529256093395995 -4 -2 7
803 1 1 0.5897 1.6743936678601883 17.15099816807841 12.240036134108905 3 2 -4
557 1 1 0.5897 0.8947988530919804 19.4665248152769 11.345346172280369 3 -7 1
483 1 1 0.5897 0.9965981540222768 19.80155639009098 14.457293104636495 5 2 -3
125 1 1 0.5897 4.83738741925639 21.08146559203339 12.391221648418897 2 3 1
587 1 1 0.5897 1.335919165998983 18.90164020107022 18.794986438895805 -2 -5 5
142 1 2 -1.1794 1.646588237394508 20.234370566673693 17.32632415264907 1 5 3
588 1 1 0.5897 2.074216021671104 18.58704433564402 20.078665868726176 -2 -5 5
143 1 1 0.5897 2.4561592156254717 20.241397562921257 16.815649373814544 1 5 3
638 1 1 0.5897 4.086652906013041 21.697549767007764 18.97483679941552 -7 3 8
217 1 2 -1.1794 3.4420481132192196 19.5655511040672 20.896506134728895 8 -1 -8
403 1 2 -1.1794 3.5296755107728393 17.32165980185291 18.010364581394555 6 1 -1
404 1 1 0.5897 2.822499177016248 17.575847609862244 18.603246882022468 6 1 -1
586 1 2 -1.1794 1.3665137933802065 18.272767340146757 19.515970294289623 -2 -5 5
219 1 1 0.5897 3.980401208512137 20.115777523123764 20.327587944935026 8 -1 -8
385 1 2 -1.1794 4.800533901481937 20.361451826186 16.63505557345122 -6 1 1
144 1 1 0.5897 1.3487582001924565 21.14400759704216 17.316462365851734 1 5 3
680 1 1 0.5897 0.8148681160999952 17.973108730776588 16.42282723866061 -6 -5 -2
676 1 2 -1.1794 5.578460430427213 4.82668690400094 3.5371266348018007 0 2 -5
406 1 2 -1.1794 8.458021574696577 4.7741909878809485 2.608260514230098 -5 -2 4
283 1 2 -1.1794 7.073945074974597 4.888858822314874 5.9379143073174765 7 -2 1
677 1 1 0.5897 5.840566675944775 5.416936640048059 2.8306029071652716 0 2 -5
678 1 1 0.5897 6.27803613262656 4.903464904788113 4.18590914471601 0 2 -5
808 1 2 -1.1794 7.482259430793103 2.3798573634175804 3.7873475943188213 2 0 -5
408 1 1 0.5897 8.114095935198485 3.9275579937327 2.893137837858013 -5 -2 4
809 1 1 0.5897 7.362854274103554 2.3421732190323037 4.736316557376071 2 0 -5
285 1 1 0.5897 7.198893071867155 5.837595438661007 5.915075599964071 7 -2 1
549 1 1 0.5897 8.804121080664203 4.593376956163466 5.68631495871094 9 4 3
747 1 1 0.5897 8.33007553953806 6.465225708054792 3.513885487560199 5 4 -8
609 1 1 0.5897 4.9742589406858215 3.297166811766176 3.9044493290142435 3 5 5
49 1 2 -1.1794 8.405740243226763 5.89711767055822 9.079702758377872 11 -4 -1
72 1 1 0.5897 5.011484405116029 4.968488667823134 8.019134672252267 6 3 -8
690 1 1 0.5897 8.629789420239629 3.1152675957499554 9.400382532663077 -1 2 4
688 1 2 -1.1794 8.961806091746759 3.3961065456775303 8.547672593761398 -1 2 4
50 1 1 0.5897 8.522987969481644 4.9871728575583205 8.80680688644524 11 -4 -1
284 1 1 0.5897 6.721060420793967 4.714229666529368 6.8103953494020475 7 -2 1
71 1 1 0.5897 5.284675767593424 3.4933634484921834 7.81608394953671 6 3 -8
51 1 1 0.5897 7.881405016393742 5.842379474066936 9.878662855706793 11 -4 -1
288 1 1 0.5897 5.735074941378261 4.003609970361932 9.900086986693493 5 -3 6
286 1 2 -1.1794 5.739279973299654 3.688159377516971 10.803799385088112 5 -3 6
827 1 1 0.5897 6.904969761409404 1.9884970409770624 6.774799319700095 2 0 0
70 1 2 -1.1794 5.615173522372943 4.2690262129339605 8.269239910624556 6 3 -8
828 1 1 0.5897 8.261781410042019 2.5184867076022117 7.187163374776756 2 0 0
826 1 2 -1.1794 7.83392854143051 1.9494604780320985 6.5473292743237606 2 0 0
60 1 1 0.5897 7.368309039700487 2.5427614854640814 10.85516010171142 3 1 -2
58 1 2 -1.1794 8.309038186322047 2.4288250164917504 10.990308867162696 3 1 -2
718 1 2 -1.1794 5.185616247017535 1.954382949046881 6.639689104004175 9 6 -5
626 1 1 0.5897 6.29900647632427 5.075557806749683 14.602717498821212 -4 -2 -2
153 1 1 0.5897 7.507097862234144 2.329484995431889 14.100967851141522 -1 -1 -2
287 1 1 0.5897 5.6947929724836115 4.482800967867355 11.335579995512703 5 -3 6
32 1 1 0.5897 6.2726084375887075 6.528549807470024 12.442883411240437 0 13 -6
31 1 2 -1.1794 6.607615025893702 6.344308210365214 11.565359787263409 0 13 -6
523 1 2 -1.1794 8.525438340586943 3.5521544677233763 13.512477878944292 4 0 5
525 1 1 0.5897 7.99749530326511 4.045262370546066 14.1404563743236 4 0 5
625 1 2 -1.1794 7.068113513103714 5.11965253535141 15.170841970929565 -4 -2 -2
59 1 1 0.5897 8.50445486291937 2.949930469434215 11.769080515196082 3 1 -2
627 1 1 0.5897 6.88045004041517 5.839359612780138 15.773371345765284 -4 -2 -2
660 1 1 0.5897 8.431013923973016 6.130862183560953 12.027089463921845 2 -2 3
508 1 2 -1.1794 6.121180673136668 2.9210561779158466 21.173211588830902 3 -5 5
509 1 1 0.5897 6.228518399154188 3.7772470357988652 20.758868861652587 3 -5 5
646 1 2 -1.1794 7.139451085027311 2.539279581627138 17.131197737453768 -8 4 0
368 1 1 0.5897 6.301368329382806 5.951992643422333 20.931423415491544 3 8 1
110 1 1 0.5897 5.3873922735111055 4.950099503620395 18.515524586783236 -1 3 -12
367 1 2 -1.1794 6.289916014479514 5.528290319480522 20.073182187402566 3 8 1
647 1 1 0.5897 6.453372054249087 3.169993769677408 17.349727091729676 -8 4 0
369 1 1 0.5897 7.195059129263808 5.2518715927947905 19.92991760971085 3 8 0
816 1 1 0.5897 8.644579355697925 2.8311592767085165 17.73187957763735 -9 8 2
648 1 1 0.5897 6.884545665656316 2.194275415205505 16.275503599031243 -8 4 0
119 1 1 0.5897 9.09289063155413 4.522680634336654 20.892391479168182 5 -2 -7
109 1 2 -1.1794 4.9333025092560865 4.485887948610806 17.81229807772197 -1 3 -12
118 1 2 -1.1794 8.999600876365346 4.6703949059643115 19.951260737088163 5 -2 -7
510 1 1 0.5897 5.785447179302831 2.3575215917601353 20.476122412695148 3 -5 5
303 1 1 0.5897 8.545816927358999 10.546389394665773 4.446324308327543 4 2 11
745 1 2 -1.1794 8.10676205413791 6.967528599895936 4.297521944723133 5 4 -8
430 1 2 -1.1794 7.002946610592586 9.475908992556125 3.477058001891019 -6 -1 -3
432 1 1 0.5897 6.978363943460268 9.700540677156779 2.5469208543937887 -6 -1 -3
746 1 1 0.5897 7.82724377777519 7.82024734253359 3.964411722670742 5 4 -8
341 1 1 0.5897 5.826546467902345 7.86504439954374 2.4716894242126406 3 9 0
431 1 1 0.5897 6.418984361386341 10.11036499813232 3.8926659878790044 -6 -1 -3
319 1 2 -1.1794 5.36074715729581 11.386205666208605 4.7231106324076695 5 1 -3
301 1 2 -1.1794 8.817362155047586 11.124313065962943 5.159405545457309 4 2 11
595 1 2 -1.1794 8.705336815367342 7.5693870153297675 1.5421328482968404 2 -5 1
485 1 1 0.5897 5.449477162883091 10.594519021387379 1.3464173575108402 3 -1 -4
484 1 2 -1.1794 6.109792686435657 9.979308539815348 1.0274733413927728 3 -1 -4
340 1 2 -1.1794 6.008744367478756 7.068985772358003 1.9723580136979602 3 9 0
342 1 1 0.5897 6.951773722437748 7.097641892527625 1.8107704685958157 3 9 0
155 1 1 0.5897 8.599169172436923 8.551890177491613 10.295213081988477 5 0 -2
11 1 1 0.5897 6.4690356457360565 10.535637289877428 6.9178350173693 4 7 7
10 1 2 -1.1794 7.234070910441056 9.98894346078149 7.096905409015025 4 7 7
306 1 1 0.5897 5.27431547078174 8.146489848576248 6.576679263440894 4 1 -3
170 1 1 0.5897 7.042306381006771 8.204310495429507 7.233825187987183 -7 7 -6
550 1 2 -1.1794 5.268833081497454 9.007079731293334 9.473494111634807 1 6 -5
12 1 1 0.5897 7.8847004956452675 10.268258249511351 6.452791958482728 4 7 7
835 1 2 -1.1794 8.544501667106807 11.391650972977834 9.069477438123915 4 7 2
551 1 1 0.5897 5.807341795559639 9.454004534620317 10.126551478559838 1 6 -5
836 1 1 0.5897 8.068805716526931 10.842164717583737 8.446584660372901 4 7 2
169 1 2 -1.1794 6.836869809580948 7.270313534366179 7.192775347082862 -7 7 -6
154 1 2 -1.1794 7.958587546733295 8.62347680955489 11.002857449047225 5 0 -2
702 1 1 0.5897 5.7682259317489475 11.587550783536473 10.797118149589927 2 2 1
171 1 1 0.5897 7.205117047275049 6.907934242306119 7.99857218543388 -7 7 -6
552 1 1 0.5897 5.032894013235871 9.691843728897549 8.847676310297517 1 6 -5
731 1 1 0.5897 9.042223680407348 7.507090354640602 13.761532221166354 -3 7 -8
730 1 2 -1.1794 8.498735409053154 7.97369774524457 14.396454987875646 -3 7 -8
187 1 2 -1.1794 8.425494644877185 10.944804768305715 14.62589688254 -5 3 5
156 1 1 0.5897 8.408538331472354 9.122930503900566 11.684261277532972 5 0 -2
188 1 1 0.5897 7.532634569263327 11.287864527961837 14.662493013320907 -5 3 5
189 1 1 0.5897 8.317919245687534 9.993757080999334 14.639641724425807 -5 3 5
701 1 1 0.5897 5.570445851317933 10.650220322734434 11.969383925885882 2 2 1
732 1 1 0.5897 7.600542417325047 7.744411026238942 14.157901072578209 -3 7 -8
208 1 2 -1.1794 5.517640025732338 7.7643187703340235 13.780811507733597 1 -2 3
700 1 2 -1.1794 6.197224224498468 10.884519526043013 11.284912672074666 2 2 1
210 1 1 0.5897 5.030956844576039 7.41018903561912 14.525100343001352 1 -2 3
87 1 1 0.5897 9.021390865937407 10.842464376397375 12.85898876371989 -4 4 3
86 1 1 0.5897 8.614839001220243 10.863328030684858 11.400859959438115 -4 4 3
209 1 1 0.5897 5.270200042861812 8.688491970448652 13.750078709524498 1 -2 3
141 1 1 0.5897 5.155386016332853 11.039956749925885 14.19151435631071 -3 -1 -1
351 1 1 0.5897 5.945994153736628 11.275764647536173 16.064806272600016 -11 -4 0
33 1 1 0.5897 7.027724679836791 7.160071329555149 11.292696519877286 0 13 -6
615 1 1 0.5897 8.019689991347226 7.383447916332802 16.118434990052393 -4 7 6
614 1 1 0.5897 6.924475728759726 8.112514187774742 16.86732167864426 -4 7 5
565 1 2 -1.1794 5.216672587800833 8.430165962276554 19.268470654646983 0 10 -12
116 1 1 0.5897 7.2803660091814235 10.246938905989978 17.244165011969116 -6 -11 1
117 1 1 0.5897 5.865472325183578 10.176672239745479 17.778020483343738 -6 -11 1
290 1 1 0.5897 8.436012357031768 7.562502993715293 18.41730717909467 -7 -8 -9
566 1 1 0.5897 5.3405776791748325 8.988414054857884 20.036082455765538 0 10 -12
518 1 1 0.5897 8.267882016145428 11.227357346366064 19.37128584269096 -1 4 0
289 1 2 -1.1794 8.953302547831166 7.49852658577346 19.220143523710377 -7 -8 -9
567 1 1 0.5897 5.978027881398225 7.850027033103891 19.268225914160674 0 10 -12
115 1 2 -1.1794 6.434086823515433 9.826172196535158 17.092400408987487 -6 -11 1
597 1 1 0.5897 8.79614290749144 7.515257355850826 21.08309330619165 2 -5 0
463 1 2 -1.1794 8.925209236675094 11.012038400861028 17.83791854143417 6 4 -6
613 1 2 -1.1794 7.369271673171362 7.26682007152444 16.81094750589996 -4 7 6
517 1 2 -1.1794 7.906686578588261 11.52130403583797 20.20756713519303 -1 4 0
486 1 1 0.5897 6.770057666880434 10.531631886055843 21.101155659635346 3 -1 -5
48 1 1 0.5897 6.194313584327685 13.263335940764064 2.2802059463177606 7 -1 -1
47 1 1 0.5897 7.491204264890087 13.550984831129698 3.006355058825031 7 -1 -1
267 1 1 0.5897 8.364407566597913 15.826847173118766 2.9411573798856216 -4 1 0
398 1 1 0.5897 5.684394796271801 14.568405938276928 4.262544968770286 5 2 -3
46 1 2 -1.1794 6.561562439517565 13.379308123269462 3.156525900881166 7 -1 -1
397 1 2 -1.1794 5.097041600641641 15.252012816963683 4.584919780014166 5 2 -3
399 1 1 0.5897 5.5063791308214025 15.558066676384987 5.394241628326085 5 2 -3
265 1 2 -1.1794 8.212769921888324 16.74762817567956 2.7280281515536235 -4 1 0
266 1 1 0.5897 7.618832975332336 16.725595917469903 1.9776997716454001 -4 1 0
278 1 1 0.5897 5.2150632110423825 16.583251132746355 3.4547356990153144 2 4 1
320 1 1 0.5897 5.553963580523156 11.879906006940596 3.9261384874309275 5 1 -3
192 1 1 0.5897 5.980882428744748 15.996281725825344 8.287244465779388 4 5 -7
501 1 1 0.5897 5.807539056245596 13.009882233867904 8.919062261065624 0 -1 -3
240 1 1 0.5897 7.006685977545084 14.90864411893812 10.064846454851388 -7 -9 6
190 1 2 -1.1794 5.929488139602964 16.131596981342323 7.3410559538381 4 5 -7
238 1 2 -1.1794 6.394610607695357 15.644504903471027 10.054720756995076 -7 -9 6
450 1 1 0.5897 7.69816766259251 16.402161992892964 6.711397123884428 9 8 -8
195 1 1 0.5897 8.467353683645834 12.937203383077401 9.885357500967306 4 0 5
225 1 1 0.5897 7.10270776116138 13.098260499871428 6.596656419906492 -2 -2 -10
449 1 1 0.5897 8.611380086674359 15.298848035865369 6.220872652586168 9 8 -8
224 1 1 0.5897 5.81264012436624 12.497864747728704 6.079792823920577 -2 -2 -10
223 1 2 -1.1794 6.1718489826928415 13.012503669677258 6.802522891271767 -2 -2 -10
499 1 2 -1.1794 5.1019162248531735 12.948977306772697 9.562971432340323 0 -1 -3
193 1 2 -1.1794 8.315735418175564 13.735090816086755 10.391920373205952 4 0 5
382 1 2 -1.1794 8.937552301796362 13.47619117651872 6.6558238267281435 -6 -2 -1
448 1 2 -1.1794 8.45824705564884 16.241224480554113 6.152294884070774 9 8 -8
239 1 1 0.5897 6.953578514478159 16.4215113207477 10.04745591324846 -7 -9 6
383 1 1 0.5897 8.962185611193494 12.712867015613371 6.07879578790376 -6 -2 -1
384 1 1 0.5897 9.09854453585296 13.12138330615351 7.53014281060578 -6 -2 -1
349 1 2 -1.1794 5.910734148745194 12.087429438704953 15.55865837805605 -11 -4 0
742 1 2 -1.1794 7.092551289091772 13.070790034161204 12.700558640734998 -4 1 3
75 1 1 0.5897 7.589455239108249 15.725159232961435 15.451950658317957 -9 -3 0
172 1 2 -1.1794 6.215756587535254 15.562056011213661 13.1543553530012 3 -3 2
744 1 1 0.5897 6.548511430599113 12.457435599935435 12.206548437109875 -4 1 3
173 1 1 0.5897 5.405545191233152 16.002568669153266 12.897989480616072 3 -3 2
296 1 1 0.5897 7.982152504826554 13.613038589835533 14.287347678411837 1 1 -2
295 1 2 -1.1794 8.521579743959673 14.138106612986876 14.878583819244982 1 1 -2
743 1 1 0.5897 6.593433496608568 13.887574038413124 12.701066506126676 -4 1 3
174 1 1 0.5897 6.869907232414614 16.26026592651933 13.182759948797058 3 -3 2
350 1 1 0.5897 6.019786907581985 12.780930266430616 16.209367266652205 -11 -4 0
194 1 1 0.5897 8.12152435035905 13.424615630325443 11.276287551166675 4 0 5
297 1 1 0.5897 9.100530931741291 13.504187794255772 15.301890090024557 1 1 -2
73 1 2 -1.1794 7.023588604012704 16.19456855396118 16.06486818162085 -9 -3 0
717 1 1 0.5897 6.387859347578085 14.82892928850403 17.068484194058968 1 -8 -4
698 1 1 0.5897 6.4216857886192695 12.702000044024302 20.390929932747163 4 -2 -11
699 1 1 0.5897 5.127027437705385 13.458693953833158 20.183195193736587 4 -2 -11
716 1 1 0.5897 5.302645934682934 14.236681710564698 17.94222170069208 1 -8 -4
311 1 1 0.5897 8.913348537321058 16.324657620537934 20.56217327088246 -1 4 2
831 1 1 0.5897 8.154124850569868 13.883464358993587 17.819042178664404 3 6 2
697 1 2 -1.1794 5.856056685942494 13.359722006687134 20.79552218015796 4 -2 -11
715 1 2 -1.1794 6.170177638805292 14.051448612210434 17.582643453859973 1 -8 -4