LAMMPS data file via write_data, version 30 Jul 2021, timestep = 8250000

864 atoms
2 atom types
576 bonds
1 bond types
288 angles
1 angle types

0.5611294171664003 17.6464429828374 xlo xhi
1.752467604318321 21.876710195687775 ylo yhi
0.6845765782963333 21.528619221700932 zlo zhi

Masses

1 1.00794
2 15.9994

Pair Coeffs # lj/cut/tip4p/long/omp

1 0 0
2 0.21084 3.1668

Bond Coeffs # harmonic/omp

1 450 0.9572

Angle Coeffs # harmonic/omp

1 55 104.52

Atoms # full

174 1 1 0.5897 2.7277184794511884 5.09467462004244 3.8606970712472677 2 1 -1
698 1 1 0.5897 3.3811657830073316 3.1535649333334037 3.8047649469791893 -4 5 -4
428 1 1 0.5897 1.2811839358582744 6.422299108589507 5.6172039825400715 -2 2 -3
697 1 2 -1.1794 2.732937005290921 3.357595236086796 3.130562688819745 -4 5 -4
172 1 2 -1.1794 2.261840032738356 5.872720088034992 4.167263140996214 2 1 -1
173 1 1 0.5897 2.291627381300105 6.477845959093301 3.4260883063271526 2 1 -1
699 1 1 0.5897 3.1641645552586275 3.130836631888048 2.306550431729226 -4 5 -4
622 1 2 -1.1794 4.336897287217827 3.2954128969989567 1.0566293270178906 1 -1 3
194 1 1 0.5897 3.712465010862479 6.74162682291404 5.5237249618341595 2 -3 2
161 1 1 0.5897 1.1612229264253484 3.810358660956856 5.394544350031134 0 7 2
351 1 1 0.5897 3.0077654752992276 6.3044212176118615 1.1774534332783118 -10 2 -2
349 1 2 -1.1794 2.729893639487216 5.531941452049667 0.6850561216332524 -10 2 -2
623 1 1 0.5897 4.027972791139343 4.174919938644434 0.8388920617313536 1 -1 3
350 1 1 0.5897 1.7929021430454992 5.456293717899789 0.8658924633328766 -10 2 -2
245 1 1 0.5897 2.467912482538783 3.418824153724607 7.520265771352076 -3 4 0
269 1 1 0.5897 1.2997594550861145 5.066095914163439 8.940384336334827 5 7 4
109 1 2 -1.1794 2.2468549045474964 1.924584494628407 9.934132565444058 -3 -2 -7
244 1 2 -1.1794 2.463030633420705 3.13847555056007 6.604979870086544 -3 4 0
268 1 2 -1.1794 2.03213953585234 4.46324679163998 9.069047158525116 5 7 4
110 1 1 0.5897 2.111157697579706 2.8678415945825657 9.843502354341497 -3 -2 -7
694 1 2 -1.1794 3.9911928945821034 5.830104386483157 10.472099911607277 1 -3 -2
246 1 1 0.5897 1.832428601042748 2.4187539810588556 6.577760858216186 -3 4 0
696 1 1 0.5897 4.620072908424545 5.900750938665067 9.753831544175272 1 -3 -2
270 1 1 0.5897 2.7265681965723196 5.005633317528095 9.443277720736637 5 7 4
735 1 1 0.5897 3.831808159090151 1.9857917812762287 8.794224678774698 -1 0 -2
695 1 1 0.5897 4.068092851071899 6.66111086719682 10.941038915268768 1 -3 -2
198 1 1 0.5897 4.052325834382263 3.7246503847180303 6.030070277885335 -4 0 -2
691 1 2 -1.1794 1.583095217884575 5.668601536374657 13.099398911170537 6 0 5
188 1 1 0.5897 4.085099572609225 1.8390496853841387 12.87313155173449 -3 3 2
303 1 1 0.5897 4.788284710791612 3.8830387811059803 14.02795262945371 1 3 6
530 1 1 0.5897 0.7669467372614873 4.492667932273596 15.896715147666557 -4 -2 -6
301 1 2 -1.1794 3.8598890322509667 4.1150430507165 14.002544659717348 1 3 6
692 1 1 0.5897 2.2893346893999924 5.026190017005554 13.16958468848912 6 0 5
761 1 1 0.5897 3.99304439029601 5.947149702387258 14.477337027935414 3 -5 2
693 1 1 0.5897 1.0002897570519926 5.465439648973598 13.83116665976181 6 0 5
302 1 1 0.5897 3.529562474390147 3.878445094432909 14.86930424083513 1 3 6
258 1 1 0.5897 0.9348801749914548 5.317571550616282 18.306007788256288 -1 -1 -1
701 1 1 0.5897 3.577464927206017 2.370052840943484 19.027547589694485 4 1 3
103 1 2 -1.1794 3.2288494464818425 4.165509438583088 19.03988999723479 5 0 2
579 1 1 0.5897 2.4370442317188585 3.8613129864142337 17.245449523516886 0 2 -1
104 1 1 0.5897 3.909965560821919 4.823105985357726 18.89844189423244 5 0 2
280 1 2 -1.1794 0.8199758098148602 2.1976433392567047 20.315396294452547 -3 0 2
105 1 1 0.5897 2.54590018655506 4.628011948247727 19.525723458847647 5 0 2
624 1 1 0.5897 3.793526484125506 2.712118297352897 21.370679589043387 1 -1 2
578 1 1 0.5897 2.163240761796059 2.5236750705423168 16.59125111782384 0 2 -1
577 1 2 -1.1794 2.295989373077237 3.450593747822704 16.392341785716095 0 2 -1
343 1 2 -1.1794 1.3663644870237843 9.333598537052534 5.093860475321159 -4 0 -2
277 1 2 -1.1794 2.8904110377955807 7.757705822350352 2.132694304455672 1 4 0
609 1 1 0.5897 1.2724318966062642 10.253531673926899 3.220469045514272 4 2 1
607 1 2 -1.1794 1.7586931295207844 10.91115585964533 2.722995562352466 4 2 1
279 1 1 0.5897 1.9725468972166451 8.019676208013276 2.060079412007395 1 4 0
278 1 1 0.5897 3.3364979535397588 8.536229834474353 2.4663560715261656 1 4 0
346 1 2 -1.1794 4.009162701531254 9.816924439293519 5.3975372800525845 -4 2 -4
318 1 1 0.5897 4.462969759355641 10.307386156663638 1.746281455947805 -4 -6 -2
193 1 2 -1.1794 4.576103221793551 7.12808243762901 5.6691413894741975 2 -3 2
348 1 1 0.5897 4.289774377979322 9.82737206178602 4.482360920156141 -4 2 -4
345 1 1 0.5897 2.2546616823932295 9.674405321290507 5.199670481366142 -4 0 -2
608 1 1 0.5897 1.6269379100540096 10.66525065444632 1.8072557095334625 4 2 1
344 1 1 0.5897 1.3413311349124544 8.552935487608696 5.647346254273376 -4 0 -2
316 1 2 -1.1794 4.663358596723555 9.92797500275137 2.601998315823793 -4 -6 -2
195 1 1 0.5897 4.4276988786617295 8.072525010742456 5.620503612150573 2 -3 2
347 1 1 0.5897 4.16306013566984 10.709985721411233 5.705986672352928 -4 2 -4
362 1 1 0.5897 3.4224450346259183 8.319394095427736 8.612969611664429 4 -2 -3
361 1 2 -1.1794 2.5675931783652444 8.61953696396192 8.922005456406026 4 -2 -3
390 1 1 0.5897 2.050291419927549 11.575515863855394 8.803586134319794 2 4 3
388 1 2 -1.1794 2.949984971343192 11.37823531168893 8.54283465658095 2 4 3
465 1 1 0.5897 1.6292401705877033 8.219830519537528 10.27131454701201 6 -1 -4
389 1 1 0.5897 2.9559617935748066 10.43194649188011 8.398293377938693 2 4 2
266 1 1 0.5897 3.290280419068942 11.123897138202402 10.442754097717115 -1 -1 -1
363 1 1 0.5897 1.937694501562795 8.175988270453454 8.353793206201246 4 -2 -3
80 1 1 0.5897 0.6437207243666302 10.844265577435829 6.097210274974494 -1 -2 -7
427 1 2 -1.1794 1.0964499560903584 6.907944970857397 6.421203231426904 -2 2 -3
463 1 2 -1.1794 1.111549048346275 7.848488591280918 10.985790211221996 6 -1 -4
267 1 1 0.5897 2.6338824341381164 10.550549514768372 11.680764960362875 -1 -1 -1
175 1 2 -1.1794 2.9236340401342638 9.88577869176313 14.610508414478474 -3 -2 8
844 1 2 -1.1794 0.9621565693037398 7.68071467120219 15.039353248985137 1 -2 6
176 1 1 0.5897 2.051209219683763 9.496384871355453 14.550328611280396 -3 -2 8
177 1 1 0.5897 2.8174443716871735 10.768530364141503 14.255774574647978 -3 -2 8
265 1 2 -1.1794 3.4887875156383394 10.693473170573732 11.274438248156457 -1 -1 -1
411 1 1 0.5897 4.073778624958396 8.91713617293587 11.604323737594168 5 0 -6
589 1 2 -1.1794 1.0114053659486804 10.150722812808944 12.350461076219055 1 2 0
846 1 1 0.5897 1.057205946303157 7.32225711023751 15.921900471923939 1 -2 6
591 1 1 0.5897 0.8665953304711449 9.317838837101945 11.901354545189646 1 2 0
762 1 1 0.5897 4.017029748545455 7.335709222915806 13.874351196403278 3 -5 2
409 1 2 -1.1794 4.41488486758343 8.125806599475922 12.021221735631938 5 0 -6
845 1 1 0.5897 1.6257650030316066 7.2241185208102525 14.522090681610518 1 -2 6
464 1 1 0.5897 1.7295300116661327 7.301495290295203 11.470835938485816 6 -1 -4
760 1 2 -1.1794 3.917004583003001 6.873442243319399 14.706625421425553 3 -5 2
806 1 1 0.5897 3.184747198545816 8.904465087588267 16.183856946442212 4 0 -4
590 1 1 0.5897 0.7053157730318521 10.813606455038638 11.73138352372034 1 2 0
768 1 1 0.5897 4.797612387731614 11.664614332719061 11.684609388850905 0 -5 4
587 1 1 0.5897 2.142821201320081 9.9776945236171 17.96660770482583 -1 4 5
64 1 2 -1.1794 1.4154155981928094 7.053497257112291 17.67147423921876 6 1 -4
66 1 1 0.5897 0.7927867182878247 7.567012307528533 18.186276493514363 6 1 -4
805 1 2 -1.1794 3.3803432245365115 8.808353987230149 17.11599658329791 4 0 -4
807 1 1 0.5897 4.228415829562191 8.364918834850927 17.1387989511024 4 0 -4
24 1 1 0.5897 4.140761575500884 10.759736524282998 17.443446537476095 -2 2 2
454 1 2 -1.1794 0.7518882607444745 10.98874016495385 21.036645924759668 4 -4 0
65 1 1 0.5897 2.146538638216025 7.650903026734961 17.5135257546797 6 1 -4
800 1 1 0.5897 4.360083268589742 8.910087783811584 20.49902658302657 -1 0 3
586 1 2 -1.1794 1.4366808771459585 10.435416066585908 18.422950046923557 -1 4 5
611 1 1 0.5897 4.0791838656459944 11.538667342789013 20.666429356683285 5 2 -3
455 1 1 0.5897 0.9526474275727257 10.711821711050346 20.142570285438808 4 -4 0
610 1 2 -1.1794 3.617104029419884 10.761969706562898 20.982053015935236 5 2 -3
22 1 2 -1.1794 4.404788436709492 11.656559180502487 17.649283086064916 -2 2 2
612 1 1 0.5897 2.6930734002617647 10.947935376023091 20.814846596962152 5 2 -3
588 1 1 0.5897 1.6489935600164312 11.363581772704787 18.323957862977824 -1 4 5
545 1 1 0.5897 2.400703488174452 15.319361031790232 4.546700636935996 -5 2 3
122 1 1 0.5897 3.861014402231172 12.89816080186563 4.325595038640973 -1 -2 -1
544 1 2 -1.1794 1.6300231435064363 14.969640124068915 4.994040166917189 -5 2 3
121 1 2 -1.1794 4.161192713579213 12.863850383896043 3.417257430436766 -1 -2 -1
546 1 1 0.5897 1.1074936704609848 14.572673758116787 4.2970783697478625 -5 2 3
123 1 1 0.5897 3.818403330701061 12.03518196014979 3.082343298908038 -1 -2 -1
663 1 1 0.5897 0.9162290855109116 13.781361995764458 1.983195690717347 -2 -3 1
736 1 2 -1.1794 3.529810680185029 14.919026437684824 1.8848724830241983 2 0 0
662 1 1 0.5897 0.9042626102489164 12.591627754739314 2.919487020797583 -2 -3 1
25 1 2 -1.1794 4.256408267677968 15.991745113796435 4.860669732705466 -3 3 6
738 1 1 0.5897 2.9461467607687175 14.583906936141016 1.2041424654811792 2 0 0
737 1 1 0.5897 3.656287131663879 14.17869263705366 2.478396612453036 2 0 0
661 1 2 -1.1794 0.7366527959332283 13.533671541954208 2.890257363015539 -2 -3 1
858 1 1 0.5897 0.9878678506191624 16.514000091586308 5.627842479537722 -1 0 -3
233 1 1 0.5897 2.323086850563302 16.25859855021291 2.261005951348466 -3 0 -2
27 1 1 0.5897 4.796590663925797 16.595907502703692 4.351201616898292 -3 3 6
46 1 2 -1.1794 4.035210153247345 12.451492108289257 6.394710208470326 4 -2 0
276 1 1 0.5897 2.58971862044423 14.524126654010162 8.930673319395636 -1 3 -2
48 1 1 0.5897 3.7716832310488027 12.103556046874619 7.2466806928464 4 -2 0
205 1 2 -1.1794 1.4718976508643347 14.118398052917728 7.530822336380911 -4 2 -3
207 1 1 0.5897 1.7193198327063561 13.222592362744292 7.3012859840637825 -4 2 -3
206 1 1 0.5897 1.374239676919636 14.563597713955014 6.68902112365727 -4 2 -3
71 1 1 0.5897 0.7284941869625863 12.156026561467215 10.374248484857963 3 1 -4
274 1 2 -1.1794 3.1833657198474477 14.701359417627893 9.660438046662975 -1 3 -2
275 1 1 0.5897 4.034676340624247 14.382878969407438 9.360094292416855 -1 3 -2
752 1 1 0.5897 2.1893698655795677 13.761246259054303 10.801474988080615 5 0 1
47 1 1 0.5897 4.737049439264216 13.070872309079514 6.595081995322383 4 -2 0
447 1 1 0.5897 3.581626734349194 16.40025080908479 10.175723741868977 5 -1 -2
664 1 2 -1.1794 2.778810119879453 16.227888068398567 13.67172489149018 -1 -1 3
564 1 1 0.5897 2.7087227448138775 12.933054619210505 12.937450554743036 3 4 4
562 1 2 -1.1794 2.82666585456846 12.602299950289218 13.827985889784387 3 4 4
742 1 2 -1.1794 1.0474503162935191 13.55671599584411 15.55249731863127 -4 -1 -1
666 1 1 0.5897 3.418764913438022 15.732162148868248 13.160737540630942 -1 -1 3
321 1 1 0.5897 3.165059064418507 15.8718030662781 15.219649434107975 3 -3 4
753 1 1 0.5897 0.9277606196246269 13.865850353733375 11.631929204008655 5 0 1
563 1 1 0.5897 3.723994199517604 12.844523489310333 14.057095653311597 3 4 4
744 1 1 0.5897 1.7362055972652548 13.119898170857704 15.051324177395449 -4 -1 -1
751 1 2 -1.1794 1.6827076222780837 13.299983736883243 11.470016161222357 5 0 1
305 1 1 0.5897 1.4925441516727407 16.676028585449288 12.471365402382881 0 -3 -6
319 1 2 -1.1794 3.417894417143574 15.675475987808438 16.12180861839078 3 -3 4
155 1 1 0.5897 1.315607649258487 16.07261637884227 16.13728598850086 4 1 -5
394 1 2 -1.1794 4.822059667216149 14.8069651980653 12.601125179748987 7 -2 4
369 1 1 0.5897 4.409004077331979 14.169303046394704 15.670622450288928 8 6 -1
50 1 1 0.5897 2.1053928585411876 13.979647295553505 18.554062370673357 10 1 -2
565 1 2 -1.1794 3.388407242336785 15.311059951462042 19.132188518084988 -1 6 -8
49 1 2 -1.1794 1.4825788166058476 13.347819357206527 18.194525233358487 10 1 -2
141 1 1 0.5897 4.134475366957892 13.936744507882192 19.805281882924103 1 -5 1
566 1 1 0.5897 3.3489278015515946 16.202188377731034 19.479615394611805 -1 6 -8
23 1 1 0.5897 4.531187464847271 12.071391304051739 16.795872423213172 -2 2 2
139 1 2 -1.1794 4.644276247765447 13.152026170957525 20.00705171161901 1 -5 1
567 1 1 0.5897 3.52214066459399 15.425974793908933 18.191274217704283 -1 6 -8
204 1 1 0.5897 1.1978945278753073 13.032911199918475 20.803366609733196 -2 1 1
203 1 1 0.5897 1.1722306203655801 14.546407573702526 20.773294272936663 -2 1 1
320 1 1 0.5897 3.888500002967957 16.456024295270915 16.41444413830962 3 -3 4
743 1 1 0.5897 1.280094986238645 13.399519472004982 16.467665574912708 -4 -1 -1
51 1 1 0.5897 0.6494419496366713 13.568340514829055 18.611194058517025 10 1 -2
202 1 2 -1.1794 1.5568667068116744 13.804951573711625 21.240921675084515 -2 1 1
140 1 1 0.5897 4.69461185878244 12.678457203813343 19.176629162520598 1 -5 1
100 1 2 -1.1794 0.916824161444597 20.75064044121499 2.0869497112686006 8 -5 -4
857 1 1 0.5897 0.9530674486291615 18.027511314284716 5.608906214445327 -1 0 -3
417 1 1 0.5897 2.4322354383034006 20.662307910790062 1.2284844496602014 -3 -1 -3
145 1 2 -1.1794 1.1944915116328043 19.413211638817522 4.600311011352658 0 -1 -2
416 1 1 0.5897 3.9352998788870996 20.795879135027626 1.3522006818345567 -3 -1 -3
146 1 1 0.5897 1.9201783980086884 19.733994084060875 5.135913831120345 0 -1 -2
101 1 1 0.5897 1.1322366770955974 20.409242259157438 2.954961552545071 8 -5 -4
232 1 2 -1.1794 1.8505575602590927 17.070342336872578 2.4458619236311874 -3 0 -2
234 1 1 0.5897 2.30257480023515 17.444238806553507 3.2023312609621244 -3 0 -2
823 1 2 -1.1794 4.531020486741832 20.686054077354903 3.3467932888268384 -4 2 3
415 1 2 -1.1794 3.2370472731503153 20.667156104004434 0.7101289718043684 -3 -1 -3
831 1 1 0.5897 4.04908927271714 20.561813793780573 5.082710762288126 5 0 6
829 1 2 -1.1794 3.5646990607198035 20.343981647765936 5.879148026702025 5 0 6
201 1 1 0.5897 0.9278099736521406 20.07134362348676 8.196544415495634 3 -3 -2
830 1 1 0.5897 3.809321797252722 21.027322437803896 6.503305201142966 5 0 6
199 1 2 -1.1794 0.8003583296797928 20.909927534362083 7.752811566028326 3 -3 -2
721 1 2 -1.1794 3.719809836914294 17.71301004163719 7.336229319255308 4 3 0
446 1 1 0.5897 2.646105781558748 17.29072227466842 10.965729487253219 4 -1 -2
653 1 1 0.5897 1.0185751567398382 17.81917958601546 7.869593235036671 -1 -1 2
652 1 2 -1.1794 1.0830924576526475 18.20851765207709 8.741727765183947 -1 -1 2
314 1 1 0.5897 4.548417014616591 19.156038946284887 10.380438224378311 -2 -2 2
654 1 1 0.5897 2.021180293342953 18.21624200708664 8.93230045089919 -1 -1 2
723 1 1 0.5897 3.5518879961657057 18.57073392015966 6.945728686160653 4 3 0
856 1 2 -1.1794 0.7257754211326592 17.271787234014454 6.150757182910738 -1 0 -3
445 1 2 -1.1794 3.5105780031532987 17.27639294385793 10.55480842944213 4 -1 -2
722 1 1 0.5897 3.5905488173137274 17.09301942514201 6.6184009485628765 4 3 0
733 1 2 -1.1794 4.429021275369514 21.722675762844105 8.154164143374572 -1 -1 -2
315 1 1 0.5897 4.540246343906299 20.42062279488548 9.547978257051913 -2 -2 2
313 1 2 -1.1794 4.687739010187161 20.101343787593585 10.438304643715892 -2 -2 2
111 1 1 0.5897 1.8896564379806011 21.676408433588428 9.127852444266882 -3 -3 -7
304 1 2 -1.1794 0.9881324076622542 17.11215014715721 11.784497232784629 0 -3 -6
621 1 1 0.5897 1.3770250282217964 21.22807657130449 12.867492018570674 3 -2 4
189 1 1 0.5897 4.821659304434191 21.403589011933114 11.674618079965224 -3 2 2
240 1 1 0.5897 1.2481212403320523 19.686445191382994 15.684198270175218 -6 -3 -1
851 1 1 0.5897 3.25258038511953 19.574458696137178 13.181384386642208 -4 0 -4
852 1 1 0.5897 4.0144013050201535 19.49018548773293 14.487049607325416 -4 0 -4
850 1 2 -1.1794 3.71869695730747 18.959144166426327 13.7475072752877 -4 0 -4
619 1 2 -1.1794 2.080131062641438 20.745895877386538 12.432151599189107 3 -2 4
238 1 2 -1.1794 1.1426743917484399 19.038830177192708 14.987125202626432 -6 -3 -1
239 1 1 0.5897 1.9657637353704447 19.074749029435715 14.499681513632998 -6 -3 -1
665 1 1 0.5897 3.1336610057579373 17.11638666989052 13.703801042400352 -1 -1 3
620 1 1 0.5897 1.8835262704227007 20.825522419062835 11.49867306816955 3 -2 4
156 1 1 0.5897 0.7112715174060398 17.439954532379772 15.897659266641817 4 1 -5
840 1 1 0.5897 3.5581306506441224 18.22873262050443 20.74874004611277 -3 -2 -4
838 1 2 -1.1794 2.755229115259933 17.83745575097116 20.404319072477154 -3 -2 -4
325 1 2 -1.1794 1.9374399551121992 20.899940900713254 16.90995913638011 0 -3 0
120 1 1 0.5897 1.1221104436526619 20.48056972951359 19.881272019608534 2 -3 -1
702 1 1 0.5897 3.8092394789415804 21.227211391519546 19.82317362533729 4 0 3
118 1 2 -1.1794 1.0493047343171165 19.691702058500084 19.343901579912405 2 -3 -1
326 1 1 0.5897 2.6946349267082024 21.076576919561376 17.46839084771177 0 -3 0
119 1 1 0.5897 1.7002364997746842 19.091969530850882 19.70856252845284 2 -3 -1
700 1 2 -1.1794 3.9652588295538043 21.621342723781154 18.964861253080738 4 0 3
327 1 1 0.5897 1.245721039273817 20.640301865311883 17.518648064611178 0 -3 0
839 1 1 0.5897 2.35896766413669 17.39999079679709 21.157966338528848 -3 -2 -4
191 1 1 0.5897 4.067031107301078 18.595389977090505 17.94709300680573 5 3 -7
190 1 2 -1.1794 4.50879370744412 18.138057834907897 17.231496841096835 5 3 -7
117 1 1 0.5897 7.315975986497619 4.6682714392498035 5.353134266942854 -3 -3 2
289 1 2 -1.1794 6.681444858817712 4.668153457911112 3.638252333941713 -5 -3 -8
197 1 1 0.5897 5.272365965011841 2.9371797948509317 5.601506345293032 -4 0 -2
843 1 1 0.5897 8.72790232736431 4.85473620843594 2.070056282536049 -2 3 1
291 1 1 0.5897 6.267875012159301 5.385654760914637 3.158131517137724 -5 -3 -8
841 1 2 -1.1794 8.926994355716197 4.351448614062977 1.2804843578461715 -2 3 1
45 1 1 0.5897 6.96362199800916 3.0279750550223037 2.8002120638866974 3 7 -3
228 1 1 0.5897 7.245217714596946 1.7607654873611664 5.759531064404032 5 -1 2
290 1 1 0.5897 6.030893842720516 4.40996946459328 4.291313808078316 -5 -3 -8
43 1 2 -1.1794 6.845672048544102 2.1063163498817037 2.5700092246444357 3 7 -3
196 1 2 -1.1794 4.8474603547268815 3.7890732891324395 5.500933688060546 -4 0 -2
832 1 2 -1.1794 5.817312513732375 6.751533993879952 1.9112447585971546 1 -1 1
833 1 1 0.5897 6.624016667437026 6.663728642850964 1.403381575645548 1 -1 1
478 1 2 -1.1794 5.170932501917937 5.545165034834694 7.997023403434706 -2 5 -4
708 1 1 0.5897 7.385827920278827 3.6032228467029546 7.218423198055721 -4 0 -6
734 1 1 0.5897 5.160192263646958 2.2143338056475392 8.104723401934283 -1 0 -2
575 1 1 0.5897 8.15434557115241 2.5628077314493254 10.871700571500602 2 1 -2
574 1 2 -1.1794 8.620584874482445 2.4926125484795203 10.03859034436739 2 1 -2
706 1 2 -1.1794 6.960202162265352 3.0274527913188605 7.853795313589572 -4 0 -6
707 1 1 0.5897 7.539912384292985 3.0403983513315223 8.615468390793602 -4 0 -6
480 1 1 0.5897 5.673420845768747 4.742477571384655 7.857094700103448 -2 5 -4
764 1 1 0.5897 5.217604175913283 4.724178249100996 11.054837820634868 -6 -2 -2
763 1 2 -1.1794 5.910509615141693 4.064148804040482 11.030244215372841 -6 -2 -2
115 1 2 -1.1794 7.552939970916555 5.076880318905506 6.185778187972085 -3 -3 2
479 1 1 0.5897 5.091768844008467 5.933734581402875 7.125744755176855 -2 5 -4
116 1 1 0.5897 8.509425418370427 5.043690456175842 6.205789432091124 -3 -3 2
521 1 1 0.5897 7.796441438449371 6.449715152173541 7.37354076944567 -4 1 -3
74 1 1 0.5897 8.697427667068649 4.925755405191489 12.22161258701302 -1 1 2
216 1 1 0.5897 7.740550231096467 2.289025853616346 15.394326832204504 -1 2 3
453 1 1 0.5897 7.08339259113393 4.348479764886035 15.053521495668882 -2 -1 3
214 1 2 -1.1794 8.448493918058286 1.8297742748658787 15.846318516495007 -1 2 3
222 1 1 0.5897 6.772927589534977 2.271933131941157 12.655906922517023 2 -3 5
451 1 2 -1.1794 6.552992427065478 3.5693911650650776 14.885896057898826 -2 -1 3
187 1 2 -1.1794 4.925147916423225 1.8764353943594725 12.415654125456683 -3 3 2
221 1 1 0.5897 8.09184468552556 2.839805194627071 13.13569160860551 2 -3 5
73 1 2 -1.1794 8.045710030636197 5.523744747795897 11.855504847325854 -1 1 2
75 1 1 0.5897 7.336146351512446 4.953397216104589 11.559475579816052 -1 1 2
292 1 2 -1.1794 8.518774183739787 5.568899596630766 15.726435123936618 1 1 2
220 1 2 -1.1794 7.720082820967471 2.169153472545127 12.562635611220198 2 -3 5
765 1 1 0.5897 5.49587450650194 3.268349693839322 11.363652711813392 -6 -2 -2
452 1 1 0.5897 6.182141557944204 3.3434096437826204 15.738989514865349 -2 -1 3
108 1 1 0.5897 7.8338212700708825 6.63263514059052 13.224321654896938 -1 0 2
729 1 1 0.5897 6.011475011051554 3.7392551327187276 21.190402698534513 0 0 0
15 1 1 0.5897 5.662600626860409 6.688094618264083 17.139121961877912 0 -3 -6
728 1 1 0.5897 7.436290448515889 4.2486883184869875 21.24144102874365 0 0 0
294 1 1 0.5897 8.365612419104382 5.249148620509759 16.615641265892783 1 1 2
98 1 1 0.5897 5.958448313174671 5.328111013690641 19.25819635590887 1 -8 6
342 1 1 0.5897 5.284950483677071 1.9324240485570745 18.0399211490307 1 3 0
727 1 2 -1.1794 6.699797713314904 4.118630300272665 20.64390897249901 0 0 0
340 1 2 -1.1794 5.942752246242692 2.254059814911681 17.42331037750366 1 3 0
166 1 2 -1.1794 8.3272760560391 4.787070673731753 18.517485702130536 -3 -1 2
167 1 1 0.5897 7.724602737261871 4.093551595393755 18.78619077351238 -3 -1 2
168 1 1 0.5897 7.9705280285370605 5.582003774141806 18.91395841802472 -3 -1 2
97 1 2 -1.1794 5.284246957772941 5.8600166535525835 18.835219669594707 1 -8 6
99 1 1 0.5897 5.180183735714029 6.6177718478435805 19.41084806121773 1 -8 6
399 1 1 0.5897 8.11447941308002 1.7825950826479513 17.93971488514066 6 -1 -5
317 1 1 0.5897 5.615430485901699 9.828326384233995 2.6033444075155225 -4 -6 -3
684 1 1 0.5897 7.918392480574115 10.758064103833838 5.561470414481064 7 1 -5
358 1 2 -1.1794 7.40275597421896 10.21195071807975 1.8753229339138981 3 1 -2
682 1 2 -1.1794 6.982599670829269 10.634278434767172 5.402282200168887 7 1 -5
35 1 1 0.5897 9.054796332124909 10.15780508564837 2.4656742602540103 -6 6 -1
466 1 2 -1.1794 7.024474436894922 8.048196147145148 4.3864213029940196 7 -4 9
683 1 1 0.5897 6.91005292777768 9.733774577756696 5.085706390770275 7 1 -5
467 1 1 0.5897 6.506513050585375 7.438405182777528 4.912001517036979 7 -4 9
360 1 1 0.5897 7.684089331345001 9.33367260870287 1.6187244446376703 3 1 -2
834 1 1 0.5897 6.021528533684953 7.411492361863157 2.573903160076692 1 -1 1
430 1 2 -1.1794 8.295794350896958 7.576585437013478 0.9340998949729974 -5 -3 -4
468 1 1 0.5897 7.879238443259841 7.625675514604418 4.301453149143464 7 -4 9
359 1 1 0.5897 7.125145028621792 10.623708410872847 1.056933273993567 3 1 -2
522 1 1 0.5897 6.907481231468351 7.582769672535069 7.840716440214259 -4 1 -3
217 1 2 -1.1794 5.414551565606185 8.551299958244272 8.851881768146152 1 5 -2
218 1 1 0.5897 5.709440272135078 9.396156759750927 8.511848783016497 1 5 -2
260 1 1 0.5897 7.540534010605688 10.748589973085142 8.293212419880922 -2 -4 8
259 1 2 -1.1794 6.6174929039358235 10.882454641628824 8.077723931654472 -2 -4 8
261 1 1 0.5897 6.570598350623857 10.75090949385014 7.130696232535494 -2 -4 8
219 1 1 0.5897 5.976398431429323 8.38820917180817 9.609587630437801 1 5 -2
520 1 2 -1.1794 7.826234386920256 7.336509849637691 7.732847159981149 -4 1 -3
406 1 2 -1.1794 7.123490649134314 8.184892490686769 10.93971587320507 -4 -4 4
798 1 1 0.5897 8.921113177924406 8.480192168796577 6.512551384216427 -2 -4 -2
106 1 2 -1.1794 7.43486892912478 7.2002125499268645 13.883939183686575 -1 0 2
808 1 2 -1.1794 7.792949092371442 10.481949700022366 12.356086064507886 5 -2 1
810 1 1 0.5897 8.610155663572108 10.956703323448613 12.508244198490095 5 -2 1
659 1 1 0.5897 6.088623213715972 8.842428362505842 14.186444059874482 0 0 -1
658 1 2 -1.1794 6.002618384558746 9.781615231116978 14.350468075889964 0 0 -1
809 1 1 0.5897 7.481955838362872 10.252624490817686 13.231905209201528 5 -2 1
660 1 1 0.5897 5.096529838709003 9.983999593534257 14.117144137296963 0 0 -1
271 1 2 -1.1794 8.753293648220138 11.040611960452836 15.468876024631129 -1 1 4
408 1 1 0.5897 7.730115844312142 8.856750811442069 11.251133969472319 -4 -4 4
767 1 1 0.5897 6.294358390281427 11.49133134938239 11.83299208336744 0 -5 4
410 1 1 0.5897 5.3563338416414865 8.150941707494383 11.849728437231805 5 0 -6
14 1 1 0.5897 5.092577057577275 7.157067357176061 15.817247165341378 0 -3 -6
789 1 1 0.5897 8.885086611244159 8.125520313169911 14.467271804489512 0 -5 8
107 1 1 0.5897 7.650536538626152 6.785654341169696 14.719396011989817 -1 0 2
407 1 1 0.5897 7.513910018681119 7.358492127661316 11.224333252651183 -4 -4 4
432 1 1 0.5897 8.46853982193797 7.625652808245558 20.837871057355173 -5 -3 -5
614 1 1 0.5897 6.916630775328173 10.24499959186747 19.032072440770047 -10 4 5
613 1 2 -1.1794 6.755885612870336 10.308458908303173 19.97362292609204 -10 4 6
185 1 1 0.5897 6.837032470914664 8.951258084872997 16.697217873511974 2 4 3
615 1 1 0.5897 6.2645350856113895 9.51515236337358 20.187242052824626 -10 4 6
89 1 1 0.5897 8.223487747376726 8.196470163610755 18.14056786315515 10 -2 -1
184 1 2 -1.1794 7.346004661261523 9.536988649823655 17.25779312566138 2 4 3
570 1 1 0.5897 8.514881811323786 10.399409362023917 20.240456046586825 1 1 -3
13 1 2 -1.1794 5.823887003437496 7.2975378946932405 16.418757482555712 0 -3 -6
88 1 2 -1.1794 8.602748809589619 7.586854189633388 18.773730419655298 10 -2 -1
186 1 1 0.5897 7.72925427552159 10.173706615069095 16.654384538943898 2 4 3
799 1 2 -1.1794 4.932135016362266 8.151211081708675 20.384018762935312 -1 0 3
801 1 1 0.5897 5.015425212164775 7.7782356230066805 21.261693314124127 -1 0 3
535 1 2 -1.1794 8.78304743436418 15.056310064053275 3.640780787305857 6 7 6
262 1 2 -1.1794 7.0522609161040055 12.894859757794874 3.5432390263406046 3 -2 4
537 1 1 0.5897 8.246937230764374 14.293507818325688 3.857759371413077 6 7 6
402 1 1 0.5897 6.809180687481494 13.158335757751559 1.5564850392192535 -3 -6 1
669 1 1 0.5897 6.370266520820533 15.791864788963947 0.7856820101211064 -5 -4 1
709 1 2 -1.1794 8.836858164040773 16.18712347522409 1.0293828187217806 -5 -3 0
264 1 1 0.5897 6.989280077957702 12.021791139631857 3.930739295391585 3 -2 4
263 1 1 0.5897 6.174876553551486 13.264940787297668 3.641493028228835 3 -2 4
536 1 1 0.5897 8.75190233842468 15.107634712595612 2.685393964948201 6 7 6
668 1 1 0.5897 4.9718326006450955 15.773793959298505 1.3656979205927522 -5 -4 0
667 1 2 -1.1794 5.759092741640124 16.314966263387397 1.3045951479268818 -5 -4 1
86 1 1 0.5897 8.14259673424818 16.55872965642292 4.57019008725987 -2 9 2
26 1 1 0.5897 4.86630754636183 15.316039522201075 5.1569916901837045 -3 3 6
497 1 1 0.5897 6.122168573869336 16.35657577113877 8.97044951744044 0 0 1
61 1 2 -1.1794 6.138703749555504 14.598926757654896 6.243984884092853 2 -1 1
510 1 1 0.5897 5.760000973534524 13.107290386474954 10.152489471622028 2 -1 5
312 1 1 0.5897 7.669123740761375 13.406902908955551 9.035065300498589 3 4 4
62 1 1 0.5897 6.2303822478323525 15.254659793241677 6.935340982809744 2 -1 1
339 1 1 0.5897 8.860273884614985 13.645335982954112 7.47299123848701 -2 -2 6
508 1 2 -1.1794 5.754617467224039 13.213913768225176 9.201186550390664 2 -1 5
509 1 1 0.5897 5.8846818441979165 12.329089669584127 8.859774941969627 2 -1 5
311 1 1 0.5897 8.976083206208463 12.646576013599828 9.11254076969721 3 4 4
496 1 2 -1.1794 6.087745134263725 16.608050206577097 8.04744638585191 0 0 1
337 1 2 -1.1794 8.818497784313193 13.691793578332295 6.517765615431772 -2 -2 6
63 1 1 0.5897 7.033958390521755 14.309530733843163 6.06745508843713 2 -1 1
310 1 2 -1.1794 8.61571842563127 13.533357880494233 9.101296452253358 3 4 4
630 1 1 0.5897 7.294855242210243 15.847860910374946 10.733090329127052 -2 -3 3
628 1 2 -1.1794 6.397042732492726 16.17992258082743 10.738535272532541 -2 -3 3
606 1 1 0.5897 8.24050484506011 16.735216441844585 7.787302894512635 -6 -1 -1
395 1 1 0.5897 5.3064147178061525 15.345970305784556 11.975638915007812 7 -2 4
368 1 1 0.5897 5.669264403282095 13.779911050776391 14.927390456443202 8 6 0
785 1 1 0.5897 7.7089266331843325 12.39908715605264 14.712260562033906 7 3 5
784 1 2 -1.1794 7.459484453826581 13.100241407299931 14.110159998290982 7 3 5
766 1 2 -1.1794 5.610212251949538 12.159521482157794 11.79016754320963 0 -5 4
786 1 1 0.5897 6.983533957491316 12.655974180659486 13.408406003786103 7 3 5
396 1 1 0.5897 5.155381326423524 13.920371122727211 12.462536237768584 7 -2 3
367 1 2 -1.1794 4.899241401010805 13.408701717882824 15.358260951961057 8 6 0
6 1 1 0.5897 8.748882304418421 14.328662276070077 14.498553769266255 3 -3 -3
5 1 1 0.5897 8.439223329713345 15.778177734754943 14.807168128078098 3 -3 -3
635 1 1 0.5897 6.82117623563721 16.320925884109307 18.073057930817072 -9 1 2
401 1 1 0.5897 6.255800951585708 13.119795461413451 20.99178736018341 -3 -6 0
355 1 2 -1.1794 7.225162685077976 13.22711151102396 17.422498993658408 0 -2 3
356 1 1 0.5897 6.833687343584572 14.090983266211976 17.552370822941278 0 -2 3
376 1 2 -1.1794 8.430355627128566 16.404625930285363 19.112392042787587 6 4 3
634 1 2 -1.1794 6.0415805599344194 16.024282184080107 17.603377921101444 -9 1 2
636 1 1 0.5897 6.310412695476941 15.9973842983393 16.684979360118444 -9 1 2
357 1 1 0.5897 6.477647368847752 12.634349167188445 17.34294127699617 0 -2 3
711 1 1 0.5897 8.479583298434171 16.21283374547823 20.98569780689564 -5 -3 -1
170 1 1 0.5897 8.679968717464886 12.348058125226475 17.872132376565297 -3 6 -2
400 1 2 -1.1794 7.053293018426824 13.307372312100815 21.486972626180904 -3 -6 0
377 1 1 0.5897 9.081959116786384 15.703419395311917 19.102236034753478 6 4 3