LAMMPS data file via write_data, version 30 Jul 2021, timestep = 19500000

864 atoms
2 atom types
576 bonds
1 bond types
288 angles
1 angle types

0.5866563420176671 17.62091605798328 xlo xhi
1.7825349499600822 21.84664285004652 ylo yhi
0.7157193669898056 21.49747643299989 zlo zhi

Masses

1 1.00794
2 15.9994

Pair Coeffs # lj/cut/tip4p/long/omp

1 0 0
2 0.21084 3.1668

Bond Coeffs # harmonic/omp

1 450 0.9572

Angle Coeffs # harmonic/omp

1 55 104.52

Atoms # full

361 1 2 -1.1794 6.507688505096286 5.031937974529047 3.0399544839303196 1 0 1
628 1 2 -1.1794 5.799065422551484 3.928010965545222 5.413802256488174 -3 -1 3
517 1 2 -1.1794 8.403764693612176 4.628058123070688 1.1011507215571916 2 0 -3
630 1 1 0.5897 6.233765537295063 3.0842452332370147 5.537764843963215 -3 -1 3
362 1 1 0.5897 7.055931422548825 5.777191588071812 3.2855175704986843 1 0 1
39 1 1 0.5897 3.0737403897778464 3.7387242796164077 3.4473624379358982 -4 -4 -3
363 1 1 0.5897 5.689243218098868 5.425471328434041 2.7373789387578467 1 0 1
238 1 2 -1.1794 3.128490033336155 4.663425920461835 5.144007742375033 -8 -4 0
254 1 1 0.5897 7.046992291059963 2.2243921928959125 2.9083609374973136 0 6 -6
671 1 1 0.5897 5.819184230931473 2.923147988748909 1.1378767551680389 5 -5 -2
240 1 1 0.5897 3.2222129738216316 5.605017559685324 5.288665120461824 -8 -4 0
828 1 1 0.5897 1.0903990468320404 5.7648390620111405 1.3282549855912846 -6 3 8
16 1 2 -1.1794 0.6171243848455996 3.5135538062153406 5.079534903794227 -2 8 9
239 1 1 0.5897 4.014380656831008 4.315571724237535 5.246295863597629 -8 -4 0
852 1 1 0.5897 8.805833660158083 2.9621446111550775 4.018154439992684 -12 2 -4
826 1 2 -1.1794 1.029242601795187 6.504551926198208 1.9327146008604903 -6 3 8
18 1 1 0.5897 1.3890175554258102 4.079270579309259 5.100109175620046 -2 8 9
519 1 1 0.5897 7.786751083233046 4.58091429744996 1.831449737491691 2 0 -3
655 1 2 -1.1794 3.8573521399599633 6.709743719838084 2.338920917238319 -6 5 4
629 1 1 0.5897 6.163426376947948 4.267925319076468 4.596495649699133 -3 -1 3
656 1 1 0.5897 2.965538304422396 6.362664604157437 2.361046994295048 -6 5 4
602 1 1 0.5897 4.074223711184615 4.039162153245196 1.1415900103388497 7 4 0
38 1 1 0.5897 2.385977641005975 2.5811829298741564 2.7552231075349845 -4 -4 -3
37 1 2 -1.1794 3.1549574752255842 3.148360519011587 2.698267487977004 -4 -4 -3
665 1 1 0.5897 0.7462743543040078 6.593746970905079 3.8492691657443645 3 2 7
670 1 2 -1.1794 6.236374112067598 2.0619591353109326 1.1139402127236155 5 -5 -2
479 1 1 0.5897 8.598094308955092 6.140232576731333 6.218913568603447 -3 6 -5
440 1 1 0.5897 3.236478396280791 3.824136781802467 7.470081383272754 -3 4 -2
272 1 1 0.5897 6.68832799449201 3.9231008966271252 8.49359704876992 -6 4 5
598 1 2 -1.1794 1.9112535732338343 1.9047095365038775 9.194473853271154 2 -1 -4
680 1 1 0.5897 4.568630700918886 4.394215949086392 9.05972490534296 5 -4 -4
480 1 1 0.5897 8.36004413595387 4.8744731525809595 7.014649654290708 -3 6 -5
641 1 1 0.5897 7.126271968940796 2.0630862806213464 7.259948469476567 -2 6 -3
548 1 1 0.5897 5.751020573199184 5.313988491880103 6.608228907326494 9 3 -1
621 1 1 0.5897 1.9227691240324982 4.94187518182245 10.770261443974443 0 -5 6
441 1 1 0.5897 3.748651031134931 5.2380684075891395 7.644717738960295 -3 4 -2
681 1 1 0.5897 5.155852716687579 3.2643170346479224 9.87856960748233 5 -4 -4
619 1 2 -1.1794 1.8833225371437783 3.9974140793216515 10.921011075680624 0 -5 6
439 1 2 -1.1794 3.2108203244221856 4.569895562679985 8.069636624489334 -3 4 -2
625 1 2 -1.1794 0.7115139616209705 5.851152638329165 8.050701672013059 -4 -4 5
679 1 2 -1.1794 5.292055570248158 4.183876817207287 9.65021907687497 5 -4 -4
478 1 2 -1.1794 8.975108497551325 5.279951286285053 6.403433049761114 -3 6 -5
547 1 2 -1.1794 5.745665217127646 6.144685484871089 7.083832768718403 9 3 -1
599 1 1 0.5897 2.0305773146831663 2.7304549337210107 9.663716226614914 2 -1 -4
273 1 1 0.5897 8.044387960746679 3.293318118686912 8.731322540554483 -6 4 5
271 1 2 -1.1794 7.482620149978906 3.6421866358870716 8.03921443877806 -6 4 5
627 1 1 0.5897 1.548684869040871 5.404559693588509 7.924349246796492 -4 -4 5
373 1 2 -1.1794 8.953983387372432 2.5308383207015 10.093751823883919 5 2 -2
88 1 2 -1.1794 3.8231246616016756 1.9347730790252096 7.108920713000468 4 -4 0
600 1 1 0.5897 2.644246971531926 1.8698925298131732 8.579826856603955 2 -1 -4
14 1 1 0.5897 5.657622742962343 6.788786323433874 10.133027835230779 -2 -4 -3
475 1 2 -1.1794 4.918203968549658 4.771045218411825 15.740131053573855 4 -5 -4
188 1 1 0.5897 6.07045761517374 2.4447039934163994 14.155139279162611 -1 3 7
256 1 2 -1.1794 2.3838365410596603 4.689316355286973 14.808375704096179 6 0 3
187 1 2 -1.1794 6.19647129211315 2.8780239187947902 13.31097032196009 -1 3 7
564 1 1 0.5897 7.055595187147259 4.5603370118149265 13.732484506863766 1 -3 1
257 1 1 0.5897 2.783507478975519 4.051474569567418 14.21701410936168 6 0 3
494 1 1 0.5897 3.470369275679407 2.085723681269901 12.657631716412839 4 -1 0
258 1 1 0.5897 2.5952779290105212 5.539508664287057 14.42269448385607 6 0 3
662 1 1 0.5897 1.1269043511537955 2.0652261239289493 14.22058568598259 -8 -6 3
643 1 2 -1.1794 4.854883528856555 6.114256226086898 11.579954280527744 4 -5 -2
495 1 1 0.5897 3.019164390779186 3.36060386580558 11.977127756510669 4 -1 0
493 1 2 -1.1794 3.5573212315327227 3.0380707376445626 12.700076491476304 4 -1 0
189 1 1 0.5897 5.311297483723773 2.990514831972564 12.964444659020028 -1 3 7
562 1 2 -1.1794 7.84342116042885 4.864714008998579 14.183043790962838 1 -3 1
669 1 1 0.5897 7.37819838955683 6.417889447277844 13.401564712951695 -7 -5 -3
620 1 1 0.5897 1.1699674107720965 3.8842336434206413 11.549183880500303 0 -5 6
476 1 1 0.5897 5.335188339859137 5.608550086731867 15.537651400957882 4 -5 -4
477 1 1 0.5897 3.985385660750692 4.9250064663263675 15.590360427390971 4 -5 -4
524 1 1 0.5897 8.29435777257116 4.006009541637172 15.58818031089326 -2 2 4
644 1 1 0.5897 4.129386680005786 6.688306895655392 11.334213775064883 4 -5 -2
563 1 1 0.5897 8.499565513205614 4.94580946674239 13.490819040023231 1 -3 1
229 1 2 -1.1794 5.488840126329457 1.9328160933206837 15.883933971976342 0 -1 1
230 1 1 0.5897 5.421113451698869 2.82876906143363 16.21401191221344 0 -1 1
668 1 1 0.5897 6.285592132258097 6.696047583698088 12.391194421485174 -7 -5 -4
523 1 2 -1.1794 8.500713660519105 3.3725399517287826 16.275493890917524 -2 2 4
645 1 1 0.5897 4.6247557875244825 5.263412039381226 11.206624977530257 4 -5 -2
608 1 1 0.5897 4.5500801869759435 3.464476304498361 19.299651318043452 5 -1 5
609 1 1 0.5897 3.6235086810743793 3.044600447273705 18.178420628504636 5 -1 5
457 1 2 -1.1794 7.202347927377314 6.52353924202878 20.199153507236733 -3 3 -4
654 1 1 0.5897 1.4877753497071362 3.5808316773467066 20.61580651449058 -2 -2 4
140 1 1 0.5897 7.685263091781171 4.374672801402565 17.581739481917996 -3 6 -1
653 1 1 0.5897 1.7695869491798522 4.917127180492338 19.962424459474438 -2 -2 4
20 1 1 0.5897 3.344213754660409 4.904393833700221 18.195637280696562 -2 -5 2
809 1 1 0.5897 7.257001439807083 2.9503134830740767 19.093671174789193 1 -4 0
601 1 2 -1.1794 4.637828447383908 4.272458971834292 21.185624934938314 7 4 0
458 1 1 0.5897 6.285484809296425 6.796829085211765 20.229806251285147 -3 3 -4
603 1 1 0.5897 4.642339111344785 5.229669108403156 21.180350735285362 7 4 0
652 1 2 -1.1794 1.3292708885614914 4.51974704716681 20.713749349065953 -2 -2 4
19 1 2 -1.1794 2.9068049760170367 5.705175468675517 18.48495060891955 -2 -5 3
459 1 1 0.5897 7.257422604979299 5.953757424975814 19.4319523207439 -3 3 -4
810 1 1 0.5897 8.235918344738245 1.8209919790933426 19.33528870712616 1 -4 0
139 1 2 -1.1794 7.012500712177055 4.644597800036948 18.20687971489021 -3 6 -1
672 1 1 0.5897 6.746368041495277 2.064780599248667 21.085648241344813 5 -5 -3
607 1 2 -1.1794 4.546340851962934 3.1999751307056257 18.37971113052164 5 -1 5
398 1 1 0.5897 3.8171944287143837 6.518675658019895 19.796715372136912 5 1 -6
21 1 1 0.5897 3.0829674178699915 6.339375359360035 17.78994328325864 -2 -5 3
518 1 1 0.5897 8.076975113461634 5.3443558542325755 21.338484986601646 2 0 -4
169 1 2 -1.1794 1.9798396668537162 3.0755445869556013 17.521649961461836 -1 6 -3
141 1 1 0.5897 6.185460152318755 4.496769126878208 17.748149359990652 -3 6 -1
808 1 2 -1.1794 7.301473567239431 2.0282442009213906 19.346837383412097 1 -4 0
397 1 2 -1.1794 4.470370118097737 6.734131815745176 20.462463834639884 5 1 -6
170 1 1 0.5897 1.8138928547687418 3.0117318252721708 16.581079978103645 -1 6 -3
171 1 1 0.5897 1.3971541309144266 3.7733520368478497 17.8213490522498 -1 6 -3
594 1 1 0.5897 7.0115739258459175 7.595772536568488 4.6693584976065186 -2 4 -5
805 1 2 -1.1794 7.619494628945832 10.957968735244203 3.2948121785791114 5 -4 -5
131 1 1 0.5897 2.5069841764812826 9.650533974299478 3.853882618487179 -5 2 -3
827 1 1 0.5897 1.279903270284172 7.264803224495021 1.4078118496555363 -6 3 8
592 1 2 -1.1794 6.095628196517268 7.7573828062803925 4.895610103687568 -2 4 -5
350 1 1 0.5897 5.673862257418298 9.452387914896596 1.4822365688802623 -13 5 1
416 1 1 0.5897 8.724924356323008 9.054062069329419 0.8620868587825267 3 -3 -1
81 1 1 0.5897 0.6554082323741935 10.807482548840262 4.751368793223789 7 3 -3
566 1 1 0.5897 2.961161989891846 8.129051856698338 5.1418897022754315 -2 1 -3
132 1 1 0.5897 3.878789506610295 9.613571074872612 3.2145322641892444 -5 2 -3
415 1 2 -1.1794 8.907745910224104 8.127362332295903 1.0172566783321764 3 -3 -1
859 1 2 -1.1794 8.478165843213265 7.015422023573469 3.663981389016393 -4 -1 9
349 1 2 -1.1794 5.805022029633764 9.12911507683361 2.373624703362734 -13 5 1
130 1 2 -1.1794 3.259435740440325 9.076833415499475 3.7090858417291357 -5 2 -3
351 1 1 0.5897 6.381946593914217 9.775353590463407 2.7808398253483095 -13 5 1
861 1 1 0.5897 8.485611653532391 7.345108264117072 2.7653542925532473 -4 -1 9
593 1 1 0.5897 5.737005055675504 8.212775039262919 4.133849446670808 -2 4 -5
807 1 1 0.5897 7.491938972188167 11.209498655696791 4.209541146126185 5 -4 -5
806 1 1 0.5897 8.565335427348451 10.83890008392476 3.208303909277836 5 -4 -5
657 1 1 0.5897 3.824480253022694 7.491313602957881 2.8906580631829257 -5 5 4
85 1 2 -1.1794 4.039486440825617 11.584178399588373 2.1101170238508207 4 10 4
79 1 2 -1.1794 1.096840843796463 10.558646809021608 3.939266040141002 7 3 -3
567 1 1 0.5897 1.833020291099617 7.229741523987051 5.600754380342028 -2 1 -3
565 1 2 -1.1794 2.7362655003225855 7.474002019108036 5.802656772033927 -2 1 -3
837 1 1 0.5897 4.575940938169202 10.32074013489742 5.883027641549695 1 1 -5
168 1 1 0.5897 3.2795614330946243 7.934808519043363 7.563421747930693 1 -1 4
503 1 1 0.5897 6.4337438469455535 9.214503107110406 9.400958678010772 -2 0 5
153 1 1 0.5897 8.282748610016622 8.437347241470192 7.789119034229882 1 3 -1
496 1 2 -1.1794 0.782520112010734 9.182839367556634 10.556327532701797 8 -1 3
498 1 1 0.5897 0.9622139658470135 10.122873675089178 10.57480756190259 8 -1 2
792 1 1 0.5897 7.848725688641474 7.180245415288219 9.973332902737976 3 3 3
167 1 1 0.5897 4.291508858083901 7.7471605875402005 8.673710253907043 1 -1 4
502 1 2 -1.1794 6.987287247109131 9.989736848886462 9.495141235391946 -2 0 5
312 1 1 0.5897 3.1045434877256826 10.212663326187917 7.070619184501456 0 4 5
311 1 1 0.5897 1.6146827316466257 10.062519745789789 7.293682059955848 0 4 5
835 1 2 -1.1794 4.839791964779631 9.689173956488066 6.552229797546833 1 1 -5
13 1 2 -1.1794 6.034662378254036 7.3593126483416365 9.463241213661584 -2 -4 -3
108 1 1 0.5897 1.5744662273934646 7.217304550462036 11.064667120357708 -3 -2 3
310 1 2 -1.1794 2.294348777201191 10.718084963639315 7.1369551122158805 0 4 5
337 1 2 -1.1794 3.688376226951919 10.263057897289409 10.01161932221355 -5 -4 -3
151 1 2 -1.1794 8.691738701958798 8.380154197627846 6.925552955211228 1 3 -1
377 1 1 0.5897 9.099729348948168 10.456187559360187 9.662789630609442 7 8 0
166 1 2 -1.1794 3.35514898328275 7.867142774742347 8.515247439787018 1 -1 4
504 1 1 0.5897 6.511756903719426 10.681495371511286 9.035114101187338 -2 0 5
338 1 1 0.5897 3.256677496092545 9.680715776699323 9.386485874828207 -5 -4 -3
791 1 1 0.5897 8.91317555526196 8.00797718922891 10.661653730141825 3 3 3
616 1 2 -1.1794 7.805124900848481 11.306798142565265 6.146341357915621 -6 4 0
339 1 1 0.5897 3.819354430184642 9.723403351144519 10.791331775444188 -5 -4 -3
106 1 2 -1.1794 2.398041074817047 6.842333167012444 10.752578473346167 -3 -2 3
790 1 2 -1.1794 8.797204140277536 7.261915089544388 10.073252089850662 3 3 3
107 1 1 0.5897 2.5688137368974515 7.293076915790719 9.925574729163648 -3 -2 3
617 1 1 0.5897 6.899843513869289 11.482281809322075 6.403142215777122 -6 4 0
152 1 1 0.5897 8.36210073116687 9.144419865725615 6.452793282498158 1 3 -2
836 1 1 0.5897 5.3100310327552265 9.00979907195314 6.068916134136099 1 1 -5
549 1 1 0.5897 5.856097044694513 6.8105470716658285 6.405079390833504 9 3 -1
65 1 1 0.5897 2.363944555881871 11.713046362776621 10.039485180167391 3 3 -1
750 1 1 0.5897 4.824332036082611 11.680102421447733 9.475552438880202 -2 5 0
15 1 1 0.5897 6.1144133961531715 6.801144063548408 8.689697218849219 -2 -4 -3
703 1 2 -1.1794 7.512899171482138 11.239135218483687 15.773478359845539 -1 0 -5
408 1 1 0.5897 8.48336979844479 10.118177623000026 12.23552609454488 -14 0 2
554 1 1 0.5897 7.0950943296342 7.113901029750028 15.853313860739755 -6 -6 3
455 1 1 0.5897 3.4074744090042275 7.721622068974488 13.737903962493476 4 -1 -1
759 1 1 0.5897 3.233428370810983 9.667621685659894 12.493637144918274 1 3 3
456 1 1 0.5897 2.8122089476846677 7.743655412620339 15.129749871122923 4 -1 -1
632 1 1 0.5897 1.066514558602156 10.143925030737115 14.347005109953871 14 10 3
676 1 2 -1.1794 5.799519286101544 9.71408621927996 14.033078865821082 11 6 -2
433 1 2 -1.1794 7.589411217176537 11.736294580060937 12.478153027446453 0 4 -5
760 1 2 -1.1794 8.772339977451379 7.2918346289365585 16.04680780602439 0 3 0
148 1 2 -1.1794 2.2666264764967505 10.967925688129847 13.074486419121538 -2 2 3
407 1 1 0.5897 8.05272938872084 8.67318469561111 12.371713152407828 -14 0 2
555 1 1 0.5897 6.093630275327312 7.69329460960851 14.876900751328627 -6 -6 3
678 1 1 0.5897 5.311202368311742 10.123882433474746 14.747139904315711 11 6 -2
636 1 1 0.5897 3.5188336121112815 10.955173200503426 16.15262321904938 -4 1 2
705 1 1 0.5897 8.232443742813366 10.753197181947568 15.37044809666949 -1 0 -5
553 1 2 -1.1794 6.1553825085840375 7.184060463298472 15.685075771227138 -6 -6 3
758 1 1 0.5897 4.628670554953041 9.140350561419062 12.753078733024621 1 3 3
757 1 2 -1.1794 3.838207780558232 8.970073685606952 12.240772952976506 1 3 3
677 1 1 0.5897 6.329084177369165 10.422464936556407 13.666974689516822 11 6 -2
454 1 2 -1.1794 2.7439790715044574 7.300136625534354 14.284229023910163 4 -1 -1
667 1 2 -1.1794 7.132283116721797 7.019624457699324 12.698920766569163 -7 -5 -3
634 1 2 -1.1794 4.360008098323517 10.52248512643179 16.299175342158215 -4 1 2
406 1 2 -1.1794 8.805361372318519 9.220927545212293 12.148561816555146 -14 0 2
33 1 1 0.5897 1.158506514690548 7.7258725058182085 13.186100540021982 3 7 2
150 1 1 0.5897 2.101790498246367 11.44686848521573 12.262256726309026 -2 2 3
149 1 1 0.5897 2.8642379312011768 11.530100725896755 13.567524437860092 -2 2 3
42 1 1 0.5897 5.257329380293098 8.56089260263688 20.368910822805862 -5 0 4
471 1 1 0.5897 6.597574026682233 8.58247412136788 17.010435862762684 6 3 2
761 1 1 0.5897 8.945087614901857 7.370523225033671 16.985015325784662 0 3 0
41 1 1 0.5897 4.790922053590892 10.001054734887063 20.3491613078767 -5 0 4
296 1 1 0.5897 3.239245646019377 11.153628932654957 21.261314141603638 4 2 -3
470 1 1 0.5897 6.125754880114597 9.280395918477694 18.268328711398063 6 3 2
214 1 2 -1.1794 8.21517145855213 10.363596194378337 20.415255384042396 1 -3 6
215 1 1 0.5897 7.316617872183433 10.036832331995893 20.369512662952754 1 -3 6
101 1 1 0.5897 1.1154135043751516 10.357640092582827 17.32843855944865 5 -5 -1
556 1 2 -1.1794 3.195298161359371 8.15376996755664 16.941506034483293 1 1 1
216 1 1 0.5897 8.407566269732829 10.66200596278087 19.52632231738439 1 -3 6
437 1 1 0.5897 1.3019258671337512 7.961745100079878 20.28816437757744 -6 3 -1
469 1 2 -1.1794 6.860796133078306 9.237782260144483 17.656626526306216 6 3 2
297 1 1 0.5897 3.0066589671618598 11.445114316515797 19.79403239321176 4 2 -3
438 1 1 0.5897 2.175463800232569 9.132478986793215 20.68602314592788 -6 3 -1
100 1 2 -1.1794 0.804764385922263 9.489788488021329 17.586498129476713 5 -5 -1
704 1 1 0.5897 7.071811992845479 10.597171421473933 16.329915872397706 -1 0 -5
558 1 1 0.5897 2.494498003363338 8.72857244812127 17.249350875691807 1 1 1
635 1 1 0.5897 4.843438636102676 11.123438844090552 16.866134166029923 -4 1 2
40 1 2 -1.1794 5.57952452236112 9.460131363005615 20.307018374850028 -5 0 4
417 1 1 0.5897 8.32825602170876 7.6638997497659185 21.19431300550872 3 -3 -2
436 1 2 -1.1794 1.9104398617627654 8.256269133319913 20.965833113433366 -6 3 -1
295 1 2 -1.1794 3.0977949281286747 10.724483751390135 20.417454446805852 4 2 -3
699 1 1 0.5897 9.037833965779928 8.15792344165223 19.032548366855607 -2 5 -3
674 1 1 0.5897 8.617641254076181 11.140894903500964 17.421850562975173 -1 -2 -6
399 1 1 0.5897 3.9650417125006747 6.842827527117487 21.268135831588896 5 1 -6
557 1 1 0.5897 3.9542272022120377 8.729548605860337 16.847849705780245 1 1 1
47 1 1 0.5897 2.2144029906741927 14.186707032676125 3.1550530937092622 3 -3 3
306 1 1 0.5897 2.5892122934389095 16.74806314711176 2.042516149237823 9 -5 -10
304 1 2 -1.1794 2.662245782325785 15.923753029184768 2.523611255330315 9 -5 -10
176 1 1 0.5897 5.591855425944831 13.679173851557907 5.307154901947884 -5 -4 6
48 1 1 0.5897 1.7440385621203909 13.331475783767269 4.3123481749981485 3 -3 3
380 1 1 0.5897 7.410687311952848 16.252982058184813 2.2351058268133617 3 -3 -1
305 1 1 0.5897 3.411493978884351 16.051099733042953 3.1055703900134035 9 -5 -10
175 1 2 -1.1794 6.262759568974172 14.350705155116014 5.430499190494437 -5 -4 6
315 1 1 0.5897 4.992591126199419 15.977069794701423 4.740819427916603 0 -5 -1
86 1 1 0.5897 4.758133936688697 12.211384846948395 2.190398472131198 4 10 4
814 1 2 -1.1794 8.8505725454331 13.659794424315082 4.004977532817971 -1 7 -6
320 1 1 0.5897 3.679776760536873 12.05813734538502 4.266807605784759 5 0 3
177 1 1 0.5897 7.012512505280626 14.036561890000954 4.925059650279212 -5 -4 6
379 1 2 -1.1794 6.5187664562654675 16.0045461611585 1.9921531619851485 3 -3 -1
46 1 2 -1.1794 2.158791265719853 13.278178351832478 3.4512992491667944 3 -3 3
381 1 1 0.5897 5.984036295006237 16.266688324533504 2.7415794535794307 3 -3 -1
321 1 1 0.5897 3.925939304700366 12.357029112408522 5.730383883917715 5 0 3
571 1 2 -1.1794 8.923669619537282 12.960881134859079 1.2544827424456417 3 1 -3
313 1 2 -1.1794 4.935624566383289 16.741155445385083 4.167054699426531 0 -5 -1
400 1 2 -1.1794 0.7873725839606872 13.526678473669513 5.81928705492134 0 -1 3
87 1 1 0.5897 3.2648243166246456 12.069110254788638 2.3947548096711944 4 10 4
58 1 2 -1.1794 6.125582254851808 13.37596369486892 2.0184758487516445 8 3 1
60 1 1 0.5897 6.373745601423347 14.300366575605302 2.0053320422694676 8 3 1
59 1 1 0.5897 6.928762544691703 12.915275825448106 2.2612452247778383 8 3 1
319 1 2 -1.1794 4.348277475395353 11.999334328238689 4.949390609584519 5 0 3
572 1 1 0.5897 8.625502900629101 12.093887500054437 0.97937045385539 3 1 -3
573 1 1 0.5897 8.385057405680413 13.570986641726021 0.7505631292765568 3 1 -3
9 1 1 0.5897 2.8201264057757323 15.07629856657782 1.0864204919330054 9 4 3
618 1 1 0.5897 8.331517320186062 11.834947281092038 6.746535985705671 -6 4 0
264 1 1 0.5897 2.2766432536856396 13.923955613382935 10.648175264718297 3 -1 1
64 1 2 -1.1794 1.585648804724899 12.029562360839119 10.498125604573719 3 3 -1
748 1 2 -1.1794 5.363724111336761 12.074546917491677 8.790162152226191 -2 5 0
730 1 2 -1.1794 7.297695372283788 13.492735721371913 10.40798917048225 -1 -2 -9
820 1 2 -1.1794 3.4204106081791856 15.546764276849823 6.306005275475747 -1 2 7
262 1 2 -1.1794 2.754561675951129 14.74751289937882 10.746615313681392 3 -1 1
821 1 1 0.5897 3.0977108898322188 14.653223616242151 6.423215025292394 -1 2 7
127 1 2 -1.1794 7.490098830990679 15.383450813953198 7.936025008104201 -3 0 -9
822 1 1 0.5897 2.659672357147099 16.03788979093569 5.995599266722283 -1 2 7
181 1 2 -1.1794 3.4203133202520224 13.06453234270985 7.202131225506781 -6 3 -3
129 1 1 0.5897 8.067863775778706 14.68478067046297 8.243127832896393 -3 0 -9
561 1 1 0.5897 4.532867662925874 15.647182463747706 7.961284556653257 7 2 1
560 1 1 0.5897 5.827507511490923 15.64741660728409 8.746073091626664 7 2 1
128 1 1 0.5897 7.2348590689763155 15.11342189374027 7.053862968121014 -3 0 -9
66 1 1 0.5897 0.8752324893249247 11.925927899376306 9.864997633399582 3 3 -1
263 1 1 0.5897 2.7029902705600857 15.159483803581463 9.884114480429622 3 -1 1
749 1 1 0.5897 5.933975291029838 12.68630862221406 9.255854219296314 -2 5 0
559 1 2 -1.1794 4.877536449433196 15.598450888742558 8.852966324937299 7 2 1
183 1 1 0.5897 4.186616749996057 12.727172625826041 7.666102676087299 -6 3 -3
182 1 1 0.5897 2.7943511097987233 12.340431892785594 7.214337419598068 -5 3 -3
731 1 1 0.5897 6.61542554349857 13.959071902419486 10.891011601582345 -1 -2 -9
732 1 1 0.5897 8.03516973307801 14.102557477423764 10.385314475234347 -1 -2 -9
279 1 1 0.5897 2.708778508474359 15.20374932876244 14.309286513015252 2 -2 0
788 1 1 0.5897 1.4727159562755054 15.693401561076737 11.707656466586931 5 -3 4
126 1 1 0.5897 6.227670162346432 16.701876249128507 14.41766291768739 4 -3 5
204 1 1 0.5897 3.7600438846116053 13.264929928159237 14.401434445250992 0 3 1
686 1 1 0.5897 7.147825002903701 12.921426346731332 15.183905514475724 5 -10 -9
802 1 2 -1.1794 0.599419145689447 16.691052850573875 15.081980334855018 8 3 -1
484 1 2 -1.1794 7.7305123267991505 16.263112705564936 13.612082179721158 -2 7 -2
434 1 1 0.5897 8.390149648358978 12.216927768911024 12.688105355331064 0 4 -5
485 1 1 0.5897 8.532371504678927 16.5443275205788 13.171388838950296 -2 7 -2
278 1 1 0.5897 1.7794610539639668 14.01902269463149 14.466732577816392 2 -2 0
203 1 1 0.5897 5.235886967044243 12.94597033567078 14.291206865861017 0 3 1
202 1 2 -1.1794 4.376882729707896 12.676712316025291 13.965800196321114 0 3 1
486 1 1 0.5897 7.8328852600942405 15.317066870072571 13.715945734209281 -2 7 -2
125 1 1 0.5897 5.297247778787415 16.05385762233903 15.4208432467228 4 -3 5
109 1 2 -1.1794 5.099523839061486 14.452715727446114 11.941192439018675 -2 3 -15
277 1 2 -1.1794 2.517843806956097 14.462619573453948 14.884212190545288 2 -2 0
685 1 2 -1.1794 6.8143866150931185 13.75997539173549 14.864596579671343 5 -10 -9
110 1 1 0.5897 4.897597346461925 13.783127470441874 12.594752989305979 -2 3 -15
51 1 1 0.5897 1.1981434488627989 12.413432790794856 15.995238552121165 6 -2 -4
687 1 1 0.5897 6.985016370545181 14.373826296803221 15.578999218718737 5 -10 -9
342 1 1 0.5897 5.709866866038959 16.519262163413362 11.664326522792662 2 5 3
435 1 1 0.5897 7.437068988501608 11.917298860186834 11.55062902379922 0 4 -5
787 1 2 -1.1794 0.6560291512477124 15.972453359127826 12.12168358923897 5 -3 4
227 1 1 0.5897 3.731413789221736 15.743519246934142 12.56047106259595 6 -5 -2
111 1 1 0.5897 4.3389111561960565 14.457909686406262 11.36002100780288 -2 3 -15
226 1 2 -1.1794 3.329924433533781 16.354163828071588 13.178726140481649 6 -5 -2
228 1 1 0.5897 4.069732070201605 16.807738068689513 13.582771584901456 6 -5 -2
7 1 2 -1.1794 2.8219419407091104 14.85659850595994 20.936480735307764 9 4 2
233 1 1 0.5897 2.9740304686166406 13.526223456954696 19.6315027745188 -3 -2 0
733 1 2 -1.1794 1.2108698484131564 15.323970490077377 17.616167939018816 1 3 -2
419 1 1 0.5897 6.007282506269494 12.689048080847268 18.879507034619618 -5 -6 3
412 1 2 -1.1794 4.475184120205249 14.980602808885099 16.708605288645956 3 2 4
425 1 1 0.5897 6.070132031042786 14.523069725307344 20.13897472069365 15 -1 0
734 1 1 0.5897 1.3112822069746795 15.625371970042126 16.713202566988766 1 3 -2
426 1 1 0.5897 6.238977770947748 13.264576684644359 20.963420629265492 15 -2 0
800 1 1 0.5897 8.213457236900261 14.3656437772063 17.97928353622188 0 -1 4
424 1 2 -1.1794 6.507401266597407 13.671550714035599 20.13964082344699 15 -1 0
825 1 1 0.5897 7.5186622803179946 16.475997961153016 20.17438046730757 -2 4 3
232 1 2 -1.1794 2.9941872231638764 12.922816396076461 18.888691031488243 -3 -2 0
8 1 1 0.5897 3.387198692359759 15.516877504147045 20.535400461965935 9 4 2
413 1 1 0.5897 4.2501676799616295 15.716010953547016 17.278524334604857 3 2 4
234 1 1 0.5897 3.925740752750157 12.78533234229597 18.71642124808966 -3 -2 0
799 1 2 -1.1794 7.989148583645661 14.825386091373877 17.170203734292574 0 -1 4
420 1 1 0.5897 5.947715947191603 13.2401734326655 17.470714061559413 -5 -6 3
418 1 2 -1.1794 5.638018130493408 12.515199253318055 18.013659276464935 -5 -6 3
22 1 2 -1.1794 3.931604995362115 16.612506995035424 18.855471918281186 -5 1 0
801 1 1 0.5897 7.913621446663185 15.743840446835323 17.42913170489328 0 -1 4
735 1 1 0.5897 2.08783734221638 15.397646289666042 17.992686468935112 1 3 -2
50 1 1 0.5897 2.0168207980896966 12.429326028724777 17.268627498177512 6 -2 -4
823 1 2 -1.1794 6.694845757255941 16.787069292335012 19.799070134550483 -2 4 3
49 1 2 -1.1794 1.8724854815404244 11.925305812860856 16.46775070306859 6 -2 -4
576 1 1 0.5897 0.8852320745842321 14.918964216568714 20.716889742942232 1 5 -2
414 1 1 0.5897 3.645092739784036 14.727069569998337 16.30494156747298 3 2 4
589 1 2 -1.1794 3.2435954909702644 18.606963817326886 5.674050771495857 8 1 4
591 1 1 0.5897 3.5664087850466286 18.780437212861877 4.789755651091901 8 1 4
590 1 1 0.5897 2.3986345831754585 18.17727278476346 5.541069856199539 8 1 4
180 1 1 0.5897 1.6037374340300625 20.496295004560466 5.4198163292194 -13 1 -4
540 1 1 0.5897 4.805616776254792 20.661989049288273 4.180338135399029 -11 -3 2
538 1 2 -1.1794 3.9434046695900666 21.019448146641004 4.39265803732142 -11 -3 2
255 1 1 0.5897 7.031925190020724 21.077600935600195 3.8169470723031322 0 5 -6
578 1 1 0.5897 6.311526026065832 17.791033735925716 1.045695217156751 3 1 -1
174 1 1 0.5897 6.215694637154085 19.131146101348044 3.1354942589055494 10 -1 -2
293 1 1 0.5897 1.2785797536311638 21.535050861792634 1.5995904840099906 1 -4 0
294 1 1 0.5897 1.1352446228512139 20.585914467565082 2.7703195871530584 1 -4 0
173 1 1 0.5897 6.949079935982781 19.077440324030164 4.4588374892275375 10 -1 -2
577 1 2 -1.1794 6.291622061556272 18.72198436454439 1.2676232709405169 3 1 -1
292 1 2 -1.1794 1.1476082532896354 21.516802453972325 2.547630004050741 1 -4 0
172 1 2 -1.1794 6.170999593895304 19.444250587236148 4.038950150584112 10 -1 -2
579 1 1 0.5897 5.410037731179445 19.007191081396066 1.027342190517896 3 1 -1
76 1 2 -1.1794 8.429578716122514 18.447551849996337 5.19776794985259 -2 -7 -5
365 1 1 0.5897 0.7076910778718222 18.43535807307466 4.049948780352315 7 4 7
739 1 2 -1.1794 9.074124750182047 19.376971597149222 0.8630120312743774 4 2 3
740 1 1 0.5897 8.129695838364466 19.51120271714924 0.9426074090669069 4 2 3
364 1 2 -1.1794 1.0302799834902707 18.802405961743503 3.2268569121345987 7 4 7
179 1 1 0.5897 0.7493419986319974 21.74085429933929 5.534176909229533 -13 1 -4
314 1 1 0.5897 5.087324898393144 17.488032592309505 4.746254452030617 0 -5 -1
430 1 2 -1.1794 0.8279656093293666 17.421470490588415 5.746622762721319 -10 0 -3
539 1 1 0.5897 3.740943684266185 21.606463396623 3.6641666806108963 -11 -3 2
178 1 2 -1.1794 0.7363936258554167 20.79672724520423 5.691417534750508 -13 1 -4
164 1 1 0.5897 9.013615335208442 21.829696129090983 2.0019505399638162 -9 2 -2
253 1 2 -1.1794 7.576660756564905 21.819096440341838 3.552874431448951 0 5 -6
224 1 1 0.5897 3.217013308308534 19.110982727721584 10.543078115850136 4 -1 -5
223 1 2 -1.1794 3.494127873512097 18.425039631731742 9.935648095185888 4 -1 -5
500 1 1 0.5897 7.575480415237149 17.285418120208394 7.8231463487758734 1 -6 -2
160 1 2 -1.1794 4.804262849921686 19.452017051416078 7.779858664485621 2 5 1
642 1 1 0.5897 6.538305007600892 20.741198436642186 7.100892906705331 -2 5 -3
813 1 1 0.5897 5.707802219016083 21.084931519717593 10.135383010247692 -4 8 2
161 1 1 0.5897 4.299867617919306 19.219904047439265 7.000130579649383 2 5 1
587 1 1 0.5897 2.1123454215707436 17.182242505216532 8.946050740451374 3 4 3
588 1 1 0.5897 0.6091443066135267 17.260314358789728 9.10815872440572 3 4 3
432 1 1 0.5897 0.9121674206298737 17.225682618604313 6.679816259684617 -10 0 -3
316 1 2 -1.1794 8.602782183092009 18.05382679068225 10.273604776673022 -2 -1 -1
341 1 1 0.5897 6.647748530403879 17.472595074150348 10.954722086869124 2 5 3
446 1 1 0.5897 2.3274512576055755 21.083573754412733 11.00517248064606 2 4 -2
811 1 2 -1.1794 4.951163150149029 21.669490099981793 10.089844280205474 -4 8 2
162 1 1 0.5897 4.241480983585609 19.20242996220766 8.512830682008818 2 5 1
812 1 1 0.5897 4.370505995396185 21.365168217984845 10.787370464933112 -4 8 2
89 1 1 0.5897 3.6794915689557017 21.76800525948523 6.1911314636913914 4 -5 0
225 1 1 0.5897 4.283345349092662 18.05701281273587 10.333113726078707 4 -1 -5
501 1 1 0.5897 6.5730531750420065 18.415636900913384 7.921834328666557 1 -6 -2
499 1 2 -1.1794 7.492976557116336 18.23442071175839 7.729028586821386 1 -6 -2
78 1 1 0.5897 8.18098556069039 18.53992330505143 6.117531231036592 -2 -7 -5
90 1 1 0.5897 4.409120228451068 21.317686495291518 7.438861813249343 4 -5 0
405 1 1 0.5897 9.016559491432716 20.982401468984953 6.45747539248766 9 -4 -4
640 1 2 -1.1794 7.183646539705104 21.33779049165991 6.721553404369838 -2 5 -3
317 1 1 0.5897 8.410541097475434 18.26065703226398 9.358984780107122 -2 -1 -2
355 1 2 -1.1794 7.1715003963308614 20.46177379045806 11.032628032712966 7 1 1
318 1 1 0.5897 8.347700390422474 18.84014542766561 10.756204946380482 -2 -1 -1
586 1 2 -1.1794 1.2939120334093634 16.8308257553318 8.595419676178576 3 4 3
390 1 1 0.5897 5.817287952365778 18.694384958626685 12.608993514537358 1 4 8
855 1 1 0.5897 8.933176208659688 19.990847020378204 16.0090039736398 -1 2 2
324 1 1 0.5897 8.33231494688085 18.35597118859996 15.386975979443068 7 2 -1