LAMMPS data file via write_data, version 30 Jul 2021, timestep = 8250000

1920 atoms
2 atom types
1280 bonds
1 bond types
640 angles
1 angle types

-0.09562854271815802 24.8256295427173 xlo xhi
-0.08869945314935457 24.818700453142455 ylo yhi
-0.03938083180622698 22.84938083180664 zlo zhi

Masses

1 1.008
2 15.999

Pair Coeffs # lj/cut/tip4p/long/omp

1 0 0
2 0.21084 3.1668

Bond Coeffs # harmonic/omp

1 450 0.9572

Angle Coeffs # harmonic/omp

1 55 104.52

Atoms # full

1 1 2 -1.1794 4.042050440622535 1.1037118227314402 4.352534007929627 0 0 0
2 1 1 0.5897 4.058182322557432 1.7903367248493656 5.019160542815831 0 0 0
3 1 1 0.5897 4.886470291355431 1.1806905443593743 3.908325650956593 0 0 0
4 2 2 -1.1794 2.809948250294857 1.3702409385561258 1.909379237691421 0 0 0
5 2 1 0.5897 2.9842018848455605 1.4832664716779598 2.843650871200036 0 0 0
6 2 1 0.5897 1.855600433983146 1.394355053833969 1.8385761842784396 0 0 0
10 4 2 -1.1794 3.261459347358954 4.3048279693458875 3.4175212507748984 0 0 0
11 4 1 0.5897 2.7134517987607216 4.91579369098661 3.9100647185410713 0 0 0
12 4 1 0.5897 2.905680257412808 4.32606103398783 2.529255341831887 0 0 0
13 5 2 -1.1794 1.0449462250050772 3.012486112508536 4.620477171458099 0 0 0
14 5 1 0.5897 1.8052170400395409 3.090062381131942 4.044108542036985 0 0 0
15 5 1 0.5897 1.1410111867961457 2.1526579000409565 5.029887942200354 0 0 0
22 8 2 -1.1794 1.4653303071263901 4.38506937639424 1.2231731263400025 0 0 0
24 8 1 0.5897 1.557282799222457 5.098623998421872 0.5919129800397573 0 0 0
23 8 1 0.5897 0.688856786664417 4.614854648198908 1.7336112784808544 0 0 0
20 7 1 0.5897 3.8557459675101913 2.7664390126819955 0.9128439160791485 0 0 0
9 3 1 0.5897 4.96275591092896 4.4507138781142785 3.310233096109816 0 0 0
21 7 1 0.5897 5.368749950393748 2.8219656930200148 0.9137337978286395 0 0 0
19 7 2 -1.1794 4.600896766216996 3.1114445457486166 0.42093074595118674 0 0 0
27 9 1 0.5897 4.297882355923931 4.958896775683484 0.3238313751406377 0 0 0
29 10 1 0.5897 2.1552154813054316 0.13752931901826546 4.659871399380295 0 0 0
16 6 2 -1.1794 0.18889203395849563 1.5788658002276121 1.9901673862444063 0 0 0
47 16 1 0.5897 5.810952033744256 0.7549959659875025 1.7303180527912985 0 0 0
28 10 2 -1.1794 1.2963533643606628 0.28555748124985053 5.055795232144328 0 0 0
387 129 1 0.5897 3.9673923122705945 6.488590751083101e-05 1.1198115750930953 0 1 0
98 33 1 0.5897 0.10509283598847913 5.672978808446954 3.757058921478073 1 0 0
1455 485 1 0.5897 1.5791281869442901 3.255854840812215 0.00022458358848712057 0 0 1
99 33 1 0.5897 0.10927116228521075 4.160448846836566 3.6937081111422794 1 0 0
7 3 2 -1.1794 5.874845898036949 4.740796322206836 3.327651913105632 0 0 0
150 50 1 0.5897 1.5801857113542015 5.7852157689640284 5.518157279038023 0 0 0
8 3 1 0.5897 5.882274579634498 5.472198356612392 3.9449861405186404 0 0 0
25 9 2 -1.1794 4.472800756610923 5.878608835273878 0.5231416639824175 0 0 0
26 9 1 0.5897 5.237127025316434 5.858216148624441 1.0990138513838859 0 0 0
1347 449 1 0.5897 4.459457930089028 0.6102718317130091 11.124434366652222 0 1 0
505 169 2 -1.1794 4.857476254936508 6.085220908753212 6.354924686684412 0 0 0
528 176 1 0.5897 5.9679949834824155 2.2351382979703365 7.338870621042345 0 0 0
867 289 1 0.5897 4.4974707539094 0.028760457963337538 5.79274825165441 0 1 0
501 167 1 0.5897 4.518422030961261 4.245721251667443 6.067111795183853 0 0 0
493 165 2 -1.1794 1.5463839957651955 2.928197266756047 10.712980496104743 0 0 0
490 164 2 -1.1794 3.1233149110898695 4.844489927433445 9.47288730282338 0 0 0
503 168 1 0.5897 0.8525481587444553 4.912633132106684 7.532702944604735 0 0 0
578 193 1 0.5897 0.12753522536243833 3.771097472688546 9.879136609695028 1 0 0
500 167 1 0.5897 3.8286574616980054 3.104221542854759 6.783353755736472 0 0 0
485 162 1 0.5897 3.4752964757871463 1.4992383566314407 8.422293975568744 0 0 0
482 161 1 0.5897 5.284079341507157 1.6208046479836058 9.44959382060115 0 0 0
481 161 2 -1.1794 4.422080449525021 1.7733834003440148 9.836868911275564 0 0 0
502 168 2 -1.1794 1.65141372987168 4.731086189294666 7.037605068336701 0 0 0
527 176 1 0.5897 5.56202010971703 0.7769240808364279 7.3635175725034765 0 0 0
486 162 1 0.5897 3.057638959676931 0.6121454349471649 7.268970691044963 0 0 0
492 164 1 0.5897 2.570208192210741 4.2200178805737245 9.942254622622691 0 0 0
491 164 1 0.5897 2.806191127089058 4.814636885007369 8.570349469569729 0 0 0
484 162 2 -1.1794 2.8648650282294867 1.4515349450464516 7.686601279597629 0 0 0
499 167 2 -1.1794 4.571107314029697 3.3010693135048848 6.212149748522917 0 0 0
489 163 1 0.5897 5.018861959027597 4.662076188504225 9.38872525801181 0 0 0
494 165 1 0.5897 1.4918531805885582 1.978991750090087 10.602443282931311 0 0 0
483 161 1 0.5897 4.551851728318639 2.5166527047186733 10.425803098207037 0 0 0
498 166 1 0.5897 0.9615227456100279 1.5745787241763443 7.818059266761602 0 0 0
504 168 1 0.5897 1.4319970107732267 3.9713154731555553 6.498393851521766 0 0 0
487 163 2 -1.1794 5.934227143236926 4.735016472610455 9.118294099823894 0 0 0
496 166 2 -1.1794 0.016550012491121785 1.676341774136438 7.703867458069315 0 0 0
508 170 2 -1.1794 1.0937188642966784 0.25107256349750084 10.329361672289375 0 0 0
579 193 1 0.5897 -0.05494850436094057 5.262658957267914 9.695455560779918 1 0 0
509 170 1 0.5897 1.261679445390698 -0.04460465304696015 11.224001861836854 0 0 0
961 321 2 -1.1794 4.268904540287736 1.7324617826341264 15.459107940773226 0 0 0
962 321 1 0.5897 5.042232868622587 1.7621140192587226 14.895796022837596 0 0 0
963 321 1 0.5897 4.368350594750584 0.9233425851061414 15.96067220475626 0 0 0
964 322 2 -1.1794 2.581487092624295 1.680443180860712 13.195122246496442 0 0 0
965 322 1 0.5897 2.9689159939975016 1.707921311204351 14.069875287460517 0 0 0
966 322 1 0.5897 1.6369393471797058 1.6847771018109394 13.350616970994428 0 0 0
970 324 2 -1.1794 3.144691685007072 4.735699086955464 15.13962597342575 0 0 0
971 324 1 0.5897 4.084673449645266 4.8755909066323735 15.024591371721662 0 0 0
972 324 1 0.5897 3.06615747724366 3.8096526376868276 15.368635081119224 0 0 0
973 325 2 -1.1794 1.2869511499548776 2.968826912296091 16.306796567745817 0 0 0
975 325 1 0.5897 0.6427579836356614 3.4982599679454855 15.836760184450926 0 0 0
982 328 2 -1.1794 1.2659254661999404 4.73867939444405 13.055110566716476 0 0 0
983 328 1 0.5897 1.2880209774267937 5.485408531826596 12.45677024123767 0 0 0
984 328 1 0.5897 2.0538560749530346 4.836283079670296 13.589796574646991 0 0 0
980 327 1 0.5897 3.748043303396387 3.029084864768073 12.379743361965208 0 0 0
981 327 1 0.5897 5.236978835145795 2.756555439065182 12.34723279738338 0 0 0
979 327 2 -1.1794 4.578437899651675 3.3963908904470648 12.07668529909627 0 0 0
990 330 1 0.5897 1.482278113770929 1.0716142941980225 16.576873713771725 0 0 0
986 329 1 0.5897 4.72140340542776 5.300427519605572 12.035323326343134 0 0 0
988 330 2 -1.1794 1.6680679246272043 0.15124268401574933 16.390896691645533 0 0 0
495 165 1 0.5897 1.2874819616234927 3.0791894932106763 11.621930813363319 0 0 0
974 325 1 0.5897 1.4851720528355197 3.4753996589392884 17.09429280128194 0 0 0
1110 370 1 0.5897 1.9827831700051242 6.061978599694529 15.906111550301388 0 0 0
1460 487 1 0.5897 4.369476803811012 2.7567463566297885 16.96830876804339 0 0 0
967 323 2 -1.1794 5.859856278422507 4.695540019013483 14.804890570482351 0 0 0
1008 336 1 0.5897 5.702915316200368 0.8595267958765577 12.855685971021636 0 0 0
1058 353 1 0.5897 -0.029335505573330853 4.566850104265696 14.270848202126375 1 0 0
1109 370 1 0.5897 0.47255415484636476 6.035319824756321 15.802408542276606 0 0 0
1006 336 2 -1.1794 6.048303378246984 1.6231909455154818 13.31794817491533 0 0 0
1346 449 1 0.5897 3.6939801659589757 0.3145236835808097 12.39649527933451 0 1 0
1345 449 2 -1.1794 4.3894802252617655 -0.027427300966174073 11.834733731471095 0 1 0
1447 483 2 -1.1794 5.964767453458835 4.78297042042775 20.729282963033132 0 0 0
386 129 1 0.5897 4.779049326349765 0.10834106765822293 22.73536216677833 0 1 -1
1539 513 1 0.5897 0.19875359987776653 5.336791531464668 21.39139264038806 1 0 0
1452 484 1 0.5897 2.8326274073662914 4.716048942284872 19.704781463987263 0 0 0
1487 496 1 0.5897 5.832394088384124 1.485072090571811 19.94066234738096 0 0 0
1466 489 1 0.5897 4.133721012773493 5.06896806860501 17.858853473890747 0 0 0
1538 513 1 0.5897 0.4543334874681306 3.860929596605095 21.17166053153046 1 0 0
1826 609 1 0.5897 3.926781989039368 0.10484291891148736 18.233275655745825 0 1 0
1446 482 1 0.5897 3.131644756867305 2.178508401701642 18.833736935437624 0 0 0
1456 486 2 -1.1794 0.12345925564436733 1.4022962541153632 19.374168500966142 0 0 0
1488 496 1 0.5897 5.907689713747675 0.7958571960382405 18.595037975827587 0 0 0
1441 481 2 -1.1794 4.684653758808455 1.2372831540869629 21.313754285582302 0 0 0
1463 488 1 0.5897 1.1174370847536401 5.490333578765585 17.746437875659076 0 0 0
1464 488 1 0.5897 0.6975725305727459 4.983254025902121 19.109521786278055 0 0 0
1453 485 2 -1.1794 1.6173780091981111 2.876829196853009 22.010977026394634 0 0 0
1445 482 1 0.5897 1.8733778661938174 1.4472709902616618 19.251017424055725 0 0 0
1462 488 2 -1.1794 1.3006665228623115 4.804232894095871 18.388152801304173 0 0 0
1450 484 2 -1.1794 3.1238326613364356 4.6002932011632645 20.60911907779683 0 0 0
1443 481 1 0.5897 4.476201612048904 2.0564223450739036 21.762874132195623 0 0 0
1444 482 2 -1.1794 2.8245113698009163 1.3504188195349889 19.202664778203122 0 0 0
1469 490 1 0.5897 1.6792914292852352 1.0650249913894234 22.262259343037307 0 0 0
1459 487 2 -1.1794 4.369281182093721 3.258296081658046 17.783469746703364 0 0 0
1451 484 1 0.5897 4.06107255834931 4.793740024551322 20.586148939649 0 0 0
1461 487 1 0.5897 5.11558476257595 2.9163194139108466 18.27574574756265 0 0 0
1454 485 1 0.5897 2.320666365471812 3.3563037846952564 21.573105457475666 0 0 0
1442 481 1 0.5897 3.9444536928627807 1.091658305625646 20.724569288299794 0 0 0
1468 490 2 -1.1794 1.7690960969240497 0.12617223890094714 22.098952037113243 0 0 0
1590 530 1 0.5897 2.3392627447833245 5.9496314233345045 21.656165381333064 0 0 0
1465 489 2 -1.1794 4.238092748557898 6.019194529682629 17.907476617488513 0 0 0
121 41 2 -1.1794 4.768430184107839 7.4002599886398315 4.07761869255384 0 0 0
122 41 1 0.5897 3.9528369252803106 7.453141754379309 3.579343996145786 0 0 0
123 41 1 0.5897 5.458074807814168 7.4625540386498885 3.416778125483691 0 0 0
124 42 2 -1.1794 3.0928551167399436 7.7910507420917625 1.9187748196676442 0 0 0
125 42 1 0.5897 3.5531562461634287 7.10661644468972 1.433126026450722 0 0 0
126 42 1 0.5897 3.484825127787803 8.608392171024255 1.6113526120173864 0 0 0
129 43 1 0.5897 5.220012072025837 11.012214523334531 3.449644844222938 0 0 0
130 44 2 -1.1794 3.2701873440872116 11.003443296354611 3.5916481352465897 0 0 0
132 44 1 0.5897 2.8155063212872733 10.1933282615804 3.822293629875297 0 0 0
133 45 2 -1.1794 1.4979383152673698 9.053953928388832 4.74763820208733 0 0 0
135 45 1 0.5897 0.796933504136003 9.168579315717292 4.106034234292173 0 0 0
137 46 1 0.5897 1.2441091189714673 7.866196184078966 1.9359084110467555 0 0 0
139 47 2 -1.1794 4.4962997753236555 9.847314959225715 0.6582724167656816 0 0 0
142 48 2 -1.1794 1.5437731073628433 10.911881046217454 1.439100531429247 0 0 0
143 48 1 0.5897 2.3820147281500383 11.033255750930664 1.8850916346652569 0 0 0
144 48 1 0.5897 1.6000568190835232 11.472997757980327 0.6657641933148506 0 0 0
149 50 1 0.5897 1.850386524286052 7.112952947596897 4.843035187186848 0 0 0
131 44 1 0.5897 2.858875568578501 11.67330995405135 4.137774672380695 0 0 0
140 47 1 0.5897 4.410490727653511 10.734118748752119 0.30844816232195965 0 0 0
621 207 1 0.5897 4.395754640422921 8.715240118090344 5.330703376463388 0 0 0
148 50 2 -1.1794 1.8743726220237487 6.168112173292416 4.69178123869471 0 0 0
218 73 1 0.5897 0.37065467503058735 11.113169357502336 2.8504527196231377 1 0 0
134 45 1 0.5897 1.2090655162662747 9.554633593383944 5.510493092896942 0 0 0
507 169 1 0.5897 4.630202730419996 6.5180363626835875 5.532083629958989 0 0 0
1574 525 1 0.5897 1.530844982081713 9.658245368207718 0.042052398851092035 0 0 1
136 46 2 -1.1794 0.3136925031582973 8.020739787280043 2.099620422565733 0 0 0
270 90 1 0.5897 0.8625100881810047 12.246120237012672 4.5699820061781065 0 0 0
506 169 1 0.5897 4.097434205859891 6.228071277740549 6.918984642862829 0 0 0
748 250 2 -1.1794 1.4755825361467274 12.317924682636976 10.62614751162864 0 0 0
616 206 2 -1.1794 0.14216450586295853 7.623072644510989 7.8652059436323585 0 0 0
1101 367 1 0.5897 5.063323070867703 9.200963613497866 11.32814308995221 0 0 0
610 204 2 -1.1794 3.1805154234941866 10.730479646894146 8.986910710801272 0 0 0
628 210 2 -1.1794 1.5134166165699696 6.5459449136503185 10.920973091389081 0 0 0
648 216 1 0.5897 6.105827929832631 7.285740650955837 7.1492681041435295 0 0 0
647 216 1 0.5897 6.0012601712120635 7.945899550434023 8.507442394835389 0 0 0
606 202 1 0.5897 2.0297275692526204 7.451177364724325 7.944927843788124 0 0 0
614 205 1 0.5897 2.599235014516321 9.64000443298272 10.218432967616172 0 0 0
625 209 2 -1.1794 4.716562418861533 11.958494044866068 6.359458860571502 0 0 0
612 204 1 0.5897 2.7279147872028098 11.474250475827615 9.384589437729147 0 0 0
611 204 1 0.5897 4.096757220032828 10.843772661967572 9.239917173961153 0 0 0
613 205 2 -1.1794 1.9117814306794454 9.158727010877053 10.67888058235301 0 0 0
602 201 1 0.5897 4.910386891952285 7.401172891329885 10.585144430416262 0 0 0
622 208 2 -1.1794 1.137157491513641 10.689728835496323 6.881352418556771 0 0 0
624 208 1 0.5897 1.2748060911213623 11.47351964674949 6.34951527362141 0 0 0
620 207 1 0.5897 5.025162366420761 8.818656443630903 6.703520703667843 0 0 0
615 205 1 0.5897 1.1015737628310656 9.419166913713681 10.240672690858604 0 0 0
604 202 2 -1.1794 2.986000776031158 7.412989655094818 7.923438223123453 0 0 0
603 201 1 0.5897 4.1300202692529595 7.774557092084478 9.342892236145813 0 0 0
619 207 2 -1.1794 4.248343476258837 9.073755036617408 6.205782977470487 0 0 0
626 209 1 0.5897 4.483114289593098 11.041323535079796 6.502703228565993 0 0 0
605 202 1 0.5897 3.238401615985906 8.077677709913784 7.282665782108298 0 0 0
699 233 1 0.5897 0.2227434021048721 10.448878111395873 8.525053195552273 1 0 0
630 210 1 0.5897 1.645969252569526 7.490190944931551 10.837219104186067 0 0 0
623 208 1 0.5897 1.896259764827431 10.658548776168587 7.463606170148551 0 0 0
601 201 2 -1.1794 4.91166584895379 8.00698455200094 9.844160713977761 0 0 0
698 233 1 0.5897 0.20158678546957526 11.122742933395704 9.880353455393335 1 0 0
629 210 1 0.5897 2.1593288202801073 6.15956254687853 10.329619801016765 0 0 0
607 203 2 -1.1794 5.867212216844599 10.89745135415107 9.433738613724904 0 0 0
627 209 1 0.5897 5.37204817183859 12.14706042984535 7.030998237233924 0 0 0
1081 361 2 -1.1794 4.428574191770559 7.868486819742317 15.865842279827245 0 0 0
1082 361 1 0.5897 4.659674229749015 8.62026087501886 16.411329048194652 0 0 0
1083 361 1 0.5897 4.11711378672215 7.208895921262576 16.48556746033942 0 0 0
1084 362 2 -1.1794 2.9069963825141936 7.978287725848148 13.612429149727022 0 0 0
1085 362 1 0.5897 3.3501343922804843 7.96078555743974 14.460600472505892 0 0 0
1086 362 1 0.5897 3.484962588339451 8.494389441839143 13.050475655291795 0 0 0
1089 363 1 0.5897 4.937792219002312 10.594044628548485 14.744197268396844 0 0 0
1090 364 2 -1.1794 3.1640690238583207 10.715302582794884 15.072490954500434 0 0 0
1091 364 1 0.5897 2.5181684424372133 11.377702308790617 15.318058365321752 0 0 0
1092 364 1 0.5897 2.83287261651865 9.903365276845186 15.456206772537811 0 0 0
1095 365 1 0.5897 0.505020710244206 9.496447397824682 16.415993814295852 0 0 0
1097 366 1 0.5897 0.8937783812753276 7.915617000678614 13.656666058930316 0 0 0
1099 367 2 -1.1794 4.890181499706081 9.510439385551907 12.217113064441033 0 0 0
1102 368 2 -1.1794 1.5017399901114787 10.766888282873966 12.926256710397952 0 0 0
1104 368 1 0.5897 2.2806211525202613 10.643223714685766 13.468746028319986 0 0 0
1093 365 2 -1.1794 1.3159862439399914 9.13745370275857 16.776201338825683 0 0 0
1103 368 1 0.5897 1.5705031846599844 10.092507063049231 12.250550083924715 0 0 0
1100 367 1 0.5897 5.542191649191962 9.064414172541188 12.757626445699227 0 0 0
1094 365 1 0.5897 1.30945522811492 8.217541700795783 16.511844313897395 0 0 0
1107 369 1 0.5897 4.741935671203112 11.402956074966374 12.037628242641398 0 0 0
1096 366 2 -1.1794 -0.01904232400865548 7.914560090922144 13.368390231993251 0 0 0
1127 376 1 0.5897 5.927319527794923 7.906289472830684 14.66263568087013 0 0 0
1087 363 2 -1.1794 5.885664231663896 10.504557188574896 14.843700957234761 0 0 0
1179 393 1 0.5897 0.15677591026670623 10.647708636480218 14.280302550279297 1 0 0
1108 370 2 -1.1794 1.1947694439214924 6.509324360741859 16.21469222807184 0 0 0
1105 369 2 -1.1794 4.581334235882403 12.326430862909799 12.231497736410093 0 0 0
750 250 1 0.5897 1.7054680817047199 11.998602128101208 11.498625456054276 0 0 0
1178 393 1 0.5897 0.06514726133693813 11.527298814918131 15.508873051290612 1 0 0
1128 376 1 0.5897 5.8488629125150045 7.025165259806928 13.43425755161965 0 0 0
987 329 1 0.5897 3.889166566048806 6.458661239892231 12.542997083562199 0 0 0
985 329 2 -1.1794 4.760236296598965 6.240458545965323 12.211422763935452 0 0 0
1578 526 1 0.5897 -0.06981740860030783 7.428775760291919 20.02584766196523 0 0 0
1580 527 1 0.5897 3.9375434155611924 9.226511756997066 18.64150830316094 0 0 0
1576 526 2 -1.1794 0.2568920405752452 7.4962054214023945 19.1287697024102 0 0 0
1710 570 1 0.5897 2.5017906341411518 12.216165887705726 21.57309666277174 0 0 0
1561 521 2 -1.1794 5.0486484099717455 7.69043982989279 21.493437683883847 0 0 0
1467 489 1 0.5897 5.126899005774988 6.146335961073859 18.239429111953022 0 0 0
1573 525 2 -1.1794 1.567799613293625 9.23618451084027 22.072604153821764 0 0 0
1579 527 2 -1.1794 4.747788481331492 9.506270291288635 18.2154550327364 0 0 0
1658 553 1 0.5897 0.3080969387511558 10.212155624240992 21.076288583322306 1 0 0
1584 528 1 0.5897 1.737105531896079 10.332314126095962 18.260243833985097 0 0 0
1571 524 1 0.5897 2.784925892406971 11.089118423562658 20.09641298848355 0 0 0
1583 528 1 0.5897 0.9548057322285466 10.99976912647576 19.371163620468625 0 0 0
1589 530 1 0.5897 1.7750876194101226 7.284624709866462 22.093625456558165 0 0 0
1563 521 1 0.5897 4.226767392872649 7.666258509781457 21.003330674504493 0 0 0
1565 522 1 0.5897 2.0401007625345615 7.949327525482756 19.41367788783913 0 0 0
1562 521 1 0.5897 4.918586499665761 7.07012398914516 22.210634851189276 0 0 0
1588 530 2 -1.1794 1.6191605566253093 6.34190669263095 22.149966702728225 0 0 0
1564 522 2 -1.1794 2.956756162847287 7.948377306950718 19.689513111753673 0 0 0
1575 525 1 0.5897 2.3450080290093442 9.608100822390368 21.655595857378128 0 0 0
1572 524 1 0.5897 4.199642787865144 10.699455271979714 20.469113936895898 0 0 0
1582 528 2 -1.1794 1.6186022907861508 11.172332562743705 18.703498921261517 0 0 0
1581 527 1 0.5897 5.409023358089819 8.888740541038361 18.52799073622738 0 0 0
1566 522 1 0.5897 3.3861070125658714 7.334440985433001 19.093778306743868 0 0 0
1587 529 1 0.5897 4.819271874851162 11.245042914061967 17.84627362932397 0 0 0
1570 524 2 -1.1794 3.319725541399552 10.795037733309467 20.833724667119906 0 0 0
1230 410 1 0.5897 1.302722153223294 12.33356227932947 17.293020909904975 0 0 0
1567 523 2 -1.1794 5.926023674344715 10.850043075463889 20.63066513112974 0 0 0
1585 529 2 -1.1794 4.788605388197903 12.200171399748907 17.79178368118132 0 0 0
141 47 1 0.5897 4.643403368023 9.298601603337659 22.776753051189356 0 0 -1
241 81 2 -1.1794 4.607141223939487 13.88219991552556 4.047635252931677 0 0 0
242 81 1 0.5897 4.639167530784101 13.086177316653725 4.578155270212871 0 0 0
243 81 1 0.5897 3.811049911887472 13.789817181871692 3.5242197638745227 0 0 0
244 82 2 -1.1794 2.788063391655303 13.78777694469975 2.005013619563907 0 0 0
245 82 1 0.5897 1.8424284023366873 13.905038899161749 2.0966717298393682 0 0 0
246 82 1 0.5897 3.0925763643143678 14.600150488067662 1.6006774067826566 0 0 0
250 84 2 -1.1794 3.16117875627991 17.10211081170926 3.7442686914451286 0 0 0
251 84 1 0.5897 2.704709830195062 17.201228359049523 2.9088701031332604 0 0 0
252 84 1 0.5897 4.089260338176551 17.08543894902568 3.5102960028085466 0 0 0
253 85 2 -1.1794 1.3497456601690472 15.292816170115861 5.24203225316713 0 0 0
255 85 1 0.5897 2.1131595285277154 15.581658618549314 4.742004109686922 0 0 0
259 87 2 -1.1794 4.545279575431653 15.749690745895533 0.67505778216705 0 0 0
262 88 2 -1.1794 1.4008518359493223 17.05166391623252 1.5489008018814465 0 0 0
263 88 1 0.5897 1.6497013725312961 16.394318357516774 0.8992247179626149 0 0 0
264 88 1 0.5897 1.32928900728178 17.86606641368344 1.0511503503754451 0 0 0
269 90 1 0.5897 1.4140806956733756 13.537896100167192 5.134663406086634 0 0 0
254 85 1 0.5897 0.6348353068126624 15.848208737883464 4.931052157382963 0 0 0
260 87 1 0.5897 4.8119187019843315 16.668813960080307 0.6927593708603959 0 0 0
268 90 2 -1.1794 1.6288699521788306 12.613428648858664 5.0104988135100585 0 0 0
146 49 1 0.5897 3.956538043312743 12.802069915044894 1.0791831383983004 0 0 0
288 96 1 0.5897 5.90962728053463 14.687113285394995 1.4538114719565558 0 0 0
256 86 2 -1.1794 0.15671348440074573 13.975176394207795 2.4453791012852126 0 0 0
147 49 1 0.5897 5.449968208539463 12.830273550411238 0.831992596420039 0 0 0
339 113 1 0.5897 0.13009972800531955 17.810283408436078 4.3423067913809374 1 0 0
247 83 2 -1.1794 5.843938846316284 16.884031750898885 3.2683472756325904 0 0 0
740 247 1 0.5897 4.658158173574282 15.01551913822719 5.465082904605664 0 0 0
338 113 1 0.5897 0.08275455988473052 16.912230678549264 3.1246189421024195 1 0 0
145 49 2 -1.1794 4.6274483896561165 12.508723965901021 0.46271114447884365 0 0 0
389 130 1 0.5897 2.152056668385008 18.496154977013198 4.724058803226733 0 0 0
749 250 1 0.5897 1.6448004010902242 13.259311876576156 10.662833970529704 0 0 0
735 245 1 0.5897 0.8016061915018808 15.547660366874693 10.346305465175098 0 0 0
818 273 1 0.5897 0.16443864325630153 17.26566523897911 8.537908390887887 1 0 0
768 256 1 0.5897 6.1278525919414175 14.204467266437883 7.466537601229949 0 0 0
745 249 2 -1.1794 4.441191550262933 18.057131687227027 6.471084081726382 0 0 0
736 246 2 -1.1794 0.005715663178712305 13.90573506483656 8.11669221461013 0 0 0
1106 369 1 0.5897 4.5516496805282 12.750102490456099 11.373799472256906 0 0 0
747 249 1 0.5897 3.6696689488871224 18.112947700529155 7.034887560301052 0 0 0
742 248 2 -1.1794 1.7140872530461275 17.13768202257294 7.264269360012403 0 0 0
741 247 1 0.5897 4.741196918889892 16.210806144798248 6.390273800224981 0 0 0
743 248 1 0.5897 1.6115320352315174 17.863734142651353 6.649093964307538 0 0 0
731 244 1 0.5897 2.728810571023259 16.956261285285677 8.891030092222175 0 0 0
726 242 1 0.5897 3.0908631070351564 12.932961610581696 7.242951932190416 0 0 0
723 241 1 0.5897 5.47633620632914 13.976958939779811 9.665243084885514 0 0 0
725 242 1 0.5897 3.13348029855771 14.427284207469649 7.481573550470027 0 0 0
728 243 1 0.5897 5.149966274401597 16.895742347796194 9.388120255560178 0 0 0
870 290 1 0.5897 2.358638430347692 18.071004442683154 10.648404276014821 0 0 0
733 245 2 -1.1794 1.5017905953463475 15.099168492666633 10.820469173181314 0 0 0
869 290 1 0.5897 0.8743066343138179 18.308650001673584 10.468011100194476 0 0 0
721 241 2 -1.1794 4.634665068181746 14.178832856787553 10.074058512304664 0 0 0
732 244 1 0.5897 2.9192943670672578 16.186599865450383 10.180514849307247 0 0 0
739 247 2 -1.1794 4.794463579809343 15.25515408875698 6.381600043546262 0 0 0
737 246 1 0.5897 0.9529515211016797 13.804110750500202 8.210476911845246 0 0 0
724 242 2 -1.1794 2.727995537474411 13.621064814524244 7.800610758243703 0 0 0
744 248 1 0.5897 1.6768032182334474 16.352836716512243 6.7176920244472935 0 0 0
722 241 1 0.5897 3.99969898767499 14.114862938208356 9.360683462582005 0 0 0
730 244 2 -1.1794 3.3515939256444685 16.816969250510923 9.604394779205846 0 0 0
727 243 2 -1.1794 6.102923437627269 16.879227313299673 9.477408238085754 0 0 0
868 290 2 -1.1794 1.6269887912973693 18.584252820041918 10.991241266546696 0 0 0
1221 407 1 0.5897 4.574964888814174 15.454321746038374 11.383959791147298 0 0 0
1201 401 2 -1.1794 4.411043398186662 14.014010668007398 15.696588727952731 0 0 0
1204 402 2 -1.1794 2.81547695156551 13.996241798865235 13.446288941707643 0 0 0
1205 402 1 0.5897 3.2508616702681716 14.17068212420356 14.280605667946347 0 0 0
1206 402 1 0.5897 3.2592993435790367 13.22142468687939 13.101488063557499 0 0 0
1210 404 2 -1.1794 3.300004001374521 17.137523531388844 15.189897853257674 0 0 0
1211 404 1 0.5897 2.9903237123729736 17.638795066071154 15.944156566103716 0 0 0
1212 404 1 0.5897 4.25207319916669 17.234854875213003 15.211480338600351 0 0 0
1213 405 2 -1.1794 1.4891205956487934 15.237232376700693 16.339273798948895 0 0 0
1214 405 1 0.5897 0.789068871081674 15.764339115295595 15.954115154095433 0 0 0
1215 405 1 0.5897 2.295989183391807 15.677561405208387 16.07210514940703 0 0 0
1218 406 1 0.5897 1.0702195360921354 13.703710089334281 13.669033639260197 0 0 0
1222 408 2 -1.1794 1.492080728835826 16.779229925937678 13.0782176048597 0 0 0
1223 408 1 0.5897 1.5145802400288013 17.49189999676411 12.439712973080544 0 0 0
1224 408 1 0.5897 2.123665372424538 17.038247387293566 13.749181136374572 0 0 0
1229 410 1 0.5897 1.4071018961540351 13.480276556173811 16.31029961238234 0 0 0
1220 407 1 0.5897 3.8754346444763543 15.590648418591526 12.719460709088041 0 0 0
1202 401 1 0.5897 5.300865159974595 14.005419672943418 15.343790599812639 0 0 0
1203 401 1 0.5897 4.395535991178564 13.293097483521537 16.325985868791445 0 0 0
1219 407 2 -1.1794 4.633562566483494 15.90451353581122 12.226530369567316 0 0 0
1227 409 1 0.5897 4.474241214650287 17.73091298600353 12.00558090876884 0 0 0
1700 567 1 0.5897 4.529850928279953 15.302873686029429 17.091339795967173 0 0 0
734 245 1 0.5897 1.3636690011333117 15.339995418966197 11.736406051737758 0 0 0
1216 406 2 -1.1794 0.122027042334004 13.731319806582901 13.797671076875714 0 0 0
1247 416 1 0.5897 5.91906245103627 14.882934936227173 13.183418336184893 0 0 0
1228 410 2 -1.1794 1.272553931802359 12.533784216641953 16.357604430267916 0 0 0
1350 450 1 0.5897 0.9665242568436703 18.384302191262023 16.130682595158643 0 0 0
1248 416 1 0.5897 5.694579494865364 13.38585298861291 13.17200047754461 0 0 0
1207 403 2 -1.1794 6.111018064387055 17.259870655456936 15.059242368375859 0 0 0
1298 433 1 0.5897 0.05927366560555625 17.03483390262422 14.412472521774854 1 0 0
1706 569 1 0.5897 4.604713177650956 18.447978203133218 17.064518702742575 0 0 0
1696 566 2 -1.1794 0.33250925558216854 13.840349780162114 19.42680702272896 0 0 0
1705 569 2 -1.1794 4.64715253015329 18.312293305670373 18.010976790557162 0 0 0
1777 593 2 -1.1794 0.22998453100782212 16.849434462444748 20.50295504984933 1 0 0
1586 529 1 0.5897 5.5372000336344955 12.49430916725972 18.310751116396354 0 0 0
1709 570 1 0.5897 1.0053740628056738 12.386188483127437 21.7282380057861 0 0 0
261 87 1 0.5897 4.448795635352946 15.545677520763086 22.633728534174196 0 0 -1
1693 565 2 -1.1794 1.81052679035947 15.371397587935432 22.237937362977878 0 0 0
1703 568 1 0.5897 1.667088603755444 16.28059457713932 17.818541221668326 0 0 0
1699 567 2 -1.1794 4.616589633737589 15.688879477221036 17.962832372050247 0 0 0
1708 570 2 -1.1794 1.8425615208605708 12.708714784566979 22.062006932051652 0 0 0
1685 562 1 0.5897 3.609566518275974 13.049574820669775 18.8251344035479 0 0 0
1689 563 1 0.5897 5.068941602090144 17.073542263119187 20.625880121083558 0 0 0
1692 564 1 0.5897 2.974153651377471 17.095453069264032 19.933731275578236 0 0 0
1694 565 1 0.5897 1.1591108540567177 15.80632402735866 21.68775220102913 0 0 0
1697 566 1 0.5897 1.2687376912971335 13.82055798082585 19.228200923748883 0 0 0
1687 563 2 -1.1794 6.0246239990546595 17.023340444332874 20.648980638431986 0 0 0
1704 568 1 0.5897 1.7887751098799245 17.780087915895784 17.98730056037709 0 0 0
1681 561 2 -1.1794 4.645640722468749 14.318180262783873 21.114917424635067 0 0 0
1686 562 1 0.5897 3.429093414851202 14.073025612689761 19.925817383941453 0 0 0
1702 568 2 -1.1794 1.9923298826748366 16.95072967625066 18.41960036982761 0 0 0
1691 564 1 0.5897 2.8966671242732973 16.567003846341365 21.35009409265587 0 0 0
1707 569 1 0.5897 4.46439352284666 17.380068115668784 18.128200511380097 0 0 0
1695 565 1 0.5897 1.8014931547467172 14.459976484372548 21.94570769496588 0 0 0
1690 564 2 -1.1794 3.346245476398997 17.214743720026064 20.80744204261794 0 0 0
1684 562 2 -1.1794 3.0809533771208377 13.807535465965097 19.07471205361216 0 0 0
1682 561 1 0.5897 5.329478046576946 14.031112336766542 20.5097973522863 0 0 0
1683 561 1 0.5897 4.685064006808538 13.690712673111538 21.83658779822769 0 0 0
1701 567 1 0.5897 4.076394171437421 15.134256777470046 18.525695284129252 0 0 0
1778 593 1 0.5897 0.701532295079943 16.84014539506584 19.67010525194003 1 0 0
1779 593 1 0.5897 0.5027177654372013 17.664625940794352 20.923958196557514 1 0 0
1830 610 1 0.5897 2.3387375427916592 18.423478210021123 21.816865234771807 0 0 0
1728 576 1 0.5897 6.0602024293735255 14.453394746469517 18.624248195698225 0 0 0
1698 566 1 0.5897 -0.008845325385848923 14.56472900830922 18.902499150538677 0 0 0
361 121 2 -1.1794 4.912465582791484 19.903293403461348 4.237543620478494 0 0 0
362 121 1 0.5897 4.202798692588603 19.904390566045457 3.595223173067289 0 0 0
364 122 2 -1.1794 3.042823608055222 19.862239989564863 2.1137253466449293 0 0 0
365 122 1 0.5897 3.421415817403276 20.655068386237758 1.7338955036306347 0 0 0
370 124 2 -1.1794 3.2110425915064282 23.306842667559827 3.4463943871108755 0 0 0
371 124 1 0.5897 4.152938690171025 23.136707237638092 3.462701504097 0 0 0
372 124 1 0.5897 2.8294986933823094 22.5942026843193 3.9589658540821886 0 0 0
373 125 2 -1.1794 1.3264893328500804 21.935172151855404 5.074302482735767 0 0 0
382 128 2 -1.1794 1.5013592303450694 23.290946708702236 1.4478256275711856 0 0 0