LAMMPS data file via write_data, version 30 Jul 2021, timestep = 8750000

1920 atoms
2 atom types
1280 bonds
1 bond types
640 angles
1 angle types

-0.0704982860976262 24.800499286095285 xlo xhi
-0.23919253940082186 24.96919353939822 ylo yhi
-0.11211429531606498 22.922114295318792 zlo zhi

Masses

1 1.008
2 15.999

Pair Coeffs # lj/cut/tip4p/long/omp

1 0 0
2 0.21084 3.1668

Bond Coeffs # harmonic/omp

1 450 0.9572

Angle Coeffs # harmonic/omp

1 55 104.52

Atoms # full

1 1 2 -1.1794 4.6148631898783945 1.3315714988714493 4.19146061217109 0 0 0
2 1 1 0.5897 4.61298585630434 2.049557958916678 4.824438225761046 0 0 0
3 1 1 0.5897 5.370733168084494 1.5075110570323784 3.631225401062536 0 0 0
4 2 2 -1.1794 3.00223840923832 1.6091334776012438 1.9038458041374722 0 0 0
20 7 1 0.5897 3.9510505909752576 2.944917214729634 1.0731468509176025 0 0 0
6 2 1 0.5897 2.069473470043673 1.6361561914142335 2.116784727884916 0 0 0
24 8 1 0.5897 1.8117494400785328 5.141965947589334 0.8622110482551143 0 0 0
11 4 1 0.5897 3.0165614517395394 5.012926966592748 4.210908884139191 0 0 0
10 4 2 -1.1794 3.359577464972085 4.258230478206887 3.732444563979781 0 0 0
21 7 1 0.5897 5.434563748762366 3.0777648618476166 1.3436282056454212 0 0 0
12 4 1 0.5897 2.8800590110988566 4.261082641741673 2.904055914607691 0 0 0
5 2 1 0.5897 3.4431374624456503 1.6379289620523514 2.75293777718084 0 0 0
14 5 1 0.5897 1.977559885508323 3.1003641062860634 4.489615779668957 0 0 0
386 129 1 0.5897 4.763331975320501 0.4079326838621229 0.2225970393510191 0 1 0
27 9 1 0.5897 4.90329231367109 5.294414968129103 0.7935219635527759 0 0 0
16 6 2 -1.1794 0.20975006874733654 1.5031914489210911 1.8507950267098638 0 0 0
15 5 1 0.5897 1.078920957303171 2.0043179992913385 5.021413795137143 0 0 0
1470 490 1 0.5897 1.3760362870763856 -0.14958901344481965 0.1736410191376357 0 0 1
22 8 2 -1.1794 1.8262708113206867 4.329469659788522 1.367994384962045 0 0 0
9 3 1 0.5897 5.226702554572918 4.396448584654216 3.5311126310962275 0 0 0
98 33 1 0.5897 0.07768636773410653 5.5845995314484265 3.550697452846007 1 0 0
23 8 1 0.5897 1.0033598931137993 4.336326749931727 1.8567960702097985 0 0 0
19 7 2 -1.1794 4.719112897422652 3.4665428788698947 0.8405115279726088 0 0 0
13 5 2 -1.1794 1.1683726851595222 2.9563981328669633 4.980156336297915 0 0 0
28 10 2 -1.1794 1.402294543560759 -0.0025393601765077156 5.010447834252133 0 0 0
47 16 1 0.5897 5.947937997745338 0.951033691819422 1.6336636722987805 0 0 0
99 33 1 0.5897 0.17993665076265564 4.147233153491899 4.014607783562672 1 0 0
867 289 1 0.5897 4.724775812648756 0.22928258150853315 5.532181733811185 0 1 0
1455 485 1 0.5897 1.6853950802646183 2.9953475794050703 -0.049190566469366814 0 0 1
504 168 1 0.5897 1.35126590162822 3.9741153409698127 6.541454400365237 0 0 0
481 161 2 -1.1794 4.384719733519589 1.3032269423082392 9.878732263264359 0 0 0
482 161 1 0.5897 5.140775499535479 1.5112169581158126 9.329850102446562 0 0 0
483 161 1 0.5897 4.318305601191946 2.0407400816687264 10.485222055734093 0 0 0
484 162 2 -1.1794 2.750393925285723 1.4008395898911326 7.5859614403639055 0 0 0
485 162 1 0.5897 3.057713798573603 1.3769348615644688 8.49214581866613 0 0 0
486 162 1 0.5897 3.1975165366518135 0.6686664817766068 7.161514409602043 0 0 0
505 169 2 -1.1794 4.293592396801917 5.737570805669249 6.573717981202638 0 0 0
488 163 1 0.5897 4.951825630398174 4.411865959473342 9.413584054587613 0 0 0
490 164 2 -1.1794 3.1080647845094247 4.4497753701698075 9.419158732192475 0 0 0
491 164 1 0.5897 2.875434848474859 4.625457339766669 8.50744260759736 0 0 0
492 164 1 0.5897 2.4817998978604927 3.783731267056485 9.702561129420081 0 0 0
493 165 2 -1.1794 1.245731281854173 2.590134940370171 10.666265501963375 0 0 0
494 165 1 0.5897 1.4091424600078244 1.6621720868057819 10.83459139276152 0 0 0
496 166 2 -1.1794 0.07552977159692642 1.493059759191867 7.811175119994971 0 0 0
498 166 1 0.5897 1.0235725301609007 1.3866354526632922 7.733639145310932 0 0 0
865 289 2 -1.1794 4.710458682197789 -0.23608829670009449 6.368490168161085 0 1 0
1347 449 1 0.5897 4.395903615990979 0.07149605599885717 11.110241075246757 0 1 0
501 167 1 0.5897 4.723860813469273 4.024322240180519 6.408943579343412 0 0 0
502 168 2 -1.1794 1.4013052644586368 4.713217375876475 7.147583298509262 0 0 0
500 167 1 0.5897 4.125907588274965 2.726214582520368 6.907999388272817 0 0 0
503 168 1 0.5897 0.7387785969708297 4.524016735420068 7.811975674182838 0 0 0
499 167 2 -1.1794 4.830589070320816 3.0743054468036615 6.361736258637795 0 0 0
578 193 1 0.5897 0.029639726898428323 5.135004020395071 9.795909830803891 1 0 0
628 210 2 -1.1794 1.17409251949788 5.972274270079508 10.754774772451057 0 0 0
487 163 2 -1.1794 5.903376196897844 4.513918966052739 9.397433227506653 0 0 0
527 176 1 0.5897 5.962246349292706 0.6158929514236631 7.605446121325945 0 0 0
629 210 1 0.5897 1.8830537438990391 5.620622796889301 10.216386002309301 0 0 0
149 50 1 0.5897 1.40133105390315 5.9110345016201435 5.739514909464319 0 0 0
987 329 1 0.5897 4.497802439286184 4.924107752817641 12.420907809993881 0 0 0
961 321 2 -1.1794 4.729090100497439 1.4142189495061366 15.886973897123008 0 0 0
962 321 1 0.5897 5.469444295568949 1.238861840897795 15.306218068783421 0 0 0
985 329 2 -1.1794 4.456322146145669 5.878983552211399 12.369490808160982 0 0 0
964 322 2 -1.1794 3.072215196215416 1.3788424384319462 13.385649611118254 0 0 0
965 322 1 0.5897 3.44161753016096 1.3700969032698431 14.268625920386997 0 0 0
966 322 1 0.5897 2.137695605078766 1.2173178580317925 13.514897775950027 0 0 0
1346 449 1 0.5897 3.9046147436169405 0.16165936391574648 12.539332011340669 0 1 0
970 324 2 -1.1794 3.133339723971393 4.613982045632391 15.092171308946414 0 0 0
971 324 1 0.5897 4.088763593858239 4.593240911554593 15.038739063023085 0 0 0
972 324 1 0.5897 2.9045139840187044 3.8363033695718842 15.60110339953463 0 0 0
979 327 2 -1.1794 4.5384301884880776 3.167079775764871 11.88711146290685 0 0 0
975 325 1 0.5897 0.7414612644456211 3.3348430649212784 16.067502626933273 0 0 0
981 327 1 0.5897 5.402258998147479 2.779866992384004 12.028507648176124 0 0 0
495 165 1 0.5897 1.2171107197612374 2.9902538046402896 11.535329742882292 0 0 0
980 327 1 0.5897 3.948710373615655 2.642280279751805 12.428377262255495 0 0 0
963 321 1 0.5897 4.68521630411903 0.6473877181642997 16.458120272263926 0 0 0
982 328 2 -1.1794 1.2084871153106673 4.3287018588428365 12.971140076676088 0 0 0
983 328 1 0.5897 1.2449113198523905 4.957646024784713 12.250532096021178 0 0 0
984 328 1 0.5897 2.002113370134326 4.498766370694543 13.478468005575206 0 0 0
973 325 2 -1.1794 1.4573859926620742 2.7903109280985423 16.394723483982638 0 0 0
967 323 2 -1.1794 5.847394018745681 4.572729493874042 15.059265041227798 0 0 0
1110 370 1 0.5897 2.2791860709368703 5.969905113835913 16.04973188391832 0 0 0
990 330 1 0.5897 2.160452798055409 0.9810079058340464 16.457090194106858 0 0 0
1109 370 1 0.5897 0.7656146061478215 5.98069586327266 16.074228686316584 0 0 0
976 326 2 -1.1794 0.2017666943316982 1.0355034149733853 13.762757872839078 0 0 0
977 326 1 0.5897 0.03640817107243777 1.7557511242609949 13.154429457700441 0 0 0
1008 336 1 0.5897 6.060348809808741 0.729477909332689 12.850793808569103 0 0 0
988 330 2 -1.1794 1.9973316528800504 0.046009931282685046 16.33331957087418 0 0 0
1460 487 1 0.5897 4.881867660918705 2.8831477053080725 17.11790747087885 0 0 0
1454 485 1 0.5897 2.327778293257727 3.2869659568262217 21.645611426986804 0 0 0
1466 489 1 0.5897 4.357463982020203 4.930650504099605 17.67022808480118 0 0 0
1441 481 2 -1.1794 4.757157327102089 1.4224114136615391 21.818395452269794 0 0 0
1442 481 1 0.5897 4.0149482624965716 1.3935958147936116 21.214703623874417 0 0 0
974 325 1 0.5897 1.6582093256567962 3.1513611342088597 17.258149279730397 0 0 0
1444 482 2 -1.1794 3.182298342090036 1.2373391965779037 19.553577825298827 0 0 0
1826 609 1 0.5897 3.9917315280062606 -0.041391359289318114 18.559879418033898 0 1 0
1446 482 1 0.5897 3.501171933298518 2.0611169091067034 19.184981918478055 0 0 0
1463 488 1 0.5897 1.5103755738979663 5.00966003660027 18.093184862000804 0 0 0
1450 484 2 -1.1794 3.5852294652308885 4.712239507301266 20.933488788076684 0 0 0
1451 484 1 0.5897 4.514996476972801 4.860342329576682 20.76107265093085 0 0 0
1452 484 1 0.5897 3.14363537386097 5.00622164336407 20.136779160657838 0 0 0
1453 485 2 -1.1794 1.7242356657855358 2.6846783623435484 22.080509889011488 0 0 0
1443 481 1 0.5897 4.729433785579308 2.303667026415349 22.190917840405028 0 0 0
1459 487 2 -1.1794 4.723132017200478 3.2620145967582976 17.982458884572107 0 0 0
1465 489 2 -1.1794 4.350283675203313 5.861082764806168 17.445736392165024 0 0 0
1461 487 1 0.5897 5.438170689940392 2.9297015549004444 18.52508039942259 0 0 0
1462 488 2 -1.1794 1.8269808892781156 4.361576311123571 18.722401241094513 0 0 0
1538 513 1 0.5897 0.2870964745705236 3.903977773037739 21.168258957602156 1 0 0
1464 488 1 0.5897 1.1426325620732256 4.321329643386606 19.39038538212201 0 0 0
1445 482 1 0.5897 2.234473661087459 1.3541141913032873 19.617727625804743 0 0 0
1469 490 1 0.5897 1.2362132681501559 0.9044908975464812 22.130319592232834 0 0 0
1537 513 2 -1.1794 -0.056561759119634014 4.683426721922498 20.73175242649691 1 0 0
1468 490 2 -1.1794 1.195023010186767 -0.04088590148006793 22.274269344685077 0 0 0
1456 486 2 -1.1794 0.4214517215942682 1.3828045943470582 19.271027471928527 0 0 0
1590 530 1 0.5897 2.4736923322162636 6.002676973733717 21.98433653164891 0 0 0
1539 513 1 0.5897 0.3496905632887209 5.416291987188813 21.194377240140092 1 0 0
143 48 1 0.5897 0.9704077929507187 11.439924009690706 0.8239050672350569 0 0 0
121 41 2 -1.1794 4.409598738980956 7.397217258373786 4.305552555741908 0 0 0
122 41 1 0.5897 3.7528659270389624 7.433062800931411 3.6101550461091887 0 0 0
123 41 1 0.5897 5.222769746213145 7.672013563052079 3.882021242973176 0 0 0
124 42 2 -1.1794 2.956399061650476 7.898018081350324 2.0469989801275954 0 0 0
1574 525 1 0.5897 1.5953265334625808 9.415434680517766 0.1695277484507045 0 0 1
126 42 1 0.5897 3.3339572789862433 8.725505236443436 1.748903750847578 0 0 0
125 42 1 0.5897 3.3237796184528032 7.240174081048281 1.4567151278272579 0 0 0
129 43 1 0.5897 5.0757405190621885 11.244177176856121 3.6084663451678205 0 0 0
130 44 2 -1.1794 2.9672368156897897 10.97122206409262 3.615948571871405 0 0 0
270 90 1 0.5897 1.9448575855035926 12.039689956459883 4.675918587608147 0 0 0
132 44 1 0.5897 2.566745574667172 10.188286900469937 3.993805036519417 0 0 0
133 45 2 -1.1794 1.6170150543966295 8.875442973281901 4.867354845128365 0 0 0
135 45 1 0.5897 0.8666288799805935 9.057127855396287 4.301614727583683 0 0 0
140 47 1 0.5897 4.383902221249682 10.599514841695132 0.627383629987758 0 0 0
137 46 1 0.5897 0.9543358737014744 7.636099112052176 2.131037576534512 0 0 0
139 47 2 -1.1794 4.595400976831875 9.694695857041133 0.8569982273831627 0 0 0
150 50 1 0.5897 1.5822108034222724 7.074510024405472 4.788013438207456 0 0 0
142 48 2 -1.1794 1.2100599056361718 10.679965258181598 1.3541783649872845 0 0 0
131 44 1 0.5897 2.4582218271876703 11.142645102745938 2.823675044759136 0 0 0
144 48 1 0.5897 0.6565497455287559 10.74606277564913 2.1322695668322 0 0 0
26 9 1 0.5897 5.329582397030897 6.664144405391165 1.2770663401307685 0 0 0
136 46 2 -1.1794 0.07313166503366134 7.620601706113039 2.5043678827049325 0 0 0
168 56 1 0.5897 5.898155388022459 8.592726267404956 1.9594985621098635 0 0 0
148 50 2 -1.1794 1.659998526805288 6.122071097343072 4.842437577400914 0 0 0
141 47 1 0.5897 4.7567902290847845 9.265378726465592 0.016865305693851446 0 0 0
127 43 2 -1.1794 5.942479105650003 10.85386148164354 3.4964599668330925 0 0 0
25 9 2 -1.1794 4.750893347552694 6.228596786441278 0.6513025195236365 0 0 0
621 207 1 0.5897 4.329702329833516 9.099339927816038 5.513892275948673 0 0 0
218 73 1 0.5897 -0.05490015428264883 11.434936593670917 4.218765595313865 1 0 0
612 204 1 0.5897 2.7479817062176846 11.536158421432434 9.621577816736782 0 0 0
620 207 1 0.5897 5.029451934804643 8.716895607656847 6.800689279821967 0 0 0
601 201 2 -1.1794 4.4901602826383655 7.376893577392781 9.905562712523125 0 0 0
602 201 1 0.5897 4.2628572285429405 6.740816872113537 10.583730412809485 0 0 0
603 201 1 0.5897 3.7897253052636195 7.29795385236449 9.258017803733438 0 0 0
604 202 2 -1.1794 2.7851196120090247 7.556633744538817 7.841711230066632 0 0 0
605 202 1 0.5897 2.9614368480040616 8.3113605583752 7.280047690185443 0 0 0
606 202 1 0.5897 1.834661171501508 7.448960231496399 7.807610092290816 0 0 0
615 205 1 0.5897 0.7879464576021367 9.455351258504644 10.202034475047421 0 0 0
610 204 2 -1.1794 3.058516620739589 10.907066694799987 8.970439241589865 0 0 0
611 204 1 0.5897 4.012321288745937 10.980713122980477 9.00142467263311 0 0 0
699 233 1 0.5897 0.09533491745064207 10.486849407284003 8.428348202545767 1 0 0
619 207 2 -1.1794 4.5704611663808326 9.4409654363533 6.375002944322203 0 0 0
506 169 1 0.5897 3.489064110360181 6.112335972118993 6.932086617273864 0 0 0
614 205 1 0.5897 2.240611479224621 9.029621282462065 10.189561776799186 0 0 0
624 208 1 0.5897 0.9106347201092739 11.265429886993969 6.427824280259889 0 0 0
607 203 2 -1.1794 5.6744640269328706 10.937322462036576 9.468760594981894 0 0 0
613 205 2 -1.1794 1.4202197496932913 8.907718074033875 10.667311312367293 0 0 0
622 208 2 -1.1794 1.0730976676697488 10.52043258528633 7.006397441869694 0 0 0
623 208 1 0.5897 1.898285807659283 10.731246847992741 7.443156384154067 0 0 0
1101 367 1 0.5897 4.50012748974943 8.836985304353368 11.160821797251677 0 0 0
630 210 1 0.5897 1.1812557395020369 6.9126748573158086 10.57660381527657 0 0 0
626 209 1 0.5897 4.477928454601735 11.184156901130937 6.688188392058797 0 0 0
507 169 1 0.5897 4.399442636546359 6.164697397947333 5.723693234414153 0 0 0
698 233 1 0.5897 0.08410447075453664 11.158197496960405 9.785160323664055 1 0 0
625 209 2 -1.1794 4.246040992163851 12.106983528193814 6.584423281440715 0 0 0
748 250 2 -1.1794 1.309406651130422 12.222604075364332 10.670349822133801 0 0 0
647 216 1 0.5897 5.606303831745063 6.777010307487718 7.22843432797781 0 0 0
648 216 1 0.5897 5.748173127856236 7.429344530679955 8.5871492717795 0 0 0
646 216 2 -1.1794 6.101814662868021 7.447998343515808 7.697895533489159 0 0 0
134 45 1 0.5897 1.4139776355958105 9.325620988140365 5.687296720741527 0 0 0
1085 362 1 0.5897 3.189077126789742 7.068720175418797 13.162037674049163 0 0 0
1083 361 1 0.5897 4.481354652988195 7.154978111252219 16.21997899051011 0 0 0
1081 361 2 -1.1794 4.740023734583044 7.9925407288451655 15.835613673148888 0 0 0
1082 361 1 0.5897 4.804077476233858 8.589202071088197 16.58131916465301 0 0 0
1095 365 1 0.5897 0.4456811941990152 9.080880991413084 16.021153623933365 0 0 0
1084 362 2 -1.1794 2.8561203174184726 7.829444487316822 13.63806220937824 0 0 0
1087 363 2 -1.1794 5.925609475476497 10.637906195736766 14.936338514528854 0 0 0
1086 362 1 0.5897 3.4164605183149503 7.892693223978371 14.411493184554837 0 0 0
1097 366 1 0.5897 1.1066923970615523 7.524122244759098 13.687772690796251 0 0 0
1089 363 1 0.5897 4.979693918326302 10.746940131221866 15.033700578263304 0 0 0
1090 364 2 -1.1794 3.1338708325307167 10.846075393002089 15.14684659753744 0 0 0
1091 364 1 0.5897 2.8377621572389335 11.70867724664417 15.437337824718433 0 0 0
1092 364 1 0.5897 2.5694532752511345 10.229169994999948 15.61268761406009 0 0 0
1094 365 1 0.5897 1.469328706231173 8.110988969759582 16.571740171833014 0 0 0
1179 393 1 0.5897 0.18640739844387483 10.487074399989295 14.443612245959246 1 0 0
1100 367 1 0.5897 3.7411943919482997 8.772066642900095 12.469089961646704 0 0 0
1108 370 2 -1.1794 1.5323007300262288 6.35856900303574 16.50497569591251 0 0 0
1128 376 1 0.5897 5.766451831855852 8.493429464488937 12.986837949829557 0 0 0
1099 367 2 -1.1794 4.246136122175195 9.367851557480602 11.915703530351434 0 0 0
1103 368 1 0.5897 1.4074517129554747 9.866511560028133 12.162496055351106 0 0 0
1102 368 2 -1.1794 1.3434649705185195 10.446195692066992 12.921479032533396 0 0 0
1093 365 2 -1.1794 1.2716185267340196 9.045021636241199 16.503535383055397 0 0 0
1104 368 1 0.5897 2.068783539006448 10.181736479526505 13.48727754765032 0 0 0
1107 369 1 0.5897 4.334817690682837 11.224974121070407 12.186129206304573 0 0 0
1127 376 1 0.5897 5.8332600756481225 7.837214092489642 14.349457410409372 0 0 0
1105 369 2 -1.1794 4.5426569975953495 12.146010916045723 12.343099865340411 0 0 0
1096 366 2 -1.1794 0.1614776395780771 7.487800715517611 13.54157658988787 0 0 0
986 329 1 0.5897 5.304339457259681 6.174216946668622 12.70090582740675 0 0 0
750 250 1 0.5897 1.0214308904996845 12.087144457983385 11.573073968453745 0 0 0
1178 393 1 0.5897 0.15737074592927058 11.445785676639082 15.614847330109619 1 0 0
1585 529 2 -1.1794 4.355882244739702 12.12601551893405 17.809518505808015 0 0 0
1581 527 1 0.5897 5.264682396152601 9.186191150927451 18.804430689236415 0 0 0
1580 527 1 0.5897 3.814717570895892 8.831454192986255 18.552651207292705 0 0 0
1561 521 2 -1.1794 4.862677882033871 7.9678913285324064 21.442501301704866 0 0 0
1562 521 1 0.5897 4.707090191731026 7.258912017912082 22.066452285138173 0 0 0
1563 521 1 0.5897 4.239771913764349 7.805243475923364 20.73419058369601 0 0 0
1564 522 2 -1.1794 2.867300405634681 7.4377789294935015 19.339647507042088 0 0 0
1565 522 1 0.5897 1.9484807063807081 7.558147229812922 19.579248747719685 0 0 0
1566 522 1 0.5897 2.849013089836296 6.787544185107257 18.637485592071435 0 0 0
1584 528 1 0.5897 1.243355670863969 10.345699516776712 17.624417014636524 0 0 0
1570 524 2 -1.1794 3.036600704633685 10.75453265243911 20.812142895430558 0 0 0
1571 524 1 0.5897 2.628915797926004 10.930529900554196 19.964206638217835 0 0 0
1572 524 1 0.5897 3.9763549824443265 10.751466801852738 20.630539371372322 0 0 0
1588 530 2 -1.1794 1.702852351387184 6.294003831433577 22.471249528093786 0 0 0
1575 525 1 0.5897 2.279418389135199 9.550693847160467 21.860073644271218 0 0 0
1579 527 2 -1.1794 4.501467305475769 9.442969357878267 18.287018908493245 0 0 0
1587 529 1 0.5897 4.3600570570920985 11.16943179175431 17.77650948886132 0 0 0
1573 525 2 -1.1794 1.5902953232040378 9.064874478793008 22.313100041435785 0 0 0
1710 570 1 0.5897 2.121411909142504 12.1365455281492 21.920639487115498 0 0 0
1582 528 2 -1.1794 1.3439049807417458 10.92320893631953 18.381085832793033 0 0 0
1583 528 1 0.5897 0.7143857616430527 10.59168540637255 19.02136185891121 0 0 0
1589 530 1 0.5897 1.7617901457344811 7.249320525348721 22.464718844495348 0 0 0
1467 489 1 0.5897 5.239545240338812 6.160423123461799 17.634784307293895 0 0 0
1567 523 2 -1.1794 5.756931703272316 10.7279803796733 20.898761733558608 0 0 0
1709 570 1 0.5897 0.7092711258673743 11.920863315934898 21.419665791827054 0 0 0
1608 536 1 0.5897 6.007321807653679 7.877628857664865 19.94010872701797 0 0 0
1576 526 2 -1.1794 0.0383238901508622 7.6192059783024435 19.38906038603538 0 0 0
1658 553 1 0.5897 0.1485967114995001 9.907697953640163 21.42748606002284 1 0 0
1586 529 1 0.5897 5.01260967264059 12.346196902505051 18.470117678883575 0 0 0
1230 410 1 0.5897 1.4704384759518236 12.297028374929484 17.279745559313792 0 0 0
269 90 1 0.5897 1.2811301717084813 13.380211184083727 4.908603393029523 0 0 0
264 88 1 0.5897 1.3539570394361105 17.93560031370352 0.6686251046559023 0 0 0
241 81 2 -1.1794 4.628577633432302 13.324197554768233 4.087366994324209 0 0 0
242 81 1 0.5897 4.309051594461107 12.820528055243612 4.835963384946898 0 0 0
243 81 1 0.5897 3.9283163757609234 13.259491289683437 3.438057398163614 0 0 0
244 82 2 -1.1794 2.6051848181578734 13.504593554510997 2.0281022082430655 0 0 0
245 82 1 0.5897 1.655816415536371 13.589195752503406 2.115642769643364 0 0 0
246 82 1 0.5897 2.8897876609088238 14.34784255481664 1.6758490196722682 0 0 0
147 49 1 0.5897 3.6255896649977815 12.653968865783996 0.6955022242216846 0 0 0
250 84 2 -1.1794 3.1844909425730825 17.051260024716832 3.508123947879476 0 0 0
251 84 1 0.5897 2.821521357194998 17.192997772741442 2.633853594990959 0 0 0
252 84 1 0.5897 4.122434920448309 16.92911026491846 3.3616233357579817 0 0 0
253 85 2 -1.1794 1.189234136563049 15.270047738002566 4.4974517805436784 0 0 0
145 49 2 -1.1794 4.4642605912226045 12.39997666797012 0.3104661980750854 0 0 0
254 85 1 0.5897 0.506552274770907 15.937572932817048 4.564593612078105 0 0 0
260 87 1 0.5897 4.411128042046113 16.49250077913066 0.7853138438150081 0 0 0
259 87 2 -1.1794 4.099498352879811 15.588098908444977 0.752113822749953 0 0 0
389 130 1 0.5897 2.038874086978824 18.483095442541764 4.12675272957513 0 0 0
262 88 2 -1.1794 1.576321321942677 17.248181730403385 1.2964588432715651 0 0 0
263 88 1 0.5897 1.5848646080177569 16.44350362704983 0.7782119516341602 0 0 0
339 113 1 0.5897 0.17997698047904143 18.17889732343814 3.8061549602076803 1 0 0
287 96 1 0.5897 5.663291428972934 13.919166239978471 2.7606791281680403 0 0 0
255 85 1 0.5897 1.9446042581910858 15.73470369395271 4.137373374216739 0 0 0
288 96 1 0.5897 5.514227461915674 14.87871439686376 1.599298637369815 0 0 0
146 49 1 0.5897 5.1193967921998045 12.848203183678967 0.8452970477285354 0 0 0
268 90 2 -1.1794 1.21656163806564 12.453461583340614 5.139081491866487 0 0 0
286 96 2 -1.1794 6.079939271400838 14.186601322928166 1.9414901870955465 0 0 0
265 89 2 -1.1794 4.82424021010366 18.302333458950486 0.6003601337708561 0 0 0
741 247 1 0.5897 4.442554834826626 16.443382258358728 6.3342816169811575 0 0 0
721 241 2 -1.1794 4.747862091940493 13.84594403006902 10.002231989662477 0 0 0
722 241 1 0.5897 3.966307131693517 14.067844826325622 9.496195206459337 0 0 0
818 273 1 0.5897 0.487611350680777 17.164334498417517 8.21366753336178 1 0 0
724 242 2 -1.1794 2.809801789295864 13.831364934260312 7.9354613227943585 0 0 0
725 242 1 0.5897 3.3713519867785315 14.432870522187576 7.446583624259872 0 0 0
726 242 1 0.5897 3.1355020197695254 12.960550246911184 7.707982172946551 0 0 0
740 247 1 0.5897 4.452037255506774 15.09109198079586 5.653894274687402 0 0 0
728 243 1 0.5897 4.950935378297412 16.86902647117618 9.486661491902808 0 0 0
730 244 2 -1.1794 3.0802693384938022 16.59596141623425 9.1620765882258 0 0 0
749 250 1 0.5897 1.2672299081578158 13.170537315409515 10.544684180064843 0 0 0
732 244 1 0.5897 2.5745864967315044 15.884644989555461 9.555098908411292 0 0 0
733 245 2 -1.1794 1.2397411492772568 15.02723623826616 10.639275202264107 0 0 0
745 249 2 -1.1794 4.507112260145378 18.363364460566466 6.3178910109646305 0 0 0
723 241 1 0.5897 5.429705025497621 13.711543860382374 9.344062721918375 0 0 0
737 246 1 0.5897 0.8281035438025527 13.864761248954848 7.820451583738039 0 0 0
869 290 1 0.5897 0.9752292638992586 18.049742717426724 10.280990793273938 0 0 0
731 244 1 0.5897 2.6960727297141567 16.711902850046258 8.293093186318687 0 0 0
742 248 2 -1.1794 1.608728317549612 16.92610658679716 6.737914695970413 0 0 0
739 247 2 -1.1794 4.4723678988383275 15.504308904219858 6.517041061866713 0 0 0
744 248 1 0.5897 1.641642530757814 16.187790538750416 6.129647392307088 0 0 0
743 248 1 0.5897 1.7990302038211727 17.691950200661474 6.196219562043462 0 0 0
735 245 1 0.5897 0.6957648059182869 15.630776303992745 10.133325765848022 0 0 0
870 290 1 0.5897 2.4601521793369785 18.28303988155187 10.460448852267435 0 0 0
868 290 2 -1.1794 1.6039186995327634 18.63855157400098 10.698366201479368 0 0 0
727 243 2 -1.1794 5.888082878700076 17.05441114711265 9.427421554269342 0 0 0
817 273 2 -1.1794 -0.0294561396001254 16.989587532210045 8.999973873571955 1 0 0
768 256 1 0.5897 5.945248694234623 14.415585872011832 7.491409306848296 0 0 0
627 209 1 0.5897 5.08594432950516 12.565902838940584 6.575171857603284 0 0 0
729 243 1 0.5897 6.011451620899337 17.83998780030553 9.960158874946192 0 0 0
1247 416 1 0.5897 6.138948891345546 14.567080394708512 13.521504720096782 0 0 0
1201 401 2 -1.1794 4.365644661588912 13.938794418193288 15.7313762162821 0 0 0
1219 407 2 -1.1794 4.759226062663621 15.472659118908211 12.205684365093248 0 0 0
1350 450 1 0.5897 0.7011084910480377 18.573760030116937 15.938198330372373 0 0 0
1204 402 2 -1.1794 2.8116151064033037 13.858859866922726 13.52473120463099 0 0 0
1205 402 1 0.5897 3.210502409392366 13.830961690531414 14.394396027310693 0 0 0
1206 402 1 0.5897 3.2622234149932736 13.173125280373716 13.031905277307153 0 0 0
1215 405 1 0.5897 1.9472394671897542 15.549484113169502 16.123454685130696 0 0 0
1210 404 2 -1.1794 3.1586873256611163 17.043773129532088 14.999152238722674 0 0 0
1211 404 1 0.5897 2.867677235163648 17.891218763154914 15.335763222570385 0 0 0
1212 404 1 0.5897 4.108410196907319 17.051725488406692 15.117848275903757 0 0 0
1220 407 1 0.5897 3.9642512336180626 15.141187305120578 12.623158273277276 0 0 0
1214 405 1 0.5897 0.4434384940098729 15.653380920073948 15.98414650451285 0 0 0
1229 410 1 0.5897 1.3116957756541452 13.576325652028531 16.486071560320273 0 0 0
1202 401 1 0.5897 5.114196898356889 13.66604983404585 15.200881333637247 0 0 0
1218 406 1 0.5897 0.9763920907098205 13.896344153359028 13.532335085278637 0 0 0
1203 401 1 0.5897 4.331315226265222 13.300706273243872 16.44401058032622 0 0 0
1213 405 2 -1.1794 1.1288851637126192 15.329804630497952 16.568622603607686 0 0 0
1222 408 2 -1.1794 1.4185695848799331 16.991694185695913 12.9442734400581 0 0 0
1223 408 1 0.5897 1.5807782313274903 17.651689753970384 12.270283464919276 0 0 0
1224 408 1 0.5897 2.095069589564751 17.149750695535307 13.602697208835183 0 0 0
1227 409 1 0.5897 4.306343808795757 17.198625447074296 12.151151395729347 0 0 0
734 245 1 0.5897 1.2921608829736526 15.42311069440964 11.509181817203933 0 0 0
1207 403 2 -1.1794 5.864291088494455 17.210348837249192 15.13665686387257 0 0 0
1228 410 2 -1.1794 1.3937247697965973 12.628066131724303 16.384917077292243 0 0 0
1248 416 1 0.5897 5.979564985166657 13.078508774226464 13.29692189272333 0 0 0
1216 406 2 -1.1794 0.0293034540537246 13.794204880382322 13.438993482299201 0 0 0
1225 409 2 -1.1794 4.343393929187129 18.149039296021698 12.04390835377549 0 0 0
1700 567 1 0.5897 4.46026839496742 14.996014476453997 16.952197159210435 0 0 0
1298 433 1 0.5897 0.1703001242609555 17.04861823704256 14.248646585401355 1 0 0
1226 409 1 0.5897 4.886977111113218 18.45160284678682 12.771328130335188 0 0 0
1221 407 1 0.5897 4.8799671662012525 14.911419837929088 11.43977388754599 0 0 0
1106 369 1 0.5897 4.466427268698374 12.559168470378753 11.48305684002633 0 0 0
1697 566 1 0.5897 0.9252907829476108 13.89620141002919 19.022164823517645 0 0 0
1695 565 1 0.5897 1.305506102575756 14.383785957346253 21.696362956482456 0 0 0
1681 561 2 -1.1794 4.445478935578895 14.248003037266212 21.33957839145484 0 0 0
1728 576 1 0.5897 5.779761789409883 14.600365894863662 18.683043980396 0 0 0
1683 561 1 0.5897 4.487016287235577 13.485015084139858 21.91602645007445 0 0 0
1684 562 2 -1.1794 2.8478011100266087 13.980868214789924 19.20185149016358 0 0 0
1778 593 1 0.5897 0.1354606940102555 17.514311456474832 19.92066988812515 1 0 0
1686 562 1 0.5897 3.4158113575056985 14.071725838124905 19.96688752616298 0 0 0
1693 565 2 -1.1794 1.3896222003137448 15.314964102128208 21.901281180841625 0 0 0
1689 563 1 0.5897 4.728221733595564 17.482487124730973 20.436467881710573 0 0 0
1690 564 2 -1.1794 2.9289522705459445 17.343357671965695 20.66120914644281 0 0 0
1691 564 1 0.5897 2.6302351363465455 16.605567545604835 21.192806559363085 0 0 0
1692 564 1 0.5897 2.4930483926202758 17.22333305020694 19.817550035122725 0 0 0
1699 567 2 -1.1794 4.432676362602331 15.623129071612482 17.674789570489203 0 0 0
1685 562 1 0.5897 3.241089664343742 13.271358468188435 18.69383166631273 0 0 0
1682 561 1 0.5897 5.212296166628901 14.162845193238919 20.77311170629746 0 0 0
1707 569 1 0.5897 4.413077252969251 17.465149296733625 17.746798034203564 0 0 0
1694 565 1 0.5897 0.8733711118677469 15.75663625404218 21.227057257164535 0 0 0
1705 569 2 -1.1794 4.446067593618841 18.381950286707745 18.019812609775585 0 0 0
1701 567 1 0.5897 3.679135377198467 15.352150301701313 18.19909035895373 0 0 0
1702 568 2 -1.1794 1.2918844454618903 17.23749643015341 18.479574436177284 0 0 0
1703 568 1 0.5897 1.0474400833358115 16.492833696837312 17.93012867995759 0 0 0
1704 568 1 0.5897 1.4552281781329484 17.94904885623969 17.860559525180065 0 0 0
1696 566 2 -1.1794 -0.023493386654741717 13.773360219926403 19.051166218195227 0 0 0
1779 593 1 0.5897 0.30209258690575574 17.98386279577921 21.35020139280801 1 0 0
1708 570 2 -1.1794 1.2384261207528524 12.503334008439579 21.96452928397691 0 0 0
1687 563 2 -1.1794 5.632628577369378 17.46558153458305 20.74934158091774 0 0 0
266 89 1 0.5897 4.723090116445013 18.448131309591158 22.694000653282213 0 0 -1
1726 576 2 -1.1794 6.113513076079858 13.92591673948496 19.274564178462157 0 0 0
261 87 1 0.5897 4.075914764151178 15.376516988787143 22.85313378278422 0 0 -1
363 121 1 0.5897 4.6443038329596575 19.468910617733776 4.691785574159457 0 0 0
459 153 1 0.5897 0.24853523991611248 23.251722729598672 2.629686130210074 1 0 0
361 121 2 -1.1794 4.647981088207864 20.218656183520608 4.096778384368064 0 0 0
362 121 1 0.5897 3.9614369890470025 20.02252382544944 3.459328503593718 0 0 0
384 128 1 0.5897 1.4185954154554923 22.914068599187942 0.6734387651487671 0 0 0
364 122 2 -1.1794 2.839204642482838 19.958919598909503 1.7589965338359925 0 0 0
365 122 1 0.5897 3.0292601798159073 20.784465857381978 1.313445685509492 0 0 0
380 127 1 0.5897 4.844948331633898 22.922382261912926 0.9450604753735292 0 0 0
366 122 1 0.5897 1.8836576354901595 19.923629934809234 1.8015242477384652 0 0 0
370 124 2 -1.1794 3.360747992233662 23.28479518430451 3.3197867398314327 0 0 0
371 124 1 0.5897 4.306743436580984 23.366181743861173 3.4405796097279926 0 0 0
372 124 1 0.5897 3.078533374910325 22.69967689767569 4.022752584301734 0 0 0
376 126 2 -1.1794 0.06156159943541223 20.369573122370237 1.621541375842003 0 0 0
458 153 1 0.5897 0.2539262589250626 24.06160151919213 3.908684153405644 1 0 0
379 127 2 -1.1794 4.5492048713997715 22.01993883955087 0.8255560761770661 0 0 0
861 287 1 0.5897 4.763324054569799 21.583646184175034 5.568635382065589 0 0 0