LAMMPS data file via MDAnalysis

        2268  atoms
        1512  bonds
         756  angles
           0  dihedrals
           0  impropers

           2  atom types
           1  bond types
           1  angle types
           0  dihedral types
           0  improper types

0.000000 47.450699 xlo xhi
0.000000 19.865850 ylo yhi
0.000000 20.544224 zlo zhi


Masses

1 1.008000
2 15.999000

Atoms

1 0 2 -1.179400 11.583746 6.641232 2.688287
2 0 1 0.589700 12.329391 6.652383 3.288383
3 0 1 0.589700 10.949882 7.240788 3.081958
4 0 2 -1.179400 4.484259 16.937576 12.031075
5 0 1 0.589700 4.693640 16.037031 12.278882
6 0 1 0.589700 5.335939 17.357975 11.912206
7 0 2 -1.179400 1.478729 0.466792 5.810243
8 0 1 0.589700 0.529794 0.591873 5.820270
9 0 1 0.589700 1.595892 19.705067 5.835429
10 0 2 -1.179400 3.399364 0.898728 20.127947
11 0 1 0.589700 2.989886 1.445991 0.028147
12 0 1 0.589700 2.783037 0.914397 19.395742
13 0 2 -1.179400 21.099794 13.992644 11.598173
14 0 1 0.589700 20.231569 13.691557 11.866042
15 0 1 0.589700 20.949574 14.455399 10.773840
16 0 2 -1.179400 6.921186 10.854616 3.988512
17 0 1 0.589700 6.862781 9.917384 3.802991
18 0 1 0.589700 6.335792 10.988655 4.733881
19 0 2 -1.179400 0.449966 6.200428 2.010008
20 0 1 0.589700 0.596579 7.131412 2.177359
21 0 1 0.589700 46.967514 6.137239 1.806392
22 0 2 -1.179400 1.193982 18.271095 18.631538
23 0 1 0.589700 1.604009 18.385504 19.488871
24 0 1 0.589700 1.863043 17.838045 18.101397
25 0 2 -1.179400 5.698201 16.239397 18.714306
26 0 1 0.589700 6.192771 15.709532 18.089108
27 0 1 0.589700 5.645506 15.696027 19.500566
28 0 2 -1.179400 1.362314 7.303197 18.260929
29 0 1 0.589700 2.142892 7.561440 17.770794
30 0 1 0.589700 1.528355 6.395634 18.515869
31 0 2 -1.179400 8.424205 6.598967 0.154663
32 0 1 0.589700 9.372510 6.553987 0.276789
33 0 1 0.589700 8.291435 6.393967 19.999067
34 0 2 -1.179400 5.675041 8.769261 19.089722
35 0 1 0.589700 4.822066 9.131166 18.849546
36 0 1 0.589700 5.561365 7.821290 19.021456
37 0 2 -1.179400 18.489784 11.122091 3.334327
38 0 1 0.589700 18.081770 11.402224 2.515010
39 0 1 0.589700 17.909410 11.456562 4.018086
40 0 2 -1.179400 2.131540 14.177620 18.973387
41 0 1 0.589700 1.195795 14.304516 19.129911
42 0 1 0.589700 2.464664 15.055171 18.785868
43 0 2 -1.179400 3.410706 12.984341 12.312862
44 0 1 0.589700 2.540740 13.377869 12.245630
45 0 1 0.589700 3.261375 12.144770 12.747667
46 0 2 -1.179400 1.927174 9.110039 6.949975
47 0 1 0.589700 2.359053 8.648315 7.668670
48 0 1 0.589700 1.743812 8.428898 6.302936
49 0 2 -1.179400 6.845541 18.258871 12.203526
50 0 1 0.589700 7.602418 18.590622 11.720510
51 0 1 0.589700 7.162846 18.147285 13.099684
52 0 2 -1.179400 7.346469 5.733772 9.974168
53 0 1 0.589700 7.118611 5.035587 9.360287
54 0 1 0.589700 6.521460 5.949942 10.408741
55 0 2 -1.179400 15.775192 13.133275 15.204580
56 0 1 0.589700 15.036905 12.553024 15.390234
57 0 1 0.589700 15.462904 14.004580 15.448577
58 0 2 -1.179400 22.918270 12.099416 12.898319
59 0 1 0.589700 23.230898 11.954487 12.005296
60 0 1 0.589700 22.187088 12.709373 12.800589
61 0 2 -1.179400 8.900243 18.591751 6.278612
62 0 1 0.589700 8.305621 18.787580 5.554524
63 0 1 0.589700 8.355514 18.135139 6.919709
64 0 2 -1.179400 18.611328 13.186082 9.525447
65 0 1 0.589700 18.832859 12.428433 10.066856
66 0 1 0.589700 19.307907 13.224630 8.870071
67 0 2 -1.179400 14.148820 13.327247 18.474104
68 0 1 0.589700 13.833362 12.440099 18.301807
69 0 1 0.589700 13.354081 13.840552 18.619478
70 0 2 -1.179400 20.500341 7.991491 2.347657
71 0 1 0.589700 20.863914 8.583426 3.006185
72 0 1 0.589700 19.591599 8.274516 2.246142
73 0 2 -1.179400 10.203015 4.217804 13.687608
74 0 1 0.589700 10.705557 3.781769 14.375761
75 0 1 0.589700 9.734801 3.508941 13.246564
76 0 2 -1.179400 8.636826 19.713245 3.019922
77 0 1 0.589700 9.565362 19.560120 3.194840
78 0 1 0.589700 8.560947 19.664730 2.066969
79 0 2 -1.179400 15.390670 19.152561 5.760022
80 0 1 0.589700 15.020576 18.509846 5.154894
81 0 1 0.589700 14.630288 19.537952 6.195360
82 0 2 -1.179400 8.399276 7.056663 6.076874
83 0 1 0.589700 8.968499 6.757319 6.785822
84 0 1 0.589700 8.147504 6.255879 5.616885
85 0 2 -1.179400 22.785646 1.832643 13.749328
86 0 1 0.589700 22.311138 1.331509 14.412604
87 0 1 0.589700 22.521753 2.740327 13.899996
88 0 2 -1.179400 22.200466 7.198143 10.299857
89 0 1 0.589700 23.117334 7.436044 10.162096
90 0 1 0.589700 21.954626 7.648086 11.108155
91 0 2 -1.179400 21.453449 18.089899 10.538327
92 0 1 0.589700 22.342619 17.790791 10.728422
93 0 1 0.589700 20.925488 17.746487 11.259128
94 0 2 -1.179400 14.394769 11.477420 4.411674
95 0 1 0.589700 14.192505 12.160172 3.772008
96 0 1 0.589700 14.075706 11.826238 5.243994
97 0 2 -1.179400 6.055311 13.652165 9.502889
98 0 1 0.589700 5.430187 13.254915 8.896555
99 0 1 0.589700 6.826432 13.835861 8.966370
100 0 2 -1.179400 11.321066 10.199817 4.078777
101 0 1 0.589700 10.861736 9.379657 3.898263
102 0 1 0.589700 11.759568 10.049977 4.916329
103 0 2 -1.179400 6.820887 4.640821 12.796902
104 0 1 0.589700 6.770111 4.716112 13.749784
105 0 1 0.589700 7.592098 5.154238 12.556356
106 0 2 -1.179400 5.618550 1.069640 6.279152
107 0 1 0.589700 4.701068 1.296031 6.126853
108 0 1 0.589700 5.722210 1.114494 7.229666
109 0 2 -1.179400 23.414932 2.230453 20.555464
110 0 1 0.589700 23.209755 3.138330 20.332096
111 0 1 0.589700 24.291075 2.269783 0.169018
112 0 2 -1.179400 24.706043 0.957537 2.928181
113 0 1 0.589700 24.545574 1.888950 2.776669
114 0 1 0.589700 25.362226 0.937272 3.624774
115 0 2 -1.179400 25.720760 4.138541 5.350521
116 0 1 0.589700 25.530912 5.020496 5.670434
117 0 1 0.589700 25.480345 3.562966 6.076568
118 0 2 -1.179400 18.875425 18.829004 4.250210
119 0 1 0.589700 19.737423 18.415545 4.202928
120 0 1 0.589700 19.003775 19.696157 3.865754
121 0 2 -1.179400 24.568062 5.670431 1.356740
122 0 1 0.589700 24.366993 4.952158 1.956648
123 0 1 0.589700 24.328165 6.461063 1.840042
124 0 2 -1.179400 24.035900 3.638510 3.131319
125 0 1 0.589700 23.170958 3.824125 3.496891
126 0 1 0.589700 24.649654 3.971801 3.785882
127 0 2 -1.179400 22.615461 15.732704 13.808756
128 0 1 0.589700 22.247452 15.288280 13.045023
129 0 1 0.589700 21.958225 15.615139 14.494646
130 0 2 -1.179400 19.370035 10.330788 19.538853
131 0 1 0.589700 20.078657 10.814525 19.114496
132 0 1 0.589700 18.717442 10.207248 18.849588
133 0 2 -1.179400 15.016897 18.146017 1.896569
134 0 1 0.589700 14.932872 19.073542 1.675495
135 0 1 0.589700 15.067069 17.701231 1.050472
136 0 2 -1.179400 26.562262 0.268735 4.873351
137 0 1 0.589700 26.446856 0.757481 5.688240
138 0 1 0.589700 26.194592 19.592363 5.057770
139 0 2 -1.179400 12.927126 15.339616 1.113245
140 0 1 0.589700 12.325226 14.642748 1.374625
141 0 1 0.589700 12.465575 16.149490 1.330737
142 0 2 -1.179400 26.061293 2.311800 0.374122
143 0 1 0.589700 26.453295 3.087102 -0.027711
144 0 1 0.589700 26.657602 2.083621 1.087268
145 0 2 -1.179400 29.570433 2.285993 20.732969
146 0 1 0.589700 29.266600 1.688565 20.049599
147 0 1 0.589700 29.428883 3.159616 20.368303
148 0 2 -1.179400 31.315199 1.325959 3.271818
149 0 1 0.589700 31.320929 2.243319 2.998596
150 0 1 0.589700 31.261524 0.832181 2.453566
151 0 2 -1.179400 32.749142 4.578601 5.736508
152 0 1 0.589700 32.233906 4.071818 6.364151
153 0 1 0.589700 32.745106 5.469497 6.086539
154 0 2 -1.179400 28.267511 3.923451 3.620317
155 0 1 0.589700 27.688581 3.824536 4.376151
156 0 1 0.589700 27.770517 4.464232 3.006490
157 0 2 -1.179400 31.567198 6.247319 1.379229
158 0 1 0.589700 32.524357 6.243459 1.386462
159 0 1 0.589700 31.319590 5.603910 2.043267
160 0 2 -1.179400 30.942274 4.226304 3.281638
161 0 1 0.589700 31.228256 4.214316 4.195039
162 0 1 0.589700 29.986340 4.236896 3.329585
163 0 2 -1.179400 27.386728 5.724960 1.689069
164 0 1 0.589700 26.572430 5.627277 1.195510
165 0 1 0.589700 27.358870 6.621590 2.023004
166 0 2 -1.179400 29.308811 0.643074 4.959275
167 0 1 0.589700 28.516148 0.368747 4.498133
168 0 1 0.589700 29.902693 0.930300 4.265705
169 0 2 -1.179400 29.170485 5.167602 6.715658
170 0 1 0.589700 29.839163 5.428500 7.348928
171 0 1 0.589700 29.251518 4.215486 6.659606
172 0 2 -1.179400 33.145821 0.656697 5.209549
173 0 1 0.589700 32.794674 19.986248 5.446382
174 0 1 0.589700 32.561047 0.973613 4.521195
175 0 2 -1.179400 27.925386 1.582043 2.145804
176 0 1 0.589700 28.511829 1.828367 1.430514
177 0 1 0.589700 28.043325 2.270181 2.800624
178 0 2 -1.179400 32.396881 2.457450 0.263544
179 0 1 0.589700 31.452135 2.331228 0.175515
180 0 1 0.589700 32.780090 1.851189 20.399565
181 0 2 -1.179400 36.179367 2.316862 20.695755
182 0 1 0.589700 35.698166 2.086074 0.720448
183 0 1 0.589700 37.081165 2.051075 0.105667
184 0 2 -1.179400 37.722458 1.290652 3.481837
185 0 1 0.589700 37.006218 1.077309 4.079929
186 0 1 0.589700 37.715496 0.583218 2.837073
187 0 2 -1.179400 39.196495 4.308784 5.825946
188 0 1 0.589700 38.489323 4.250674 5.183485
189 0 1 0.589700 39.154785 3.480738 6.304310
190 0 2 -1.179400 34.555187 4.147113 3.645458
191 0 1 0.589700 35.468319 4.255733 3.911189
192 0 1 0.589700 34.049232 4.384882 4.422442
193 0 2 -1.179400 37.768726 6.144266 1.735587
194 0 1 0.589700 37.598423 6.729956 2.473283
195 0 1 0.589700 38.720119 6.159837 1.631468
196 0 2 -1.179400 37.492229 4.082718 3.571983
197 0 1 0.589700 37.619583 3.192479 3.244129
198 0 1 0.589700 37.813171 4.646016 2.867764
199 0 2 -1.179400 34.230209 6.262250 1.892768
200 0 1 0.589700 34.712799 5.928614 1.136446
201 0 1 0.589700 34.395958 5.621957 2.584710
202 0 2 -1.179400 35.861614 0.976967 5.526142
203 0 1 0.589700 35.839397 0.214186 6.103985
204 0 1 0.589700 34.989933 1.004663 5.131648
205 0 2 -1.179400 35.795685 5.514150 6.567803
206 0 1 0.589700 36.403412 5.772014 7.260917
207 0 1 0.589700 35.691769 6.302096 6.034347
208 0 2 -1.179400 39.719826 0.444415 5.020616
209 0 1 0.589700 39.026901 0.713834 4.417709
210 0 1 0.589700 39.640633 1.045561 5.761281
211 0 2 -1.179400 34.432064 1.667666 2.114253
212 0 1 0.589700 34.501614 2.427227 2.692580
213 0 1 0.589700 33.568424 1.751946 1.710217
214 0 2 -1.179400 38.976337 2.094025 0.587689
215 0 1 0.589700 39.169102 2.903677 0.114894
216 0 1 0.589700 39.640770 2.053775 1.275535
217 0 2 -1.179400 42.787365 2.733202 0.463926
218 0 1 0.589700 43.696392 2.695581 0.761387
219 0 1 0.589700 42.676525 3.628383 0.143621
220 0 2 -1.179400 44.396259 1.093586 3.632507
221 0 1 0.589700 44.591690 0.513057 2.896962
222 0 1 0.589700 45.084492 0.910596 4.272101
223 0 2 -1.179400 45.999279 4.613743 5.981164
224 0 1 0.589700 46.618191 4.506712 5.258861
225 0 1 0.589700 46.026142 5.548897 6.183643
226 0 2 -1.179400 41.087154 4.414159 3.786908
227 0 1 0.589700 40.588184 4.423930 4.603710
228 0 1 0.589700 41.984627 4.218678 4.056262
229 0 2 -1.179400 44.847740 5.722091 1.967898
230 0 1 0.589700 44.549126 4.943929 2.438564
231 0 1 0.589700 44.255451 5.791729 1.219184
232 0 2 -1.179400 44.058121 3.985652 4.098833
233 0 1 0.589700 44.715786 4.248551 4.742719
234 0 1 0.589700 44.188988 3.043348 3.993144
235 0 2 -1.179400 40.689602 6.044140 1.675938
236 0 1 0.589700 40.939926 5.566497 2.466777
237 0 1 0.589700 41.044113 6.923913 1.804609
238 0 2 -1.179400 42.575428 0.076788 5.533487
239 0 1 0.589700 41.723930 0.213008 5.118014
240 0 1 0.589700 43.212135 0.312215 4.858650
241 0 2 -1.179400 42.774921 4.922252 7.092812
242 0 1 0.589700 43.576431 5.208783 7.530656
243 0 1 0.589700 42.807125 3.966509 7.134658
244 0 2 -1.179400 46.081841 0.473387 5.478995
245 0 1 0.589700 45.851849 1.032792 6.220887
246 0 1 0.589700 45.938515 19.769962 5.797040
247 0 2 -1.179400 40.905678 1.921344 2.406706
248 0 1 0.589700 40.910210 2.723758 2.928571
249 0 1 0.589700 41.554123 2.077864 1.720231
250 0 2 -1.179400 45.487434 2.639162 0.850620
251 0 1 0.589700 45.697838 3.570942 0.789386
252 0 1 0.589700 45.894787 2.249795 0.076871
253 0 2 -1.179400 13.053164 2.183926 2.075547
254 0 1 0.589700 13.869922 1.686858 2.120872
255 0 1 0.589700 13.250139 2.916504 1.491798
256 0 2 -1.179400 17.427498 14.348071 2.994466
257 0 1 0.589700 17.489559 15.282204 2.795019
258 0 1 0.589700 16.559677 14.092964 2.681366
259 0 2 -1.179400 14.765645 18.459614 14.453353
260 0 1 0.589700 15.037560 17.554882 14.607478
261 0 1 0.589700 14.735008 18.541935 13.500192
262 0 2 -1.179400 0.026119 16.004797 15.808372
263 0 1 0.589700 0.235166 15.095118 16.020542
264 0 1 0.589700 46.643463 15.956554 15.339951
265 0 2 -1.179400 17.551781 12.908823 17.393843
266 0 1 0.589700 16.874876 12.968546 16.719706
267 0 1 0.589700 17.516094 11.999242 17.689850
268 0 2 -1.179400 18.986332 10.891608 11.002722
269 0 1 0.589700 19.717314 10.615335 10.449943
270 0 1 0.589700 18.207071 10.574037 10.546515
271 0 2 -1.179400 0.072987 12.612406 2.088315
272 0 1 0.589700 0.829852 12.540468 1.506760
273 0 1 0.589700 0.067936 13.529233 2.363334
274 0 2 -1.179400 7.602498 4.730263 4.595229
275 0 1 0.589700 7.517605 3.852770 4.968098
276 0 1 0.589700 8.371414 4.676498 4.027689
277 0 2 -1.179400 2.214549 18.883274 0.461387
278 0 1 0.589700 2.640769 19.702862 0.210703
279 0 1 0.589700 1.475122 19.153992 1.005616
280 0 2 -1.179400 2.392381 12.695098 0.655261
281 0 1 0.589700 2.488709 11.748731 0.548761
282 0 1 0.589700 2.468403 13.045449 20.537651
283 0 2 -1.179400 5.900042 19.503042 17.478634
284 0 1 0.589700 5.633751 18.882353 16.800352
285 0 1 0.589700 6.748804 19.179302 17.780331
286 0 2 -1.179400 8.558387 2.731336 6.835352
287 0 1 0.589700 9.444155 3.089239 6.775827
288 0 1 0.589700 8.684508 1.822961 7.109541
289 0 2 -1.179400 6.587098 2.964123 1.815167
290 0 1 0.589700 6.922715 2.609208 2.638348
291 0 1 0.589700 7.258726 2.746965 1.168649
292 0 2 -1.179400 22.725008 18.828072 20.549641
293 0 1 0.589700 22.478851 19.407335 19.828466
294 0 1 0.589700 22.177927 19.111168 0.512378
295 0 2 -1.179400 16.438538 12.088362 7.948130
296 0 1 0.589700 17.210155 12.316866 8.466416
297 0 1 0.589700 15.852565 12.838828 8.046437
298 0 2 -1.179400 19.167334 2.156374 20.229809
299 0 1 0.589700 18.711226 2.974086 20.030951
300 0 1 0.589700 18.553211 1.665729 0.006104
301 0 2 -1.179400 4.214864 16.017536 9.360910
302 0 1 0.589700 4.802890 15.262300 9.352421
303 0 1 0.589700 4.309322 16.385368 10.239551
304 0 2 -1.179400 7.614684 14.791089 17.289454
305 0 1 0.589700 7.485898 13.850119 17.170204
306 0 1 0.589700 8.023628 15.082517 16.474552
307 0 2 -1.179400 10.807298 12.577384 13.094012
308 0 1 0.589700 11.510424 13.210467 13.239086
309 0 1 0.589700 11.253349 11.791414 12.778543
310 0 2 -1.179400 18.729771 6.335702 14.015744
311 0 1 0.589700 18.557547 7.096010 13.460315
312 0 1 0.589700 19.372440 6.645375 14.653949
313 0 2 -1.179400 0.170800 6.069543 8.604999
314 0 1 0.589700 0.117742 6.985189 8.878880
315 0 1 0.589700 0.472770 5.603043 9.384372
316 0 2 -1.179400 10.591229 4.045192 9.096509
317 0 1 0.589700 11.443803 4.134356 9.522410
318 0 1 0.589700 10.013979 3.710463 9.782780
319 0 2 -1.179400 9.093135 11.594462 8.080970
320 0 1 0.589700 9.146212 11.482294 7.131847
321 0 1 0.589700 8.156934 11.551669 8.275701
322 0 2 -1.179400 3.177372 16.897472 3.954171
323 0 1 0.589700 3.801680 17.522594 3.585812
324 0 1 0.589700 2.327136 17.328768 3.868695
325 0 2 -1.179400 19.058882 7.037750 5.032623
326 0 1 0.589700 18.780764 6.127375 4.932120
327 0 1 0.589700 19.969374 7.044523 4.737359
328 0 2 -1.179400 1.037658 0.760435 11.638560
329 0 1 0.589700 0.811758 1.245459 10.844865
330 0 1 0.589700 1.878889 0.350217 11.437871
331 0 2 -1.179400 9.306272 13.061553 10.874985
332 0 1 0.589700 9.980449 13.002291 11.551889
333 0 1 0.589700 9.038221 12.155265 10.723251
334 0 2 -1.179400 1.495296 4.668759 19.796999
335 0 1 0.589700 1.539367 4.265771 18.929882
336 0 1 0.589700 0.563285 4.836278 19.936695
337 0 2 -1.179400 17.625914 2.461360 12.617794
338 0 1 0.589700 17.118910 2.186396 13.381712
339 0 1 0.589700 18.158205 1.697521 12.395431
340 0 2 -1.179400 23.063581 4.487080 14.199694
341 0 1 0.589700 23.993790 4.479113 14.425240
342 0 1 0.589700 23.047478 4.623838 13.252450
343 0 2 -1.179400 6.915649 8.280509 3.010469
344 0 1 0.589700 6.427778 8.723136 2.315995
345 0 1 0.589700 6.680916 7.357188 2.917666
346 0 2 -1.179400 8.956444 9.432084 20.486866
347 0 1 0.589700 8.640043 8.572130 -0.006282
348 0 1 0.589700 9.880157 9.440073 -0.032225
349 0 2 -1.179400 13.530979 1.805441 13.651664
350 0 1 0.589700 13.434958 1.010081 13.127818
351 0 1 0.589700 14.348286 1.678303 14.133402
352 0 2 -1.179400 22.950283 9.006775 6.535622
353 0 1 0.589700 23.779625 8.748349 6.937659
354 0 1 0.589700 22.283403 8.739485 7.168121
355 0 2 -1.179400 4.292535 9.849154 15.182195
356 0 1 0.589700 4.453342 9.507287 14.302706
357 0 1 0.589700 3.366261 10.090474 15.180219
358 0 2 -1.179400 18.504829 8.695730 12.350696
359 0 1 0.589700 18.568714 9.516741 11.862747
360 0 1 0.589700 17.584015 8.444565 12.278310
361 0 2 -1.179400 16.770481 9.471721 9.829285
362 0 1 0.589700 17.109325 8.579272 9.758919
363 0 1 0.589700 16.071865 9.515343 9.176399
364 0 2 -1.179400 24.186855 7.738065 3.122581
365 0 1 0.589700 23.394543 7.449406 3.575505
366 0 1 0.589700 24.888670 7.608335 3.760433
367 0 2 -1.179400 26.207844 10.920943 5.330127
368 0 1 0.589700 25.548700 10.748307 4.657851
369 0 1 0.589700 26.123558 11.856484 5.514223
370 0 2 -1.179400 19.172203 7.528216 19.994968
371 0 1 0.589700 19.157780 7.353961 19.053873
372 0 1 0.589700 19.495024 8.426388 20.067806
373 0 2 -1.179400 24.777416 12.232934 1.068310
374 0 1 0.589700 23.896414 11.925207 0.855323
375 0 1 0.589700 24.636086 13.021988 1.591427
376 0 2 -1.179400 24.220011 10.471828 3.275793
377 0 1 0.589700 24.334599 9.533974 3.122390
378 0 1 0.589700 24.586512 10.889067 2.496166
379 0 2 -1.179400 20.758537 15.125896 15.790319
380 0 1 0.589700 20.351635 14.295813 15.542082
381 0 1 0.589700 20.068827 15.602631 16.252110
382 0 2 -1.179400 22.631504 4.837529 6.862489
383 0 1 0.589700 21.800791 5.043832 7.290948
384 0 1 0.589700 22.775307 3.910286 7.051627
385 0 2 -1.179400 17.196323 18.493629 10.143795
386 0 1 0.589700 17.551504 17.610239 10.045300
387 0 1 0.589700 17.876410 18.974524 10.615439
388 0 2 -1.179400 25.840460 7.034992 5.437498
389 0 1 0.589700 25.741936 7.703226 6.115723
390 0 1 0.589700 26.760950 7.087926 5.180362
391 0 2 -1.179400 17.214682 10.286075 17.878778
392 0 1 0.589700 17.502811 9.834540 17.085476
393 0 1 0.589700 16.571230 9.695654 18.270699
394 0 2 -1.179400 25.096676 9.075933 0.339232
395 0 1 0.589700 24.192034 8.764081 0.363565
396 0 1 0.589700 25.491201 8.610522 20.371605
397 0 2 -1.179400 29.080479 9.225255 0.191377
398 0 1 0.589700 28.598835 8.875936 0.941194
399 0 1 0.589700 28.891653 8.614318 20.249023
400 0 2 -1.179400 30.758163 8.060342 3.452989
401 0 1 0.589700 30.887857 7.663338 2.591711
402 0 1 0.589700 30.741184 9.002176 3.283010
403 0 2 -1.179400 32.296974 11.348572 5.384854
404 0 1 0.589700 32.410549 10.725131 6.102249
405 0 1 0.589700 31.701994 10.909351 4.777145
406 0 2 -1.179400 28.309828 10.474565 3.548833
407 0 1 0.589700 27.736771 10.545264 4.312269
408 0 1 0.589700 27.975063 11.129256 2.936019
409 0 2 -1.179400 31.579748 12.795663 1.235254
410 0 1 0.589700 31.145550 13.389395 1.847778
411 0 1 0.589700 32.513885 12.915433 1.406314
412 0 2 -1.179400 30.916985 10.677640 3.161719
413 0 1 0.589700 29.985527 10.686376 3.382021
414 0 1 0.589700 31.016027 11.371880 2.510218
415 0 2 -1.179400 27.541191 12.237868 1.379692
416 0 1 0.589700 26.607405 12.172803 1.179615
417 0 1 0.589700 27.972914 12.196348 0.526392
418 0 2 -1.179400 28.660324 7.347751 5.106779
419 0 1 0.589700 29.438089 7.421143 4.553678
420 0 1 0.589700 28.718592 6.471581 5.487782
421 0 2 -1.179400 29.534956 12.093164 6.596004
422 0 1 0.589700 29.409502 11.149579 6.495314
423 0 1 0.589700 30.216326 12.174813 7.263311
424 0 2 -1.179400 32.559002 7.612693 5.498329
425 0 1 0.589700 31.931530 7.633031 4.775767
426 0 1 0.589700 32.391640 8.420181 5.984316
427 0 2 -1.179400 27.096813 8.386941 2.044023
428 0 1 0.589700 26.436110 8.802168 1.489691
429 0 1 0.589700 27.414207 9.092013 2.608261
430 0 2 -1.179400 31.794449 9.418835 0.308383
431 0 1 0.589700 32.027946 10.085478 20.432318
432 0 1 0.589700 30.854155 9.286591 0.187634
433 0 2 -1.179400 36.263779 9.514302 20.650108
434 0 1 0.589700 35.636375 9.450603 0.600281
435 0 1 0.589700 35.993420 8.832367 20.035210
436 0 2 -1.179400 37.684227 8.044015 3.844680
437 0 1 0.589700 37.770771 8.987973 3.711687
438 0 1 0.589700 36.775391 7.922702 4.119493
439 0 2 -1.179400 39.121780 11.096886 6.178508
440 0 1 0.589700 39.131306 12.001024 6.492636
441 0 1 0.589700 39.142895 10.565969 6.974696
442 0 2 -1.179400 34.556919 10.759779 3.935625
443 0 1 0.589700 33.780655 11.046715 4.416566
444 0 1 0.589700 34.253845 10.018841 3.410853
445 0 2 -1.179400 37.895592 12.545874 1.837857
446 0 1 0.589700 37.728107 11.850313 2.473763
447 0 1 0.589700 37.815826 13.355881 2.341602
448 0 2 -1.179400 37.319309 10.801975 3.986402
449 0 1 0.589700 37.702869 10.859663 4.861495
450 0 1 0.589700 36.374184 10.806778 4.137841
451 0 2 -1.179400 34.221657 12.823427 2.268109
452 0 1 0.589700 34.557236 12.194426 2.906839
453 0 1 0.589700 34.717228 12.642079 1.469512
454 0 2 -1.179400 35.257595 7.853439 5.196516
455 0 1 0.589700 34.317471 7.675139 5.172136
456 0 1 0.589700 35.383175 8.370888 5.991946
457 0 2 -1.179400 35.976364 12.143685 7.097587
458 0 1 0.589700 35.821503 12.855412 6.476543
459 0 1 0.589700 36.835236 12.336091 7.473807
460 0 2 -1.179400 39.302872 7.363692 5.942518
461 0 1 0.589700 39.267326 6.407166 5.937170
462 0 1 0.589700 38.595741 7.633400 5.356469
463 0 2 -1.179400 34.273224 9.095768 1.713660
464 0 1 0.589700 33.502525 9.187979 1.153529
465 0 1 0.589700 34.296021 8.165826 1.939312
466 0 2 -1.179400 38.913292 8.894986 0.349387
467 0 1 0.589700 37.959373 8.970045 0.374505
468 0 1 0.589700 39.201454 9.662269 20.624868
469 0 2 -1.179400 42.836731 9.199468 0.218056
470 0 1 0.589700 42.817284 10.155934 0.250100
471 0 1 0.589700 42.173489 8.924603 0.851132
472 0 2 -1.179400 44.306370 7.945988 3.508013
473 0 1 0.589700 43.633045 7.603115 4.095635
474 0 1 0.589700 44.369137 7.294943 2.809133
475 0 2 -1.179400 46.070469 11.672652 5.555995
476 0 1 0.589700 45.269817 11.440042 5.085804
477 0 1 0.589700 46.778225 11.341115 5.003373
478 0 2 -1.179400 41.165871 10.557528 4.279682
479 0 1 0.589700 40.899250 11.207112 3.629154
480 0 1 0.589700 40.542583 10.667238 4.997810
481 0 2 -1.179400 44.695221 12.496348 2.103297
482 0 1 0.589700 44.522560 11.856721 2.794163
483 0 1 0.589700 45.618973 12.371302 1.885890
484 0 2 -1.179400 44.011791 10.745964 4.035349
485 0 1 0.589700 44.237339 9.843170 3.811019
486 0 1 0.589700 43.113556 10.694806 4.362114
487 0 2 -1.179400 40.749878 12.648989 2.283554
488 0 1 0.589700 39.855728 12.572489 1.950596
489 0 1 0.589700 40.947834 13.583793 2.227091
490 0 2 -1.179400 42.127998 7.205748 5.316393
491 0 1 0.589700 42.305130 6.381844 5.770308
492 0 1 0.589700 41.179249 7.210750 5.189629
493 0 2 -1.179400 42.712669 11.868995 6.920078
494 0 1 0.589700 42.141903 12.027667 7.671927
495 0 1 0.589700 42.657051 10.925027 6.771536
496 0 2 -1.179400 46.093163 7.361417 5.472039
497 0 1 0.589700 45.766758 7.703600 4.639811
498 0 1 0.589700 47.030518 7.232347 5.327356
499 0 2 -1.179400 40.992157 8.707319 2.207077
500 0 1 0.589700 40.092697 8.749054 1.882342
501 0 1 0.589700 41.017124 9.338314 2.926420
502 0 2 -1.179400 45.746742 9.399592 0.420584
503 0 1 0.589700 45.712067 10.247640 -0.021962
504 0 1 0.589700 44.835190 9.109632 0.455440
505 0 2 -1.179400 0.807723 11.227700 17.946022
506 0 1 0.589700 0.405961 10.527119 17.432209
507 0 1 0.589700 0.588866 12.029428 17.471081
508 0 2 -1.179400 6.515060 0.732996 8.883992
509 0 1 0.589700 6.504035 1.108186 9.764527
510 0 1 0.589700 7.415773 0.432776 8.762310
511 0 2 -1.179400 1.855068 13.688694 4.809660
512 0 1 0.589700 1.828953 12.936657 5.401261
513 0 1 0.589700 2.292751 14.375071 5.313200
514 0 2 -1.179400 0.023912 19.367449 2.132796
515 0 1 0.589700 0.120800 0.118071 2.293858
516 0 1 0.589700 0.091829 18.966949 2.999526
517 0 2 -1.179400 17.940838 4.722961 19.456934
518 0 1 0.589700 17.003828 4.759446 19.264822
519 0 1 0.589700 18.351446 5.209889 18.742418
520 0 2 -1.179400 5.258015 17.623568 15.722568
521 0 1 0.589700 5.010088 16.715355 15.549617
522 0 1 0.589700 6.156006 17.693069 15.398526
523 0 2 -1.179400 11.232851 5.235249 17.557455
524 0 1 0.589700 11.279950 4.819250 18.418245
525 0 1 0.589700 12.136758 5.238187 17.242548
526 0 2 -1.179400 17.188938 8.140675 6.583729
527 0 1 0.589700 17.893072 7.833594 6.012657
528 0 1 0.589700 17.328955 7.675742 7.408632
529 0 2 -1.179400 8.260253 19.843426 0.313449
530 0 1 0.589700 7.489949 19.630781 20.556454
531 0 1 0.589700 8.945389 20.031332 20.441879
532 0 2 -1.179400 8.341807 12.121961 20.006884
533 0 1 0.589700 8.563391 11.203377 20.159645
534 0 1 0.589700 7.400584 12.172690 20.173458
535 0 2 -1.179400 0.324792 15.429954 2.377079
536 0 1 0.589700 -0.234508 15.839061 1.716743
537 0 1 0.589700 1.192170 15.402381 1.973201
538 0 2 -1.179400 17.802053 4.619850 4.620752
539 0 1 0.589700 17.885361 4.259028 3.738085
540 0 1 0.589700 18.219614 3.970006 5.186062
541 0 2 -1.179400 15.294976 0.679176 2.264182
542 0 1 0.589700 16.114676 0.654485 1.770512
543 0 1 0.589700 15.567856 0.744327 3.179345
544 0 2 -1.179400 1.213854 0.750102 18.179445
545 0 1 0.589700 1.284381 19.984079 18.144716
546 0 1 0.589700 1.029141 1.010102 17.276941
547 0 2 -1.179400 19.047375 13.103027 13.280629
548 0 1 0.589700 19.402693 12.966480 14.158886
549 0 1 0.589700 18.355844 12.446534 13.196777
550 0 2 -1.179400 3.599136 0.309369 10.841163
551 0 1 0.589700 3.964154 19.846285 10.241866
552 0 1 0.589700 4.140589 0.241848 11.627610
553 0 2 -1.179400 10.022669 16.788839 17.483610
554 0 1 0.589700 10.785406 17.228470 17.859354
555 0 1 0.589700 10.389310 16.169794 16.852272
556 0 2 -1.179400 20.229567 5.261988 0.891328
557 0 1 0.589700 20.544617 5.876259 1.554385
558 0 1 0.589700 19.967243 5.816073 0.156205
559 0 2 -1.179400 20.889921 12.390957 2.667321
560 0 1 0.589700 21.301083 12.491922 3.525798
561 0 1 0.589700 19.978111 12.174267 2.861931
562 0 2 -1.179400 0.477631 17.664036 4.284273
563 0 1 0.589700 0.110260 16.976706 3.728533
564 0 1 0.589700 0.043406 17.547125 5.129266
565 0 2 -1.179400 5.567780 12.152316 20.556997
566 0 1 0.589700 5.348350 12.059973 19.629875
567 0 1 0.589700 5.323472 13.052264 0.003038
568 0 2 -1.179400 15.552984 8.453767 19.144560
569 0 1 0.589700 14.789518 8.908074 19.500862
570 0 1 0.589700 15.986770 8.076774 19.910027
571 0 2 -1.179400 15.252171 9.771086 7.462989
572 0 1 0.589700 15.924110 9.260734 7.011032
573 0 1 0.589700 15.597175 10.663852 7.476078
574 0 2 -1.179400 3.388245 1.734675 4.366209
575 0 1 0.589700 2.649726 1.293582 4.786034
576 0 1 0.589700 2.998342 2.490941 3.927726
577 0 2 -1.179400 5.245819 8.654426 12.912450
578 0 1 0.589700 5.767411 9.452574 12.828005
579 0 1 0.589700 5.815095 8.044184 13.381232
580 0 2 -1.179400 5.340619 2.723609 19.241564
581 0 1 0.589700 5.065596 3.408947 19.850584
582 0 1 0.589700 4.759530 1.986931 19.430952
583 0 2 -1.179400 5.381474 9.775829 0.925137
584 0 1 0.589700 5.630579 9.345110 0.107421
585 0 1 0.589700 5.479352 10.710534 0.743536
586 0 2 -1.179400 10.928779 16.662132 13.361835
587 0 1 0.589700 11.325418 17.189840 14.054970
588 0 1 0.589700 11.256165 17.047972 12.549322
589 0 2 -1.179400 14.811218 5.297348 13.475451
590 0 1 0.589700 15.121721 4.558358 12.952273
591 0 1 0.589700 13.973006 5.536155 13.079729
592 0 2 -1.179400 22.729307 19.853334 4.168923
593 0 1 0.589700 23.540905 0.111775 3.927524
594 0 1 0.589700 22.962013 19.330587 4.936265
595 0 2 -1.179400 15.257700 16.412880 20.489882
596 0 1 0.589700 14.602951 15.861109 0.147841
597 0 1 0.589700 16.022804 15.845959 20.392727
598 0 2 -1.179400 16.077646 0.854556 8.440294
599 0 1 0.589700 16.895189 1.017804 8.910615
600 0 1 0.589700 15.881828 1.683933 8.004383
601 0 2 -1.179400 11.847754 16.854448 10.751894
602 0 1 0.589700 12.372049 17.426756 10.191709
603 0 1 0.589700 11.477691 16.205893 10.153013
604 0 2 -1.179400 18.918966 3.171953 6.781344
605 0 1 0.589700 19.687199 2.722888 6.428662
606 0 1 0.589700 19.272173 3.952518 7.208187
607 0 2 -1.179400 17.380785 14.682677 19.476177
608 0 1 0.589700 18.222265 14.653617 19.931471
609 0 1 0.589700 17.421831 13.960171 18.849655
610 0 2 -1.179400 13.185915 2.552594 4.791187
611 0 1 0.589700 12.578864 3.228644 5.092307
612 0 1 0.589700 12.987598 2.449275 3.860474
613 0 2 -1.179400 23.066792 16.073811 0.182874
614 0 1 0.589700 22.840956 17.000372 0.100911
615 0 1 0.589700 22.480701 15.743257 0.863654
616 0 2 -1.179400 24.209955 14.201493 3.067691
617 0 1 0.589700 23.580471 13.741339 3.622880
618 0 1 0.589700 24.027819 15.129355 3.216450
619 0 2 -1.179400 25.682714 17.873793 5.451517
620 0 1 0.589700 25.544357 17.100199 5.998000
621 0 1 0.589700 26.458296 17.664381 4.931087
622 0 2 -1.179400 21.371948 10.533809 9.486256
623 0 1 0.589700 22.085989 10.464793 10.119983
624 0 1 0.589700 21.735550 11.055647 8.770917
625 0 2 -1.179400 24.783285 18.612270 1.874256
626 0 1 0.589700 24.452730 18.587395 0.976288
627 0 1 0.589700 24.608484 19.505808 2.169667
628 0 2 -1.179400 23.681864 16.739368 3.897813
629 0 1 0.589700 24.397558 16.756676 4.533195
630 0 1 0.589700 23.942575 17.368813 3.225457
631 0 2 -1.179400 18.424023 4.708974 9.902038
632 0 1 0.589700 18.885111 4.658940 10.739370
633 0 1 0.589700 18.336639 3.798023 9.621380
634 0 2 -1.179400 17.695694 11.529716 0.721913
635 0 1 0.589700 17.963257 11.101131 20.678841
636 0 1 0.589700 16.861622 11.948423 0.509236
637 0 2 -1.179400 22.307520 4.749623 11.576659
638 0 1 0.589700 21.414242 4.429712 11.702891
639 0 1 0.589700 22.204096 5.559033 11.076268
640 0 2 -1.179400 25.943535 13.743049 5.369381
641 0 1 0.589700 25.500656 13.944497 4.545060
642 0 1 0.589700 26.873442 13.865619 5.178396
643 0 2 -1.179400 21.443979 6.376273 15.267863
644 0 1 0.589700 21.647141 7.127515 14.710555
645 0 1 0.589700 21.846567 5.630960 14.822143
646 0 2 -1.179400 25.802959 15.581403 0.135775
647 0 1 0.589700 25.674105 15.134862 20.068895
648 0 1 0.589700 24.921209 15.829291 0.413788