LAMMPS data file via write_data, version 30 Jul 2021, timestep = 19250000

864 atoms
2 atom types
576 bonds
1 bond types
288 angles
1 angle types

0.12148048040473469 18.086091919601206 xlo xhi
0.022218258930941204 23.606959541082045 ylo yhi
0.186367796087767 22.026828003912847 zlo zhi

Masses

1 1.00794
2 15.9994

Atoms # full

707 1 1 0.5897 3.404285355669979 1.830586585750386 3.9715730255456556 0 0 0
706 1 2 -1.1794 3.3272645842316675 1.844644564487976 3.0176060998370158 0 0 0
30 1 1 0.5897 5.706874080066914 3.9710213329394795 2.4036579607012314 0 0 0
708 1 1 0.5897 2.4582235703537285 2.2101971638348226 2.8523704633058027 0 0 0
29 1 1 0.5897 4.921006722998604 2.6772413287662236 2.4139519060025494 0 0 0
28 1 2 -1.1794 5.687748121488238 3.094014250021836 2.020797248822997 0 0 0
20 1 1 0.5897 0.6888069235016743 2.870454388692647 0.4461215035679939 0 0 0
846 1 1 0.5897 7.725819260953147 1.65259421712502 5.16316819964655 0 0 0
495 1 1 0.5897 8.59140838006898 2.07145145543787 3.1221789054978735 0 0 0
494 1 1 0.5897 7.090788591684006 2.2327153155259727 3.0042808920908435 0 0 0
493 1 2 -1.1794 7.763813688783535 1.6726717482042475 3.3909771416687158 0 0 0
3 1 1 0.5897 0.9617553644200676 3.715239101380794 2.6607356101784934 0 0 0
1 1 2 -1.1794 0.8750178286754917 2.8509984485664384 2.2586713206443894 0 0 0
597 1 1 0.5897 0.7594721985099082 5.6278036127367175 3.865156833158 0 0 0
819 1 1 0.5897 7.746301175088941 0.09206019949743549 2.546500015263808 0 0 0
136 1 2 -1.1794 5.4651868423134635 5.511951532634256 3.1425820785183394 0 0 0
595 1 2 -1.1794 0.6956397514037334 5.477822947918614 2.9219634843313935 0 0 0
137 1 1 0.5897 5.6116604729475466 5.822033038181573 4.03620468818756 0 0 0
188 1 1 0.5897 3.0052348132424416 0.20648335382743793 2.1858096669495546 0 1 0
138 1 1 0.5897 4.623689186040363 5.892652193918375 2.8913453818743373 0 0 0
83 1 1 0.5897 4.734729900243486 2.8557191619723126 6.445717422027872 0 0 0
784 1 2 -1.1794 0.9771507014507154 3.1122390836019216 6.638884011597784 0 0 0
82 1 2 -1.1794 5.543192898355495 3.2619749148568653 6.757982035445106 0 0 0
183 1 1 0.5897 1.0597773808666302 4.738107960256079 6.097169272324624 0 0 0
674 1 1 0.5897 4.026868560833051 1.9277584452643959 10.27266815595395 0 0 0
356 1 1 0.5897 7.565082020570969 0.760857934575403 10.336022591874686 0 0 0
35 1 1 0.5897 1.1367880245080049 4.158210865458956 9.70569116890121 0 0 0
785 1 1 0.5897 1.120762658485119 3.125812830714853 7.585125247695764 0 0 0
673 1 2 -1.1794 3.127051351064011 1.769004972892965 10.55780812386732 0 0 0
786 1 1 0.5897 0.17293583238146634 2.605763049288776 6.525453410903459 0 0 0
34 1 2 -1.1794 1.1182142403154307 3.2570932963476986 9.383645793899777 0 0 0
274 1 2 -1.1794 5.577955011514394 2.8282076445383235 9.634590546871506 0 0 0
678 1 1 0.5897 5.744559468809552 4.778198749790845 10.045869144589126 0 0 0
489 1 1 0.5897 3.3544902337188685 1.0634288636147875 6.212716869827582 0 0 0
36 1 1 0.5897 1.8298087697561682 2.8203218742631635 9.851640813555662 0 0 0
355 1 2 -1.1794 7.779914465814352 1.658712250591234 10.588566878034273 0 0 0
676 1 2 -1.1794 5.57769627251321 5.631701938341541 10.44560862855952 0 0 0
84 1 1 0.5897 6.235677780554074 2.6617581451142973 6.481683805552343 0 0 0
276 1 1 0.5897 6.377690375617282 2.357483343415469 9.869093710077392 0 0 0
675 1 1 0.5897 2.932027654634256 0.8824791968981227 10.254302748535544 0 0 0
275 1 1 0.5897 5.66317608700895 2.993169775202052 8.695600091462767 0 0 0
845 1 1 0.5897 7.690162993841837 0.7735397010536373 6.395102167491558 0 0 0
686 1 1 0.5897 5.733782376840892 4.994718588571605 6.09225314941784 0 0 0
487 1 2 -1.1794 3.321099749133812 1.9449530121082779 5.841399269745019 0 0 0
488 1 1 0.5897 2.4519369759162744 2.2708921868241974 6.074834512835708 0 0 0
112 1 2 -1.1794 1.057249636462175 5.818562346774663 10.239001061611264 0 0 0
685 1 2 -1.1794 5.640081853976271 5.91351225435926 5.841016668205412 0 0 0
181 1 2 -1.1794 1.065424915221986 5.605516528026665 5.692607788704646 0 0 0
844 1 2 -1.1794 7.693790985853541 1.6899824984598515 6.119075359473967 0 0 0
166 1 2 -1.1794 3.1315292273262525 1.963600620601535 13.145607443675507 0 0 0
167 1 1 0.5897 3.1956448981849253 1.9445969014379423 12.190765627461172 0 0 0
457 1 2 -1.1794 5.219877026394427 3.4700245774263596 14.06798037842968 0 0 0
458 1 1 0.5897 6.006439284961966 3.0083774296384465 13.777531360419793 0 0 0
459 1 1 0.5897 4.498606841462148 3.0065397385109462 13.642390309919886 0 0 0
762 1 1 0.5897 5.485860220758315 5.187066753628253 13.538367773986975 0 0 0
594 1 1 0.5897 8.404245056844907 2.3732236314730226 13.57743360182744 0 0 0
168 1 1 0.5897 2.3536568031770484 2.4922257801223804 13.32341481633111 0 0 0
365 1 1 0.5897 0.7336160999019032 5.066459892406933 13.326703666133023 0 0 0
468 1 1 0.5897 0.9739906259675758 3.30119230788058 14.807582874602064 0 0 0
593 1 1 0.5897 7.5591002536342256 1.1292727397497717 13.750317567987892 0 0 0
592 1 2 -1.1794 7.522523740338713 2.03078033216033 13.430855154722801 0 0 0
466 1 2 -1.1794 0.8859791396179788 3.450034155254055 13.866130845404523 0 0 0
71 1 1 0.5897 4.902974376268684 2.95371992804949 15.920187652794079 0 0 0
357 1 1 0.5897 7.549886534117626 1.7086204140615036 11.516347214069755 0 0 0
113 1 1 0.5897 0.9583474864196798 5.828160264000107 11.191011346314893 0 0 0
737 1 1 0.5897 3.078508260086048 0.15766279002386563 13.764460375256775 0 1 0
467 1 1 0.5897 0.16053940840861358 2.884908176990099 13.600572556364954 0 0 0
754 1 2 -1.1794 7.46899938144367 1.4768186714237632 17.395052081704407 0 0 0
21 1 1 0.5897 0.7388685577014827 3.7653187082037998 21.066585938643946 0 0 0
646 1 2 -1.1794 0.7129225316472908 5.619570957856974 20.614776966948213 0 0 0
755 1 1 0.5897 7.533945219861978 1.3949495662316118 18.346510534034707 0 0 0
290 1 1 0.5897 2.4866503526539208 0.8203657749594276 17.436195192318657 0 0 0
42 1 1 0.5897 7.500015900532066 1.0210175990203103 20.578541952889402 0 0 0
289 1 2 -1.1794 2.6945535985201596 1.6713976425248867 17.821715740839913 0 0 0
41 1 1 0.5897 6.771081906457943 2.3454946186447514 20.50122758105907 0 0 0
143 1 1 0.5897 5.3180827901197905 4.788324469205336 20.66231534090248 0 0 0
569 1 1 0.5897 2.2279153067242725 2.0938794216221597 20.882223357055437 0 0 0
72 1 1 0.5897 4.272758512498563 2.4938808452061694 17.217537774392476 0 0 0
570 1 1 0.5897 2.9367920763825333 1.7704304778897308 19.584292370932808 0 0 0
40 1 2 -1.1794 7.509517552238558 1.8649336468195628 20.12709564717055 0 0 0
291 1 1 0.5897 2.0198689286613636 2.2596230768914447 17.48270161516912 0 0 0
667 1 2 -1.1794 5.31684626171581 3.0389515016973747 21.052276862105956 0 0 0
70 1 2 -1.1794 5.099378471724676 2.7997140100986284 16.844258096985307 0 0 0
568 1 2 -1.1794 3.0297960774381343 1.7036141321544593 20.534594526372025 0 0 0
756 1 1 0.5897 6.565078342140883 1.75013276539076 17.238856297123455 0 0 0
669 1 1 0.5897 4.554571023128423 2.5159671004576327 20.804145249579612 0 0 0
278 1 1 0.5897 5.469305666481997 4.662886037087788 17.33923604382869 0 0 0
134 1 1 0.5897 0.8089411243694161 4.103767976308545 17.183307848977364 0 0 0
648 1 1 0.5897 0.7429007930929448 5.67060826393392 19.659411886944724 0 0 0
19 1 2 -1.1794 0.6732091293054899 2.84745224310393 21.329810589915937 0 0 0
571 1 2 -1.1794 0.9529979675068376 5.7378510979602595 17.93890882941519 0 0 0
133 1 2 -1.1794 0.8257608498551675 3.279159770546187 16.697671911899015 0 0 0
142 1 2 -1.1794 5.29720283067782 5.71503947346213 20.423921464739543 0 0 0
144 1 1 0.5897 5.42752252018942 5.721895677041865 19.47566937750902 0 0 0
360 1 1 0.5897 8.896801726391123 2.711932455598318 21.098570821290508 0 0 0
599 1 1 0.5897 8.879649547366402 2.5241886711122263 17.070159484067794 0 0 0
277 1 2 -1.1794 5.466854296004679 5.60184021415472 17.524884865215952 0 0 0
279 1 1 0.5897 4.60321420984255 5.900519554320881 17.240094361677045 0 0 0
81 1 1 0.5897 3.0683533823250277 0.05326365130337152 20.875854704730706 0 1 0
668 1 1 0.5897 5.398991793475794 2.9101408052791222 21.997179373333704 0 0 -1
253 1 2 -1.1794 3.1728493906347857 6.813985755846545 2.2326639094147835 0 0 0
123 1 1 0.5897 3.2173206711750786 8.455519964102347 2.945940128245412 0 0 0
121 1 2 -1.1794 3.1146141531271803 9.372516574126562 3.2001866376268153 0 0 0
122 1 1 0.5897 2.8713057939746918 9.33926225868111 4.125321759571115 0 0 0
44 1 1 0.5897 1.6124698703122282 10.016142395200951 2.569235324457005 0 0 0
218 1 1 0.5897 5.829537235379727 10.690415138775657 2.1857531517589672 0 0 0
43 1 2 -1.1794 0.7822206490493506 10.416572983835495 2.311326943926131 0 0 0
219 1 1 0.5897 4.364949975138815 10.37500461731257 2.403124161358211 0 0 0
255 1 1 0.5897 2.3831144840721628 6.306583856079614 2.4197770708561563 0 0 0
415 1 2 -1.1794 7.663575036696353 7.1900684628313405 2.149110798658442 0 0 0
162 1 1 0.5897 7.597576811836069 7.0211422745829415 0.31880809108550306 0 0 1
254 1 1 0.5897 3.1763626695687237 6.909998119700632 1.2803168854205718 0 0 0
217 1 2 -1.1794 4.94940165582342 11.02285839805218 2.009613804831109 0 0 0
66 1 1 0.5897 7.280140838295485 10.08000403396977 3.6028732791869245 0 0 0
65 1 1 0.5897 7.4691497425041184 9.066458575951721 2.494435089268966 0 0 0
64 1 2 -1.1794 7.341590323867619 10.002051098709298 2.650858752649684 0 0 0
416 1 1 0.5897 6.978002016430335 6.608679628401338 2.4779156205562405 0 0 0
417 1 1 0.5897 8.481563169788306 6.7769547764760265 2.4254958850341173 0 0 0
773 1 1 0.5897 8.824938782557467 10.897927283842538 2.093855820515665 0 0 0
712 1 2 -1.1794 7.64369522807474 9.759112303270987 5.441439655356745 0 0 0
396 1 1 0.5897 0.9132355306300305 10.743714135867583 0.4553587257874864 0 0 0
363 1 1 0.5897 4.783207401943621 10.822901921897989 0.3228518324798759 0 0 1
45 1 1 0.5897 0.8537837734646937 11.32568385679149 2.6019712177052905 0 0 0
677 1 1 0.5897 6.272577264323735 6.195643198150869 10.106089777101442 0 0 0
12 1 1 0.5897 3.2352351668581876 7.7336260905559335 6.523585662137531 0 0 0
10 1 2 -1.1794 3.2890952060394554 6.819107363480264 6.80079277173 0 0 0
794 1 1 0.5897 2.123768839969979 9.842447680600195 6.259144997206957 0 0 0
526 1 2 -1.1794 7.649073276072993 7.021168670676045 9.477515078435891 0 0 0
577 1 2 -1.1794 5.307490522156515 10.655240345717628 6.645284658137621 0 0 0
145 1 2 -1.1794 7.834441820707519 7.233636661062524 6.604017494187569 0 0 0
13 1 2 -1.1794 0.8057242468566147 10.664890280324414 9.625035413692517 0 0 0
256 1 2 -1.1794 3.3116795855652317 9.713142253097242 10.561453593647675 0 0 0
580 1 2 -1.1794 5.38585761418549 11.086502568942176 9.471768085654347 0 0 0
650 1 1 0.5897 3.4047660591551505 6.966585912262236 8.620956369006755 0 0 0
822 1 1 0.5897 8.316375451920624 10.10105540305397 10.030914642024747 0 0 0
527 1 1 0.5897 7.649105499317805 7.919343000154411 9.808207502011834 0 0 0
15 1 1 0.5897 1.701638851108849 10.429398044661527 9.865982122853396 0 0 0
582 1 1 0.5897 5.344274992546052 10.841212205416062 8.547472683207019 0 0 0
820 1 2 -1.1794 7.527133586783477 9.637392673743674 10.31072422460829 0 0 0
581 1 1 0.5897 6.165909517010212 10.64174264278795 9.803224463646808 0 0 0
147 1 1 0.5897 7.902789448736086 7.086016504369052 7.5472638594868116 0 0 0
649 1 2 -1.1794 3.4613791634156947 7.051807594898225 9.572653153442534 0 0 0
551 1 1 0.5897 0.817047067925315 10.983083861397011 7.891988670727055 0 0 0
714 1 1 0.5897 7.6376581916550395 8.88335666041332 5.827585814072004 0 0 0
258 1 1 0.5897 4.034971217504649 10.200846342049072 10.167557341828141 0 0 0
713 1 1 0.5897 8.353701493484161 10.215496825493206 5.892842371576642 0 0 0
257 1 1 0.5897 3.3683673327520154 8.841736520713942 10.169632476536107 0 0 0
114 1 1 0.5897 1.9008123003881143 6.242402510850909 10.081097845354057 0 0 0
578 1 1 0.5897 6.080523465817174 10.281373685251658 6.222409719439471 0 0 0
528 1 1 0.5897 8.430632758904725 6.623991370839114 9.86173222312859 0 0 0
11 1 1 0.5897 2.5632848637210164 6.3883922840464225 6.349305480136683 0 0 0
146 1 1 0.5897 7.032756702648034 6.778067597380676 6.347275124278948 0 0 0
651 1 1 0.5897 4.140191850778162 6.4277802568129925 9.829506126069587 0 0 0
795 1 1 0.5897 3.6335690015764888 9.892249937162497 6.160122653136494 0 0 0
550 1 2 -1.1794 0.8971631934629841 10.994082211231406 6.938235434312143 0 0 0
687 1 1 0.5897 4.766003518227327 6.157558116903654 6.145331922262484 0 0 0
14 1 1 0.5897 0.7179091680908084 11.579689198848643 9.89243061473805 0 0 0
182 1 1 0.5897 0.2790962456471661 6.0333886325415005 6.03139258207656 1 0 0
793 1 2 -1.1794 2.87555789722221 9.364403667867668 5.90923206716461 0 0 0
579 1 1 0.5897 5.254164436804136 11.547197597033788 6.302292986519449 0 0 0
826 1 2 -1.1794 7.7068149262418935 7.091704231015913 14.180157330886233 0 0 0
827 1 1 0.5897 6.818316902224905 6.912989174294361 13.872246879004354 0 0 0
332 1 1 0.5897 3.142717891317913 8.086330713467587 13.696804020683627 0 0 0
797 1 1 0.5897 3.2223711918542373 9.802194177752742 12.406911804242458 0 0 0
796 1 2 -1.1794 3.235823053339376 9.882009087170365 13.36065658570893 0 0 0
798 1 1 0.5897 2.4295456406977336 10.351849380559685 13.573545268476828 0 0 0
722 1 1 0.5897 4.731575118567867 10.914041569873659 13.698339206866143 0 0 0
261 1 1 0.5897 0.7507558506701785 11.23081915588653 15.028207110997023 0 0 0
723 1 1 0.5897 5.470328205875586 11.176682572076974 14.99336214517046 0 0 0
828 1 1 0.5897 7.6278660804963465 7.127093951734468 15.133417780949527 0 0 0
259 1 2 -1.1794 0.8383208963974345 11.223034206232299 14.075061545566573 0 0 0
331 1 2 -1.1794 2.983798214527858 7.152537002214275 13.83405047963649 0 0 0
225 1 1 0.5897 3.1856662032391427 6.651548634511798 15.61813951267865 0 0 0
721 1 2 -1.1794 5.559456334313371 11.248677752463363 14.043064039791641 0 0 0
475 1 2 -1.1794 7.661744206322056 9.848052971307984 13.054736344474586 0 0 0
476 1 1 0.5897 6.8402487748768 10.26172973693458 13.319668891549858 0 0 0
477 1 1 0.5897 7.661595348653424 9.003802315565618 13.505667892317527 0 0 0
333 1 1 0.5897 3.8162735831864287 6.733010625560671 13.616905596161008 0 0 0
364 1 2 -1.1794 0.6986344778210297 5.95289646149323 12.967379237157852 0 0 0
761 1 1 0.5897 5.5482689141404515 5.9573819284781 12.236673773419804 0 0 0
366 1 1 0.5897 1.4822290437088084 6.382090723857146 13.310793256554337 0 0 0
760 1 2 -1.1794 5.4696831443252 6.075719662516027 13.183246028712205 0 0 0
821 1 1 0.5897 7.501946072734696 9.757669550499767 11.25997687109213 0 0 0
851 1 1 0.5897 9.098783474337685 6.034206618115228 13.641064843514314 0 0 0
572 1 1 0.5897 1.6741487202957934 6.127463936737308 17.44462299161023 0 0 0
141 1 1 0.5897 7.571631246653516 8.77835961820722 20.717181236070104 0 0 0
522 1 1 0.5897 7.634546599467829 7.886422185491183 17.06182869633929 0 0 0
9 1 1 0.5897 6.789587137783361 10.153662583004902 17.395715941249428 0 0 0
4 1 2 -1.1794 3.0037482598985368 6.850858990001312 21.31646906688819 0 0 0
627 1 1 0.5897 2.0761149613228853 9.672381896479461 17.05638592439435 0 0 0
223 1 2 -1.1794 3.173577298729581 6.716788180939258 16.57301068872043 0 0 0
445 1 2 -1.1794 0.7575853014924904 10.94249527957145 16.748131380570015 0 0 0
140 1 1 0.5897 6.71475565711423 10.01573673598135 20.87920065137611 0 0 0
462 1 1 0.5897 9.010057932653035 6.132315703943657 20.567167269307248 0 0 0
690 1 1 0.5897 2.052474520145918 9.937000869316597 20.41281747052654 0 0 0
625 1 2 -1.1794 2.8923638517103507 9.263510294681518 17.344002546030268 0 0 0
688 1 2 -1.1794 2.832750604672789 9.457648483246002 20.13435565434385 0 0 0
679 1 2 -1.1794 5.198559743109634 11.209859627179473 16.828975163529826 0 0 0
361 1 2 -1.1794 5.055825253748169 10.730611015537912 21.25043610491113 0 0 0
689 1 1 0.5897 3.564938257135289 9.980329644770833 20.46123363396147 0 0 0
394 1 2 -1.1794 0.8403390937941005 10.903545664202516 21.354902310300282 0 0 0
626 1 1 0.5897 2.8186228711460863 9.22526432815073 18.29757194016066 0 0 0
139 1 2 -1.1794 7.557460535867871 9.71816405353519 20.53646430274121 0 0 0
6 1 1 0.5897 3.0575529987372345 7.665499010548582 20.81690152524734 0 0 0
161 1 1 0.5897 6.733496674336544 6.488939199279346 21.03594427614143 0 0 0
8 1 1 0.5897 7.392577780461125 9.578521265889194 18.659600136405672 0 0 0
7 1 2 -1.1794 7.482670036418862 9.571353112315235 17.706688157941016 0 0 0
160 1 2 -1.1794 7.503208725551851 7.0316530474285805 21.206806178751187 0 0 0
521 1 1 0.5897 6.881350489773407 6.574542346450685 17.118615012288004 0 0 0
5 1 1 0.5897 3.8157572655541774 6.388346415907808 21.109396999339076 0 0 0
680 1 1 0.5897 4.383831975105024 10.728315300871733 16.972096135813004 0 0 0
573 1 1 0.5897 0.1629405015100852 6.064134147828438 17.5081901259843 0 0 0
224 1 1 0.5897 3.034092604163238 7.647346184033619 16.748223772189796 0 0 0
362 1 1 0.5897 5.119128676747271 11.629149535588647 20.92685707351547 0 0 0
520 1 2 -1.1794 7.71135673782588 6.959242185613402 16.837081378178894 0 0 0
647 1 1 0.5897 1.5237775333185761 6.038628322815903 20.903053601515744 0 0 0
200 1 1 0.5897 5.0285644317838045 13.380299922756674 4.724401243189948 0 0 0
173 1 1 0.5897 4.469703994287851 14.24768951091427 2.5950852734723 0 0 0
172 1 2 -1.1794 5.115513072354359 13.627194476969683 2.932805986367498 0 0 0
374 1 1 0.5897 0.8460048689256242 13.025124208932157 4.137063800168575 0 0 0
558 1 1 0.5897 2.547919745961303 14.988910131484694 1.343196990605871 0 0 0
556 1 2 -1.1794 2.706642058060884 14.934184518400652 2.2855324902582113 0 0 0
557 1 1 0.5897 2.2078541920425496 14.167977033540506 2.5688016526596256 0 0 0
478 1 2 -1.1794 7.444222819681634 14.852894301767064 1.9595556721865814 0 0 0
174 1 1 0.5897 4.885944342224804 12.794149797571919 2.5211914910123188 0 0 0
293 1 1 0.5897 2.968892304303433 16.60989856852644 2.830983567131517 0 0 0
479 1 1 0.5897 8.268505048697143 14.619260290230546 2.3863414956361453 0 0 0
449 1 1 0.5897 7.594551656711414 16.48231707079615 2.6255017167667902 0 0 0
480 1 1 0.5897 6.779865468712115 14.347225719550966 2.4276115840030097 0 0 0
373 1 2 -1.1794 0.9207287428842886 12.99074749153663 3.1834288416668066 0 0 0
448 1 2 -1.1794 7.65089517832799 17.298738999310846 3.1218760422023837 0 0 0
308 1 1 0.5897 7.810320638038638 17.38140913988011 4.859253876376033 0 0 0
294 1 1 0.5897 3.0782782925894447 17.621836965080327 3.9515484075029756 0 0 0
292 1 2 -1.1794 3.0084616212509685 17.551237031960564 2.9995282171485598 0 0 0
317 1 1 0.5897 7.367012775269796 14.753187628378999 0.247589282071685 0 0 0
384 1 1 0.5897 2.6458498955831797 16.549813608708995 9.501345929939179 0 0 0
656 1 1 0.5897 1.4078761860579423 14.257153883056148 5.955152232510635 0 0 0
454 1 2 -1.1794 5.161148957121156 13.713469917690361 10.083947945921524 0 0 0
201 1 1 0.5897 5.666974531403316 13.74849734722833 6.046789078841452 0 0 0
811 1 2 -1.1794 2.8856004367687973 14.77541974725492 8.96268226687516 0 0 0
456 1 1 0.5897 5.205286020698126 12.78354879504436 9.861768284329688 0 0 0
813 1 1 0.5897 2.1483792546744125 14.235812167300622 9.248135690064485 0 0 0
17 1 1 0.5897 2.956088979291329 14.963992270994234 7.218250019924871 0 0 0
382 1 2 -1.1794 2.723356092121272 17.34122966487236 10.034073953332978 0 0 0
455 1 1 0.5897 4.964674087694561 13.72735624948867 11.020637700616431 0 0 0
377 1 1 0.5897 6.728801556941964 14.512194361895432 9.552899275234543 0 0 0
239 1 1 0.5897 3.17829170763757 16.78897521719022 5.897691255998004 0 0 0
519 1 1 0.5897 8.002637119355702 14.398821208244277 6.187766913382104 0 0 0
812 1 1 0.5897 3.646562285137897 14.39234085357774 9.399012088967298 0 0 0
18 1 1 0.5897 3.7779445820434168 14.470822378851603 6.04646284385363 0 0 0
376 1 2 -1.1794 7.533437400278361 14.879547164599359 9.187143987345124 0 0 0
16 1 2 -1.1794 3.082529916411154 15.086605659022053 6.277419874398026 0 0 0
517 1 2 -1.1794 7.170558644588708 14.810515002968073 6.420813065362733 0 0 0
186 1 1 0.5897 7.5610046973145195 16.59195977665902 10.053111391600773 0 0 0
378 1 1 0.5897 7.3327754445970745 15.023619385620805 8.262398210959914 0 0 0
518 1 1 0.5897 7.258779411545011 15.715607231360007 6.122322238535303 0 0 0
766 1 2 -1.1794 0.7943074506869158 13.430546990879098 9.925704898855011 0 0 0
59 1 1 0.5897 8.771799158389445 13.979402713768662 10.107267107856945 0 0 0
655 1 2 -1.1794 0.668413790580305 13.673959497250781 5.784216629060649 0 0 0
184 1 2 -1.1794 7.552544255995602 17.46875749680131 10.436827704580228 0 0 0
767 1 1 0.5897 0.7689683482213634 13.452321293229204 10.882305586643184 0 0 0
307 1 2 -1.1794 7.590897052818971 17.455068469812044 5.7880204917309195 0 0 0
552 1 1 0.5897 0.7630247148029361 11.910454096290666 6.696693248217111 0 0 0
383 1 1 0.5897 3.659419599698161 17.54111856210883 10.032085515677682 0 0 0
199 1 2 -1.1794 4.951117243634223 13.238464296745505 5.667847108658386 0 0 0
296 1 1 0.5897 7.194165571715459 15.141553130715689 14.751532698370161 0 0 0
232 1 2 -1.1794 2.725868809679468 14.949719792615818 13.889692287539411 0 0 0
234 1 1 0.5897 2.6354676198026676 15.052573344976661 14.837022430183175 0 0 0
606 1 1 0.5897 2.649307722927271 16.59002644947266 12.960630869984422 0 0 0
427 1 2 -1.1794 5.144515852245142 13.882768995801168 12.890676720125057 0 0 0
233 1 1 0.5897 3.5639120580890604 14.501523312572159 13.775862492752818 0 0 0
639 1 1 0.5897 1.2966319297651 14.046726844680341 13.09975152257663 0 0 0
429 1 1 0.5897 5.9075489201804965 14.387480279142938 13.172098197067388 0 0 0
428 1 1 0.5897 5.344746220805876 12.982454261518498 13.146435610055821 0 0 0
637 1 2 -1.1794 0.5998584088066381 13.555260533494367 12.664871429310415 0 0 0
638 1 1 0.5897 0.6006005565044245 12.702452087542543 13.099382795954773 0 0 0
295 1 2 -1.1794 7.377488326512104 15.301844753554594 13.825850682168506 0 0 0
270 1 1 0.5897 7.122648859864636 16.992320343018257 13.314067050172683 0 0 0
297 1 1 0.5897 8.13641997192657 14.751519003684354 13.632704990848392 0 0 0
823 1 2 -1.1794 2.6753614130926904 14.872105980133412 16.539648502984562 0 0 0
605 1 1 0.5897 2.4035750350810736 17.60892100366782 11.868342327287637 0 0 0
604 1 2 -1.1794 2.43683718126119 17.512614031211083 12.820078331070599 0 0 0
451 1 2 -1.1794 0.6941530572314566 13.330042194524104 20.308450255775185 0 0 0
664 1 2 -1.1794 2.858127756421321 14.745795070070065 21.44095158311739 0 0 0
49 1 2 -1.1794 7.218636480637898 14.652647477599025 16.609895182705003 0 0 0
159 1 1 0.5897 7.072537226343539 17.418773415598288 19.289247140595613 0 0 0
53 1 1 0.5897 0.47677950626022125 13.400026183603915 18.549853438725776 0 0 0
50 1 1 0.5897 7.353196730972736 15.544306752779113 16.93069564529314 0 0 0
125 1 1 0.5897 4.806783052872029 13.670103082494308 18.741305983363844 0 0 0
124 1 2 -1.1794 4.778751125977137 13.769941776029647 17.789766353179076 0 0 0
684 1 1 0.5897 4.293059997504622 13.878962446641582 20.74249212366346 0 0 0
825 1 1 0.5897 1.975670155233828 14.402110240165177 16.99322446277683 0 0 0
666 1 1 0.5897 2.7983042581636863 15.53379592208358 20.900969821565035 0 0 0
316 1 2 -1.1794 7.413856035365422 14.67778420108814 21.13500200376088 0 0 0
446 1 1 0.5897 0.7336208835191579 11.846772205504346 17.060839545231154 0 0 0
318 1 1 0.5897 7.473825821036826 15.581466457293441 20.825423701331843 0 0 0
665 1 1 0.5897 2.2176416094426368 14.14492480694697 21.060335104415955 0 0 0
584 1 1 0.5897 2.774888564904662 16.508729858354815 17.143214467488583 0 0 0
683 1 1 0.5897 5.8002302765929175 13.823715971584035 20.61147394580506 0 0 0
126 1 1 0.5897 5.639128966987984 14.120731462175286 17.559825155919846 0 0 0
682 1 2 -1.1794 5.0040651980143 13.33409118528543 20.40523070110472 0 0 0
452 1 1 0.5897 0.6972938704647903 12.446860081407872 20.677308036850697 0 0 0
716 1 1 0.5897 2.749481834433058 17.43939348689956 19.345363592138156 0 0 0
824 1 1 0.5897 3.4826199279915673 14.527453357952481 16.92143403450588 0 0 0
52 1 2 -1.1794 0.5404392163011917 13.501902695779389 17.600250036622647 0 0 0
715 1 2 -1.1794 2.717523211984309 17.439293442943335 20.30200440490028 0 0 0
51 1 1 0.5897 8.017317538683564 14.186028953758798 16.855970432953036 0 0 0
610 1 2 -1.1794 7.376704679910208 17.26366592111155 17.5292375282579 0 0 0
583 1 2 -1.1794 2.7949709876937496 17.38442400085374 17.529014154815535 0 0 0
157 1 2 -1.1794 7.157530683946118 17.457661437221017 20.241846318856567 0 0 0
117 1 1 0.5897 8.741127145540602 13.7820376768768 20.461629239446353 0 0 0
681 1 1 0.5897 5.016596875330448 12.091353987542432 17.154448501084367 0 0 0
612 1 1 0.5897 8.160091837537324 17.666874190604258 17.1552234247699 0 0 0
611 1 1 0.5897 6.648516469223906 17.687001856469916 17.074612964342315 0 0 0
267 1 1 0.5897 5.938480560628724 21.970507596944998 2.627953941805644 0 0 0
696 1 1 0.5897 1.350690757539665 21.949912426594743 2.6822760966787973 0 0 0
266 1 1 0.5897 4.428110438665942 22.03503129687048 2.70792395183852 0 0 0
265 1 2 -1.1794 5.176674949696531 21.492101727948878 2.9549552602137297 0 0 0
344 1 1 0.5897 1.6751439255990506 18.52896832765472 2.2115704336926427 0 0 0
228 1 1 0.5897 5.4599895351109415 19.76770287216155 2.701586675447156 0 0 0
602 1 1 0.5897 5.119739936590236 18.749166938442297 0.5555384981818046 0 0 0
817 1 2 -1.1794 7.593674694574119 22.80841196687354 2.1740852291245827 0 0 0
249 1 1 0.5897 5.0912802001869055 21.61269072469574 4.876513903888655 0 0 0
226 1 2 -1.1794 5.423840266148265 18.847635341222407 2.4403503070909607 0 0 0
187 1 2 -1.1794 2.795481793819164 22.869831399909938 2.0338108871122405 0 0 0
413 1 1 0.5897 0.5576702767618646 21.506940399858355 4.919743088786093 0 0 0
321 1 1 0.5897 8.962551595600294 18.25330848985525 2.4939560008842787 0 0 0
818 1 1 0.5897 8.324627403365866 22.27889176990314 2.4926196849360327 0 0 0
345 1 1 0.5897 0.7324851956940367 19.058503683387414 1.1519788539788944 0 0 0
189 1 1 0.5897 2.8748029223761313 22.75877841614037 1.086414830584535 0 0 0
343 1 2 -1.1794 0.7978910601346281 18.892837392402605 2.0924350599187402 0 0 0
227 1 1 0.5897 4.567354324477708 18.54578453652695 2.7428172859818822 0 0 0
694 1 2 -1.1794 0.5910817940525459 21.480062262250794 3.0263537151921875 0 0 0
695 1 1 0.5897 0.6614405236606772 20.602520965401673 2.6507890804054317 0 0 0
450 1 1 0.5897 6.8368711698465 17.75956139139215 2.918996944773127 0 0 0
498 1 1 0.5897 7.315848695334818 22.82743650728122 0.3462505540820625 0 0 0
555 1 1 0.5897 5.03206196191283 20.279505548450924 9.822238366867474 0 0 0
342 1 1 0.5897 0.7826299223822957 19.016260755293153 7.525678599307741 0 0 0
87 1 1 0.5897 7.816805971308593 22.456674685782808 9.985253839361127 0 0 0
37 1 2 -1.1794 2.7677176142585176 22.809229376739808 9.46341525254773 0 0 0
86 1 1 0.5897 7.124410690257176 22.70809662225039 8.662702985380884 0 0 0
414 1 1 0.5897 0.7217687620537824 20.7017771535636 6.191145659582405 0 0 0
32 1 1 0.5897 8.35146927736575 22.23117350294477 6.538855374228158 0 0 0
94 1 2 -1.1794 0.44065298170543976 21.53372990152527 9.987495652421174 0 0 0
39 1 1 0.5897 3.4951880486040645 22.206609521853082 9.617614595206181 0 0 0
553 1 2 -1.1794 4.8735024611173285 21.176943801931724 10.114702208933936 0 0 0
701 1 1 0.5897 3.041024945458225 22.861261664730993 7.745415791760388 0 0 0
404 1 1 0.5897 1.3520849510878634 18.4406325658265 9.537147638876354 0 0 0
387 1 1 0.5897 5.459655819577567 19.814013521713626 6.381506641256578 0 0 0
102 1 1 0.5897 5.164393892315277 18.64982211027845 8.562320390141242 0 0 0
700 1 2 -1.1794 3.054024538125362 22.889067502456875 6.788734506368763 0 0 0
385 1 2 -1.1794 5.4706360955132896 18.913243899800793 6.70487534382153 0 0 0
702 1 1 0.5897 2.182931363768227 22.590010581802787 6.528099005528278 0 0 0
38 1 1 0.5897 1.9831991826968394 22.274307472989015 9.584052511207114 0 0 0
403 1 2 -1.1794 0.5008452066066535 18.723051280811788 9.202779609300306 0 0 0
386 1 1 0.5897 6.3446864693701714 18.590320730653733 6.4859151272449616 0 0 0
33 1 1 0.5897 6.840344368060079 22.25255195403939 6.450231731102257 0 0 0
341 1 1 0.5897 1.6521987909933684 18.544740208513826 6.379701272291197 0 0 0
85 1 2 -1.1794 6.981565908697677 22.733889350188843 9.608806434009827 0 0 0
554 1 1 0.5897 5.683555156929094 21.64319911079543 9.908360209782726 0 0 0
101 1 1 0.5897 6.013832212752134 18.30322957969676 9.76654143469531 0 0 0
340 1 2 -1.1794 0.8217988684428734 18.981085479911016 6.569947200871314 0 0 0
31 1 2 -1.1794 7.578741792006596 22.672966330086897 6.890892734424026 0 0 0
100 1 2 -1.1794 5.123428633819721 18.54632599108642 9.513015362922005 0 0 0
247 1 2 -1.1794 5.251286419342556 21.58539410953205 5.819825271356214 0 0 0
412 1 2 -1.1794 0.6729214417112404 21.6004087720762 5.865344598624508 0 0 0
405 1 1 0.5897 0.3838776827720363 19.604146816778034 9.55790493005209 0 0 0
248 1 1 0.5897 4.470844259524593 21.981657852910523 6.207180581017355 0 0 0
240 1 1 0.5897 3.9465227569853703 18.089081038779938 6.0031847952662725 0 0 0
185 1 1 0.5897 8.390045434573306 17.8524767898476 10.176996895558965 0 0 0
96 1 1 0.5897 0.4518525687418339 21.58514924520981 10.943228584911799 0 0 0
309 1 1 0.5897 8.392281422692477 17.779237235502002 6.198960152343693 0 0 0
238 1 2 -1.1794 3.0964375831499455 17.73075779596919 5.747955369870785 0 0 0
380 1 1 0.5897 0.5996020516311235 20.853067403232938 13.278609885786487 0 0 0
88 1 2 -1.1794 4.937012587051432 21.423582946673974 12.791333765359667 0 0 0
381 1 1 0.5897 1.2509078836894192 22.21479083563436 13.164472715008252 0 0 0
90 1 1 0.5897 4.7611120920848755 20.55104711834338 13.143222883417494 0 0 0
763 1 2 -1.1794 4.441771966985627 18.959499453389476 13.939423937367646 0 0 0
738 1 1 0.5897 3.531784075494366 22.36328593646346 13.335369211131699 0 0 0
89 1 1 0.5897 4.993894096155868 21.293642731332707 11.844719238438502 0 0 0
764 1 1 0.5897 3.6270187036105077 18.54988045420574 13.648631759319958 0 0 0
474 1 1 0.5897 4.995443554379989 18.670816126650678 15.700612254621543 0 0 0
765 1 1 0.5897 5.126672803169768 18.50840554152042 13.445879310608923 0 0 0
350 1 1 0.5897 2.5493858678478363 22.622042123531443 15.658776460536949 0 0 0
736 1 2 -1.1794 2.8720278113421247 22.813044943456678 13.86318867889588 0 0 0
787 1 2 -1.1794 7.103077459597409 22.86850249689651 13.922511029379912 0 0 0
504 1 1 0.5897 0.5300467192994078 18.923972131488966 14.739365860511077 0 0 0
379 1 2 -1.1794 0.48793440273781624 21.714095289029746 12.875817555912928 0 0 0