LAMMPS data file via write_data, version 30 Jul 2021, timestep = 14750000

1296 atoms
2 atom types
864 bonds
1 bond types
432 angles
1 angle types

-10.761615471672156 12.741615471672157 xlo xhi
-9.345427967409915 12.335425967409915 ylo yhi
0.1101633805529314 21.749835619451588 zlo zhi
-9.23410380710024 2.2663456223142453 2.9380218794073434 xy xz yz

Masses

1 1.008
2 15.999

Pair Coeffs # lj/cut/tip4p/long/omp

1 0 0
2 0.21084 3.1668

Bond Coeffs # harmonic/omp

1 450 0.9572

Angle Coeffs # harmonic/omp

1 55 104.52

Atoms # full

163 55 2 -1.1794 -6.91496986917633 -8.220027755537107 1.1141870494748811 1 1 0
270 90 1 0.5897 -8.276812149460195 -7.232526012520534 2.477056363591236 1 1 0
269 90 1 0.5897 -9.204482985666555 -6.073161622558164 2.7723586771882496 1 1 0
268 90 2 -1.1794 -9.028417762667987 -6.9824453653329 3.014370579701042 1 1 0
164 55 1 0.5897 -6.114590615944952 -8.70104398415049 1.324377712094229 1 1 0
73 25 2 -1.1794 -8.615230067022654 -4.20664180164013 4.683485291360417 1 0 0
322 108 2 -1.1794 -6.686836584148763 -5.097278448214691 2.980245312197689 1 1 0
299 100 1 0.5897 -6.2486876033720975 -8.252739947315067 4.090525133004753 1 1 0
324 108 1 0.5897 -7.274045951570688 -4.847322220281518 3.6935906554250866 1 1 0
165 55 1 0.5897 -7.277019150101677 -8.676797425221643 0.3548984574844825 1 1 0
280 94 2 -1.1794 -9.55025212998553 -4.728320863477171 1.3282562860284737 1 1 0
323 108 1 0.5897 -6.223631057571766 -5.867555735827526 3.3094466587684535 1 1 0
298 100 2 -1.1794 -5.686798802322311 -7.48605106021757 4.20406565357043 1 1 0
314 105 1 0.5897 -8.805617299323755 -6.921738380722424 4.779950812486332 1 1 0
259 87 2 -1.1794 -6.684628087874749 -5.6510229261187686 0.2209291726401544 1 1 0
75 25 1 0.5897 -9.305346061532635 -3.7981689403079217 4.160947120919875 1 0 0
275 92 1 0.5897 -10.491722492834457 -8.058186965139047 3.4626132184764056 1 1 0
282 94 1 0.5897 -10.404918601863745 -4.299641905601404 1.3722658308635007 1 1 0
260 87 1 0.5897 -6.73661261875828 -6.6037039892216125 0.29918631377164107 1 1 0
261 87 1 0.5897 -6.761348674603273 -5.3317980040772035 1.1200269942264425 1 1 0
281 94 1 0.5897 -8.918989819481071 -4.015948308975832 1.4302078014295894 1 1 0
74 25 1 0.5897 -8.298327677988414 -3.5052884525250345 5.252698032054929 1 0 0
257 86 1 0.5897 -12.707669228040343 -3.8975512985247116 2.085957394184981 1 1 0
419 140 1 0.5897 -8.998004473961895 -5.7055276599752265 8.675207838183756 1 0 0
418 140 2 -1.1794 -9.553649083604496 -6.151152053192951 9.314709820422921 1 0 0
627 209 1 0.5897 -10.172844450076974 -6.826545813611116 6.446531468837061 1 1 0
427 143 2 -1.1794 -5.637947170715675 -6.92899137759835 9.770684009878638 1 0 0
633 211 1 0.5897 -5.940319650373218 -6.0562732888031565 5.653061360851374 1 1 0
420 140 1 0.5897 -8.947828218024029 -6.685929376626849 9.82771738273885 1 0 0
414 138 1 0.5897 -6.88543928609952 -5.004041801056607 7.303876846542624 1 0 0
413 138 1 0.5897 -7.964814153812907 -3.9698754063120907 7.5432029959646165 1 0 0
412 138 2 -1.1794 -7.696858227507685 -4.85529796551537 7.78929984662688 1 0 0
428 143 1 0.5897 -6.279565386208542 -7.184185990435906 10.433580892335163 1 0 0
350 117 1 0.5897 -7.120891703694597 -4.415641807729376 9.852127501916563 0 0 0
618 206 1 0.5897 -7.5559860868600195 -7.692838506236262 7.043076100573941 1 1 0
429 143 1 0.5897 -5.9426458257704216 -7.3504860203373585 8.967115144497644 1 0 0
616 206 2 -1.1794 -7.1424273428478475 -8.16585892198966 7.765156793690827 1 1 0
626 209 1 0.5897 -10.54913835126821 -6.665536527544426 7.903985282437521 1 1 0
351 117 1 0.5897 -6.881308012325293 -3.0747552319631817 10.513104025632854 0 0 0
349 117 2 -1.1794 -6.815717075612736 -4.017270591805611 10.667226028938366 0 0 0
315 105 1 0.5897 -8.388101068270938 -5.783949079775436 5.6872905769415825 1 1 0
313 105 2 -1.1794 -8.564973899599513 -6.724776773884377 5.685190159089618 1 1 0
327 109 1 0.5897 -4.087682361634712 -7.874417067429688 10.044332559763877 0 0 0
661 221 2 -1.1794 -9.104323919995984 -4.224457551442462 12.090746355674565 0 0 0
729 243 1 0.5897 -7.973660233641034 -7.5078533177410645 12.023892875935656 1 0 0
780 260 1 0.5897 -7.187505117237713 -3.7359037024494413 14.913267968087663 0 0 0
779 260 1 0.5897 -7.1513539879560675 -2.721887694163464 13.789670105785534 0 0 0
778 260 2 -1.1794 -7.737528712443706 -3.3257064626866297 14.245903898677835 0 0 0
684 228 1 0.5897 -8.349587769836042 -6.567921727916589 14.277517464881901 0 0 0
662 221 1 0.5897 -8.697510589508065 -4.1737550083513515 12.95566557154422 0 0 0
652 218 2 -1.1794 -5.63663192539733 -5.554233042683231 12.625687279966906 0 0 0
654 218 1 0.5897 -6.112908011886104 -5.088339949035379 11.938465133629812 0 0 0
653 218 1 0.5897 -6.30522095575034 -6.075900932190808 13.069721734026833 0 0 0
663 221 1 0.5897 -8.416401237885122 -3.947704907080265 11.485425636264985 0 0 0
740 247 1 0.5897 -10.668225547099524 -3.1389776773885227 11.907023086697118 1 0 0
768 256 1 0.5897 -9.302048421979062 -2.4799714792825345 14.886044644489271 0 0 0
758 253 1 0.5897 -9.545780885305494 -5.346656022601362 16.103557250946768 0 0 0
682 228 2 -1.1794 -7.716154078237041 -7.030076201224242 13.728568016562186 0 0 0
766 256 2 -1.1794 -10.164457487086944 -2.1028342467531056 15.059687118557063 0 0 0
788 263 1 0.5897 -5.000056025932832 -4.5882376108310705 15.395031064528236 0 0 0
727 243 2 -1.1794 -8.04397228284836 -7.768099326913673 11.105475430291404 1 0 0
739 247 2 -1.1794 -11.561600555488527 -2.8743293622467885 11.687950796418788 1 0 0
767 256 1 0.5897 -10.752601555959581 -2.8571027020738713 15.0994749415772 0 0 0
749 250 1 0.5897 -10.095624501236339 -5.75225876451389 12.297980772930046 1 0 0
757 253 2 -1.1794 -9.566413594272682 -6.079264504011176 15.487803868113685 0 0 0
789 263 1 0.5897 -4.870077147198934 -4.285269522859971 13.917523659803019 0 0 0
1221 407 1 0.5897 -10.686962762118128 -2.1044123642981427 19.193667258882762 0 0 0
1089 363 1 0.5897 -6.189883029734792 -4.4646073780755104 17.27479836449747 0 0 0
1227 409 1 0.5897 -8.453808797432862 -3.113307670949581 20.50764041557354 0 0 0
1129 377 2 -1.1794 -7.58113437864894 -2.1887561417163743 17.877484529075204 0 0 0
1226 409 1 0.5897 -7.489038905641207 -3.1961723507864654 21.671268353949124 0 0 0
1225 409 2 -1.1794 -7.790998014990821 -3.67986937926257 20.902450603375073 0 0 0
1152 384 1 0.5897 -6.540659555224169 -4.1757283459776975 19.715874795135107 0 0 0
1130 377 1 0.5897 -7.0550653940418835 -2.101035637605696 18.672285849224394 0 0 0
1151 384 1 0.5897 -5.610952443058885 -5.369378473208868 19.768175685372526 0 0 0
1150 384 2 -1.1794 -5.7644355871543915 -4.5493846408473715 19.298732037441958 0 0 0
1109 370 1 0.5897 -8.917245057648847 -3.6388035225543334 17.849687741813185 0 0 0
1219 407 2 -1.1794 -10.180511067506245 -2.010775189979606 20.000450034999744 0 0 0
1143 381 1 0.5897 -8.616949018009635 -5.214167397268772 21.544601619268633 0 0 0
1108 370 2 -1.1794 -9.663841842049766 -4.208257113486088 17.663494698116857 0 0 0
1088 363 1 0.5897 -6.612747374438402 -5.724508627727863 16.549513590385367 0 0 0
1087 363 2 -1.1794 -6.388613769684528 -4.805456024405233 16.402731624504092 0 0 0
1248 416 1 0.5897 -5.6258409616763565 -1.880147656389659 20.631941446800965 0 0 0
1121 374 1 0.5897 -4.712745331848804 -3.309480188404671 18.54951213513099 0 0 0
1131 377 1 0.5897 -7.016043907912707 -1.8601343201754315 17.178258258104492 0 0 0
1246 416 2 -1.1794 -6.0984974501936176 -1.3252641747766312 20.011543516786887 0 0 0
1098 366 1 0.5897 -8.377810258505669 -6.881008122096304 17.945882686225644 0 0 0
82 28 2 -1.1794 -8.815485299509708 -0.05390208070799751 4.416593343217975 1 0 0
258 86 1 0.5897 -12.67813200965442 -2.7314115997825024 1.1208882563445526 1 1 0
272 91 1 0.5897 -9.400320464341187 -1.440391927070821 1.154781951760782 1 1 0
59 20 1 0.5897 -13.415579721415469 -0.8817715039740524 3.5591714823432934 1 0 0
271 91 2 -1.1794 -10.272968658784707 -1.1302050978329579 0.9130948863425803 1 1 0
83 28 1 0.5897 -9.43255224769162 -0.7779214790597404 4.309836868437974 1 0 0
256 86 2 -1.1794 -12.10745516213126 -3.335331367756134 1.5960801956725208 1 1 0
69 23 1 0.5897 -11.001855708304326 -2.5941122535359593 2.868420633437711 1 0 0
98 33 1 0.5897 -11.770862888223764 0.47542744673918946 4.500456626640947 1 0 0
54 18 1 0.5897 -11.363965949638109 -0.10116798369750768 2.1007134650052395 1 0 0
53 18 1 0.5897 -12.154062963560435 1.1689766227170217 2.334096112917694 1 0 0
52 18 2 -1.1794 -11.957430127363441 0.31727132905168 2.724312454686048 1 0 0
97 33 2 -1.1794 -11.841540237250342 0.6116815497995116 5.44522621023613 1 0 0
68 23 1 0.5897 -11.107470070608043 -2.68853147576693 4.375592693856135 1 0 0
67 23 2 -1.1794 -10.506931340838516 -2.4396741813116405 3.6730099149782327 1 0 0
107 36 1 0.5897 -9.313634391644706 1.6963356787606685 3.280086877457305 1 0 0
301 101 2 -1.1794 -7.905027111417135 -2.5370461927048806 1.6999291705007729 1 1 0
273 91 1 0.5897 -10.714617256823699 -1.9043719849650413 0.5638022662021922 1 1 0
44 15 1 0.5897 -10.117332771032876 0.7207165326955849 0.2740911062857365 1 0 0
426 142 1 0.5897 -8.910680099618698 -1.9585799731000924 6.6833483209162035 1 0 0
435 145 1 0.5897 -7.629063095000438 -1.0890992315803878 9.557067849324884 0 0 0
528 176 1 0.5897 -12.047895193874695 0.8913944373596454 10.039883172631932 1 0 0
402 134 1 0.5897 -10.77085007570218 -0.4411981082882832 6.481777498529069 1 0 0
401 134 1 0.5897 -11.175250009999157 -1.5050788723502944 7.480148899073318 1 0 0
400 134 2 -1.1794 -10.416613987739836 -1.0177469728030584 7.158770516768218 1 0 0
527 176 1 0.5897 -11.898428556737102 1.744104870405513 8.797917648730941 1 0 0
526 176 2 -1.1794 -12.553183140077836 1.301552105226076 9.338017447288655 1 0 0
424 142 2 -1.1794 -8.001360740234578 -2.2275771409489202 6.553254946774111 1 0 0
537 179 1 0.5897 -9.606152964309432 0.16971160792570572 8.560215826160503 1 0 0
536 179 1 0.5897 -9.87904993096955 0.21326760338620865 10.048606159248433 1 0 0
535 179 2 -1.1794 -9.174334705032297 0.29178818632793835 9.405662248167628 1 0 0
522 174 1 0.5897 -9.879398388719762 2.341567677789211 7.3185517042108925 1 0 0
411 137 1 0.5897 -13.393491757650661 0.41468412564064927 6.364865842789996 1 0 0
410 137 1 0.5897 -13.578611136567995 0.4821589202012113 7.865818731983532 1 0 0
425 142 1 0.5897 -7.49654484167623 -1.4193802702539333 6.6449282941026055 1 0 0
417 139 1 0.5897 -8.815154378004527 1.0018901405008815 5.875317050043546 1 0 0
433 145 2 -1.1794 -6.783451367892275 -1.3936539090399993 9.886200850547166 0 0 0
99 33 1 0.5897 -11.523824520819343 1.5040871447912938 5.58343631535238 1 0 0
760 254 2 -1.1794 -8.58349115832954 1.9396701140486776 12.611790528486564 0 0 0
790 264 2 -1.1794 -10.543698985616068 0.337073137091485 13.885790967254202 0 0 0
791 264 1 0.5897 -10.202247402344147 -0.4606759026037217 14.289872560537365 0 0 0
896 299 1 0.5897 -8.086445687548911 2.9130035124788662 15.45324263367442 0 0 0
762 254 1 0.5897 -8.931279168514996 2.438178307473404 11.872384440706028 0 0 0
761 254 1 0.5897 -9.349511772252209 1.5116792064530582 12.994300225764617 0 0 0
835 279 2 -1.1794 -11.06427489559996 -0.18911581317190596 11.285638458265408 1 0 0
792 264 1 0.5897 -11.281965439287978 0.5897680786196862 14.440098474611943 0 0 0
837 279 1 0.5897 -10.99585011942731 0.08943893867582986 12.19881673711788 1 0 0
888 296 1 0.5897 -10.442784480571353 3.322095025078072 15.032825407660882 0 0 0
865 289 2 -1.1794 -12.559476426806867 1.1783268387130903 15.636882808626636 0 0 0
769 257 2 -1.1794 -12.393154397104583 2.6259058251554315 12.205120894586017 0 0 0
770 257 1 0.5897 -11.984767682487167 3.0119800676128143 12.97996215002669 0 0 0
836 279 1 0.5897 -11.208580595984357 -1.1342890396072427 11.333138945093054 1 0 0
771 257 1 0.5897 -11.756253686225836 2.764283484087354 11.504118475228287 0 0 0
897 299 1 0.5897 -7.881738260545674 2.7985097214304417 13.957700899043687 0 0 0
1205 402 1 0.5897 -12.029806653363073 1.2379334759047431 18.498404476051007 0 0 0
1216 406 2 -1.1794 -12.237639088930443 3.02764709251349 17.80548293525893 0 0 0
1009 337 2 -1.1794 -10.445120822940728 3.9650524560080385 20.993880738060952 0 -1 0
1259 420 1 0.5897 -8.683721904793156 2.1097090191719197 19.5543937577089 0 0 0
1258 420 2 -1.1794 -8.665206480874208 2.9764143743987894 19.14836822737582 0 0 0
1236 412 1 0.5897 -7.684294020815842 -0.20563011503449857 20.273656744295586 0 0 0
1204 402 2 -1.1794 -11.787892715692825 0.4862360442703402 19.039433176642383 0 0 0
1099 367 2 -1.1794 -9.871521100373117 -0.3250626227520641 17.261022952447505 0 0 0
1234 412 2 -1.1794 -8.515052732102866 0.2191110309737745 20.06014148976754 0 0 0
1195 399 2 -1.1794 -9.392206509405845 2.3707885154344357 16.525446120557206 0 0 0
1100 367 1 0.5897 -9.019646357338022 -0.5680040747989352 17.62356096571606 0 0 0
1235 412 1 0.5897 -9.15198078057135 -0.49530110402506367 20.041572939553554 0 0 0
1196 399 1 0.5897 -9.576100333092935 1.4454961258732943 16.688074402194047 0 0 0
1260 420 1 0.5897 -9.296852339514341 3.490575475542002 19.651196470910754 0 0 0
1197 399 1 0.5897 -9.336146385749435 2.7612824184156057 17.397543385108833 0 0 0
1206 402 1 0.5897 -11.26211895481319 -0.06639714006698938 18.461203642631574 0 0 0
1250 417 1 0.5897 -11.433869535524245 1.021163892042928 20.83074217827182 0 0 0
1218 406 1 0.5897 -13.08496841337282 3.4727954583167495 17.81132711016054 0 0 0
866 289 1 0.5897 -12.529652579711303 1.7951861401007179 16.368217973013238 0 0 0
1101 367 1 0.5897 -10.129876698561496 -1.078295061040663 16.72976018113925 0 0 0
1247 416 1 0.5897 -5.44810778873946 -0.6884195256300902 19.715228707950025 0 0 0
1249 417 2 -1.1794 -11.136303126745497 1.272953620004909 21.704935992842117 0 0 0
1217 406 1 0.5897 -11.595549417541209 3.734788936045817 17.741689657876464 0 0 0
1251 417 1 0.5897 -10.89137691734641 2.194397022316606 21.61901895269522 0 0 0
55 19 2 -1.1794 -13.262074821933432 6.5899935214632706 0.8686639429966565 1 0 0
66 22 1 0.5897 -13.669095964099164 3.205907040048878 1.6004307168913021 1 0 0
108 36 1 0.5897 -10.291259125097909 2.851026526842123 3.3332032008039993 1 0 0
56 19 1 0.5897 -12.477701498211758 6.11726178465878 1.146957278118903 1 0 0
65 22 1 0.5897 -12.180294754623219 3.4064238273015537 1.4130154357619062 1 0 0
64 22 2 -1.1794 -12.851032498669678 2.725939896292841 1.4717099865218866 1 0 0
177 59 1 0.5897 -14.164492688273228 4.9562066596500145 3.0758210934691474 1 0 0
167 56 1 0.5897 -16.65041923161509 5.997516628993564 3.1282224209331897 1 0 0
40 14 2 -1.1794 -15.250394807055855 4.208459456374916 1.7400130575471153 1 0 0
183 61 1 0.5897 -12.127074020717558 3.8650543818742964 4.301612867662017 1 0 0
182 61 1 0.5897 -10.989071861368988 4.173366716176373 5.251199340291864 1 0 0
191 64 1 0.5897 -12.852960015481049 6.649116892988095 4.332925396529355 1 0 0
181 61 2 -1.1794 -11.255296433223027 3.5664839749988335 4.560476534300992 1 0 0
175 59 2 -1.1794 -13.764670474944197 5.177981452474016 3.916736529827748 1 0 0
176 59 1 0.5897 -14.28185368533044 4.696701567885224 4.56262951285263 1 0 0
42 14 1 0.5897 -15.635269964207048 4.597597845600655 0.9547675907981962 1 0 0
85 29 2 -1.1794 -11.024671937026985 5.018895805097374 1.3341909453872949 1 0 0
190 64 2 -1.1794 -12.307748333555296 7.434489645166593 4.284382396428058 1 0 0
192 64 1 0.5897 -11.410147438148623 7.107525343840141 4.34405564494956 1 0 0
45 15 1 0.5897 -9.9670932608119 1.9485095659761331 1.1470741320725657 1 0 0
41 14 1 0.5897 -15.973506108345472 3.7365556602569203 2.1531606613127647 1 0 0
106 36 2 -1.1794 -9.633063710005043 2.4417515277813564 2.771568834152106 1 0 0
43 15 2 -1.1794 -9.991522576247387 1.6687826750996777 0.23202318186353116 1 0 0
57 19 1 0.5897 -13.708636898416799 5.985703713069723 0.27560289032681207 1 0 0
508 170 2 -1.1794 -13.51524745851993 6.335545944380268 7.439236829909312 1 0 0
645 215 1 0.5897 -12.534907145912593 7.0619109645883995 8.827650703622442 1 0 0
510 170 1 0.5897 -13.867219762338955 7.175515884850931 7.144498681754557 1 0 0
509 170 1 0.5897 -14.286848737624307 5.824005995555401 7.682735228423915 1 0 0
518 173 1 0.5897 -16.61325544587714 7.8130718226100875 8.041959942206976 1 0 0
636 212 1 0.5897 -14.96283078385839 7.626823159000086 10.089506199280411 1 0 0
644 215 1 0.5897 -12.67210595823512 7.004165187511667 10.334148820413755 1 0 0
521 174 1 0.5897 -10.600831543682983 3.650752954642325 7.558476708953094 1 0 0
534 178 1 0.5897 -11.782485746961989 5.6963895920142775 6.778483170592744 1 0 0
532 178 2 -1.1794 -10.904209157557993 5.319201743625582 6.728399200327317 1 0 0
643 215 2 -1.1794 -12.048950338460074 7.213159936785026 9.638292996704267 1 0 0
459 153 1 0.5897 -10.173279088876697 4.237367780741815 10.481435651803677 0 0 0
543 181 1 0.5897 -10.389530808413543 6.466497841722278 9.466142559212505 0 0 0
520 174 2 -1.1794 -10.57627962080418 2.7368219721087375 7.842239421073031 1 0 0
458 153 1 0.5897 -10.078789776577686 2.9271419203412066 9.728771480137166 0 0 0
457 153 2 -1.1794 -10.21974076830039 3.2890327391292757 10.603602568814736 0 0 0
634 212 2 -1.1794 -15.498265318009615 8.009996673672767 9.39479248906214 1 0 0
900 300 1 0.5897 -14.4522640669645 7.716377235301728 14.633884800316755 0 0 0
898 300 2 -1.1794 -13.773334843864099 7.366732445689092 14.056859300265 0 0 0
886 296 2 -1.1794 -10.82811276130961 3.6013332482227653 14.202343236719164 0 0 0
887 296 1 0.5897 -10.126420348894227 4.0801680369615365 13.761145124056473 0 0 0
899 300 1 0.5897 -13.651082119716474 6.463626408054973 14.349820729795347 0 0 0
945 315 1 0.5897 -14.214545468485966 6.986529227884176 12.235731871598373 1 0 0
874 292 2 -1.1794 -13.256610208642744 4.857942697295851 14.941246956399208 0 0 0
876 292 1 0.5897 -12.41938945840318 4.46241247387132 14.698835066464408 0 0 0
869 290 1 0.5897 -12.398625509228076 8.323714041416086 13.14916231613497 0 0 0
848 283 1 0.5897 -13.816041650158812 3.489260844459732 11.945104228917703 1 0 0
875 292 1 0.5897 -13.868001223256034 4.122226906803608 14.977476016723397 0 0 0
944 315 1 0.5897 -14.320869447055646 5.790651331344083 11.313415697569061 1 0 0
943 315 2 -1.1794 -14.145498777720043 6.731756645952977 11.315687826989532 1 0 0
649 217 2 -1.1794 -15.669401063810213 8.495992970563286 15.746370975767935 0 -1 0
980 327 1 0.5897 -12.357578872198097 8.767506546619835 16.62169493143621 0 -1 0
1208 403 1 0.5897 -11.932287942304734 6.429867814098701 17.535464643448876 0 0 0
1035 345 1 0.5897 -14.404177501469714 9.339416332255727 21.47974333609583 0 -1 0
1003 335 2 -1.1794 -13.0707287573687 5.153413705395932 20.46595660185887 0 -1 0
1018 340 2 -1.1794 -11.477565848729558 7.591499916761837 20.071283119748756 0 -1 0
1019 340 1 0.5897 -12.075994624754582 6.901507313725009 20.35797110808585 0 -1 0
1020 340 1 0.5897 -10.632917530604066 7.151704623785559 19.974807408357734 0 -1 0
1030 344 2 -1.1794 -8.889677224081975 6.382342410035973 19.87910143004777 0 -1 0
1237 413 2 -1.1794 -10.564914308073018 5.17997707087466 17.85010669136807 0 0 0
1207 403 2 -1.1794 -12.709549108996784 6.791445550905699 17.109695090544186 0 0 0
1032 344 1 0.5897 -8.401000691897748 5.857386062551326 20.51297854285751 0 -1 0
1238 413 1 0.5897 -10.030805101279881 5.378546373017599 18.61918541050742 0 0 0
989 330 1 0.5897 -15.197729838247135 8.568370826643736 18.603508480793543 0 -1 0
1239 413 1 0.5897 -10.006554290036043 5.40449725096728 17.105775240506716 0 0 0
1043 348 1 0.5897 -12.239767435240589 9.26543894602871 19.669009685408128 0 -1 0
990 330 1 0.5897 -14.299697452094971 7.373445440428988 18.3634878546982 0 -1 0
1209 403 1 0.5897 -12.873421661752996 6.204835861304154 16.371255545939214 0 0 0
1034 345 1 0.5897 -14.653513263555588 8.206749759299143 20.506614147545328 0 -1 0
1011 337 1 0.5897 -11.297247559791607 4.295810985749778 20.70992619533935 0 -1 0
1005 335 1 0.5897 -13.354166452258667 4.8824406957938535 19.59279144793269 0 -1 0
1033 345 2 -1.1794 -14.557204616069443 8.395255098091159 21.440072710730156 0 -1 0
1010 337 1 0.5897 -10.190574069314106 4.543571100708428 21.712764629783848 0 -1 0
174 58 1 0.5897 -16.2805674771272 10.795677852419356 1.4609716051476942 1 0 0
173 58 1 0.5897 -14.829526167418017 10.366237599965562 1.5028476447849513 1 0 0
172 58 2 -1.1794 -15.718808838459758 10.021689549631922 1.420829882513358 1 0 0
161 54 1 0.5897 -15.57561097043887 8.512415510118618 2.7990105874818307 1 0 0
216 72 1 0.5897 -13.526978212701614 10.060440610821534 3.5305941117065283 1 0 0
284 95 1 0.5897 -17.483180575550154 12.064174059086682 4.475223944299238 1 0 0
148 50 2 -1.1794 -18.379876513068368 11.553382743179966 1.645527171381709 1 0 0
215 72 1 0.5897 -12.753717644093195 8.811858041799123 3.163083937666814 1 0 0
285 95 1 0.5897 -17.23291733179368 12.240224829744193 2.992627617617103 1 0 0
291 97 1 0.5897 -15.269039466974338 11.089479388288566 4.3822329604984125 1 0 0
193 65 2 -1.1794 -13.919967284194371 12.165809981649591 1.5711623346414474 1 0 0
289 97 2 -1.1794 -14.527665279852068 10.714131090445147 4.857238298102081 1 0 0
153 51 1 0.5897 -12.809196713169301 9.460618513810147 0.7511427270449065 1 0 0
283 95 2 -1.1794 -16.780523383426218 12.122733732581459 3.827899849164845 1 0 0
150 50 1 0.5897 -19.044482346725133 12.064124936788666 1.1833411864660905 1 0 0
214 72 2 -1.1794 -13.034210642380154 9.658413433679765 2.8152649488835206 1 0 0
160 54 2 -1.1794 -15.30584148691361 7.610287096791531 2.9714016425824537 1 0 0
206 69 1 0.5897 -14.913264260937346 7.692986765996377 4.812692324960585 1 0 0
1118 373 1 0.5897 -16.126859293550535 8.418335442005073 0.3579503158227387 0 -1 1
207 69 1 0.5897 -14.679781801507797 9.055728243925863 5.429705501685208 1 0 0
162 54 1 0.5897 -14.540434686879454 7.477729053904344 2.412190460684919 1 0 0
149 50 1 0.5897 -18.879941728228694 10.960807637687555 2.206888133973681 1 0 0
617 206 1 0.5897 -17.089630349373778 13.018075178918185 8.166262879945414 1 0 0
640 214 2 -1.1794 -13.982036515723372 12.403332190409927 7.094108063630742 1 0 0
566 189 1 0.5897 -12.945746678416633 10.268937437011449 9.841791508724912 0 0 0
630 210 1 0.5897 -13.071983789197638 9.416361332991336 7.743888382667314 1 0 0
629 210 1 0.5897 -13.815077677678268 10.713271479860236 7.984393674419338 1 0 0
628 210 2 -1.1794 -13.84857426974365 9.775353576375277 8.17306040452839 1 0 0
635 212 1 0.5897 -14.90136940443761 8.59298219283901 8.925569672414554 1 0 0
642 214 1 0.5897 -14.831177711294604 12.766392684515374 7.345711643946379 1 0 0
290 97 1 0.5897 -14.407367646230313 11.292755492350352 5.61021646090597 1 0 0
567 189 1 0.5897 -13.103659123989292 11.42281081043733 10.809073327216826 0 0 0
205 69 2 -1.1794 -14.853265801678432 8.141868448492442 5.655966663677687 1 0 0
565 189 2 -1.1794 -13.203995171370966 10.473253822583136 10.740518056692 0 0 0
523 175 2 -1.1794 -11.743918497189846 8.752859671720863 6.730964425698426 1 0 0
583 195 2 -1.1794 -18.70905561456491 11.705607418556646 5.70184821242462 1 0 0
585 195 1 0.5897 -18.57824822708421 12.048763193392343 6.585766105772484 1 0 0
525 175 1 0.5897 -11.95940029757864 8.131051925142273 6.035853554656464 1 0 0
641 214 1 0.5897 -13.455159207461087 13.166827357559196 6.857687022319741 1 0 0
519 173 1 0.5897 -16.271035248177995 7.801294782461426 6.567370655928103 1 0 0
956 319 1 0.5897 -17.45776907723355 10.940685763310686 12.054499628366157 1 0 0
870 290 1 0.5897 -12.155786697911049 9.31759495571039 12.033237626570555 0 0 0
877 293 2 -1.1794 -15.793625531412019 10.004903103022926 12.12261804928512 0 0 0
658 220 2 -1.1794 -16.555214098406598 12.193763761267565 14.988589329746748 0 -1 0
672 224 1 0.5897 -13.833687498116552 10.42409816839934 15.104322724111237 0 -1 0
671 224 1 0.5897 -13.305322594787945 11.56351142504635 14.258862887252567 0 -1 0
670 224 2 -1.1794 -14.091627568276081 11.041958943275404 14.420258584278285 0 -1 0
660 220 1 0.5897 -15.68731101297038 11.930990389624213 14.682251682804138 0 -1 0
879 293 1 0.5897 -15.200131510790806 9.997561024061845 11.371703612956217 0 0 0
878 293 1 0.5897 -15.235434586455895 10.22811516313174 12.867458082653334 0 0 0
728 243 1 0.5897 -17.444818014312453 12.970542038148754 11.135049753801002 1 -1 0
659 220 1 0.5897 -17.074952206259113 11.390544138957704 14.954912637863536 0 -1 0
683 228 1 0.5897 -16.949944929467197 13.754535092844314 14.06493192415324 0 -1 0
680 227 1 0.5897 -10.869943641409195 10.097051852766604 15.647753336001731 0 -1 0
650 217 1 0.5897 -15.36878625714052 9.202521917164965 16.317994786108308 0 -1 0
868 290 2 -1.1794 -11.706980725698898 8.68629047644897 12.595594697451322 0 0 0
681 227 1 0.5897 -10.849981134034438 9.587343126850417 14.222438293005169 0 -1 0
1022 341 1 0.5897 -13.731150057893199 12.907900618469423 18.703179899374135 0 -1 0
1140 380 1 0.5897 -11.842238282695433 12.994833825101637 20.380322528069115 0 -1 0
992 331 1 0.5897 -15.36362934639401 13.88928833505338 17.449584177239906 0 -1 0
1126 376 2 -1.1794 -14.665217184764778 14.817979908051417 20.61253475943132 0 -1 0
1119 373 1 0.5897 -14.924410937738887 11.60754926069609 20.950386444354642 0 -1 0
1138 380 2 -1.1794 -12.206436435032131 13.661000621872116 19.797387601383186 0 -1 0
979 327 2 -1.1794 -12.496766818071388 9.709551904830949 16.52390119944736 0 -1 0
1111 371 2 -1.1794 -16.51274982857038 12.617607902467075 20.490050673749693 0 -1 0
1127 376 1 0.5897 -15.206841953807572 14.064314605377646 20.84713147583495 0 -1 0
1128 376 1 0.5897 -13.793965703860287 14.450440540856924 20.46426532337972 0 -1 0
991 331 2 -1.1794 -16.11016818196503 14.189427555129221 16.9312139979563 0 -1 0
981 327 1 0.5897 -12.456112911767969 10.052161315014438 17.416730252629527 0 -1 0
1000 334 2 -1.1794 -15.377574884262515 10.194605361771512 17.816469158291767 0 -1 0
1044 348 1 0.5897 -13.089830124162116 10.517806567135981 19.638584570977663 0 -1 0
1001 334 1 0.5897 -14.846606515100138 10.983256447082049 17.704532399552292 0 -1 0
1021 341 2 -1.1794 -14.007558277839202 12.602924996429397 17.839020550039038 0 -1 0
1117 373 2 -1.1794 -14.25213876463684 10.977804041958947 21.210518872652422 0 -1 0
1023 341 1 0.5897 -13.230869865446005 12.704642118321008 17.28893548852964 0 -1 0
1042 348 2 -1.1794 -12.31655260533828 10.118038081633141 19.240604609917142 0 -1 0
1013 338 1 0.5897 -10.776870642669193 11.025590259860834 18.490592279384963 0 -1 0
151 51 2 -1.1794 -10.735025574810098 12.240214967368562 21.46662751619248 1 0 -1
1002 334 1 0.5897 -16.238986877687914 10.520334892840072 18.077276957903656 0 -1 0
152 51 1 0.5897 -10.936556487050337 11.30551471767777 21.420150827359222 1 0 -1
993 331 1 0.5897 -16.346912977491893 13.434701870920673 16.392101074679815 0 -1 0
293 98 1 0.5897 -5.15435847856929 -3.895638017973024 2.2857900107026836 1 1 0
311 104 1 0.5897 -2.5493356645542686 -8.07852813849874 3.1358641104802336 1 1 0
305 102 1 0.5897 -1.1206011563862663 -6.159145219246859 2.503096933984543 1 1 0
304 102 2 -1.1794 -0.9357794341341261 -7.0616351958409105 2.7633044975586936 1 1 0
316 106 2 -1.1794 -1.905496501263043 -4.912540778837058 1.4457366033601151 1 1 0
242 81 1 0.5897 -0.7850238649288901 -6.854599521488042 4.608372010005847 0 1 0
306 102 1 0.5897 -0.3307443681050959 -7.384758064969969 2.095714555944144 1 1 0
310 104 2 -1.1794 -3.214861561943648 -8.486387426029147 3.689949769742316 1 1 0
3 1 1 0.5897 -1.2291204056157419 -3.404415066540407 4.162229070957859 0 0 0
318 106 1 0.5897 -2.7598745935651774 -4.724645298789813 1.8341890745818081 1 1 0
1 1 2 -1.1794 -0.600322441330265 -3.9208680731894052 4.666279299075885 0 0 0
300 100 1 0.5897 -4.814264287570815 -7.788651072568638 3.9525296978371287 1 1 0
317 106 1 0.5897 -1.442619656105057 -4.074849495685581 1.4672088239955365 1 1 0
1179 393 1 0.5897 -2.627436506981251 -8.572592879744164 0.130650147884484 0 0 1
348 116 1 0.5897 -1.1300253113966932 -6.543293204409273 9.63009295679457 0 0 0
347 116 1 0.5897 -1.0245375786171174 -5.455564430269332 8.582344759384261 0 0 0
346 116 2 -1.1794 -1.6528251169434736 -5.899859250533773 9.151682977209777 0 0 0
336 112 1 0.5897 -3.1267587528344976 -5.021961381519957 9.364327349922332 0 0 0
335 112 1 0.5897 -4.598081977810425 -5.35259021971389 9.23106258964942 0 0 0
334 112 2 -1.1794 -3.999441249162169 -4.637872398667455 9.448295240767314 0 0 0
555 185 1 0.5897 -2.65677450490303 -6.810108329771788 6.389205042066951 0 1 0
546 182 1 0.5897 -0.034876489053509374 -7.519782534909438 6.862760466326894 0 1 0
554 185 1 0.5897 -2.958432818859709 -6.653310035483029 7.864368240091357 0 1 0
359 120 1 0.5897 -4.203889487595194 -2.796541366974383 9.039017511260358 0 0 0
553 185 2 -1.1794 -3.3802968673241365 -6.785121658362723 7.015357840957927 0 1 0
356 119 1 0.5897 1.2981769963410112 -7.0020973998159795 10.064110363648842 0 0 0
632 211 1 0.5897 -4.922787456513339 -5.7948190302311495 6.743027977043347 1 1 0
631 211 2 -1.1794 -5.557863702407315 -5.353733065014481 6.1788668565733476 1 1 0
544 182 2 -1.1794 0.5443635810373539 -7.968823547309242 7.478393520928635 0 1 0
404 135 1 0.5897 -4.9481535844701385 -3.7186298678024974 6.049819319375171 1 0 0
241 81 2 -1.1794 -0.9290198687724924 -6.68437053673191 5.539197818703249 0 1 0
669 223 1 0.5897 -4.076046301937215 -3.5720081775104147 10.892863923199782 0 0 0
243 81 1 0.5897 -0.8098735280975884 -5.739013357206622 5.631536264453487 0 1 0
793 265 2 -1.1794 -2.0966517733614296 -6.15077850497732 15.721019696163731 0 0 0
667 223 2 -1.1794 -3.769609029481093 -2.8579866406685293 11.451974410148496 0 0 0
720 240 1 0.5897 -0.35965771447993333 -6.379519356349096 14.570531190283393 0 0 0
795 265 1 0.5897 -2.7556783777683354 -6.083955442537459 15.030103755011336 0 0 0
718 240 2 -1.1794 0.17777218367014846 -6.79784698286819 13.89797446420131 0 0 0
668 223 1 0.5897 -2.901438748661655 -3.1367713497081624 11.74301566531229 0 0 0
816 272 1 0.5897 0.23073401382325187 -3.930831286473735 15.422546914126777 0 0 0
697 233 2 -1.1794 -1.3849810951408887 -3.9520589903629944 12.48085213142145 0 0 0
699 233 1 0.5897 -0.6956503258094795 -4.265416665051523 11.89537125388279 0 0 0
677 226 1 0.5897 -2.548748518296742 -5.683556887148683 12.521232737042743 0 0 0
804 268 1 0.5897 -1.732170454117444 -2.5347606143548465 14.885428568937874 0 0 0