#include		in.partitions
include		in.temp
variable        temperature equal 175.22
variable	tempDamp equal 100.0
include		in.pressure
variable        pressure equal 1782.6
variable        pressureDamp equal 1000.0 # This is 1 ps
include		in.seed
variable        seed equal 745823

units		real
atom_style	full

read_restart	restart.lmp.${pid}
read_restart	restart.lmp.1
Reading restart file ...
  restart file = 30 Jul 2021, LAMMPS = 30 Jul 2021
  restoring atom style full from restart
  orthogonal box = (0.0046744144 -0.053262043 -0.0021630237) to (19.995327 20.053263 20.702161)
  2 by 4 by 4 MPI processor grid
  restoring pair style lj/cut/tip4p/long/omp from restart
  restoring bond style harmonic/omp from restart
  restoring angle style harmonic/omp from restart
  972 atoms
  648 bonds
  324 angles
Finding 1-2 1-3 1-4 neighbors ...
  special bond factors lj:    0        0        0       
  special bond factors coul:  0        0        0       
     2 = max # of 1-2 neighbors
     1 = max # of 1-3 neighbors
     1 = max # of 1-4 neighbors
     2 = max # of special neighbors
  special bonds CPU = 0.002 seconds
  read_restart CPU = 0.008 seconds
include 	in.setup
variable	out_freq equal 1000
variable	out_freq2 equal 10000
variable	out_freq3 equal 1000

timestep	2.0

neigh_modify    delay 7 every 1

include		in.tip4p
# This is TIP4P/Ice

# create groups ###
group ox type 2
324 atoms in group ox
group hy type 1
648 atoms in group hy

# set charges - beside manually ###
set group ox charge -1.1794
Setting atom values ...
  324 settings made for charge
set group hy charge 0.5897
Setting atom values ...
  648 settings made for charge

# ### TIP3P Potential Parameters ###
pair_style lj/cut/tip4p/long/omp 2 1 1 1 0.1577 8.5
pair_coeff 1 1*2 0.000 0.000
pair_coeff 2 2 0.21084 3.1668
bond_style  harmonic
bond_coeff  1 450 0.9572
angle_style harmonic
angle_coeff 1 55 104.52
kspace_style pppm/tip4p/omp 1.0e-5
pair_modify tail yes

thermo          ${out_freq}
thermo          1000
thermo_style    custom step temp pe etotal epair emol press lx ly lz vol pxx pyy pzz pxy pxz pyz enthalpy

restart 	${out_freq3} restart.lmp.${pid} restart2.lmp.${pid}
restart 	1000 restart.lmp.${pid} restart2.lmp.${pid}
restart 	1000 restart.lmp.1 restart2.lmp.${pid}
restart 	1000 restart.lmp.1 restart2.lmp.1


include         in.dump
dump            myDump all atom ${out_freq2} dump.water.${pid}
dump            myDump all atom 10000 dump.water.${pid}
dump            myDump all atom 10000 dump.water.1
dump            myDump2 all dcd ${out_freq2} dump.dcd
dump            myDump2 all dcd 10000 dump.dcd
dump_modify     myDump append yes
dump_modify     myDump2 append yes


variable natoms 	equal  "count(all)"                        # NUMBER ATOMS
variable H      	equal  "enthalpy/v_natoms"                 # ENTHALPY-per-atom
variable Vol      	equal  "vol/v_natoms"                 # volume-per-atom
fix AVG all 		ave/time ${out_freq} 1 ${out_freq} v_Vol v_H file vol_enthalpy.dat
fix AVG all 		ave/time 1000 1 ${out_freq} v_Vol v_H file vol_enthalpy.dat
fix AVG all 		ave/time 1000 1 1000 v_Vol v_H file vol_enthalpy.dat


timer           timeout 02:55:00 every 1000
New timer settings: style=normal  mode=nosync  timeout=02:55:00

fix 		1 all shake 1e-6 200 0 b 1 a 1
       0 = # of size 2 clusters
       0 = # of size 3 clusters
       0 = # of size 4 clusters
     324 = # of frozen angles
  find clusters CPU = 0.000 seconds
fix             2 all nph aniso ${pressure} ${pressure} ${pressureDamp}
fix             2 all nph aniso 1782.6 ${pressure} ${pressureDamp}
fix             2 all nph aniso 1782.6 1782.6 ${pressureDamp}
fix             2 all nph aniso 1782.6 1782.6 1000
fix             3 all temp/csvr ${temperature} ${temperature} ${tempDamp} ${seed}
fix             3 all temp/csvr 175.22 ${temperature} ${tempDamp} ${seed}
fix             3 all temp/csvr 175.22 175.22 ${tempDamp} ${seed}
fix             3 all temp/csvr 175.22 175.22 100 ${seed}
fix             3 all temp/csvr 175.22 175.22 100 745823


run             250000
PPPM initialization ...
  extracting TIP4P info from pair style
  using 12-bit tables for long-range coulomb (../kspace.cpp:340)
  G vector (1/distance) = 0.37236969
  grid = 24 24 25
  stencil order = 5
  estimated absolute RMS force accuracy = 0.0034134214
  estimated relative force accuracy = 1.0279417e-05
  using double precision FFTW3
  3d grid and FFT values/proc = 3458 576
Last active /omp style is kspace_style pppm/tip4p/omp
Neighbor list info ...
  update every 1 steps, delay 7 steps, check yes
  max neighbors/atom: 2000, page size: 100000
  master list distance cutoff = 10.8154
  ghost atom cutoff = 10.8154
  binsize = 5.4077, bins = 4 4 4
  1 neighbor lists, perpetual/occasional/extra = 1 0 0
  (1) pair lj/cut/tip4p/long/omp, perpetual
      attributes: half, newton on, omp
      pair build: half/bin/newton/omp
      stencil: half/bin/3d
      bin: standard
Per MPI rank memory allocation (min/avg/max) = 10.19 | 10.19 | 10.21 Mbytes
Step Temp PotEng TotEng E_pair E_mol Press Lx Ly Lz Volume Pxx Pyy Pzz Pxy Pxz Pyz Enthalpy 
15500000    184.62636   -4866.1428   -4510.0753   -4866.1428            0     2433.458    19.990652    20.106525    20.704324    8321.9488    1099.0633    3331.5793    2869.7315   -492.12233    903.25254    -193.6622   -4214.7336 
15501000    168.36023   -4875.9661   -4551.2692   -4875.9661            0    1665.1569    19.980625    19.989542    21.059351    8411.1793    664.00743      2218.18    2113.2833    133.78808    1448.0367      136.503   -4347.0071 
15502000    179.87563   -4897.4416   -4550.5363   -4897.4416            0    1971.5993    20.182931    20.032919    20.873487    8439.6318     2056.236     2080.967    1777.5947    503.43214    813.41156   -413.87841   -4307.8653 
15503000    177.08908   -4892.8481   -4551.3169   -4892.8481            0     2052.886    19.947983    20.072216    20.888034    8363.5733    3407.4255    852.70008    1898.5326    37.108601    47.845104   -196.98197   -4300.9179 
15504000    165.70955    -4897.048   -4577.4632    -4897.048            0    1156.3314    19.996924     20.06605    20.873141    8375.5415   -346.21073    2351.5134    1463.6917   -167.15728    532.53672    551.06859   -4436.2188 
15505000    167.01347   -4867.9893   -4545.8898   -4867.9893            0    2104.1307    19.987172    20.038796    20.952896    8392.0302    1056.5877    2545.4031    2710.4013   -212.03697    344.73292    607.81755    -4288.367 
15506000    176.67694    -4871.211   -4530.4747    -4871.211            0    1537.4053    19.933332    20.217771    20.923965    8432.5158    2520.1821    38.639396    2053.3945   -84.208092    457.24395    378.51027   -4341.4052 
15507000    173.42817     -4885.39   -4550.9192     -4885.39            0    392.46951    20.158379    19.941108    21.141471    8498.4568    1076.3747    784.49512   -683.46124   -202.27946    337.33191     11.53099    -4502.276 
15508000    180.34792   -4898.6324   -4550.8163   -4898.6324            0    1420.7931    20.254769    20.113716    20.787409    8468.7628    1212.1594     842.0936    2208.1264   -189.20175     120.4761   -531.95738   -4375.3367 
15509000    185.52784   -4888.3443   -4530.5383   -4888.3443            0     2550.801    20.008544    19.874479    21.108501    8393.9933    4404.5484    1490.7769    1757.0777    409.88666      213.721    45.579282   -4218.2749 
15510000    181.45211   -4889.7246    -4539.779   -4889.7246            0    1679.5619    20.092813    20.024811    20.792459    8365.9452    1778.0434    1549.9874     1710.655    126.53939    931.52577    226.53304   -4334.8578 
15511000    173.48286   -4885.4017   -4550.8254   -4885.4017            0     1543.372    19.975003    19.895825    21.049031    8365.2883    1591.5919     3108.381   -69.856867   -62.610672    1659.6092   -1071.1887   -4362.5353 
15512000    177.54913    -4862.875   -4520.4565    -4862.875            0    1691.4912    20.202581    19.980926    20.767379    8383.0903    -296.5275    2275.4842    3095.5169   -319.98455    457.91021    333.15556   -4313.6569 
15513000    186.69876    -4883.135   -4523.0708    -4883.135            0    459.30043    20.119676    20.041331    20.977456    8458.6362    2053.9969   -69.948516   -606.14708    121.84967    2039.1151    1615.8919   -4466.4112 
15514000    179.70826   -4905.8298   -4559.2473   -4905.8298            0      2151.46    20.090922    19.949412    20.975768    8407.1317    1578.5894    3167.0765     1708.714   -562.37251    83.229357   -1115.2177   -4295.4581 
15515000    173.47447   -4893.5327   -4558.9726   -4893.5327            0    1159.9266    20.135935    20.035769    20.784427    8385.2471      1215.52    725.57738    1538.6823    -325.5991    1045.0406   -17.225754   -4417.1249 
15516000    173.46318   -4887.5547   -4553.0164   -4887.5547            0    2942.2424    19.983274    20.019906    20.984969    8395.3152    4628.5299    1457.0555     2741.142    296.74755   -216.78699   -352.77382   -4192.7769 
15517000     174.6139   -4886.5649   -4549.8073   -4886.5649            0    484.22546    20.126535    20.106363    20.782366    8410.0295   -268.97129    352.45445    1369.1932    557.77389    1607.7334   -407.93743   -4490.4162 
15518000    173.22946   -4901.4491   -4567.3615   -4901.4491            0    1807.4983    19.987895    19.944453    20.984702    8365.5016    3367.8381    220.96995    1833.6868   -287.67609   -298.43629    161.94105   -4346.8427 
15519000    167.79426   -4870.9953     -4547.39   -4870.9953            0    2955.9161    20.157461     20.15588    20.629753    8381.6908    1863.1367    3038.1789    3966.4329    162.41265    -30.50061     1031.291   -4186.0636 
15520000    171.09499   -4887.2036   -4557.2325   -4887.2036            0    1129.8305    20.045779    19.986066    21.034533    8427.1965    1968.1285    1071.1452     350.2177    22.449994    366.83539    25.091953   -4418.3741 
15521000    174.85507    -4909.514   -4572.2913    -4909.514            0    1504.0673    20.181017    20.178062    20.742358    8446.5749    1811.5287    406.56575    2294.1076    -99.55612    614.91575   -1323.6603   -4387.0134 
15522000    174.66912   -4888.0347   -4551.1706   -4888.0347            0    2257.6621    20.086471    19.981524    20.963715    8413.9612    2597.6612    2497.4006    1677.9246   -318.00216   -392.02734    117.16218   -4274.1352 
15523000    173.25176   -4896.9807   -4562.8501   -4896.9807            0    1646.8452    20.007753    19.966264    20.895864    8347.4812    1645.6082     1021.596    2273.3314    498.35245    506.45283   -735.81828   -4362.3641 
15524000     183.8383   -4869.7795   -4515.2318   -4869.7795            0     2296.619    20.085655    20.089773    20.726207     8363.361    1911.4993    2450.4885    2527.8692    362.58669    381.43929    742.71276   -4235.1108 
15525000    180.13781   -4872.9276   -4525.5167   -4872.9276            0      2399.18    20.098367    19.946641    21.101396     8459.442    2332.8879     2581.737    2282.9151   -332.50689   -27.026024    484.79527   -4229.5244 
15526000    185.71218   -4890.1754   -4532.0138   -4890.1754            0    496.07187    20.214755    20.082329    20.960281    8509.0223     247.9362    199.98112    1040.2983    550.34313    907.61252    685.42471   -4470.4536 
15527000    183.38349   -4883.2961   -4529.6256   -4883.2961            0    1558.1069    20.209629     20.06437    20.883879    8468.2765    636.23567    1533.2771    2504.8078   -424.13317    149.87028     340.8421   -4337.1976 
15528000    178.22709   -4903.2286   -4559.5027   -4903.2286            0    596.03799    20.115761    20.059699    20.975342    8463.8881    799.96905   -183.33086    1171.4758   -74.987643    1043.4194   -210.86648   -4485.9295 
15529000    177.57957   -4885.7188   -4543.2417   -4885.7188            0    2269.5246    20.141857     20.06409    20.717565    8372.5486    1599.4429    2593.2349     2615.896    97.442908   -1523.8661    142.31951   -4266.1213 
15530000    186.20887   -4897.9708   -4538.8513   -4897.9708            0    2730.9987     20.02973    19.934285    21.000266    8384.9518    4136.5773    2014.9687      2041.45    83.490469    422.60564    378.26901   -4204.8886 
15531000    182.19601   -4878.8955   -4527.5151   -4878.8955            0    3855.1861    20.062488    19.845145    21.051586    8381.5412    3753.8768    4419.6471    3392.0345   -687.95942     351.7106   -335.86345   -4056.2719 
15532000    169.40718   -4862.1361   -4535.4201   -4862.1361            0    1725.2736    20.245528    20.069585    20.645309    8388.5885    34.835536    2139.2538    3001.7313    312.93661    542.86475    1119.4803    -4324.352 
15533000    176.51557   -4886.9255   -4546.5003   -4886.9255            0    2042.0407    19.994751    19.947888    20.996238    8374.4139    3570.7738    1132.8096    1422.5387    171.98634    62.235688    1305.1818   -4297.1013 
15534000    173.82329   -4893.9199   -4558.6871   -4893.9199            0    1703.7381    20.082856    20.059356    20.742421    8356.0671    2290.7714    1152.5247    1667.9181   -718.59379   -500.54672   -231.73585   -4351.0616 
15535000    167.64276    -4912.089   -4588.7759    -4912.089            0     926.8119    20.092903     19.95168    21.025947    8429.0322    618.50647    1033.5751    1128.3542   -269.30934   -496.19998    253.14977    -4474.844 
15536000    173.40518    -4901.647   -4567.2206    -4901.647            0    2350.5625     20.16267    20.004691    20.526372    8279.2709    1339.7335    3380.7401     2331.214   -512.17112    128.39336   -1340.3793   -4283.4027 
15537000     178.0337   -4900.0155   -4556.6625   -4900.0155            0    1756.1617    20.018297    20.029368     21.00023    8420.1231    2995.3651    1277.1411    995.97884    44.660675   -337.54935    801.42092   -4341.0079 
15538000    181.70562   -4886.1709   -4535.7363   -4886.1709            0    3280.9648    20.065219    20.055478    20.648792    8309.4366    2290.2835    3568.4772    3984.1335   -580.47599     695.0101    1143.9812   -4138.1339 
15539000    170.76296   -4896.4113   -4567.0806   -4896.4113            0    2798.8509    20.004077    19.932848    20.895463    8331.8202    2953.0417    2750.6108    2692.9001   -91.690342    407.59969      880.692   -4226.9893 
15540000    170.96981   -4878.7585   -4549.0289   -4878.7585            0    1025.2755    19.971608    20.064789    21.039986    8431.2714    1538.3132    1904.2154   -366.70213    239.11492   -548.77877    795.85982   -4422.9595 
15541000     176.7486   -4886.7069   -4545.8324   -4886.7069            0    2056.8998    20.123825    20.156713    20.801715    8437.8034    2490.1672    890.67035    2789.8618   -1022.4115   -800.37928   -500.54028   -4292.7171 
15542000    173.73578   -4894.5477   -4559.4836   -4894.5477            0    2578.8469    20.097823    19.868082    20.983877    8378.9709    2345.6116    3024.2551    2366.6739   0.66041669   -1282.5625    86.178866   -4244.3519 
15543000    182.37303   -4888.0605   -4536.3388   -4888.0605            0    2952.9399    20.058121     19.84955    20.981236    8353.5675    2676.9515    4113.3391    2068.5292    8.9903132   -1251.0568    550.09718   -4176.5874 
15544000    173.57813   -4903.0134   -4568.2534   -4903.0134            0    93.390173    20.265156     19.99712    20.782494    8421.9966    358.06064   -781.48783    703.59771   -133.58435    568.62277   -393.08009   -4556.7827 
15545000    184.10185   -4924.4373   -4569.3814   -4924.4373            0     1518.289    20.018016    20.015058    20.993595    8411.3308    3018.7415    800.56448    735.56106    63.043161    477.91732   -510.04311   -4383.1319 
15546000    172.89667   -4896.4958     -4563.05   -4896.4958            0    1387.8702     20.06749    20.128982     20.81055    8406.1745    2836.9451    389.89881    936.76668   -111.04502   -417.79824   -343.83488   -4392.9035 
15547000    175.59105   -4894.5467   -4555.9046   -4894.5467            0    2985.6357    19.927433    20.022593    20.989039    8374.6029    3226.2145    2817.0449    2913.6476   -457.18777    712.08043    689.64268    -4191.254 
15548000    175.91854   -4906.1564   -4566.8827   -4906.1564            0    2670.6913    20.061256    19.902184    20.866928     8331.388    1400.9488    3554.1054    3057.0198   -185.50244    727.49423   -877.45014    -4242.381 
15549000    178.03229   -4882.4208   -4539.0705   -4882.4208            0    2869.2353    20.140715    19.970114    20.806241    8368.5278    1570.9689    4143.8478    2892.8892   -253.03605   -977.19095    459.67374   -4188.8907 
15550000    168.74597   -4894.0285   -4568.5877   -4894.0285            0    253.53582    20.052233    19.966769    21.038181    8423.2311    700.00854   -48.250734    108.84964   -417.04616   -709.85849    1185.4954   -4537.4423 
15551000    182.58596   -4855.8905   -4503.7581   -4855.8905            0    2810.2928    20.094827    20.054851     20.85435    8404.2769    966.90949    3845.0693    3618.8996    286.00822    1200.3488     1016.569   -4159.3068 
15552000    177.38411   -4910.0378   -4567.9376   -4910.0378            0     1341.613    19.971535    20.102137     21.00429    8432.6031    2461.1937    456.23918    1107.4063    51.925859   -90.383163    824.03966   -4402.9448 
15553000    176.08551   -4915.3096   -4575.7139   -4915.3096            0    2127.6198    19.969992     20.13016    20.827336    8372.5708    2487.5285    1325.9581    2569.3728   -424.89631    35.544409    829.44629   -4315.9201 
15554000     183.1895   -4884.4132   -4531.1169   -4884.4132            0     1870.292    19.871369    20.108346     20.88277    8344.3452    2464.8685    1832.5006     1313.507   -194.72797    605.43882    72.494545   -4303.5141 
15555000    177.99859   -4889.5489   -4546.2636   -4889.5489            0    2400.8252    19.937555    20.030675    20.806872     8309.488    2162.1295    2640.4546    2399.8914   -327.92404   -151.15377     325.0408   -4255.3188 
15556000    190.38539     -4888.28   -4521.1057     -4888.28            0    2947.4561     19.95851    20.040722    20.940653    8375.9041    4186.8665     2698.923    1956.5789   -176.90009    598.01923    25.823721   -4161.0622 
15557000    171.83994    -4905.167   -4573.7592    -4905.167            0    1879.0079    20.102245    20.134954    20.840822     8435.485    3047.1325     159.1487    2430.7425    245.61632    562.14653   -1437.6708   -4342.5982 
15558000    176.26191    -4891.876   -4551.9401    -4891.876            0    353.36038    20.033361    20.174583    21.177531    8559.2102    1023.0767     116.7595   -79.755022    -367.8972   -432.11074    196.44363   -4507.8311 
15559000    173.20571   -4892.4168    -4558.375   -4892.4168            0    2018.6318    20.078107    19.974872    20.863068    8367.2922    2525.3432    1780.1792    1750.3731    1104.4938    -455.1633     745.6041   -4312.0447 
15560000    174.53253   -4889.3497    -4552.749   -4889.3497            0     1891.283    20.154749    19.884351    21.009243    8419.7504    109.28069    3413.5825    2150.9859    325.17522    332.65823    91.786034   -4320.5119 
15561000    186.06046   -4905.8139   -4546.9806   -4905.8139            0    1322.2527    20.113141    20.046275    20.862928    8411.7977    919.27137    951.05896    2096.4278   -125.07132   -302.21428   -910.56512   -4384.7701 
15562000    186.70572   -4880.8213   -4520.7436   -4880.8213            0    1692.7283    20.039293    20.164757    20.923383    8454.8769    2318.5836    546.79108    2212.8103   -372.95823    305.12511    700.70802   -4312.0205 
15563000    182.40953    -4885.499   -4533.7069    -4885.499            0    2099.9922    19.889816    20.126187    20.993203    8403.7086    4032.2756    607.22661    1660.4743   -154.03914    444.86568    154.94832    -4276.333 
15564000    173.83509   -4880.0746    -4544.819   -4880.0746            0    2829.2087    19.854925    20.137445    20.757622    8299.4673    2174.1378    1846.4105    4467.0778   -194.62213    573.37135   -1143.1729   -4202.3738 
15565000    176.61941    -4898.447   -4557.8216    -4898.447            0    2768.5682    19.959943    20.104122    20.927147    8397.5853    4830.2031    744.21436    2731.2873    11.238017   -689.26021    692.45296   -4218.7546 
15566000    178.16053   -4867.2108   -4523.6132   -4867.2108            0    2540.7078    19.886708    20.270752    20.809824    8388.8257    2410.6407    2762.4498    2449.0328   -125.10986    317.10514    64.409514   -4212.7769 
15567000    170.29177   -4890.5345   -4562.1125   -4890.5345            0    2597.5764     19.93102    20.068992    20.856971     8342.694    4290.7689    942.12457    2559.8356   -223.71192   -41.635757   -177.13988   -4246.0663 
15568000    180.15341   -4896.0177   -4548.5767   -4896.0177            0    2104.7606    19.956668    19.910715     21.02817    8355.5757    1943.4504    3126.2253    1244.6062   -168.84973    973.26289    283.52974   -4292.0959 
15569000    174.38011   -4912.2465   -4575.9397   -4912.2465            0    2394.2427    20.031162    19.922239    21.021089    8388.7932    2190.9951    2662.7586    2328.9742   -708.13002   -420.68179    318.24712   -4283.0234 
15570000     176.8042   -4884.9137    -4543.932   -4884.9137            0    1640.0151    20.209623    20.059417    20.767357    8418.9468    1930.8019    1302.6789    1686.5647    435.07229    437.90539   -829.28112   -4342.5681 
15571000    182.95245   -4897.6583   -4544.8191   -4897.6583            0    2094.6612    19.949198     19.97557    20.971491    8357.0674    3021.9189    1750.9619    1511.1029    -716.7991    935.58918   -120.07706   -4289.5234 
15572000    183.63977   -4865.8355   -4511.6707   -4865.8355            0    1776.2153    20.006338    20.186729     20.89612    8439.1598    1787.5356    1386.7159    2154.3945   -177.27525   -450.99693    268.73099   -4293.0604 
15573000     169.7074     -4901.56    -4574.265     -4901.56            0    2884.2138    19.873964    20.028849    20.972608    8348.2015    2555.7142    3036.9514    3059.9758   -286.22113   -585.77469     380.1471   -4223.1121 
15574000    172.48881   -4900.4875   -4567.8283   -4900.4875            0    1834.8555    19.977281    19.993537     20.94577    8366.0859    1433.7767    1908.8071    2161.9829    212.38004   -315.12296    -118.3646   -4343.9562 
15575000    169.24301   -4885.4904    -4559.091   -4885.4904            0    2597.6693    20.127367    20.081782    20.534914    8300.0768    826.75615    3107.6749    3858.5768   -32.793512   -645.46276    -4.123348    -4244.648 
15576000      174.055   -4889.5668   -4553.8871   -4889.5668            0    1149.4442    20.007133    20.093779    20.977551    8433.3721    829.55576     2063.448    555.32873   -13.287788   -147.51555   -421.54586   -4412.5145 
15577000     172.5152   -4913.3155   -4580.6054   -4913.3155            0    1532.0189    20.230808    19.957697    20.835758    8412.6525    1458.3403    1127.3794     2010.337   -368.65199    435.50286    60.746615   -4392.6421 
15578000     185.1285   -4884.1866   -4527.1507   -4884.1866            0    2130.5089    20.060729    19.965685    20.913083    8376.2377    2212.8075    2510.5155    1668.2037    236.54185    273.95532    161.80322   -4266.8902 
15579000    169.17627   -4890.0052   -4563.7345   -4890.0052            0    2216.9159    20.033389    19.961609    20.913135    8363.1349    3908.2959    930.04674    1812.4052   -280.88772    133.10271    732.74143   -4293.3423 
15580000    182.19029   -4889.2512   -4537.8819   -4889.2512            0    1000.8357    20.057504    20.151659    20.978181    8479.2123    1553.2319    786.30231     662.9729   -122.12076   -821.47751   -235.27726   -4414.1179 
15581000    177.86695   -4884.9014     -4541.87   -4884.9014            0    2712.3524    19.971737     19.96123    21.032948    8385.0041    3273.8299    3435.5166    1427.7105   -325.44301    626.78579    220.08323   -4210.1855 
15582000    168.95175   -4893.9251   -4568.0875   -4893.9251            0    1308.7373    20.134455    20.148409    20.763969    8423.4694     407.1401     1401.205    2117.8667    388.83038    723.21538   -248.25317   -4407.3122 
15583000    168.57373   -4868.0007   -4542.8921   -4868.0007            0    2067.5725    20.110508    19.941721    21.020159    8429.8855     1437.249    2894.8815    1870.5871    10.118752   -582.30754   -1630.8775   -4288.7021 
15584000    186.22093   -4883.6092   -4524.4665   -4883.6092            0    2189.0384     20.16475    19.905808     20.84056    8365.3099    612.22055    3480.8034    2474.0912    602.96518    3.5287838    81.240624    -4257.405 
15585000    175.93375   -4900.6261   -4561.3231   -4900.6261            0    900.68296    20.159514    19.965523    21.019849    8460.3889     1347.243    821.01772    533.78819    74.533862   -538.35285   -362.17847   -4450.1914 
15586000    164.12155   -4873.4947   -4556.9725   -4873.4947            0    685.23794    20.174884    20.128059       20.779    8437.9624    1049.1299    426.10921    580.47477   -517.89738    439.04332    -714.8088   -4472.6477 
15587000    173.07667   -4894.0675   -4560.2746   -4894.0675            0    2517.7479     20.08941    19.935711    21.008667    8413.9011    3021.5551    2642.8715    1888.8172    553.93449    80.085385    609.07551   -4251.3265 
15588000    176.70555   -4888.1577   -4547.3662   -4888.1577            0    2116.4745    20.205841    19.878968    20.935443    8409.1663    2105.7082    2465.4653    1778.2501    73.700474    364.48339    1549.4054   -4287.8037 
15589000    174.51573   -4922.0498   -4585.4816   -4922.0498            0    2766.7776    20.111921    19.971394    20.822707     8363.713    2886.9992    3232.8455    2180.4881   -451.43044   -571.56229    578.65964   -4248.0006 
15590000    170.67043   -4884.7506   -4555.5983   -4884.7506            0    1144.5073    19.959915    20.022225    21.079673    8424.3205    1400.6127     1408.745    624.16413   -601.76102    1324.8693    -113.5888   -4414.9841 
15591000    165.38716   -4882.3391   -4563.3761   -4882.3391            0    1471.2374    20.055705    20.100506    20.862681    8410.3689    1675.0477    909.48762    1829.1769   -1.6482827   -1044.3726   -221.54491   -4382.9191 
15592000    179.08753   -4902.1728   -4556.7874   -4902.1728            0    2303.9072    20.045814    20.077416    21.048811    8471.4763    2242.4056    3063.7262    1605.5897    577.57726   -91.632866   -536.23792   -4272.1447 
15593000    176.48031    -4873.927   -4533.5699    -4873.927            0    2135.3119    20.010356    20.085871    20.897337    8399.1709    1760.4972     2723.958    1921.4804   -451.48807    1016.1075   -111.32049   -4272.0085 
15594000    180.68366   -4895.0644   -4546.6008   -4895.0644            0    2447.1105    20.105082    19.972722    20.918008    8399.6932     1573.153    2972.4871    2795.6914   -194.86028    1205.3367     1135.047   -4246.8275 
15595000    170.01945   -4906.5667   -4578.6699   -4906.5667            0     978.4435    20.052866      20.0426    20.897116    8398.7928    380.87777    418.42009    2136.0326    767.18692    356.05983    956.97679   -4458.8225 
15596000    176.56143   -4884.0465    -4543.533   -4884.0465            0    2129.0144    20.042944    19.895229    21.153601    8435.1878    1920.8746    2522.8249    1943.3438   -14.905166     1107.672   -35.221839   -4281.6247 
15597000    182.90276   -4909.1872   -4556.4438   -4909.1872            0    1795.0044    20.068902    20.052934    20.820555    8379.0323     241.2964    2223.9843    2919.7324   -255.02397    844.32275    265.91349    -4337.095 
15598000    178.36418   -4898.8336   -4554.8433   -4898.8336            0    2159.4063    19.956265    20.042465    21.004844    8401.3654    974.29564    3743.9032    1760.0201   -77.102492    44.565394    1272.7498   -4290.2614 
15599000    171.15516   -4885.3913   -4555.3042   -4885.3913            0    2453.3685     20.08322    20.214848     20.68782    8398.8254    2087.5693    1878.7148    3393.8215   -329.82475    517.28323   -600.18227   -4254.7954 
15600000    169.96724   -4881.4925   -4553.6964   -4881.4925            0    1555.3686    19.971519    20.110536    20.944693    8412.1838    2909.4164    526.03353    1230.6561   -382.67187    1677.9809    1522.3945    -4362.879 
15601000    165.46949    -4899.953   -4580.8312    -4899.953            0    1435.8973    19.883807    20.095757    20.965667    8377.4646      2739.36    302.98482    1265.3469   -221.90826    138.96962   -331.80695   -4405.3979 
15602000     177.1485   -4890.8892   -4549.2434   -4890.8892            0     1356.736    20.066671    20.062799    20.837826    8389.1748    1772.1168    1258.6912    1039.3999   -406.53517   -12.652273   -369.57791   -4383.2501 
15603000    178.88568   -4885.0617   -4540.0656   -4885.0617            0    1991.7362    19.985786    19.959658    21.147249    8435.8375    1157.0015    3106.7196    1711.4876    -121.7859    -276.3498   -266.41539   -4295.0262 
15604000    185.28615   -4896.2256   -4538.8857   -4896.2256            0    1390.5958    19.991222    20.065526     20.94583    8402.0931    2004.6788   -45.764005    2212.8725   -103.44989   -648.88421    233.57314   -4368.4878 
15605000    188.31955   -4883.7839   -4520.5938   -4883.7839            0    736.85673     20.02517    20.093504    21.024914    8459.9174     814.8888    1268.7973    126.88407   -257.45824   -141.28076   -1330.5833    -4429.681 
15606000    173.57751   -4903.9997   -4569.2409   -4903.9997            0    1393.4446    20.067553    20.134759     20.69379    8361.4366    1881.0635    206.98629    2092.2841    205.10068    1202.7322   -25.381043   -4399.3201 
15607000    180.85809   -4894.6011    -4545.801   -4894.6011            0    2513.4211    19.882337    20.020041    21.046021    8377.2675    3044.1224      2824.69    1671.4507    227.39653    717.65131   -537.55859   -4238.7267 
15608000    174.12535   -4870.7084   -4534.8931   -4870.7084            0    1793.6043    20.077063    20.074061    20.797279    8381.8897    1481.9688    1880.0159    2018.8281   -469.68108    321.57737    535.64818   -4315.6406 
15609000    182.87356   -4903.3226   -4550.6356   -4903.3226            0    2668.2241    19.971979    19.943171    21.103014    8405.4272    3288.3283    2613.8273    2102.5165    273.41834   -497.23116    928.92813   -4223.5526 
15610000    182.26866   -4887.9978   -4536.4774   -4887.9978            0    2900.7426    20.045784    20.060522    20.856131    8386.8528     2999.483    3724.1699     1978.575    78.057962     268.0495    707.12704    -4181.677 
15611000    187.60458   -4891.7222    -4529.911   -4891.7222            0    2743.4224    20.006097    20.073204    20.966133    8419.7152    3319.0072     2627.136    2284.1241   -858.11807     987.7642    545.43816   -4193.0382 
15612000     175.0502   -4878.2006   -4540.6015   -4878.2006            0    1935.2557    20.043085     20.02129    20.913474     8392.335     2813.679    950.83644    2041.2515   -393.44874   -458.80178   -389.49108   -4303.7386 
15613000    179.17654   -4913.9499   -4568.3929   -4913.9499            0    2418.8563    20.075051    20.002822    20.945037    8410.6403    3252.1981    1565.3768    2438.9939    34.911501    289.13069    266.65162   -4271.6946 
15614000    172.71543   -4877.8598   -4544.7635   -4877.8598            0    686.88888    20.024996    20.146211    21.025854    8482.4139    1619.5549    987.38752    -546.2758    378.04863    1050.4795    168.98157   -4459.7904 
15615000    170.97375   -4886.4404   -4556.7032   -4886.4404            0    462.77999    19.985246    20.239705    20.986936    8489.1208    3666.3027   -3443.0386    1165.0759    -284.4617    725.24586   -1131.4308   -4499.4086 
15616000     168.5299   -4895.6954   -4570.6713   -4895.6954            0    1556.2842    19.997541    20.110404    20.924194    8414.8449    2144.9255    1200.5288    1323.3984   -368.95397    1287.9442    -899.9373   -4379.6812 
15617000     168.2496    -4892.317   -4567.8335    -4892.317            0    2404.5769    20.043813    19.973793    20.916671    8374.0093    2978.2729    1868.9288    2366.5289    575.84125    460.65009    631.82203   -4274.1714 
15618000    177.55821   -4906.5991   -4564.1631   -4906.5991            0    1501.2021    20.038482    20.052072    20.932989    8411.1484    1400.8288    1430.6307    1672.1467    176.61404    1045.1154   -239.93176   -4380.0137 
15619000    176.97643   -4910.2003   -4568.8864   -4910.2003            0    1172.2026    20.170529    19.967427    20.769529    8365.0018    580.84187    1437.6229     1498.143    215.17014    232.52202   -1154.6187   -4425.8835 
15620000    182.52843   -4898.9011   -4546.8797   -4898.9011            0    1751.1676    20.033159    19.951754     21.04132    8410.1453    1958.6666    1937.3044    1357.5317   -771.34493   -252.46737   -953.28744   -4332.0931 
15621000    170.40346   -4902.1311   -4573.4937   -4902.1311            0    1866.6643    20.091332    20.112453    20.868417    8432.6341    1486.7964    1129.5739    2983.6227   -117.30231    1149.0026    253.84573   -4343.9289 
15622000    181.70641   -4879.1434   -4528.7073   -4879.1434            0    710.07738    20.198015    20.046147    21.014775    8508.7222   -357.38749     1072.857    1414.7626   -108.12683   -120.62201    423.44036   -4440.5931 
15623000    180.45907   -4896.2284   -4548.1979   -4896.2284            0    1986.1941    20.136843    20.059854    20.718096    8368.9115    4476.8855   -1194.6205    2676.3173   -46.581483   -485.05539    -641.5695    -4305.779 
15624000    170.01054   -4871.8629   -4543.9833   -4871.8629            0    1354.8788    19.917882    20.143811     20.96905    8413.2455    2265.7586    981.19612    817.68165   -298.57792   -136.74615   -67.311305   -4377.7416 
15625000    182.87212   -4886.2504   -4533.5662   -4886.2504            0    2012.2628    19.926495    20.105227    20.957329    8396.0656    2605.5258    439.65678    2991.6059   -475.74159   -499.34153   -257.78105   -4287.1686 
15626000    170.65994   -4903.0681   -4573.9361   -4903.0681            0    2807.9143     19.90711     20.13835    20.757929    8321.7782    3716.1831    1392.6047    3314.9551   -49.938182    1138.4936   -334.21721   -4233.1547 
15627000     182.2026   -4909.2076   -4557.8145   -4909.2076            0    2085.1845    19.945506     19.99836    21.112371    8421.2481    2681.4328    2368.0068    1206.1139   -718.53953   -41.666998    398.94751    -4301.722 
15628000    171.64922   -4892.3317   -4561.2918   -4892.3317            0    2130.6944    20.038958     20.10641    20.826675    8391.3071    2431.3955    1479.1998    2481.4878    86.699319   -566.40161    128.15232   -4300.5404 
15629000    183.35331   -4873.2432    -4519.631   -4873.2432            0    1439.6581    19.915504    20.021269    21.142791    8430.3425    2810.8095    992.84708    515.31759    427.69826    -240.8576   -266.12237    -4342.628 
15630000    168.81693   -4902.3914   -4576.8138   -4902.3914            0    2022.2122    20.058317     20.09027    20.728536    8353.1234    1812.6229    1873.2347    2380.7789   -36.255675     -661.269    201.93178   -4330.4644 
15631000    170.65907   -4907.9011   -4578.7707   -4907.9011            0    2514.8002    19.954746    19.898877      21.1308    8390.5554    3488.2928     2802.641    1253.4669   -97.035162   -345.03564    124.43312   -4271.0405 
15632000    188.97344   -4893.2541   -4528.8029   -4893.2541            0    2023.7066    20.112316    20.081738    20.739393    8376.4389    1574.5562    2770.7905    1725.7731   -3.6493977    -356.3518   -710.67805   -4281.5833 
15633000    181.28286   -4878.2269   -4528.6076   -4878.2269            0    3524.7118     19.97923    19.972767    21.012351    8384.7792    3586.2545    3934.0844    3053.7965    302.98681    1181.5782   -358.99169   -4097.5939 
15634000    173.85113   -4901.0571   -4565.7706   -4901.0571            0    1538.5411    20.151189    20.016123      20.8295     8401.551    880.85979    1499.6859    2235.0777   -54.778275   -303.82933    537.16427   -4377.2562 
15635000     176.9161   -4893.8151   -4552.6175   -4893.8151            0     2084.581    19.932924    19.907769    21.133857    8386.3381    2735.5735    2101.5791    1416.5905   -641.06357     117.7103    838.36953   -4297.6605 
15636000    177.65073   -4888.9045   -4546.2902   -4888.9045            0    1206.6396     20.15656    20.111946    20.738416    8407.0976    1397.4164    546.38678    1676.1157   -149.49473   -200.57462   -83.806439   -4398.3454 
15637000     169.6314    -4891.469   -4564.3206    -4891.469            0    1450.6159    20.105881    20.008837    21.077718    8479.4668    1263.6919     2658.407    429.74862    -543.2906   -477.35648    17.258057   -4384.9312 
15638000    176.52142   -4899.7082   -4559.2718   -4899.7082            0     2185.376    20.162083     19.98194    20.825112    8389.9701    1890.1295    3001.2169    1664.7816   -436.60689    413.42723   -92.738463   -4291.8712 
15639000    171.87693   -4913.9691     -4582.49   -4913.9691            0    1386.8174    20.157855    20.083839    20.836853    8435.7401    629.33661     2042.719    1488.3966   -289.75883    108.53034    209.14841   -4411.8746 
15640000    181.48513   -4894.6366   -4544.6273   -4894.6366            0    1340.5107    20.131884    19.963733    20.984141    8433.6848    1059.7316    1376.7104      1585.09   -444.90312    326.73697    1097.8344   -4379.7489 
15641000    174.91127   -4894.7877   -4557.4566   -4894.7877            0    1075.5004    20.031213    20.086793    20.881955    8402.1222    964.48859    1340.3779     921.6348     714.1719    1100.0161   -398.31016   -4425.6687 
15642000    172.78154   -4885.5695   -4552.3457   -4885.5695            0    3509.7796     19.96883    20.010548    20.922707    8360.4464    4676.3336    2675.6558    3177.3494    247.21885    199.15908    -371.9985   -4124.4034 
15643000    166.71366   -4884.6841   -4563.1628   -4884.6841            0    1091.0791    19.994677    20.214635    20.892671    8444.5063    1505.3449    682.80989    1085.0827     301.9332    470.06099    465.65913   -4428.7915 
15644000     168.7181   -4872.9811   -4547.5941   -4872.9811            0    3296.6073    20.015667    19.952878    20.922992    8356.0185    3645.1136    3397.9284    2846.7798   -68.307405   -309.45915   -741.26596   -4145.8564 
15645000    174.51477   -4892.9249   -4556.3585   -4892.9249            0    1748.5928    20.176229    20.023725    20.715972    8369.3199    1224.0378    1305.8785    2715.8621     93.90581    1486.8502   -561.61735   -4342.9288 
15646000    177.34695   -4910.3931   -4568.3645   -4910.3931            0    1169.3002    20.183187    19.910344     20.99007    8434.9474    958.29903    1726.6475    822.95417   -93.984394    726.57938    290.38419    -4424.523 
15647000    174.81039   -4913.9107   -4576.7741   -4913.9107            0    1185.6886    20.215269    19.997734    20.813788    8414.1729    1415.0863    634.82209    1507.1573   -284.08887   -329.93118    771.41222   -4431.2758 
15648000    181.64514   -4914.5926   -4564.2747   -4914.5926            0    1873.2396    20.089177    19.874869    21.005029    8386.6731    1712.9374    2652.7279    1254.0534   -3.8708603     405.3916    877.19149   -4335.1568 
15649000    182.71035   -4889.8056   -4537.4334   -4889.8056            0    413.52326    20.398627     19.94939    20.803705    8465.8627   -553.83168    88.999237    1705.4022    254.94268   -28.199662    -966.4344   -4486.3773 
15650000    171.30996   -4888.5769   -4558.1912   -4888.5769            0    970.06862    20.083583    20.010722    20.892378     8396.375    1099.2252       1506.3    304.68064    5.0144563    1196.0592    217.34918   -4439.4038 
15651000    183.13428   -4878.7889   -4525.5991   -4878.7889            0    1371.0272    20.035385    19.951469    21.183192    8467.6705    2167.6831    2293.9567   -348.55805   -555.45365    1298.6828    468.08462   -4356.2878 
15652000    174.69269   -4877.3597   -4540.4501   -4877.3597            0    973.83076    20.192825    20.017222    20.854812    8429.6039    556.10008    1207.9024    1157.4898    385.17185     1224.467    382.08059   -4420.7302 
15653000    169.94227   -4881.9262   -4554.1782   -4881.9262            0    180.54456    20.183519    20.022666    21.084422    8520.8024    732.24005   -1561.2046    1370.5982    -557.9999    -934.8529    235.95514   -4531.7424 
15654000    168.73451   -4878.2378   -4552.8191   -4878.2378            0    1626.4515    20.159549    20.077822    20.770993     8407.264     1159.048    2214.6835    1505.6231     -276.432       125.92    1278.0377   -4353.3978 
15655000    183.31923   -4905.8519   -4552.3053   -4905.8519            0     1095.191    19.838056    20.090161     21.06589    8395.8049    1017.5932    2187.3107    80.669074   -125.88503    277.89859    -124.1211   -4418.2056 
15656000    172.35836   -4895.0627   -4562.6551   -4895.0627            0    1928.4101    20.038987    20.043877    20.842883    8371.7313     4285.703   -341.18707    1840.7144    90.375426   -479.05406    -58.22577   -4327.2095 
15657000     180.5839   -4894.0136   -4545.7424   -4894.0136            0     1419.643    20.099721    19.918584    21.002785    8408.6326    1988.6122    602.01762    1668.2993   -492.14798   -1472.0682   -95.386312   -4371.6498 
15658000    172.78138   -4908.4717   -4575.2483   -4908.4717            0    2916.4055    20.079164    19.918493     20.90839    8362.2416    2704.3974    3672.5247    2372.2944   -194.62505    343.29702    492.93288   -4219.5789 
15659000    177.30366   -4907.4158   -4565.4708   -4907.4158            0     1502.974    20.213156     19.94496    20.792005     8382.309   -43.763392    2646.5316    1906.1538   -110.36114   -368.55775     334.0234   -4381.7362 
15660000    175.22758   -4885.9761   -4548.0349   -4885.9761            0     862.5469    20.130923     19.92744    21.212023    8509.3678    691.33854    2211.5978   -315.29563   -902.65561    222.71832   -427.17695   -4440.9925 
15661000    165.33088   -4881.8991   -4563.0446   -4881.8991            0    517.13013    20.095729    20.183419    20.787725    8431.5116    381.92308   -1169.5723    2339.0397    256.69446    969.89286    16.245621   -4499.4557 
15662000    165.55522   -4862.5423   -4543.2551   -4862.5423            0    2421.7213     19.98028    20.008694    20.907497    8358.3845    2617.0753    3269.2161    1378.8726    -358.1501    921.98449   -125.79102    -4248.051 
15663000    176.54208   -4884.0353    -4543.559   -4884.0353            0    3412.6433    20.040015    20.032323    20.811762    8354.8413    3598.5789    3131.5568    3507.7941   -241.61999    718.19974   -657.91138   -4127.7394 
15664000    170.36115   -4888.9741   -4560.4183   -4888.9741            0    1752.0193    20.171416    19.974236    20.952134    8441.7954   -57.274524    2888.6359    2424.6966    282.89823   -428.73405   -674.84299   -4344.7185 
15665000     171.4808   -4882.2403   -4551.5252   -4882.2403            0    1452.0529    20.253369    20.157477    20.628244    8421.6215    1920.5919    -402.4691     2838.036   -23.306752    51.851634   -646.67032    -4373.183 
15666000    176.59765   -4883.9937   -4543.4103   -4883.9937            0    2053.8373    20.048248    19.879249    21.003874    8370.9702    2206.3998    2010.5013    1944.6107   -249.95019   -160.14949   -756.52778   -4292.6737 
15667000    181.14011    -4896.803   -4547.4591    -4896.803            0     3531.592    20.105688    19.841715    20.814191    8303.4333    2714.6056    3822.0486    4058.1217    174.48658    1207.4303    606.13565   -4119.7937 
15668000    175.97326    -4864.756   -4525.3768    -4864.756            0     1434.659    20.081773    19.993605    21.013317     8436.995    1392.5708    1157.7263    1753.6798   -42.644913    86.391446    51.691563   -4348.8493 
15669000    184.98843   -4885.6176   -4528.8518   -4885.6176            0    1184.5867    20.015468     20.18659    20.752233     8384.816    1719.9599    413.61196    1420.1881    208.25898   -814.13597   -266.11333   -4383.9959 
15670000    180.65436   -4889.7288   -4541.3217   -4889.7288            0    1727.2546     19.90509     20.03218    21.056313    8396.0435    2151.1952    1123.3772    1907.1914    250.67758   -284.53112    1188.5285   -4329.8233 
15671000    174.70638   -4874.9559   -4538.0199   -4874.9559            0    1016.7783    20.131226    20.064871    20.856461    8424.5597    702.37922    1056.9809    1290.9747    288.93619   -567.72344   -446.85563   -4413.0949 
15672000    174.03885   -4896.2712   -4560.6226   -4896.2712            0    660.06556    20.000436    20.148238    20.998916    8462.0074   -1017.4565    2102.5891    895.06411   -540.32789   -272.95706   -1156.7545   -4479.1641 
15673000    165.13974   -4886.6378   -4568.1519   -4886.6378            0    1802.2634    19.985111    20.197992    20.897406    8435.4286    3700.4384   -95.641695    1801.9936    671.85145    844.61524   -994.02501   -4346.4337 
15674000    175.61364   -4888.1696   -4549.4839   -4888.1696            0    2086.8758    20.066278    20.142295    20.902271    8448.2984    2065.2127    2057.8418    2137.5729   -33.191555    598.37029   -989.61122   -4292.3604 
15675000    177.62483   -4898.7745     -4556.21   -4898.7745            0    1750.1046    19.997293     20.07166    20.961705    8413.5855    1668.5741    2168.1718     1413.568   -940.41436    701.12981   -215.59529    -4341.466 
15676000    171.68805   -4898.3984   -4567.2835   -4898.3984            0    2725.1642    19.990721    20.040132    20.877385    8363.8286    2385.9887    2857.2325    2932.2715    452.79996    36.659302    492.37425   -4234.8738 
15677000    173.38589   -4884.7416   -4550.3524   -4884.7416            0    1195.4641    20.077568    20.186387    20.794385    8427.8307    1036.3696    610.94521    1939.0777   -583.04061   -74.623933   -515.73268   -4403.4164 
15678000    176.32729   -4894.3716   -4554.3096   -4894.3716            0    2125.1201    20.058186    20.041196    20.910305    8405.7343    1716.2173    2823.1073    1836.0358    152.63707    457.76005   -527.23744   -4293.7932 
15679000     174.3416    -4871.782   -4535.5496    -4871.782            0     1806.946    20.124095    20.035314    20.869003    8414.2264    301.65724    2636.9678     2482.213    42.636131    1194.4665      -654.67    -4313.814 
15680000    176.72443   -4884.9804   -4544.1525   -4884.9804            0    1211.6256    20.127723    20.024938    21.023793    8473.7742    918.04399     1333.803    1383.0298   -1191.9109    1225.0505   -790.05974   -4394.4182 
15681000    176.06315   -4899.1599   -4559.6073   -4899.1599            0    1077.0213    20.270917     19.94717    20.953126    8472.3425    435.89158     1708.069    1087.1033   -622.96785   -7.1512092   -173.96477   -4426.5301 
15682000    170.04298   -4880.6282    -4552.686   -4880.6282            0    1580.5063     20.09198    19.815707    21.187608    8435.5661   -126.47936    3614.3343    1253.6638    428.65527   -334.03025   -567.50034   -4358.2457 
15683000    166.11682   -4894.1142   -4573.7439   -4894.1142            0    637.25587    20.078747    20.265968    20.730572    8435.5861   -2.3907265    355.05581    1559.1025    496.49288    719.34438     -336.381   -4495.3459 
15684000     171.6113   -4902.0012   -4571.0343   -4902.0012            0    3365.0671    19.955535    19.968996    21.052157     8389.116    3592.5517    3392.7543    3109.8954     268.5799    365.35091    171.59236   -4159.3296 
15685000     183.0898   -4887.7686   -4534.6645   -4887.7686            0    2393.8295    20.094814    20.205277    20.726684    8415.4751    1168.1972    2336.6664    3676.6249     11.43763   -53.132198    563.77588   -4240.8673 
15686000    180.69629   -4878.4485   -4529.9605   -4878.4485            0    3423.7016    19.986846    19.944526    20.985022    8365.2208    2532.5899    4495.9459    3242.5692    427.33642   -1700.8768   -132.83642   -4112.2751 
15687000    166.76099    -4887.163   -4565.5504    -4887.163            0    3413.8453    19.827432    20.219933    20.848086    8358.1929    3878.5042    2392.9966    3970.0351    167.95273   -1596.4192   -706.76493   -4149.4175 
15688000    179.56352   -4886.6509   -4540.3476   -4886.6509            0    2547.9359    19.892206    20.156913    20.853061    8361.3574     1694.255    3024.2002    2925.3525    166.82755    417.75486   -6.6581322   -4229.6476 
15689000    169.86472   -4896.6667   -4569.0683   -4896.6667            0    1552.0889    19.884576    20.277537    20.741515     8363.191    1647.6855    1162.9602    1845.6211   -5.2837716    2.2674195    1058.9365   -4379.7623 
15690000    179.20403   -4866.5302   -4520.9202   -4866.5302            0    3891.2353    19.792407    20.119536    20.990802     8358.832    3832.3101    4941.9777    2899.4181   -160.16655    627.10258      120.788   -4046.5592 
15691000      178.553   -4894.3344   -4549.9799   -4894.3344            0    2385.2013    19.923119    20.155526    20.822413    8361.4676    3426.8902     2007.169    1721.5448   -185.33231     400.0738   -246.08223   -4259.1203 
15692000    169.17577    -4870.005   -4543.7353    -4870.005            0    1736.6183    19.995407    20.154588    20.896238    8421.1669    2473.6925     1168.747    1567.4155    312.27614     -267.174    382.83354   -4330.4541 
15693000     176.4236   -4887.9954   -4547.7477   -4887.9954            0    868.06404    20.005303    20.089412    20.928956    8411.2381    974.82494    706.82414    922.54303    -239.4805    740.94779   -1790.4476   -4441.2629 
15694000    185.45425   -4893.1952   -4535.5311   -4893.1952            0    1696.4254    20.058245    20.041107    20.973963    8431.3118    1478.0182    2195.4634    1415.7946   -306.75661    392.31368   -1089.7026   -4326.9352 
15695000    170.94388   -4882.0749   -4552.3952   -4882.0749            0    981.58962    20.168384    20.044734    20.822625    8417.9599    1222.1735    1326.1738    396.42159   -479.39002    882.86716   -316.44107   -4431.8881 
15696000    178.15982   -4899.0759   -4555.4797   -4899.0759            0     987.1442    20.060502    20.029251    20.928022    8408.8129     1652.619    879.35447     429.4591   -47.950411   -168.95891   -299.45458   -4434.4223 
15697000    171.11936   -4883.7067   -4553.6886   -4883.7067            0    974.45975    19.981583     20.13308    20.932582    8420.9852    1326.8218    165.34793    1431.2096   -196.59817   -605.62087   -1105.7378   -4434.0138 
15698000    174.14969   -4883.1356   -4547.2733   -4883.1356            0    1888.4183    20.004454    20.111209     20.79273     8365.201    3054.7813    608.47936    2001.9942    73.191765   -1485.5397   -185.32214   -4316.8902 
15699000    180.70727   -4884.0738   -4535.5646   -4884.0738            0    1920.5509    20.040753    20.075768    20.901528    8409.3848    2614.4843    1405.1835     1741.985    231.67506    342.12072    467.99553   -4300.0239 
15700000    169.73195   -4886.3575   -4559.0152   -4886.3575            0    1122.4915     20.15748    20.007688    20.861976    8413.7303    796.40251    700.94239    1870.1297   -109.73837   -399.70335    275.00399   -4421.2792 
15701000    170.58527   -4885.3759   -4556.3878   -4885.3759            0    738.27221    19.999701    19.992847    20.997305    8395.7925    2554.0473    219.47526   -558.70598   -8.3652935    1470.6258     -355.202   -4465.9908 
15702000    177.66085    -4893.377   -4550.7431    -4893.377            0      1291.15    20.076989     20.09298    20.932188    8444.1814    1551.0126    780.98651     1541.451    469.65451    344.36832    134.20871   -4391.7384 
15703000    168.34689    -4891.962   -4567.2909    -4891.962            0    1754.8925    20.035928     20.00823    20.984937    8412.5139    312.85828    3101.7018    1850.1174   -4.0565693   -234.68149    1937.8641   -4351.9869 
15704000    175.64431   -4906.6742   -4567.9294   -4906.6742            0    2202.1844    20.056194    19.927243     20.95695    8375.7524    2285.0308    2669.5351    1651.9874    79.299278   -421.06129    1407.9755   -4298.9287 
15705000    173.43252   -4908.5382    -4574.059   -4908.5382            0      2189.92    20.187869    19.929291     20.82816    8379.7918    2089.3289    1559.6566    2920.7745    7.6836396     196.6585   -575.09846   -4306.4274 
15706000    171.65209   -4900.7905    -4569.745   -4900.7905            0    801.38621     20.12865    19.957335    21.058727    8459.5899    1693.7355     273.9076    436.51554   -358.99553    -104.6068    198.81744   -4470.8744 
15707000    174.03011   -4890.7319   -4555.1002   -4890.7319            0    2052.0971    20.172088    20.148265    20.680194    8405.1048    2651.4764    846.53522    2658.2795   -758.21888     1433.073    855.18579   -4303.5545 
15708000    178.33392   -4886.5372   -4542.6053   -4886.5372            0    1174.5528    20.021804    20.030159     20.95653     8404.405   -469.47278     2869.703    1123.4281   -375.67564    588.76423    11.541789   -4398.6408 
15709000    167.80861   -4877.9705   -4554.3375   -4877.9705            0    2164.1432    20.076175    19.973148     21.00061    8420.9172    2937.7429    2232.4229    1322.2638   -354.91738   -49.914422   -993.46233   -4288.5581 
15710000    185.24111   -4890.2362   -4532.9831   -4890.2362            0    1518.9483    20.112693     20.14392    20.811222    8431.6348    2641.7735    74.830074    1840.2412     328.9621     524.8162    472.11788    -4346.203 
15711000    174.42869   -4887.5167   -4551.1163   -4887.5167            0    608.23045    20.128751    20.064014    20.983316    8474.3961    432.41885    711.82296    680.44952    367.87232   -471.74253    1788.3298   -4475.9449 
15712000    179.08656   -4896.5579   -4551.1744   -4896.5579            0    1370.5885    20.072574    20.019252    21.087154     8473.618    3292.8243    350.21782    468.72323    -20.71392    319.92567    491.99074   -4381.7984 
15713000    182.89733   -4882.0743   -4529.3415   -4882.0743            0     4155.947    20.192398    19.910009    20.539046    8257.3294    4688.6691     2983.934     4795.238    -104.8278   -539.44885    -380.1167   -4028.8629 
15714000    176.91144   -4885.1033   -4543.9147   -4885.1033            0    2742.5923    20.140518    19.775726    20.985435    8358.3599    766.59199    4857.7288    2603.4562    68.743241    31.503799   -501.28903   -4209.5979 
15715000     174.0199   -4915.1996   -4579.5876   -4915.1996            0    2924.5163    20.209517    20.026248    20.724159    8387.4982    2918.6807    2700.9696    3153.8988   -369.40415    152.41667   -100.01494   -4221.8518 
15716000     171.9588   -4892.7917   -4561.1547   -4892.7917            0    2203.1186    20.190773    19.823443    20.999303    8404.9843    1476.5078    3451.4463    1681.4016   -225.63769    9.4683196    637.43227   -4291.1006 
15717000     170.3144   -4905.6031   -4577.1375   -4905.6031            0    3386.4471    20.086629    19.790403    20.914309    8313.9082    3854.2879    3751.6057    2553.4477   -363.47522   -71.708046    -49.20378   -4166.5313 
15718000     180.2848    -4885.968   -4538.2736    -4885.968            0    1917.4783    20.221865    19.904492    20.907536     8415.408    1631.8159    2486.3981    1634.2209   -138.30732     741.2246    511.19832   -4302.9413 
15719000    177.68177   -4885.0849   -4542.4107   -4885.0849            0     1579.132    20.075365    20.007911    20.918924    8402.4228     2132.111    904.44034    1700.8447    260.02134     1066.529    200.88722   -4348.9027 
15720000    166.77456   -4893.4966   -4571.8578   -4893.4966            0    1770.0355    19.948315     20.05986    21.072244    8432.2779    2240.5696    2039.1972    1030.3397   -506.46727    463.12872   -857.90616   -4354.1857 
15721000    170.15002   -4887.9732   -4559.8246   -4887.9732            0    502.85187     20.00055    20.138812    20.811557     8382.631    196.71366      588.271    723.57095     92.17529    279.89025    540.70248   -4498.3499 
15722000    172.64925   -4900.5246    -4567.556   -4900.5246            0    2381.0329    20.021424    20.018002    20.983104    8409.7954    2361.0664    1973.9006    2808.1318    226.85917    847.93296    -418.6737   -4275.5265 
15723000    167.15878   -4884.9503   -4562.5705   -4884.9503            0    2671.7926     20.16044    20.031942    20.781853    8392.8088    932.35091     3404.625     3678.402    170.80798    177.99641   -688.48388   -4235.5417 
15724000    173.19719   -4888.7938   -4554.7684   -4888.7938            0   -110.55419    20.155262    20.179647    20.991529    8537.8025    34.987044   -348.49918   -18.150425    62.492502   -1225.7051   -1669.6268   -4568.5341 
15725000    168.10088     -4886.86   -4562.6633     -4886.86            0    1403.3506    19.964397    20.102474    20.915343    8394.0336    2572.0518    66.259227    1571.7408    70.109741    486.25176   -1828.4422   -4390.8674 
15726000    175.93979   -4893.6191   -4554.3045   -4893.6191            0    1028.1755    20.156662    20.140963    20.692504    8400.6306    399.16139    733.42064    1951.9444   -231.22001    811.98068    422.32986    -4428.338 
15727000     180.3645   -4858.3808   -4510.5327   -4858.3808            0     2038.799    19.831872    20.066456    21.125532    8407.0194    2699.7453    1741.1888    1675.4628    156.16815   -192.44283     -4.66355   -4260.5602 
15728000    182.75837    -4883.677   -4531.2121    -4883.677            0    2698.5022    20.155789    20.005143    20.791558    8383.5602    973.10881    3738.1707    3384.2272   -255.69475    258.01692   -1068.3547    -4201.278 
15729000    171.51182   -4870.2826   -4539.5076   -4870.2826            0    1994.4925    20.065519    20.013286    21.072415    8462.1964    3526.8084    611.77646    1844.8927   -75.684962     432.6943    370.03123   -4293.3624 
15730000    179.97589   -4871.9751   -4524.8764   -4871.9751            0    2474.2295    20.108175    19.964781    20.916507    8397.0427    2883.3886    2346.0893    2193.2104    -97.23491    693.87305    905.02019   -4221.8767 
15731000    181.95628    -4889.339    -4538.421    -4889.339            0    1799.7661    20.077862    19.893265    20.989528    8383.5157    742.53816    3129.6963    1527.0638   -3.2099509    65.935601    327.11202   -4318.3727 
15732000       182.63   -4902.9143    -4550.697   -4902.9143            0    1997.7072    20.060348    20.011326    20.929119     8401.663      1199.39    2390.5611    2403.1706    272.68679    970.47963     441.6614   -4305.9186 
15733000     167.0267   -4886.8241    -4564.699   -4886.8241            0    1941.5528    20.046963    20.062814    20.925841    8416.3416     2088.361    2370.4223     1365.875   -146.13247     67.50511   -717.05013   -4326.3857 
15734000    184.32565   -4896.9715    -4541.484   -4896.9715            0    2298.3926    19.998937    19.974712    21.017388    8395.8791    1840.7981    3435.7399    1618.6397    717.52243    1335.1074   -1097.3747   -4260.0566 
15735000    167.46387    -4890.957   -4567.9888    -4890.957            0    1204.8132    20.152534    20.042855     20.82237    8410.4532   -121.20665    2436.2251    1299.4212   -134.10488    -503.4036   -159.94487    -4420.209 
15736000    170.03776    -4892.216   -4564.2839    -4892.216            0    1828.4262    19.896759     20.15521     20.84659    8359.9696    1090.9181    1494.0379    2900.3226    579.36118    912.48215    -423.7864   -4341.3593 
15737000    180.43379   -4895.2901   -4547.3084   -4895.2901            0    3679.3667    19.770495    19.997465    21.155749    8364.1322    4019.4979    3229.1541    3789.4482    158.29389   -716.91932   -610.25033   -4098.4908 
15738000     172.8082   -4873.2265   -4539.9513   -4873.2265            0    1963.8959    20.187945     20.17074     20.65434    8410.5667    1848.5801    849.52693    3193.5805    774.51494    8.2129776     14.75962   -4299.0609 
15739000    169.61029   -4887.1236   -4560.0159   -4887.1236            0    1519.0658    20.070279    20.009198    21.017949    8440.6021    25.407944    2557.1828    1974.6068    -403.1795     965.6109    494.85603   -4373.0226 
15740000    171.69151   -4878.2045   -4547.0829   -4878.2045            0     1895.075    20.050084    20.098788    20.746623    8360.5237    4199.3274   -884.54392    2370.4416    -348.9906    697.39509    149.13344   -4316.0171 
15741000    166.72075    -4884.446    -4562.911    -4884.446            0    2530.0662    19.959814    19.919558    21.104816     8391.078    3232.1633    2417.8924    1940.1429   -139.75716    289.09792    1066.8499   -4253.2935 
15742000    162.88228   -4867.8067   -4553.6745   -4867.8067            0    1126.5565    20.247525    20.043977    20.831468     8454.262     1665.047    366.59019    1348.0324   -166.59727   -299.88175   -747.81841   -4414.7738 
15743000    176.78886   -4883.1037   -4542.1515   -4883.1037            0    961.57317    20.186836    20.010515    20.876999    8433.2425    1556.6839    401.59704    926.43862    304.25451    -1292.906    -306.7599   -4423.8874 
15744000     174.9911   -4874.6947   -4537.2097   -4874.6947            0    2320.8065    19.877245    20.112146     20.87541     8345.447    2527.6992    1686.6651    2748.0552    7.5768418     -964.878    152.64461   -4254.7448 
15745000    186.81464   -4884.3859   -4524.0982   -4884.3859            0    1587.6248    20.013825    20.107202    20.975327    8440.9332    1855.7446    958.57112    1948.5588   -261.02089   -545.57394   -335.09153   -4328.6579 
15746000    182.60592   -4897.5654   -4545.3945   -4897.5654            0    1834.6811    20.049009    20.051173    20.907277    8404.8542    594.53141    3207.7213    1701.7906   -549.15127   -23.690479    230.45928   -4320.5063 
15747000    178.81212   -4901.7513   -4556.8971   -4901.7513            0    2196.4085    19.911404    19.997206    21.027455    8372.5528    2849.5174     1491.974     2247.734   -296.12443    215.21808   -503.24087   -4288.7045 
15748000    182.68036    -4884.662   -4532.3475    -4884.662            0    2688.6987    20.111552    20.043575    20.803943    8386.2232    3559.5864      1490.95    3015.5596    153.08623    1247.9873    895.48493   -4203.5077 
15749000    173.44802   -4900.5063   -4565.9972   -4900.5063            0    1647.2745    20.097626    19.929649    21.037505    8426.3331    730.29213    1754.5203    2457.0111    285.10744    515.96131   -366.83221   -4363.5646 
15750000    181.06895   -4865.4504   -4516.2437   -4865.4504            0    1871.0866     19.98638    20.243365    20.818173    8422.8578    2962.2409    257.86105     2393.158     34.58628   -64.617423    776.93503   -4286.4018 
Loop time of 349.578 on 64 procs for 250000 steps with 972 atoms

Performance: 123.578 ns/day, 0.194 hours/ns, 715.148 timesteps/s
196.0% CPU use with 32 MPI tasks x 2 OpenMP threads

MPI task timing breakdown:
Section |  min time  |  avg time  |  max time  |%varavg| %total
---------------------------------------------------------------
Pair    | 28.442     | 34.759     | 41.608     |  68.6 |  9.94
Bond    | 1.0692     | 1.2156     | 1.5522     |   9.5 |  0.35
Kspace  | 152.45     | 162.18     | 172.06     |  37.4 | 46.39
Neigh   | 1.2037     | 1.336      | 1.4833     |   7.1 |  0.38
Comm    | 60.73      | 66.353     | 71.14      |  31.7 | 18.98
Output  | 0.56217    | 0.5625     | 0.56435    |   0.0 |  0.16
Modify  | 69.409     | 71.046     | 73.885     |  12.2 | 20.32
Other   |            | 12.13      |            |       |  3.47

Nlocal:        30.3750 ave          35 max          25 min
Histogram: 1 0 2 3 7 7 1 3 4 4
Nghost:        2552.41 ave        2583 max        2526 min
Histogram: 4 7 1 1 2 5 5 3 1 3
Neighs:        9364.19 ave       11266 max        7916 min
Histogram: 3 5 5 3 5 4 2 1 0 4

Total # of neighbors = 299654
Ave neighs/atom = 308.28601
Ave special neighs/atom = 2.0000000
Neighbor list builds = 4139
Dangerous builds = 0

unfix		3
unfix		2
unfix		1

write_data	data.final.${pid}
write_data	data.final.1
System init for write_data ...
PPPM initialization ...
  extracting TIP4P info from pair style
  using 12-bit tables for long-range coulomb (../kspace.cpp:340)
  G vector (1/distance) = 0.37203602
  grid = 24 24 25
  stencil order = 5
  estimated absolute RMS force accuracy = 0.0034544593
  estimated relative force accuracy = 1.0403001e-05
  using double precision FFTW3
  3d grid and FFT values/proc = 3458 576
Last active /omp style is kspace_style pppm/tip4p/omp
WARNING: Not all mixed pair coeffs generated from mixing. Use write_data with 'pair ij' option to store all pair coeffs. (../write_data.cpp:312)

write_restart   restart.lmp.${pid}
write_restart   restart.lmp.1
System init for write_restart ...
PPPM initialization ...
  extracting TIP4P info from pair style
  using 12-bit tables for long-range coulomb (../kspace.cpp:340)
  G vector (1/distance) = 0.37203602
  grid = 24 24 25
  stencil order = 5
  estimated absolute RMS force accuracy = 0.0034544593
  estimated relative force accuracy = 1.0403001e-05
  using double precision FFTW3
  3d grid and FFT values/proc = 3458 576
Last active /omp style is kspace_style pppm/tip4p/omp
Total wall time: 0:05:49
