LAMMPS data file via write_data, version 30 Jul 2021, timestep = 9500000

1008 atoms
2 atom types
672 bonds
1 bond types
336 angles
1 angle types

-3.1885308545406588 14.798529854091207 xlo xhi
-0.12062131055141201 22.700620310544075 ylo yhi
-0.05485021147358715 19.284848211474362 zlo zhi
-0.13980583454462084 -6.817910542410303 -0.06036019739966126 xy xz yz

Masses

1 1.008
2 15.999

Pair Coeffs # lj/cut/tip4p/long/omp

1 0 0
2 0.21084 3.1668

Bond Coeffs # harmonic/omp

1 450 0.9572

Angle Coeffs # harmonic/omp

1 55 104.52

Atoms # full

55 19 2 -1.1794 -0.7881002637201746 3.9041675779446665 3.454422945438786 0 0 0
56 19 1 0.5897 -1.2181745345082922 3.3290745035035196 2.8215434467645677 0 0 0
57 19 1 0.5897 0.05886700716088633 4.107275695088286 3.05740584588345 0 0 0
121 41 2 -1.1794 -2.468229810382476 2.3770878940425533 2.0124427692663205 1 0 0
122 41 1 0.5897 -2.3436829906554353 2.0570036657094404 1.1190471605593622 1 0 0
21 7 1 0.5897 1.034201879081543 2.210608729255476 0.9063548042643955 0 0 0
31 11 2 -1.1794 1.1268345801928374 0.9748037756467995 2.4177300067065883 0 0 0
86 29 1 0.5897 -2.301329232305096 1.6366806816468242 3.58751176988967 1 0 0
32 11 1 0.5897 1.0738427530894192 1.2936903458612719 3.3186165367530975 0 0 0
46 16 2 -1.1794 1.6512667487804453 4.607159051964369 2.5332438562203508 0 0 0
123 41 1 0.5897 -3.3497633703677865 2.750000066406281 2.0130518253547605 1 0 0
4 2 2 -1.1794 3.5009461279290113 0.8325145935588035 5.195735003543709 0 0 0
90 30 1 0.5897 -5.226545888030415 1.0692125306947862 5.871206729662053 1 0 0
71 24 1 0.5897 2.989040930278138 0.48429085208487543 2.1227599954434813 0 0 0
522 174 1 0.5897 2.231000504960047 5.505393233100792 9.162504942511488 0 0 0
602 201 1 0.5897 -0.5800905519800068 5.2596866902043 0.41673996557633375 1 0 1
97 33 2 -1.1794 -4.212446043087132 4.981264816730628 9.598325624925522 1 0 0
54 18 1 0.5897 2.970904396487116 3.439192024891026 3.026158881418215 0 0 0
124 42 2 -1.1794 -5.108416828240999 2.3365429430369367 7.242710304042803 1 0 0
6 2 1 0.5897 3.2691919104295355 1.5489369181809836 4.60481694547836 0 0 0
16 6 2 -1.1794 5.4932218326746245 4.866878562798888 0.10449596951473344 0 0 0
52 18 2 -1.1794 3.6050414712487555 2.9827471691622027 3.579035663620758 0 0 0
53 18 1 0.5897 4.4157944062400745 2.9894973691918527 3.070284372288319 0 0 0
669 223 1 0.5897 -5.14690675469688 1.4757181709907006 8.845590250049593 1 0 0
101 34 1 0.5897 -2.618207712606336 4.27436685740629 0.27620611168734355 1 0 0
158 53 1 0.5897 -4.445514539712596 4.345556031822013 4.523341913192706 1 0 0
70 24 2 -1.1794 3.7531770666927162 0.3185365080251507 1.570676358214318 0 0 0
159 53 1 0.5897 -3.3220401123614582 4.494492899531464 5.527059389251266 1 0 0
87 29 1 0.5897 -3.290951018672727 1.0308685029634967 4.559843896136174 1 0 0
85 29 2 -1.1794 -2.3900485269338105 1.3479138488462121 4.495718450957034 1 0 0
401 134 1 0.5897 2.33479516318224 0.3171384381625418 8.892731338763507 0 1 0
78 26 1 0.5897 0.10786532684413253 2.7994946381341284 4.763171151378416 0 0 0
76 26 2 -1.1794 0.7490582980476042 2.1302738046377523 5.002329919877186 0 0 0
59 20 1 0.5897 1.5719875023931449 3.442227954310418 5.84464508076624 0 0 0
482 161 1 0.5897 -1.1054574030083146 0.1727968603227531 0.6958604840737326 1 1 0
157 53 2 -1.1794 -3.934500312699279 5.002934879224551 4.995531553496282 1 0 0
34 12 2 -1.1794 -0.3507014661298009 1.1596929674569512 7.367656125064461 0 0 0
35 12 1 0.5897 -0.1939095299887188 1.6318485809092584 8.185367270342702 0 0 0
36 12 1 0.5897 -1.2050918586510768 0.7456357028455702 7.489554034253833 0 0 0
45 15 1 0.5897 0.48292717662067774 4.610858257922259 7.085174927317235 0 0 0
33 11 1 0.5897 0.3340671737148342 0.4510604464854362 2.301492948350141 0 0 0
60 20 1 0.5897 2.7781779295769002 3.6701963825541166 6.730663142309824 0 0 0
58 20 2 -1.1794 2.0577869313163397 4.130088380488492 6.299703806885627 0 0 0
44 15 1 0.5897 -0.6748067880003634 4.791008050944828 8.043769495226389 0 0 0
43 15 2 -1.1794 -0.47346211811550054 4.619520691298882 7.123915292378324 0 0 0
67 23 2 -1.1794 -2.776052674895667 0.31790395763076 8.50452094207225 0 0 0
126 42 1 0.5897 -4.207720583589605 2.5928624431938037 7.04446431757202 1 0 0
47 16 1 0.5897 1.5260664091334304 5.022909979414313 1.6802609150752337 0 0 0
134 45 1 0.5897 -2.5008360862038783 2.4824541382850662 5.8459436197657775 1 0 0
133 45 2 -1.1794 -2.638634137172864 3.164413188005376 6.503263723796136 1 0 0
69 23 1 0.5897 -3.3212880380177427 1.0134431973467348 8.872062694616117 0 0 0
135 45 1 0.5897 -1.7638151739382422 3.3480799163645467 6.845638984776417 1 0 0
77 26 1 0.5897 0.3121799938083121 1.6092438451936226 5.67600855638635 0 0 0
98 33 1 0.5897 -4.0961017556185455 5.21562911630081 8.677659338886482 1 0 0
5 2 1 0.5897 2.7973659851787094 0.19296671231098822 5.085050046707427 0 0 0
48 16 1 0.5897 1.8110761726022027 5.335114838968402 3.133855704460712 0 0 0
527 176 1 0.5897 3.5505952928318747 1.8129152500370116 0.6188166322984305 0 0 1
528 176 1 0.5897 2.6198060456686445 2.822216294333426 -0.018905607465333422 0 0 1
19 7 2 -1.1794 0.7553862177602286 2.5708214543047734 0.06455229936419075 0 0 0
125 42 1 0.5897 -5.640929899143327 3.065541948934997 6.924698785159154 1 0 0
9 3 1 0.5897 -1.1095649758024857 5.490288613227239 4.346820663041777 0 0 0
402 134 1 0.5897 1.2516552193074109 0.023094012508912826 7.876755060431922 0 1 0
526 176 2 -1.1794 3.541417315103055 2.568595705896779 0.0314290317324282 0 0 1
18 6 1 0.5897 4.995071994622455 4.065744990766855 0.2666405954032795 0 0 0
24 8 1 0.5897 1.0018675669087722 3.4421296132742283 9.602284808528598 0 0 0
606 202 1 0.5897 -6.05038198161162 4.740707794645956 9.457345353944032 1 0 0
22 8 2 -1.1794 0.24315377227569668 2.8642609647238264 9.684161377576043 0 0 0
626 209 1 0.5897 -5.7535608697324365 1.6923860944143607 12.557626030456785 1 0 0
575 192 1 0.5897 1.0697585169559254 0.0510424068129951 11.778335326892014 0 0 0
556 186 2 -1.1794 0.43443380068889237 3.149766075408289 13.299922109511968 0 0 0
536 179 1 0.5897 -2.1340149031530133 1.5774232258840746 13.20077101847156 0 0 0
667 223 2 -1.1794 -5.147656726538958 0.9765357575687064 9.662255111482704 1 0 0
523 175 2 -1.1794 -2.6473643026102014 2.826248213234117 10.20558899425594 0 0 0
552 184 1 0.5897 -2.434032979436936 4.556598029890819 12.496145795800235 0 0 0
535 179 2 -1.1794 -1.9970125290062946 1.1611179752149798 12.349860872232888 0 0 0
520 174 2 -1.1794 2.270250487792776 4.709383091907354 9.692595290246459 0 0 0
537 179 1 0.5897 -2.4315142620648516 1.7422701313837867 11.725675871928178 0 0 0
561 187 1 0.5897 -3.623878680857242 3.4836193023146307 13.875282012600483 0 0 0
20 7 1 0.5897 -6.291200610426188 1.743608843320346 18.879005887561824 0 0 -1
987 329 1 0.5897 -3.492635140821761 0.007569816258060441 11.938241841541691 1 1 0
524 175 1 0.5897 -2.9925965333044084 3.7056755832038486 10.051932898750696 0 0 0
557 186 1 0.5897 0.29425673765671423 2.328424222061422 13.771030901047418 0 0 0
558 186 1 0.5897 -0.338519519637849 3.241774816504717 12.742905513387711 0 0 0
559 187 2 -1.1794 -4.0617850097442325 4.057254686943592 13.246554680079731 0 0 0
560 187 1 0.5897 -4.728826012512253 3.503565900645006 12.840658118721121 0 0 0
625 209 2 -1.1794 -5.893128266046047 2.366137512908183 11.892255700882846 1 0 0
668 223 1 0.5897 -5.409027013512503 1.6100481812611855 10.330443868284805 1 0 0
661 221 2 -1.1794 -6.743776204486217 5.292401812851019 14.552066632510444 1 0 0
574 192 2 -1.1794 0.4931329229656587 0.571976859101059 11.219500088301352 0 0 0
550 184 2 -1.1794 -1.6587129110380694 4.970051066064366 12.116435912008077 0 0 0
589 197 2 -1.1794 -5.517017017861329 0.6241334969886463 14.046075402186114 1 0 0
593 198 1 0.5897 -7.551237020855928 0.32470357667795013 13.99065622737971 1 0 0
905 302 1 0.5897 -2.143211672820331 -0.01953115335806671 17.754702063604455 0 1 0
629 210 1 0.5897 -8.735483495225154 2.947277827638041 16.42600432821113 1 0 0
547 183 2 -1.1794 -3.655291830241085 4.848141780291736 16.6767449314396 0 0 0
582 194 1 0.5897 -2.2481011008539458 2.9090790468605925 15.358659959172577 0 0 0
23 8 1 0.5897 0.5279990802682559 2.1782723769510235 10.287834753518311 0 0 0
576 192 1 0.5897 -0.22746473808558232 0.8312854299049699 11.793638500659217 0 0 0
639 213 1 0.5897 -5.677856549861246 3.560147515676783 15.223854491180612 1 0 0
538 180 2 -1.1794 -3.517618940217063 0.8215369550439823 17.102977036072552 0 0 0
540 180 1 0.5897 -4.361245913101263 0.42025248601858056 17.3115994010425 0 0 0
525 175 1 0.5897 -1.7131449302658042 2.8975779039942786 10.009634779318402 0 0 0
539 180 1 0.5897 -3.353891986263359 1.4262349199151316 17.82662408780085 0 0 0
638 213 1 0.5897 -6.226855561063681 2.5462134320565193 16.204827424496735 1 0 0
549 183 1 0.5897 -4.083332306294503 4.073154711526981 16.312823536969262 0 0 0
562 188 2 -1.1794 -0.9797757728075016 4.256765037493251 16.266437568196764 0 0 0
563 188 1 0.5897 -0.8945753745538596 4.987466745893431 15.654078003470884 0 0 0
564 188 1 0.5897 -1.7940575969114665 4.432456445819561 16.737893262370953 0 0 0
164 55 1 0.5897 -8.692893646165663 1.415895117043052 18.068568783576673 1 0 -1
628 210 2 -1.1794 -8.139094139172126 2.2010210572912023 16.365948000471917 1 0 0
637 213 2 -1.1794 -5.415930829286257 2.8272137716668375 15.780948563828398 1 0 0
165 55 1 0.5897 -9.742231095238564 0.47866274939165987 18.62753680012319 1 0 -1
581 194 1 0.5897 -3.0567193163020514 1.6323897673223806 15.449400725082414 0 0 0
590 197 1 0.5897 -5.2947301283507135 1.3352546823241205 14.647008204287317 1 0 0
571 191 2 -1.1794 -6.13448184299341 0.07068188250750013 18.00343961415723 0 0 0
580 194 2 -1.1794 -2.738069495209726 2.283776625457476 14.82463680900905 0 0 0
84 28 1 0.5897 -4.259369524284331 5.335970241535473 18.438993834961927 0 0 -1
627 209 1 0.5897 -6.719175073824385 2.7811212433580463 12.14050258915847 1 0 0
601 201 2 -1.1794 -7.655872025930847 4.591431534108426 19.063500586998934 1 0 0
591 197 1 0.5897 -4.957638091205821 -0.10344639302555388 14.317894723084478 1 0 0
663 221 1 0.5897 -7.442090157415746 4.746986996583639 14.189883163235429 1 0 0
548 183 1 0.5897 -3.7617660218473574 5.519731325522798 16.00311570986259 0 0 0
508 170 2 -1.1794 0.3611232941947895 0.8224737657828234 14.669256557888078 0 0 0
630 210 1 0.5897 -8.470079891797106 1.6880376854171413 15.62873102151591 1 0 0
587 196 1 0.5897 -1.6292604647541076 5.352698774717669 10.339704574652306 0 0 0
163 55 2 -1.1794 -9.059891728528381 1.0955302908649998 18.892469149042157 1 0 -1
603 201 1 0.5897 -7.0630044246519095 3.8468118584456867 19.164623212535965 1 0 0
289 97 2 -1.1794 -2.8048535691430616 10.310720654410808 2.5541870234108854 1 0 0
332 111 1 0.5897 -2.243803905019699 9.167694164479833 0.8443112411153811 1 0 0
255 85 1 0.5897 -2.468094981473558 8.753427492563231 3.9779216409555938 1 0 0
147 49 1 0.5897 -1.0707516096161456 7.377145324289246 1.2367627848031395 1 0 0
146 49 1 0.5897 -1.279682960586834 6.223337054997214 2.194256748440598 1 0 0
145 49 2 -1.1794 -0.6161852631290303 6.640002469703817 1.644371337169031 1 0 0
109 37 2 -1.1794 -4.368510957302812 6.416081945687854 7.213915875289177 1 0 0
112 38 2 -1.1794 -3.433676122848441 6.4097590183762865 2.621523124579648 1 0 0
291 97 1 0.5897 -3.659260971861608 10.644458842809758 2.827681735795508 1 0 0
114 38 1 0.5897 -3.468573523255238 5.753944744359071 1.9251942517935656 1 0 0
301 101 2 -1.1794 -2.36609563645523 10.840566196731404 6.751039669783255 1 0 0
190 64 2 -1.1794 0.5831408321747484 9.489112461170638 9.468021940946981 0 0 0
201 67 1 0.5897 1.8239387379314111 8.394757816795341 2.035578069527975 0 0 0
188 63 1 0.5897 0.8810656205662282 9.797279018123849 1.0815507107114521 0 0 0
200 67 1 0.5897 0.39061974564433344 7.909452732818483 2.0810769152119417 0 0 0
257 86 1 0.5897 -4.448034678599274 8.718545533553876 4.952258358486292 1 0 0
199 67 2 -1.1794 0.9658584189302388 8.602412519833917 2.405364615041873 0 0 0
239 80 1 0.5897 3.853574949937671 8.362525041806146 1.0248652332792463 0 0 0
238 80 2 -1.1794 3.4948271456190447 7.658567557407534 1.5651117692183043 0 0 0
173 58 1 0.5897 3.441432885016102 7.510097782470448 4.654679570076724 0 0 0
10 4 2 -1.1794 2.238257415847725 6.138680897587973 4.657216922858248 0 0 0
240 80 1 0.5897 3.2131746608716707 6.99355445794774 0.9368964277737063 0 0 0
245 82 1 0.5897 0.5877228712561458 9.27656862875655 3.9458177371974488 0 0 0
172 58 2 -1.1794 3.9638025663917276 8.296187364998683 4.814190447505509 0 0 0
290 97 1 0.5897 -2.1989188310569805 11.031069498968758 2.7280680388840377 1 0 0
111 37 1 0.5897 -5.197310603539 6.84995828894537 7.4164673691959555 1 0 0
12 4 1 0.5897 1.3375339918869251 6.460490614978542 4.620411399827419 0 0 0
696 232 1 0.5897 4.54644711118684 10.71737122481113 0.08771020016977407 0 0 1
220 74 2 -1.1794 3.5177473655994405 10.763868173085648 3.215815795073049 0 0 0
187 63 2 -1.1794 0.991866434658597 10.345665822663056 0.30494136338042704 0 0 0
110 37 1 0.5897 -4.550526539217395 5.908157736526862 6.423319422618899 1 0 0
837 279 1 0.5897 -6.0707723412506756 8.737419654506908 9.075877027689849 1 0 0
254 85 1 0.5897 -2.070914139523481 7.642802399992113 4.92683495271956 1 0 0
253 85 2 -1.1794 -2.5736398773225275 8.456069497341803 4.881546072075779 1 0 0
302 101 1 0.5897 -2.160123451076749 10.068245313983086 6.22447600839816 1 0 0
244 82 2 -1.1794 0.2329858824769504 9.801587691195888 4.6632153400374605 0 0 0
8 3 1 0.5897 -0.6769758176909115 5.8972074585940435 5.739288692530282 0 0 0
294 98 1 0.5897 -5.105509114400382 10.196178563700409 8.230950480860788 1 0 0
174 58 1 0.5897 3.6278248436051994 8.938499621042743 4.189127590158387 0 0 0
7 3 2 -1.1794 -0.7904004670366973 6.23799739255802 4.852108265735322 0 0 0
64 22 2 -1.1794 2.2334547016305155 6.840752396482224 7.985450636130684 0 0 0
237 79 1 0.5897 -2.6165821072415123 8.806400190428905 8.67623555615685 0 0 0
65 22 1 0.5897 2.39336745868668 7.554076035997112 8.603325320562476 0 0 0
228 76 1 0.5897 1.6114483007840938 10.859911060941455 5.682732991100903 0 0 0
292 98 2 -1.1794 -4.996425582463306 10.59437324785504 7.367437278177196 1 0 0
191 64 1 0.5897 0.2759141282357711 9.21683606701028 8.603358905359757 0 0 0
293 98 1 0.5897 -4.051419332997908 10.717447421407277 7.277557514038873 1 0 0
202 68 2 -1.1794 0.16945443791271142 8.453923520564546 6.975260482577009 0 0 0
203 68 1 0.5897 -0.6952545821129128 8.178090060075064 7.279295872914615 0 0 0
204 68 1 0.5897 0.7539969760251863 7.742548592013574 7.236836405134061 0 0 0
246 82 1 0.5897 0.15669538503346914 9.188515401049719 5.394281084861797 0 0 0
235 79 2 -1.1794 -2.308217412179387 7.991951243415539 8.279029249778414 0 0 0
236 79 1 0.5897 -3.048919622561165 7.6842357990727255 7.756605389537482 0 0 0
11 4 1 0.5897 2.2695164941500403 5.603060255655908 5.449842551041128 0 0 0
303 101 1 0.5897 -1.5162966753942952 11.15258467721394 7.062123202374373 1 0 0
189 63 1 0.5897 1.9386004883492083 10.379216578345607 0.1678810762881374 0 0 0
221 74 1 0.5897 4.0364719630739225 10.554925654131468 2.439028617731989 0 0 0
113 38 1 0.5897 -3.528918604623274 5.90647810165394 3.430076925477389 1 0 0
586 196 2 -1.1794 -1.2939094319644293 5.713318023394591 9.518956051994481 0 0 0
588 196 1 0.5897 -1.9824501893428446 6.306399098799328 9.218387414281144 0 0 0
331 111 2 -1.1794 -1.8106234723560057 8.567632325387002 0.2373348412821213 1 0 0
694 232 2 -1.1794 3.9708108474338717 9.956430940272154 0.010950066690247923 0 0 1
192 64 1 0.5897 1.0183177158480978 10.327852817105024 9.31503149085576 0 0 0
835 279 2 -1.1794 -5.528764193933268 9.328903149616876 9.598014723610786 1 0 0
762 254 1 0.5897 -7.732610972502363 8.293140115296683 14.708042199375399 1 0 0
99 33 1 0.5897 -4.2736959754439106 5.82089585860371 10.053792506994329 1 0 0
759 253 1 0.5897 -6.033231072151226 9.043031752771245 13.303323297375094 1 0 0
651 217 1 0.5897 -4.9153170027357245 6.9767370762643335 11.697302637563144 1 0 0
794 265 1 0.5897 -5.588639607946472 10.974310877724072 12.206762796074598 1 0 0
798 266 1 0.5897 -8.19392075143137 9.46505165933036 16.545395573027633 1 0 0
795 265 1 0.5897 -6.268013228822468 10.135567403967043 11.145230206495317 1 0 0
693 231 1 0.5897 -2.319966245364194 9.867204874687515 10.726053811500925 0 0 0
649 217 2 -1.1794 -4.351729205580776 7.2934283016390244 10.991437440098187 1 0 0
650 217 1 0.5897 -3.646621172559684 7.761354062877628 11.438811013243892 1 0 0
742 248 2 -1.1794 0.2626327446540784 7.368415002029111 11.260328374072861 0 0 0
793 265 2 -1.1794 -6.357362313148012 10.424969817388845 12.053186775711143 1 0 0
743 248 1 0.5897 0.3817785914812375 8.109985872206208 10.666992524555875 0 0 0
744 248 1 0.5897 -0.08760080103494516 6.671183738661918 10.705843498394998 0 0 0
570 190 1 0.5897 -0.689924865767022 6.767730291393597 17.319354543045726 0 0 0
805 269 2 -1.1794 -5.531343015077973 10.613937687503169 15.87540146684446 1 0 0
703 235 2 -1.1794 -2.1216645710440796 8.66289441806304 11.919967799209957 0 0 0
704 235 1 0.5897 -1.3207473475288491 8.174677127185294 11.729260746989457 0 0 0
705 235 1 0.5897 -2.0494990799525645 8.889576283597766 12.847073194010191 0 0 0
613 205 2 -1.1794 -7.645237365246215 6.292280935400559 17.0213183269325 1 0 0
706 236 2 -1.1794 -3.2178317988797973 8.645745413144848 16.902678508506796 0 0 0
707 236 1 0.5897 -4.092828186864419 8.389990539875958 17.19461590079659 0 0 0
750 250 1 0.5897 -3.39632320931985 10.24359183498048 14.04680788812501 0 0 0
724 242 2 -1.1794 0.6018011373292165 10.414408152845056 12.921537721384064 0 0 0
513 171 1 0.5897 -4.329522884642959 5.7767247848005665 14.284537199339459 0 0 0
796 266 2 -1.1794 -7.986341360481091 10.176087778767899 17.151662487637523 1 0 0
748 250 2 -1.1794 -2.654161133731132 9.813988312961424 14.472045440451314 0 0 0
514 172 2 -1.1794 -1.2650703214638268 6.307845212463661 14.552047218318977 0 0 0
708 236 1 0.5897 -2.6683699228742377 7.886633114915842 17.097648666798904 0 0 0
749 250 1 0.5897 -3.0125538737353406 9.470178671127131 15.290263319764724 0 0 0
678 226 1 0.5897 0.41870429131533626 8.956250898314858 13.994115233243845 0 0 0
512 171 1 0.5897 -4.621744801394891 7.24784632613898 14.49006870968666 0 0 0
511 171 2 -1.1794 -3.982762892960271 6.566621607375162 14.699362044839921 0 0 0
515 172 1 0.5897 -2.140918227867396 6.632294856282543 14.761390375684371 0 0 0
516 172 1 0.5897 -0.6961143413040407 7.071131725461418 14.651942918514585 0 0 0
617 206 1 0.5897 -7.312143027658273 7.197961871424918 12.01765178695126 1 0 0
757 253 2 -1.1794 -6.011424573350616 8.539583814420292 14.117066292345509 1 0 0
695 232 1 0.5897 -2.7535996520366695 9.61523504955449 18.440425216907393 0 0 0
758 253 1 0.5897 -5.83036574951392 9.189200161667621 14.79634016066387 1 0 0
616 206 2 -1.1794 -6.650073379461453 6.514101093112633 12.118449863556446 1 0 0
836 279 1 0.5897 -5.06036054304768 8.75390176381523 10.203088833633402 1 0 0
568 190 2 -1.1794 -1.3428812728936599 7.051813409065202 17.958959389087767 0 0 0
732 244 1 0.5897 -0.5882860513172243 11.194948500880516 16.360575655598517 0 0 0
618 206 1 0.5897 -6.894507758374706 5.847017926071685 11.476988323790394 1 0 0
797 266 1 0.5897 -7.150883023678079 10.52258454428721 16.83827384994649 1 0 0
739 247 2 -1.1794 -5.804126513724658 8.057165406420285 17.96463662380087 0 0 0
676 226 2 -1.1794 0.4897190362784416 8.329731333301867 14.714233668879427 0 0 0
740 247 1 0.5897 -6.648107192779738 7.664235993518834 17.74192324114859 0 0 0
662 221 1 0.5897 -6.532483508215279 5.908762897206644 13.850920897134564 1 0 0
569 190 1 0.5897 -1.3956712349966356 6.329633073494154 18.58491603327981 0 0 0
741 247 1 0.5897 -6.0239738327833425 8.930871917585613 18.287889098093572 0 0 0
333 111 1 0.5897 -8.305926109803908 9.069678526251675 18.872910912244507 1 0 -1
83 28 1 0.5897 -4.949411013801432 6.605510857132773 18.890528062581737 0 0 -1
551 184 1 0.5897 -1.4115419285812347 5.643927442497498 12.74969544547232 0 0 0
691 231 2 -1.1794 -2.265505226142152 10.335460681713862 9.89305781305779 0 0 0
731 244 1 0.5897 -1.5416211097753996 11.04635068145452 15.19401024629381 0 0 0
615 205 1 0.5897 -7.160276794478998 5.911486090502147 16.28925599796993 1 0 0
614 205 1 0.5897 -7.621439715536342 5.618868097892255 17.701077586612207 1 0 0
807 269 1 0.5897 -4.931444136260137 11.077815572453558 16.459519760275313 1 0 0
82 28 2 -1.1794 -4.405764487036777 5.885046688367884 19.209208969121384 0 0 -1
726 242 1 0.5897 -0.13026673556651325 10.983631310975387 12.684375036752794 0 0 0
760 254 2 -1.1794 -8.570013053387726 8.53267735648812 15.104992865751965 1 0 0
692 231 1 0.5897 -1.3291323444088343 10.36885273610638 9.69728032586713 0 0 0
269 90 1 0.5897 -3.7348393219756986 12.760348271155808 1.33955044098545 1 0 0
756 252 1 0.5897 -1.489174796816048 14.193311494474425 9.235663086112432 0 0 0
281 94 1 0.5897 -3.5586270591934883 13.815762111478536 3.5103434476733177 1 0 0
340 114 2 -1.1794 3.1443513272183115 16.198346968834507 5.372195866797783 0 0 0
690 230 1 0.5897 1.7949535972481527 12.667857542533682 9.23416454005545 0 0 0
367 123 2 -1.1794 0.9971614806252322 16.219717277784618 2.6327756027777007 0 0 0
226 76 2 -1.1794 1.9688476583387695 11.477288430449558 6.320947645382328 0 0 0
282 94 1 0.5897 -2.6072123375933076 14.216317033323412 2.4030491068397457 1 0 0
280 94 2 -1.1794 -3.5316590417065736 14.235448035547163 2.6505475771088527 1 0 0
178 60 2 -1.1794 1.8348553256550986 13.704360715820137 5.053750451598674 0 0 0
180 60 1 0.5897 1.8356633220477008 13.411923647979716 4.142386355047568 0 0 0
368 123 1 0.5897 1.9222162005338 15.977394764394054 2.5908812900589804 0 0 0
314 105 1 0.5897 -0.19313307132232094 14.921050318144639 2.1645452719616665 1 0 0
500 167 1 0.5897 -1.8978933922879266 15.684317439641731 0.5719823520624517 1 0 0
313 105 2 -1.1794 -1.0181658489129388 14.60964571542877 1.792226010174946 1 0 0
315 105 1 0.5897 -0.8101380301312213 13.745533415715952 1.4369300330060282 1 0 0
225 75 1 0.5897 -0.9373422611873536 12.74871670600272 4.07173221464036 0 0 0
425 142 1 0.5897 -4.42743188769094 16.219558240340348 5.085485688064786 1 0 0
405 135 1 0.5897 -2.6195673496430905 15.83570055928775 8.465140876879428 0 0 0
369 123 1 0.5897 0.8909296095173262 16.612182433245934 3.499274132396584 0 0 0
214 72 2 -1.1794 1.7688877155063514 12.673398979829503 2.534367539400352 0 0 0
769 257 2 -1.1794 -0.856166547233618 12.550573743262548 0.09141390047570414 1 0 1
215 72 1 0.5897 1.8094426859203274 12.939686428712063 1.615927645828056 0 0 0
216 72 1 0.5897 0.8767353293862499 12.346498253601169 2.6502901827181353 0 0 0
176 59 1 0.5897 -1.5181315103112079 14.363376492001604 5.436718448165888 0 0 0
408 136 1 0.5897 3.7471993685930753 16.332912682233015 0.8503687519304759 0 0 0
406 136 2 -1.1794 3.5797389040344676 15.59824444996541 1.4406066656899088 0 0 0
265 89 2 -1.1794 -3.8165280222526166 12.552174376820174 9.464819492315176 1 0 0
177 59 1 0.5897 -0.016342636195516125 14.172242193218526 5.4352445067402515 0 0 0
279 93 1 0.5897 -5.637613062564798 14.330930575346592 7.4320260269276215 1 0 0
421 141 2 -1.1794 -2.6008293282295325 16.2962798050033 4.905528932442446 1 0 0
499 167 2 -1.1794 -2.3781044184283826 16.353507417047638 0.08440732267412504 1 0 0
179 60 1 0.5897 1.9293001866151283 12.900005410613854 5.563913782757578 0 0 0
227 76 1 0.5897 1.2768615127746692 11.57349630357334 6.975191109005969 0 0 0
407 136 1 0.5897 4.438337938155107 15.196446214447848 1.5731872554114108 0 0 0
327 109 1 0.5897 -4.043616775623251 13.076662081390587 5.76551752948037 1 0 0
341 114 1 0.5897 2.7561298209876304 15.345388831466172 5.177241092640417 0 0 0
211 71 2 -1.1794 -0.18016033459527137 12.160352203209719 7.875987266442879 0 0 0
212 71 1 0.5897 -0.2863907066009763 12.571390075564617 8.733831333262696 0 0 0
213 71 1 0.5897 -0.4816377996656076 12.822262152865232 7.253791722386098 0 0 0
252 84 1 0.5897 2.9196096520971047 14.253277816902093 0.45948448922174534 0 0 0
267 89 1 0.5897 -3.9624225295428745 12.733153695661922 8.536341984688661 1 0 0
325 109 2 -1.1794 -3.4563880498620927 12.750415187539815 5.083708527831846 1 0 0
223 75 2 -1.1794 -0.8992779387377201 12.083913924323195 3.3841796305278673 0 0 0
234 78 1 0.5897 1.3808821147217447 15.047309014593448 7.638963486025192 0 0 0
232 78 2 -1.1794 1.9524881066900335 14.452638037781927 8.124542263824823 0 0 0
277 93 2 -1.1794 -4.8187408929481395 13.97327567550686 7.088935632992742 1 0 0
278 93 1 0.5897 -4.178007370023666 14.672286027303622 7.219885542927864 1 0 0
403 135 2 -1.1794 -2.3722647075679677 15.100612481512501 7.904191807366701 0 0 0
370 124 2 -1.1794 0.09539118133277702 16.266566063218427 7.346149234439507 0 0 0
326 109 1 0.5897 -2.803858850272402 12.233486181595138 5.556111759595665 1 0 0
175 59 2 -1.1794 -0.8319753097884117 13.75718900775334 5.715837520020134 0 0 0
404 135 1 0.5897 -1.5488227428431118 15.373825598333584 7.499802430939117 0 0 0
233 78 1 0.5897 2.7643556005426433 14.432969608832252 7.617910019372039 0 0 0
423 141 1 0.5897 -2.915057344901975 16.438286307946967 4.012670868256909 1 0 0
372 124 1 0.5897 0.009343182293766183 16.71301170094076 6.503897283216797 0 0 0
770 257 1 0.5897 -1.7966978454264253 12.389462990316067 0.16703298833965413 1 0 1
1004 335 1 0.5897 -5.511264850045951 16.845571855483094 8.943878779853186 1 0 0
266 89 1 0.5897 -3.219980489238861 11.803671859305135 9.472581078105941 1 0 0
184 62 2 -1.1794 5.496963185100341 12.179982515567758 0.2608744923206538 0 0 0
771 257 1 0.5897 -0.4487873651750882 11.735126991632539 0.38341915466106785 1 0 1
250 84 2 -1.1794 2.4543704184404698 13.572899693182206 -0.027239738491740512 0 0 0
222 74 1 0.5897 2.8921299719266456 11.423492099714004 2.9163568753095706 0 0 0
224 75 1 0.5897 -0.44173557000428154 11.346646899486672 3.788235075989922 0 0 0
910 304 2 -1.1794 0.49533272451988664 15.739656884152655 11.220935612410223 0 0 0
251 84 1 0.5897 -5.152705444227883 13.946456140342237 18.988221908162487 0 0 -1
185 62 1 0.5897 -1.5909588817807094 12.802806060402075 18.98697756243552 0 0 -1
718 240 2 -1.1794 -1.393906597537109 12.265707052567157 12.312720924070293 0 0 0
727 243 2 -1.1794 -4.0725219614859025 11.74962098003269 12.635817720483443 0 0 0
720 240 1 0.5897 -1.422043788357751 13.01137904210161 12.912184370642663 0 0 0
911 304 1 0.5897 -0.27306474741212394 15.969184292500197 11.743474484245686 0 0 0
873 291 1 0.5897 -2.4379870720449777 15.783225389728345 12.310962149115046 0 0 0
773 258 1 0.5897 -6.83867915590784 12.927372905265276 10.820108675257652 1 0 0
912 304 1 0.5897 0.979973427526688 15.119963328655116 11.766155011776641 0 0 0
729 243 1 0.5897 -4.282269456513953 12.52455960557944 13.157009322539391 0 0 0
930 310 1 0.5897 -7.874113411945376 16.049563000616786 14.531215881264224 1 0 0
831 277 1 0.5897 -7.902940946124355 11.96909884388524 14.218523428161141 1 0 0
784 262 2 -1.1794 -6.8342801071524795 14.122472024654877 12.187055485215442 1 0 0
829 277 2 -1.1794 -7.275314646914223 12.606328584920202 14.559563312841236 1 0 0
719 240 1 0.5897 -1.204255779163824 12.652152968407982 11.457843445241291 0 0 0
786 262 1 0.5897 -7.029055305202235 13.75119699060844 13.047482333985934 1 0 0
817 273 2 -1.1794 -4.070754765426504 14.66228361612531 11.280368830740247 1 0 0
818 273 1 0.5897 -4.937697546802134 14.557563828395072 11.672378902435955 1 0 0
819 273 1 0.5897 -3.9431882115276777 13.866443204042188 10.76408067712081 1 0 0
728 243 1 0.5897 -3.1554214670703065 11.867862685218949 12.38848800007689 0 0 0
875 292 1 0.5897 -3.1794180312965787 16.297877040378502 16.0039759418464 0 0 0
679 227 2 -1.1794 -4.211915428181816 13.790098174399017 14.536611835790472 0 0 0
737 246 1 0.5897 -0.9999978112788508 15.219837630178601 18.3477976407842 0 0 0
684 228 1 0.5897 -0.8289941729959676 14.955386129872249 14.63344987307494 0 0 0
682 228 2 -1.1794 -1.43104432404572 14.260029381237233 14.368338850134514 0 0 0
1003 335 2 -1.1794 -5.809155234437635 16.525372519894248 9.795255680057204 1 0 0
730 244 2 -1.1794 -1.2516179829468426 11.66980969206726 15.85989892571139 0 0 0
926 309 1 0.5897 -5.267520294001116 15.382762486947948 14.37777371939164 1 0 0
738 246 1 0.5897 -0.6284282372539653 14.312130475613206 17.194685829586057 0 0 0
876 292 1 0.5897 -2.9962059242948165 15.21130362189751 17.041985963649424 0 0 0
681 227 1 0.5897 -4.180327437300591 13.298942200265326 15.357517040602973 0 0 0
907 303 2 -1.1794 -5.969725040476695 15.49057707357306 18.254197701151618 0 0 0
925 309 2 -1.1794 -5.941488029361074 16.057193868010742 14.46197374551921 1 0 0
680 227 1 0.5897 -3.3486427750255956 14.197878405806133 14.467554227169476 0 0 0
908 303 1 0.5897 -6.710833820015051 15.137057798085122 17.76220969043944 0 0 0
783 261 1 0.5897 -8.911061190173498 14.120185552661775 17.248412314933212 1 0 0
927 309 1 0.5897 -5.5597265685751465 16.705375416578967 15.053883427520438 1 0 0
715 239 2 -1.1794 -3.803874791056929 12.29784748583192 16.993351043216506 0 0 0
716 239 1 0.5897 -3.8208491681713417 12.681897749575006 17.869893404652935 0 0 0
844 282 2 -1.1794 0.41666833414540516 16.317726591562696 14.735990925220728 0 0 0
874 292 2 -1.1794 -3.5606528579848167 15.948522755881383 16.809424218188617 0 0 0
736 246 2 -1.1794 -1.3277496862319316 14.488881756508126 17.823865956553647 0 0 0
755 252 1 0.5897 -0.34863781242430036 14.485970325929216 10.187206807361322 0 0 0
1005 335 1 0.5897 -5.068999273727573 16.022301549718897 10.134774946212717 1 0 0
909 303 1 0.5897 -5.349110661763712 15.773908222270917 17.58282726204733 0 0 0
781 261 2 -1.1794 -7.996089397745602 13.95515795142872 17.02077248577872 1 0 0
782 261 1 0.5897 -7.704732087087796 13.301641435633421 17.656506199082003 1 0 0
871 291 2 -1.1794 -1.9841878169482046 16.616614815184477 12.185257220190156 0 0 0
717 239 1 0.5897 -2.8838213947164624 12.07961430421734 16.84478035962352 0 0 0
830 277 1 0.5897 -7.765734343505796 13.096786859059776 15.21916365985255 1 0 0
683 228 1 0.5897 -1.2671971169565275 13.550793558764076 14.989857019027346 0 0 0
688 230 2 -1.1794 2.0922485717601855 11.961986179156128 9.808162802030541 0 0 0
754 252 2 -1.1794 -0.9405599087782033 13.787807172647506 9.907037323234526 0 0 0