LAMMPS data file via write_data, version 30 Jul 2021, timestep = 7000000

1920 atoms
2 atom types
1280 bonds
1 bond types
640 angles
1 angle types

-0.09619867630097723 24.826199676297225 xlo xhi
-0.13200791993263117 24.862008919933764 ylo yhi
-0.029957841810004382 22.839957841807344 zlo zhi

Masses

1 1.008
2 15.999

Pair Coeffs # lj/cut/tip4p/long/omp

1 0 0
2 0.21084 3.1668

Bond Coeffs # harmonic/omp

1 450 0.9572

Angle Coeffs # harmonic/omp

1 55 104.52

Atoms # full

1 1 2 -1.1794 4.442557177523412 1.5694868492098626 4.127225193419967 0 0 0
2 1 1 0.5897 4.4695635364264215 2.4923010821975407 4.379569342170992 0 0 0
3 1 1 0.5897 5.1219916775120975 1.4835818098405709 3.4585354864821047 0 0 0
4 2 2 -1.1794 2.9455231431934883 1.65265936911328 1.976398510940224 0 0 0
5 2 1 0.5897 3.2742596885376165 1.6796037544679638 2.8749096476436056 0 0 0
6 2 1 0.5897 1.996545424427075 1.7407297024945096 2.0652861826288933 0 0 0
7 3 2 -1.1794 6.0579255507317775 4.387900478700124 3.6262444156440123 0 0 0
9 3 1 0.5897 5.116688844864817 4.453659051986874 3.465123006179214 0 0 0
10 4 2 -1.1794 3.368693742490769 4.579394597261798 3.415203903509807 0 0 0
11 4 1 0.5897 2.9186439399577124 5.266333455969702 3.9067642422954476 0 0 0
12 4 1 0.5897 2.9307406606031563 4.567099036438609 2.56422292945158 0 0 0
20 7 1 0.5897 3.7911578520259797 2.995379774652499 1.0073721633508452 0 0 0
19 7 2 -1.1794 4.550725498879473 3.3307665155968667 0.5312116115704832 0 0 0
24 8 1 0.5897 1.7101730616847026 5.039596953901045 0.7438658707003141 0 0 0
27 9 1 0.5897 4.212959875898303 5.186597369538445 0.4198638398776671 0 0 0
16 6 2 -1.1794 0.22129999966332192 1.7143944349092008 1.8781832713667954 0 0 0
13 5 2 -1.1794 1.5493956692188087 2.7228482177854385 4.713153117284816 0 0 0
21 7 1 0.5897 5.28243852402458 2.7961755339417342 0.8393294544018088 0 0 0
22 8 2 -1.1794 1.6269174878179076 4.179621451174164 1.155602758298508 0 0 0
867 289 1 0.5897 4.410259893501002 0.32196342090032515 5.5809953420152345 0 1 0
14 5 1 0.5897 2.366806092213149 3.169886916532071 4.493716736952903 0 0 0
23 8 1 0.5897 0.8878162158245222 4.27189484714783 1.756752553933342 0 0 0
28 10 2 -1.1794 1.8350532539989888 0.006785499293586406 4.740998818436686 0 0 0
15 5 1 0.5897 1.8091128483224124 1.8173152501168504 4.882152925854875 0 0 0
387 129 1 0.5897 3.9487315172661415 0.16716954583468163 1.2382429989430386 0 1 0
97 33 2 -1.1794 -0.044740645406468035 4.640569338349683 3.297004109785529 1 0 0
25 9 2 -1.1794 4.015370496158071 6.049565026850282 0.7835413460166977 0 0 0
98 33 1 0.5897 0.49041013768680597 5.391449626959995 3.5536523798553707 1 0 0
47 16 1 0.5897 5.921332763879429 0.695818372181349 1.5377282337139109 0 0 0
99 33 1 0.5897 0.4642915430263518 3.8780808700962863 3.5718886410074338 1 0 0
499 167 2 -1.1794 4.662153701495832 3.295659677381038 6.4847267706623954 0 0 0
481 161 2 -1.1794 4.3705477991879045 1.2239783766162518 9.967263266223272 0 0 0
503 168 1 0.5897 0.6736734009948858 4.328964375389109 6.104128967778262 0 0 0
500 167 1 0.5897 3.9244413711370107 3.118345179828658 7.068259642444994 0 0 0
484 162 2 -1.1794 2.7095029251961793 1.05994201691434 7.731672506093178 0 0 0
485 162 1 0.5897 3.110564476101333 0.9005708044391147 8.585995217953108 0 0 0
486 162 1 0.5897 3.1883621371332356 0.4885184574089554 7.131449229465041 0 0 0
508 170 2 -1.1794 1.6119541292231818 0.02934293460793419 10.687414993301665 0 0 0
489 163 1 0.5897 4.72986170143815 4.46709928233448 9.304673967060246 0 0 0
490 164 2 -1.1794 2.9811773546858165 4.10116563147028 8.783381333001667 0 0 0
491 164 1 0.5897 2.57636820449797 4.85434715372988 9.21337270717671 0 0 0
492 164 1 0.5897 2.6513232600060346 3.343429728154474 9.266163413541735 0 0 0
493 165 2 -1.1794 1.304629090699649 2.7610952206910984 10.634296918371932 0 0 0
629 210 1 0.5897 0.8373952386905062 5.837082075620812 10.434588680134457 0 0 0
482 161 1 0.5897 5.1013438951967345 1.4637763533443842 9.397532884839327 0 0 0
498 166 1 0.5897 0.9418814274044351 1.8055960014319454 7.888476988347555 0 0 0
501 167 1 0.5897 4.626912693369747 4.240061554183167 6.333586452342481 0 0 0
483 161 1 0.5897 4.1864025638595885 2.018214529767539 10.468562258443882 0 0 0
865 289 2 -1.1794 4.726166357664026 -0.10677157986023432 6.376279412143512 0 1 0
502 168 2 -1.1794 1.0861413765644468 4.810873029925631 6.820873763742265 0 0 0
527 176 1 0.5897 5.846603927603179 0.9254866547933105 7.373895233585004 0 0 0
504 168 1 0.5897 1.815970169804131 4.2555108724618815 7.09483463258137 0 0 0
578 193 1 0.5897 0.17763204938351873 4.885320137502844 8.494074548735231 1 0 0
528 176 1 0.5897 6.07180511969515 2.420761399503278 7.442535077310684 0 0 0
494 165 1 0.5897 1.3918810868713902 1.8414867524984049 10.884684992756167 0 0 0
579 193 1 0.5897 0.01781045779840547 3.9058854468821327 9.637146788901218 1 0 0
628 210 2 -1.1794 1.6538866173482876 6.1065729109060065 10.85517119674872 0 0 0
487 163 2 -1.1794 5.646740388721703 4.74010411641986 9.336358304478694 0 0 0
488 163 1 0.5897 6.0520590777159615 4.147004439567219 9.968830083513197 0 0 0
496 166 2 -1.1794 -0.00899785348564304 1.838752501724477 7.993143478773689 0 0 0
985 329 2 -1.1794 4.524117153105201 5.886860595020667 12.134283259574605 0 0 0
961 321 2 -1.1794 4.656261436395133 1.5301437184167745 15.301202147350072 0 0 0
962 321 1 0.5897 5.4025473218093 1.6055998215304244 14.70661667051667 0 0 0
963 321 1 0.5897 4.830035217349547 0.7349255423290456 15.804644010400729 0 0 0
964 322 2 -1.1794 2.865478705276819 1.4859829799027395 13.398570675509868 0 0 0
965 322 1 0.5897 3.2912314028897467 1.6031744189530541 14.24775805320538 0 0 0
966 322 1 0.5897 1.9370618988545427 1.3833863393289472 13.607674169951842 0 0 0
987 329 1 0.5897 4.370149915538528 4.946331387724995 12.046548054686912 0 0 0
970 324 2 -1.1794 3.2288896731044883 4.528920146861684 14.782347130416467 0 0 0
971 324 1 0.5897 4.1792770724631385 4.419116408228623 14.752019269986652 0 0 0
972 324 1 0.5897 2.9472309438396973 3.9809280558951112 15.514771113113003 0 0 0
973 325 2 -1.1794 1.2757042132646317 3.0080999692127057 16.289869320432288 0 0 0
975 325 1 0.5897 0.6056306180816761 3.3869329892637667 15.720964408031906 0 0 0
984 328 1 0.5897 1.8082389504512109 4.502116042745773 13.566710116575917 0 0 0
981 327 1 0.5897 5.198508084935078 2.8651937827690777 12.136551076398595 0 0 0
983 328 1 0.5897 1.2181009798388376 5.013576452864118 12.269889537502912 0 0 0
979 327 2 -1.1794 4.324890426980337 3.153533001361758 11.872285292649726 0 0 0
982 328 2 -1.1794 1.1303195665159096 4.314419853160248 12.917584782845507 0 0 0
495 165 1 0.5897 1.3152842455536926 3.237766258749849 11.464199683510923 0 0 0
990 330 1 0.5897 1.5558556851915581 1.1999959451446933 16.210487911426128 0 0 0
1008 336 1 0.5897 6.007694573717681 0.7930101434333654 12.79957310532423 0 0 0
980 327 1 0.5897 3.7283768620564546 2.6539490531067966 12.429694504619363 0 0 0
1110 370 1 0.5897 2.023223896129671 6.033738014653943 15.683093904386366 0 0 0
1109 370 1 0.5897 0.5553358497086459 5.833616237403535 15.994707636151505 0 0 0
1058 353 1 0.5897 -0.04546198026329762 4.519599003846491 14.284221648693515 1 0 0
988 330 2 -1.1794 1.6127552190301935 0.2656181341321339 16.011278294457846 0 0 0
967 323 2 -1.1794 5.911145572363315 4.60931756722165 14.7836584908066 0 0 0
976 326 2 -1.1794 0.105522708646866 1.3135941861164735 13.55504315499905 0 0 0
1460 487 1 0.5897 4.996674742364043 2.636940152041443 16.75223022648195 0 0 0
968 323 1 0.5897 5.992544650422506 5.469810990998259 15.194673051420297 0 0 0
1346 449 1 0.5897 4.080342687773588 0.08852437978281102 12.76058527945165 0 1 0
974 325 1 0.5897 1.3456490213391263 3.6225046357951634 17.020398812559634 0 0 0
1469 490 1 0.5897 1.7037875328282301 0.9775914982757554 21.950211169751334 0 0 0
1463 488 1 0.5897 0.7668117582839385 4.818097088673728 19.1844313786343 0 0 0
1441 481 2 -1.1794 4.4442322589757355 1.3974068949065592 21.141225764666423 0 0 0
1442 481 1 0.5897 3.6780534837613255 1.451146277816916 20.570034229424856 0 0 0
1443 481 1 0.5897 4.351508268867919 2.1402238387346935 21.73759078511415 0 0 0
1444 482 2 -1.1794 2.7983070392291443 1.544485176795141 18.85803852571113 0 0 0
1461 487 1 0.5897 5.325620822899268 2.584146145549872 18.22891094399607 0 0 0
1446 482 1 0.5897 3.0457085449526944 2.3552836820154925 18.413720743681928 0 0 0
1487 496 1 0.5897 5.779477234669605 1.3473027955442824 19.93473193111388 0 0 0
1450 484 2 -1.1794 3.3064626820549665 4.723701353373346 20.714304615331223 0 0 0
1451 484 1 0.5897 4.2556143635195625 4.729055543807097 20.59061086866012 0 0 0
1452 484 1 0.5897 2.9492569129896715 4.667883122015213 19.828073068608475 0 0 0
1453 485 2 -1.1794 1.485386673763928 2.8441275165437383 21.548104228753274 0 0 0
1456 486 2 -1.1794 0.10147613840423908 1.586139560123661 19.03141260933866 0 0 0
1464 488 1 0.5897 1.5053766048649182 5.490530068777799 18.046908449113488 0 0 0
1466 489 1 0.5897 4.710119585430809 4.95459043738116 17.726171855769145 0 0 0
1459 487 2 -1.1794 4.838382782899612 3.0912561056647676 17.579644302676016 0 0 0
1462 488 2 -1.1794 1.5033081074688532 4.6989002520181895 18.58480789368638 0 0 0
1445 482 1 0.5897 1.8536695980587017 1.4740361420224417 18.720489296678984 0 0 0
1826 609 1 0.5897 4.04970754081131 0.22858429407542263 17.82152108851647 0 1 0
1468 490 2 -1.1794 1.6659495756595926 0.025549071108608407 21.85986665999659 0 0 0
1454 485 1 0.5897 2.2323457180774056 3.2862418118120202 21.144706250046376 0 0 0
386 129 1 0.5897 4.363720632400884 -0.059428504389952994 22.67010088892853 0 1 -1
1465 489 2 -1.1794 4.392948404990265 5.850579180824234 17.838465227070635 0 0 0
1538 513 1 0.5897 0.26245792581135013 4.0688168585793685 21.10707918940465 1 0 0
1447 483 2 -1.1794 6.1017127542697445 4.616785857363154 20.49597981728985 0 0 0
1590 530 1 0.5897 2.1475507864744325 5.891377176303872 21.658882307630535 0 0 0
1455 485 1 0.5897 1.4468516072552884 3.1997110102909248 22.435888240814805 0 0 0
125 42 1 0.5897 2.8159528859447875 7.207847967382153 1.504044138076186 0 0 0
121 41 2 -1.1794 4.603374228825565 7.82743448036415 4.103648467459601 0 0 0
122 41 1 0.5897 3.872550010611088 8.03305890472134 3.520730664580134 0 0 0
123 41 1 0.5897 5.339514368324848 7.659138529968044 3.5154823365195087 0 0 0
124 42 2 -1.1794 2.641491393039871 8.0085573579782 1.9984570145014766 0 0 0
139 47 2 -1.1794 4.422750957741839 9.395265089168213 0.4376079396314263 0 0 0
126 42 1 0.5897 3.2966528987110753 8.631791114122004 1.6846977976109632 0 0 0
144 48 1 0.5897 1.279557029304073 11.497420805363252 0.9414224501137598 0 0 0
143 48 1 0.5897 0.43640333671344145 10.927815865763591 2.0622500230075835 0 0 0
130 44 2 -1.1794 2.9837480819080513 10.904087021340192 3.4825386769790327 0 0 0
135 45 1 0.5897 2.3741389141352576 9.516341862718278 4.625149526595578 0 0 0
132 44 1 0.5897 2.3810498365615116 10.754209315392552 2.7542270612440385 0 0 0
133 45 2 -1.1794 1.534276011947593 9.217545983254126 4.973761490636845 0 0 0
148 50 2 -1.1794 1.610432144464028 6.465280070764412 4.729030989292326 0 0 0
131 44 1 0.5897 2.719920618650164 11.751019939706358 3.841887028363305 0 0 0
137 46 1 0.5897 0.9342108091622741 7.979963085392786 2.1479480700837565 0 0 0
140 47 1 0.5897 4.515377191837671 10.300439742622096 0.14084111246119205 0 0 0
219 73 1 0.5897 0.2500601178126526 10.213109671124387 3.9120371801428844 1 0 0
142 48 2 -1.1794 1.0371327376720387 10.672652704498917 1.3621423760810505 0 0 0
129 43 1 0.5897 4.966994745994358 10.967944617009493 3.181099457124699 0 0 0
149 50 1 0.5897 1.4866421573609738 7.412009810354942 4.795111832745375 0 0 0
136 46 2 -1.1794 -0.022587962264304498 7.95279326944447 2.144081383572458 0 0 0
167 56 1 0.5897 5.977697004794593 8.33438316977751 1.7700539308524865 0 0 0
127 43 2 -1.1794 5.88094867235345 10.743183640287167 3.3553677739155283 0 0 0
145 49 2 -1.1794 4.6100320855779895 12.287288567473212 0.43526284316126573 0 0 0
507 169 1 0.5897 4.491137632237374 6.7570609717068635 5.499157187372443 0 0 0
621 207 1 0.5897 4.8036591885130555 9.192920094990434 5.460210638566597 0 0 0
150 50 1 0.5897 1.4640349295647281 6.141543897009796 5.617771189241801 0 0 0
26 9 1 0.5897 4.798389808929344 6.285295251656513 1.2810180957648405 0 0 0
270 90 1 0.5897 0.6306135187937645 12.252402777383336 4.778060786293171 0 0 0
620 207 1 0.5897 5.3626750357882464 8.79412262178683 6.809302462298834 0 0 0
624 208 1 0.5897 1.7162360360929338 11.440515293491174 6.609156009339189 0 0 0
601 201 2 -1.1794 5.04349948926356 7.657221647735709 9.971329580549037 0 0 0
750 250 1 0.5897 1.0113771287645765 12.176453061328667 10.405926721363151 0 0 0
603 201 1 0.5897 4.288536672061623 7.349488075875231 9.469837087545324 0 0 0
604 202 2 -1.1794 3.0340810536993317 7.743258135087211 8.000073359019982 0 0 0
605 202 1 0.5897 3.2852773883786033 8.4752100915808 7.436880882797502 0 0 0
606 202 1 0.5897 2.0770295942777026 7.745381473734265 7.983840807567077 0 0 0
630 210 1 0.5897 1.6417263285372123 7.062606386412809 10.812219988076883 0 0 0
610 204 2 -1.1794 3.235588187722853 10.488713853868722 9.451466305447141 0 0 0
611 204 1 0.5897 4.135834828357611 10.648946298426951 9.168473451842143 0 0 0
607 203 2 -1.1794 5.831615630573085 10.895719463375416 9.128281185439652 0 0 0
134 45 1 0.5897 1.4029284209862276 9.740534016336898 5.764517276364925 0 0 0
615 205 1 0.5897 1.9923691089391071 9.337324909510652 10.1943532066507 0 0 0
612 204 1 0.5897 2.9959097241494517 11.273037069845678 9.944845728861479 0 0 0
625 209 2 -1.1794 4.473177196319289 12.098989002453177 6.357497075716202 0 0 0
626 209 1 0.5897 4.591821557423941 11.155172424721085 6.462962577329716 0 0 0
648 216 1 0.5897 5.757430611609287 7.0160844096970685 7.209990131948628 0 0 0
622 208 2 -1.1794 1.4674174610228656 10.71229800602574 7.178212750938136 0 0 0
623 208 1 0.5897 2.0942389407395807 10.747339611089325 7.900718065300631 0 0 0
647 216 1 0.5897 6.114830523006011 7.660676495557625 8.532222463604423 0 0 0
613 205 2 -1.1794 1.241501437282399 8.922258149044788 10.618713976795762 0 0 0
602 201 1 0.5897 4.974374292824649 7.204008901061242 10.811506585850388 0 0 0
619 207 2 -1.1794 4.846029062210376 9.472501886770369 6.374610805870382 0 0 0
1101 367 1 0.5897 4.396331050281738 9.24563440634661 11.044154917393945 0 0 0
616 206 2 -1.1794 0.21867184564204112 7.587419828668672 7.86360213805404 0 0 0
506 169 1 0.5897 3.818107024255534 6.729898620236285 6.854856290354594 0 0 0
699 233 1 0.5897 0.04107593680676799 10.769336442394964 8.659109671977177 1 0 0
698 233 1 0.5897 0.06400961533649827 10.270693183444084 10.088219313211397 1 0 0
505 169 2 -1.1794 4.377442271582937 6.210991808398443 6.276937191781126 0 0 0
1100 367 1 0.5897 5.22560857738425 8.980955181686271 12.282654744730072 0 0 0
1093 365 2 -1.1794 1.1599188630237183 9.092824811610301 16.561730151045246 0 0 0
1081 361 2 -1.1794 4.263387531631942 7.8095740318391735 15.724383937679308 0 0 0
1082 361 1 0.5897 4.4410678932815015 8.61162772168591 16.215459925541168 0 0 0
1083 361 1 0.5897 4.143544308117039 7.138502546617058 16.396206682439455 0 0 0
1084 362 2 -1.1794 2.9286080731658717 7.93209566290049 13.217502049679585 0 0 0
1087 363 2 -1.1794 5.701762501181873 10.411061736771247 15.112866193527891 0 0 0
1086 362 1 0.5897 3.42137777535313 8.609525232351443 12.754532498760748 0 0 0
986 329 1 0.5897 3.8033085495971295 6.197925575525358 12.681847550597935 0 0 0
1089 363 1 0.5897 4.760078091103854 10.549217764722046 15.01110335262608 0 0 0
1090 364 2 -1.1794 3.0727486846476313 10.719752117446069 14.9034310943093 0 0 0
1091 364 1 0.5897 2.7752301588080055 11.444789885906427 15.452833132189241 0 0 0
1092 364 1 0.5897 2.6791611313218797 9.942026766499948 15.298745373197777 0 0 0
1085 362 1 0.5897 3.445033361108637 7.7547102550113145 14.003610528110741 0 0 0
1099 367 2 -1.1794 4.491814589317462 9.50442186911918 11.960677875553563 0 0 0
1107 369 1 0.5897 4.8871359362044835 11.18571553021874 12.012384985119708 0 0 0
1096 366 2 -1.1794 0.20465611827457741 7.444292788031814 13.282974356561484 0 0 0
1097 366 1 0.5897 1.0610188836975245 7.8542156485203565 13.404532515940463 0 0 0
1095 365 1 0.5897 0.34676878715813414 9.187250776999948 16.065693349539465 0 0 0
1094 365 1 0.5897 1.2213980861302374 8.15558789655112 16.745550726308515 0 0 0
1102 368 2 -1.1794 1.1228103822537159 10.653922259301035 12.83868298247235 0 0 0
1103 368 1 0.5897 1.3593880729440513 11.253324920115826 12.131006607110528 0 0 0
1104 368 1 0.5897 1.8315777079128444 10.74316156348641 13.475750767821184 0 0 0
1127 376 1 0.5897 5.4336149083244925 7.637875162305535 14.583027766065639 0 0 0
1108 370 2 -1.1794 1.3392119075045568 6.288793736688441 16.302144543229375 0 0 0
1128 376 1 0.5897 5.803367202753062 6.767616959935862 13.400905622291189 0 0 0
1105 369 2 -1.1794 4.985352309420294 12.119760947299993 12.196513068810988 0 0 0
1126 376 2 -1.1794 5.979231720322764 7.621048246312182 13.79679800889852 0 0 0
1178 393 1 0.5897 -0.03000530912755045 11.516589880288178 15.69833876145836 1 0 0
1088 363 1 0.5897 6.022426181281081 11.22295132165501 15.50533856180561 0 0 0
614 205 1 0.5897 1.2680341122618826 9.24258695957498 11.52025066200693 0 0 0
1179 393 1 0.5897 -0.019497636854396205 10.8954743593169 14.317895553285037 1 0 0
1230 410 1 0.5897 1.215600156812196 12.233995476602594 17.113993022056228 0 0 0
1585 529 2 -1.1794 4.178738912676503 12.334657993526124 17.726317436470907 0 0 0
1467 489 1 0.5897 5.081264515100587 6.287665603456735 18.339779015536934 0 0 0
1588 530 2 -1.1794 1.4127382557949446 6.213919200044509 22.180583333144988 0 0 0
1561 521 2 -1.1794 4.3786993203784785 7.42312698261773 21.25408328847019 0 0 0
1562 521 1 0.5897 4.259204733288634 6.9577178123664565 22.081844048886445 0 0 0
1563 521 1 0.5897 3.4990274805183175 7.713144414981302 21.012725266900496 0 0 0
1564 522 2 -1.1794 2.6736399075621495 7.878209810193502 19.184793287957753 0 0 0
1565 522 1 0.5897 1.7495314805430129 7.643944433934413 19.270484502955036 0 0 0
1566 522 1 0.5897 3.085172142285345 7.098969604027937 18.811323636041188 0 0 0
1579 527 2 -1.1794 4.494966753054744 9.361390717112023 17.909483462349918 0 0 0
1570 524 2 -1.1794 3.0307737420411875 10.857524395415702 20.576593457405345 0 0 0
1571 524 1 0.5897 2.623597695778345 10.959342464918699 19.716385259611428 0 0 0
1572 524 1 0.5897 3.9709266948241586 10.911286774274465 20.405005536156125 0 0 0
1584 528 1 0.5897 1.2401760835962157 10.20268535415342 18.053224923655634 0 0 0
1574 525 1 0.5897 1.7097117274475566 9.216143429441379 22.7542867683052 0 0 0
1580 527 1 0.5897 3.772667958999836 8.852969074358821 18.27815749273487 0 0 0
1587 529 1 0.5897 4.165172600630112 11.392576419356391 17.894484151389904 0 0 0
1575 525 1 0.5897 2.088500847691634 9.48162913639687 21.312890078785138 0 0 0
1581 527 1 0.5897 5.261922261697149 9.089009093263279 18.413224846306726 0 0 0
1582 528 2 -1.1794 1.201127183486049 11.038599105253121 18.517698064883056 0 0 0
1583 528 1 0.5897 0.6556803751739212 10.86203777346281 19.284149164211648 0 0 0
1589 530 1 0.5897 1.394446748832985 7.1559521028885875 22.012581688406463 0 0 0
1573 525 2 -1.1794 1.5364337962320538 8.922888642452365 21.859821190305098 0 0 0
141 47 1 0.5897 4.560169465987684 8.869263472438186 22.5197935225645 0 0 -1
1567 523 2 -1.1794 5.820007112378527 10.917468991389725 20.60906537491723 0 0 0
1710 570 1 0.5897 2.065248287251725 11.81500363368816 21.669308391956633 0 0 0
1608 536 1 0.5897 5.570683717545659 7.317446919520799 20.03495601831544 0 0 0
1709 570 1 0.5897 0.5823049285743521 12.103025067489693 21.570554207322616 0 0 0
1606 536 2 -1.1794 6.016010044499151 7.528612048752334 19.21446193716306 0 0 0
1658 553 1 0.5897 0.03910208514671315 9.873586719103526 21.09167134341054 1 0 0
1576 526 2 -1.1794 -0.08275799776577486 7.232749244128673 19.141448893307768 0 0 0
1569 523 1 0.5897 6.101169513821257 11.545347929321435 21.27447478445167 0 0 0
287 96 1 0.5897 5.6852544581282745 13.896542619651179 3.0888572408775112 0 0 0
256 86 2 -1.1794 -0.07388702010234573 13.483667745207065 1.9515710050060793 0 0 0
241 81 2 -1.1794 4.54974687116222 13.845884973273492 4.30444493184717 0 0 0
242 81 1 0.5897 4.568670473651009 13.053090080650463 4.840293949761046 0 0 0
243 81 1 0.5897 3.7275908869480774 13.787085974094053 3.8178386393811388 0 0 0
244 82 2 -1.1794 2.7328483695060135 13.63221023695853 1.8784466562025108 0 0 0
245 82 1 0.5897 1.8241521022583134 13.729000870950204 2.163242208038064 0 0 0
246 82 1 0.5897 2.965896899310079 14.490094290990037 1.5238610425449852 0 0 0
254 85 1 0.5897 0.6770656510587674 15.865445949677436 4.204143170672569 0 0 0
250 84 2 -1.1794 3.0933228180125223 16.951433314807993 3.286408430296385 0 0 0
251 84 1 0.5897 2.6879680337536906 16.901372735816288 2.420784947934064 0 0 0
252 84 1 0.5897 4.028509325765088 16.832257988360247 3.120756589124913 0 0 0
146 49 1 0.5897 3.866172111363203 12.695371686210567 0.8783152658732475 0 0 0
253 85 2 -1.1794 1.368268884378373 15.364043078959895 4.636534176111941 0 0 0
389 130 1 0.5897 2.033307265539088 18.241769013609947 4.231030206216578 0 0 0
269 90 1 0.5897 1.1817163396136312 13.6314720199951 5.070995326454793 0 0 0
259 87 2 -1.1794 4.536743385059762 15.614978187943391 0.8832503333529284 0 0 0
260 87 1 0.5897 4.628714875174429 16.527118596803057 0.6084241323148503 0 0 0
262 88 2 -1.1794 1.106480330616652 17.043078181966855 1.133084542404007 0 0 0
263 88 1 0.5897 1.1532077396651126 16.235576281292893 0.6214496966485268 0 0 0
264 88 1 0.5897 1.4031952074236589 17.72577491745536 0.5314747482853056 0 0 0
255 85 1 0.5897 2.1818945158724676 15.716591551632426 4.276135140045573 0 0 0
288 96 1 0.5897 5.765084137592234 14.628376805939313 1.7661534969268866 0 0 0
268 90 2 -1.1794 1.4184008074164463 12.704174133225932 5.08046504619458 0 0 0
147 49 1 0.5897 5.379664146372015 12.679663592951218 0.8474036179968866 0 0 0
247 83 2 -1.1794 5.830618033007419 17.009653132821157 3.5991579887937206 0 0 0
265 89 2 -1.1794 4.5514940662419505 18.392062291330724 0.6995086991907863 0 0 0
339 113 1 0.5897 0.06655694337882409 17.762465260913217 3.9047288911209757 1 0 0
261 87 1 0.5897 4.461463394079074 15.124274420515157 0.0649452574554985 0 0 0
731 244 1 0.5897 2.546286614079537 17.303537926678914 8.363657595368103 0 0 0
721 241 2 -1.1794 4.843549607647092 14.230032183208493 10.01271942276527 0 0 0
722 241 1 0.5897 3.972688634152357 13.963645743896139 9.718038939257267 0 0 0
733 245 2 -1.1794 1.2818793281456056 15.204169192390854 10.722888810474553 0 0 0
724 242 2 -1.1794 2.7827723985794064 13.99604941137416 7.853755624337598 0 0 0
725 242 1 0.5897 3.389363108495517 14.732776075497814 7.7805379493175515 0 0 0
726 242 1 0.5897 3.176547977061761 13.307029972961804 7.318736070253015 0 0 0
748 250 2 -1.1794 1.864875010371514 12.421801262997665 10.76304873639487 0 0 0
728 243 1 0.5897 5.021861765187904 16.68607257715135 9.264030630882198 0 0 0
730 244 2 -1.1794 3.0448530533919254 16.94405274328765 9.097359238523218 0 0 0
818 273 1 0.5897 0.18416271348618096 16.889745632747996 8.531256125766406 1 0 0
732 244 1 0.5897 2.5163403814448024 16.209750056325262 9.409672582186971 0 0 0
741 247 1 0.5897 4.700536546524134 16.58121555140081 6.264278818617333 0 0 0
768 256 1 0.5897 5.992359504785157 14.49398397786748 7.204875070152499 0 0 0
735 245 1 0.5897 0.5596885075748879 15.650559555205232 10.280947557819703 0 0 0
737 246 1 0.5897 0.8976667764833117 14.411881321123435 7.823311816021341 0 0 0
739 247 2 -1.1794 4.695656308494091 15.678461851533955 6.582104462357921 0 0 0
743 248 1 0.5897 1.3479554231066109 18.05484918454058 6.744971992070462 0 0 0
742 248 2 -1.1794 1.1391510270739653 17.186881600049226 7.089999080250269 0 0 0
736 246 2 -1.1794 -0.04198713374880251 14.239470899293886 7.76381490811156 0 0 0
744 248 1 0.5897 1.11234638466537 16.621872811004216 6.317923283317573 0 0 0
749 250 1 0.5897 1.801623183283821 13.365579601302722 10.908885666278508 0 0 0
723 241 1 0.5897 5.404144727739841 14.107252619088271 9.246677256829633 0 0 0
869 290 1 0.5897 0.63751921186852 18.547366552385526 10.420287397073706 0 0 0
727 243 2 -1.1794 5.960459861877282 16.864586387893908 9.322104637488263 0 0 0
745 249 2 -1.1794 5.03264448080326 18.537271697406915 6.058578322944558 0 0 0
1106 369 1 0.5897 4.874708604187727 12.544865801836265 11.346144736910162 0 0 0
870 290 1 0.5897 2.119042816039583 18.29968772675074 10.231641830232853 0 0 0
740 247 1 0.5897 4.471483449718065 15.154578420503936 5.813104557791417 0 0 0
729 243 1 0.5897 6.041032319215021 17.49463518954729 10.038059659072037 0 0 0
627 209 1 0.5897 5.253679478062418 12.484828337497463 6.755140881975197 0 0 0
1211 404 1 0.5897 2.827853273788297 17.824989663893682 15.792044622565363 0 0 0
1201 401 2 -1.1794 4.737471723692411 14.03425262177061 15.474540162661341 0 0 0
1227 409 1 0.5897 4.292623570335262 17.258797396252277 12.110029943876956 0 0 0
1203 401 1 0.5897 4.844270656968848 13.265013120436457 16.033905463524327 0 0 0
1204 402 2 -1.1794 2.7828145506731854 13.406238101860705 13.473183593757108 0 0 0
1205 402 1 0.5897 3.069057283080782 13.568192946511026 14.372039545954443 0 0 0
1206 402 1 0.5897 3.3969213583260056 12.752058653844445 13.14000079976971 0 0 0
1213 405 2 -1.1794 1.3624615980157457 15.332890611318753 16.2405219962888 0 0 0
1210 404 2 -1.1794 3.2275572044660077 17.29267391721688 15.104326396988457 0 0 0
1220 407 1 0.5897 3.457215715878965 14.872981481053062 12.600084870231335 0 0 0
1212 404 1 0.5897 4.169680149697325 17.404359410046112 15.231383822176587 0 0 0
1219 407 2 -1.1794 4.160230903845856 15.465058817202808 12.333004982037137 0 0 0
1228 410 2 -1.1794 1.33902374773349 12.659967270196917 16.265822995034455 0 0 0
1700 567 1 0.5897 4.624515525655129 15.50850659089693 16.751770490763917 0 0 0
1215 405 1 0.5897 2.2014610398144363 15.731565205235263 16.009646494454273 0 0 0
1218 406 1 0.5897 0.9809936119970388 13.894194877410955 13.854704586244386 0 0 0
1298 433 1 0.5897 0.07192560116664476 17.09561440628667 14.27743020042614 1 0 0
1216 406 2 -1.1794 0.029005190740019643 13.990124765675308 13.827680596765447 0 0 0
1222 408 2 -1.1794 1.4596402933485721 16.9460521726726 13.004940935434698 0 0 0
1223 408 1 0.5897 1.448493812341505 17.653564421876375 12.360469772283121 0 0 0
1224 408 1 0.5897 2.1201881199167216 17.213739206031384 13.643829910192386 0 0 0
1214 405 1 0.5897 0.7080677273288108 15.88865394599353 15.817420972269533 0 0 0
1202 401 1 0.5897 5.381408692892079 13.914688697632014 14.77653936894284 0 0 0
1225 409 2 -1.1794 4.5425954914037225 18.160324388291265 11.908071115968314 0 0 0
1247 416 1 0.5897 5.805809431279504 14.699659746611163 12.833048226616343 0 0 0
1229 410 1 0.5897 1.0146238206867866 13.551025444331312 16.39539330596474 0 0 0
1207 403 2 -1.1794 6.044048151528142 17.02127588075559 15.093698610025152 0 0 0
734 245 1 0.5897 1.5164220420404622 15.785230050648709 11.446365195715925 0 0 0
1226 409 1 0.5897 5.318595764138015 18.320264604549877 12.445126991762562 0 0 0
1221 407 1 0.5897 4.406578486545397 15.165791616327356 11.457878417551402 0 0 0
1693 565 2 -1.1794 1.355055452121776 15.19542982822794 22.019671063447404 0 0 0
1699 567 2 -1.1794 4.574033205976681 15.736440576912981 17.67998809371172 0 0 0
1681 561 2 -1.1794 4.49091207610441 14.08337764700525 21.15512840102656 0 0 0
1704 568 1 0.5897 1.2267222616529578 17.986394011740714 18.11469525408971 0 0 0
1682 561 1 0.5897 5.278321713131039 13.975611768443791 20.62169830535109 0 0 0
1684 562 2 -1.1794 2.6051710132137007 14.290526217730479 19.11761397651079 0 0 0
1685 562 1 0.5897 2.7554833546654027 13.547319526645389 18.533592104306273 0 0 0
1686 562 1 0.5897 3.3061046112435233 14.231239443846906 19.766721760419074 0 0 0
1778 593 1 0.5897 0.19368442930463514 16.916530192924455 19.901002726146388 1 0 0
1689 563 1 0.5897 5.013760557859541 16.90481559700583 21.063286413837112 0 0 0
1690 564 2 -1.1794 3.241821626407999 17.039955599955356 20.798915710404067 0 0 0
1691 564 1 0.5897 2.700273247971853 16.321323850499034 21.12504376679064 0 0 0
1692 564 1 0.5897 2.8892785886743915 17.230742171778957 19.929762753773133 0 0 0
1705 569 2 -1.1794 4.7470863150226545 18.357357917148214 18.062178607224183 0 0 0
1707 569 1 0.5897 4.9271340084164175 17.417383987693526 18.05727844429002 0 0 0
1697 566 1 0.5897 0.8581024902282754 13.88988525143517 19.319674865316742 0 0 0
1728 576 1 0.5897 5.8866362088796205 14.6599882487247 18.532724911105987 0 0 0
1706 569 1 0.5897 4.606798911743206 18.57960388152732 17.141841788949293 0 0 0
1703 568 1 0.5897 1.396370498585127 16.49966456234437 17.88636854872398 0 0 0
1701 567 1 0.5897 3.733219031273562 15.381775403744012 17.968811712815963 0 0 0
1702 568 2 -1.1794 1.3980294442182735 17.164735496131897 18.574639946672562 0 0 0
1683 561 1 0.5897 4.490329553638702 13.324395183466885 21.73819461468925 0 0 0
1694 565 1 0.5897 0.7626730538193336 15.4386641072366 21.308294830426703 0 0 0
1695 565 1 0.5897 1.3649070924053166 14.238496281554289 22.007101868358248 0 0 0
1779 593 1 0.5897 0.23075674837325894 17.704700702741178 21.192858126795905 1 0 0
1586 529 1 0.5897 5.019449621469924 12.628871940502588 18.07677949675545 0 0 0
1687 563 2 -1.1794 5.968227920777051 16.86458110165789 21.003389640749987 0 0 0
1708 570 2 -1.1794 1.3850817505014816 12.403631733368748 21.996416539878886 0 0 0
1696 566 2 -1.1794 -0.09057747783488063 13.917554698126626 19.44401621471234 0 0 0
1726 576 2 -1.1794 6.126927403117118 13.851771690163012 18.98556621249861 0 0 0
1830 610 1 0.5897 2.062388518809396 18.369349874147353 21.426492943537745 0 0 0
380 127 1 0.5897 4.703431345127786 22.991556828303132 0.7511589601264737 0 0 0
363 121 1 0.5897 4.842928288515447 19.41119956506646 4.500070155092566 0 0 0
361 121 2 -1.1794 4.727666927405657 20.204996793632837 3.977910513707654 0 0 0
362 121 1 0.5897 4.032193905760297 19.985550419329364 3.357954510873168 0 0 0
379 127 2 -1.1794 4.488540515591419 22.060195663442784 0.702348092167068 0 0 0
364 122 2 -1.1794 2.748770076726555 20.00261779840887 1.910024495303163 0 0 0
365 122 1 0.5897 2.966229546879951 20.726303415277798 1.3226339638545992 0 0 0