LAMMPS data file via write_data, version 30 Jul 2021, timestep = 16750000

1296 atoms
2 atom types
864 bonds
1 bond types
432 angles
1 angle types

-10.517575135397118 12.497575135397119 xlo xhi
-9.029995409206457 12.019993409206457 ylo yhi
0.3086796535536127 21.55131934645083 zlo zhi
-9.07447690462788 1.8079860111577415 2.6684797455451053 xy xz yz

Masses

1 1.008
2 15.999

Pair Coeffs # lj/cut/tip4p/long/omp

1 0 0
2 0.21084 3.1668

Bond Coeffs # harmonic/omp

1 450 0.9572

Angle Coeffs # harmonic/omp

1 55 104.52

Atoms # full

282 94 1 0.5897 -10.359029778416852 -4.039078973151023 1.761808399701479 1 1 0
280 94 2 -1.1794 -9.494946322606319 -4.448278153655765 1.716759460845614 1 1 0
299 100 1 0.5897 -6.500824026877284 -7.85398871934939 4.231128221780038 1 1 0
163 55 2 -1.1794 -7.0927336284591185 -7.844652129402624 1.0850427515612275 1 1 0
164 55 1 0.5897 -6.279004261724019 -8.220198806430016 1.4210319915921843 1 1 0
270 90 1 0.5897 -8.36725813506866 -7.293228214315073 2.2373930037846224 1 1 0
269 90 1 0.5897 -9.188397707535131 -6.042127554891275 2.4667022003299017 1 1 0
268 90 2 -1.1794 -9.053056053057267 -6.930069382888442 2.7978052416201136 1 1 0
324 108 1 0.5897 -6.994732121902572 -4.26647978606999 3.6984665339129688 1 1 0
73 25 2 -1.1794 -8.253067223574474 -3.703693177590341 4.876222465095538 1 0 0
298 100 2 -1.1794 -5.893887597654542 -7.1138586300143825 4.231664551846176 1 1 0
314 105 1 0.5897 -8.749774858410769 -6.649521179322794 4.550945903378629 1 1 0
323 108 1 0.5897 -6.192502857042656 -5.528840049725412 3.4639665396585486 1 1 0
259 87 2 -1.1794 -6.660871288012286 -5.203948193826526 0.45406666907891297 1 1 0
261 87 1 0.5897 -6.6217211353144485 -4.9001024082800635 1.3609574466626395 1 1 0
315 105 1 0.5897 -8.555457405659947 -5.407041409385255 5.393876134218689 1 1 0
313 105 2 -1.1794 -8.707732830588384 -6.349861109448391 5.459098740870028 1 1 0
260 87 1 0.5897 -6.806645716287926 -6.147516443600638 0.5232145533015908 1 1 0
275 92 1 0.5897 -10.410468983008379 -7.852366647513776 3.491769248588457 1 1 0
300 100 1 0.5897 -5.026361547110518 -7.515127817484177 4.1817359855181895 1 1 0
281 94 1 0.5897 -8.881484215547243 -3.71355190831585 1.7149604322496617 1 1 0
322 108 2 -1.1794 -6.323328200881917 -4.641784243483793 3.1286989580513036 1 1 0
75 25 1 0.5897 -9.062527449157809 -3.326789132589142 4.531550783414187 1 0 0
165 55 1 0.5897 -7.351454058400241 -8.430461419590321 0.3736212421639074 1 1 0
74 25 1 0.5897 -7.998612754545237 -3.1158375145122372 5.5874957692556455 1 0 0
44 15 1 0.5897 -9.804570471767239 0.8895353604434177 0.525064428821745 1 0 0
273 91 1 0.5897 -10.355598720665311 -1.416604120053825 0.35010843008016684 1 1 0
84 28 1 0.5897 -8.040806361915273 -0.48407197634026744 4.177568107948755 1 0 0
258 86 1 0.5897 -12.386256098214849 -2.691200627042936 1.345018467038839 1 1 0
54 18 1 0.5897 -11.345485641939225 -0.2677308754776657 2.2330396499251277 1 0 0
59 20 1 0.5897 -13.395407969896485 -0.8264407503206925 3.4887973087786395 1 0 0
53 18 1 0.5897 -12.164796644862646 0.9843224460800055 2.463687338329555 1 0 0
52 18 2 -1.1794 -12.023306138249975 0.09948259275940963 2.8004744743233068 1 0 0
82 28 2 -1.1794 -8.90833712318806 -0.08394535990091612 4.23589021476536 1 0 0
107 36 1 0.5897 -9.241275951754016 1.503267954469866 3.4807933781599645 1 0 0
301 101 2 -1.1794 -7.8342582903637705 -2.238984112069657 1.749314287965138 1 1 0
98 33 1 0.5897 -11.75161269233422 0.37503159258677776 4.558400776989145 1 0 0
256 86 2 -1.1794 -11.944891204335173 -3.2373093802636133 1.99557967782398 1 1 0
67 23 2 -1.1794 -10.519419081951005 -2.3261974809592267 4.161234537699396 1 0 0
97 33 2 -1.1794 -11.717942245831342 0.6716362136094602 5.467905957792732 1 0 0
83 28 1 0.5897 -9.5150751017345 -0.8241465127372898 4.224320424674051 1 0 0
68 23 1 0.5897 -11.184894855992495 -2.4584116836213363 4.836460586351859 1 0 0
99 33 1 0.5897 -11.58195117666751 1.6172348461016899 5.4070489969746856 1 0 0
271 91 2 -1.1794 -10.079954587021208 -0.8253868770973636 1.0506121544862896 1 1 0
272 91 1 0.5897 -9.270530224008144 -1.2111704910140384 1.3854066062078387 1 1 0
69 23 1 0.5897 -10.963618416303948 -2.540731318487495 3.340980070859883 1 0 0
420 140 1 0.5897 -9.053457421298308 -6.424703952616246 9.888963525509723 1 0 0
414 138 1 0.5897 -6.722840334996803 -4.866912480280099 7.525684130793751 1 0 0
413 138 1 0.5897 -7.540634146820151 -3.615185640130128 7.763383557681456 1 0 0
412 138 2 -1.1794 -7.403156231305456 -4.503506888812895 8.092583008262448 1 0 0
350 117 1 0.5897 -7.126259737987284 -4.2356789989371375 9.860416372697125 0 0 0
429 143 1 0.5897 -6.346205184778648 -7.141310651090899 8.682505569835408 1 0 0
428 143 1 0.5897 -6.585626307496906 -7.052428599616295 10.174813082671868 1 0 0
427 143 2 -1.1794 -5.91291703584839 -6.920106672906499 9.506817471444867 1 0 0
627 209 1 0.5897 -10.209924738840149 -6.674798603276967 6.383656053633013 1 1 0
618 206 1 0.5897 -7.711736158619498 -7.296478183107645 6.6534246224684965 1 1 0
419 140 1 0.5897 -8.770630306151055 -5.426080603108399 8.786670985583475 1 0 0
418 140 2 -1.1794 -9.486771219521746 -5.8742959485027 9.236612707859715 1 0 0
616 206 2 -1.1794 -7.271507139066117 -7.842441037712036 7.304877555474681 1 1 0
349 117 2 -1.1794 -7.093009478527584 -3.9359948523482613 10.768926953117331 0 0 0
351 117 1 0.5897 -6.953611039632408 -2.9910976455415685 10.704967469523524 0 0 0
626 209 1 0.5897 -10.444181264654548 -6.581478982296919 7.8765118285590185 1 1 0
633 211 1 0.5897 -5.716342967135102 -6.019906468414319 5.653766003813578 1 1 0
410 137 1 0.5897 -13.44789410787783 0.44136255950329684 7.896927333150377 1 0 0
526 176 2 -1.1794 -12.50503107685813 1.1490967790058981 9.267444330635923 1 0 0
425 142 1 0.5897 -7.25719547439261 -1.2869009319279794 7.032575825902187 1 0 0
401 134 1 0.5897 -11.018472816294842 -1.2878205124163218 7.745037697952519 1 0 0
537 179 1 0.5897 -9.370740319525492 -0.1112164970848788 8.655626214569011 1 0 0
536 179 1 0.5897 -9.603124434490091 -0.02596626386056755 10.149257185932376 1 0 0
535 179 2 -1.1794 -8.93646126301799 0.11720023601088947 9.477445170394445 1 0 0
528 176 1 0.5897 -12.063546149119047 0.5929002874374607 9.909321136348277 1 0 0
424 142 2 -1.1794 -7.864476070123315 -2.026732285898973 7.027706277550105 1 0 0
435 145 1 0.5897 -7.489224395850773 -0.9083470203488453 9.83416811364436 0 0 0
411 137 1 0.5897 -13.213308879061927 0.34545809485204515 6.404287107565879 1 0 0
400 134 2 -1.1794 -10.30583282943202 -0.8313791229608078 7.297814248098877 1 0 0
402 134 1 0.5897 -10.743293430904854 -0.28192429028665345 6.6474318346914805 1 0 0
527 176 1 0.5897 -11.794837755383567 1.6052685487129104 8.816070583668235 1 0 0
522 174 1 0.5897 -9.766486903163688 2.164058014567182 7.538842384325506 1 0 0
426 142 1 0.5897 -8.732084421023863 -1.625090734216304 7.0729878967068105 1 0 0
417 139 1 0.5897 -8.760496689350578 1.0115036730099671 5.663591072319768 1 0 0
652 218 2 -1.1794 -5.675137943841701 -5.439562682614618 12.597017713289391 0 0 0
788 263 1 0.5897 -4.9608214486854765 -4.6277662778115145 15.444137156928127 0 0 0
780 260 1 0.5897 -7.436983983161864 -4.012551607893958 15.196542105049671 0 0 0
779 260 1 0.5897 -7.161210853002186 -3.0003066040722857 14.104938334953335 0 0 0
778 260 2 -1.1794 -7.874195525537221 -3.4579895979301263 14.550339487264987 0 0 0
768 256 1 0.5897 -9.452206998884318 -2.663811086177282 14.79595953494608 0 0 0
654 218 1 0.5897 -6.116540892190971 -4.890140110840723 11.949278231853611 0 0 0
653 218 1 0.5897 -6.385604842813548 -5.8873851009497775 13.056254834930543 0 0 0
766 256 2 -1.1794 -10.316050198996527 -2.2551809680812163 14.849915718303906 0 0 0
740 247 1 0.5897 -10.722391409990598 -3.3976445158260598 12.031920926189532 1 0 0
729 243 1 0.5897 -8.045918973176338 -7.083287017365216 12.008698364541429 1 0 0
684 228 1 0.5897 -8.429224352037274 -6.42581831687891 14.3248983836314 0 0 0
682 228 2 -1.1794 -7.742675827798223 -6.794569059221349 13.76907622245749 0 0 0
663 221 1 0.5897 -8.608525119589485 -4.275795318036789 11.70041439664653 0 0 0
662 221 1 0.5897 -8.83247223640644 -4.178993758483282 13.19462924244095 0 0 0
661 221 2 -1.1794 -9.274110615024176 -4.405086670609333 12.376098132978473 0 0 0
727 243 2 -1.1794 -8.090758160223997 -7.385344891411446 11.101474632200233 1 0 0
767 256 1 0.5897 -10.929652766717203 -2.989758718217999 14.843030179679209 0 0 0
758 253 1 0.5897 -9.440865691918386 -5.283262866044089 16.183935190296854 0 0 0
757 253 2 -1.1794 -9.71079587694217 -5.867556729782434 15.475441499577906 0 0 0
771 257 1 0.5897 -11.605529244187258 2.756311578500517 11.706857113239177 0 0 0
866 289 1 0.5897 -12.470936152514533 1.7335856792486428 16.19571520116571 0 0 0
865 289 2 -1.1794 -12.72385338055675 1.152394418682606 15.478441959120905 0 0 0
791 264 1 0.5897 -10.622697491558265 -0.6663600742094946 14.0932416792134 0 0 0
836 279 1 0.5897 -11.240450996385354 -1.3220422645350816 11.161227719915995 1 0 0
770 257 1 0.5897 -11.83529692948188 2.855507987609867 13.200031120857272 0 0 0
769 257 2 -1.1794 -12.273152364816521 2.6261850360559453 12.380366084523216 0 0 0
790 264 2 -1.1794 -10.757486210686032 0.2197948574878943 13.757163229838591 0 0 0
761 254 1 0.5897 -9.400339273512444 1.1423702228293529 13.061649083380575 0 0 0
888 296 1 0.5897 -10.454068509432405 3.0219400670819816 15.205489189514768 0 0 0
762 254 1 0.5897 -9.127355738196947 2.1440997186604314 11.959692732094954 0 0 0
792 264 1 0.5897 -11.442530703458322 0.586778535115517 14.31600322322441 0 0 0
760 254 2 -1.1794 -8.688735487525475 1.5989013527074345 12.612869110292474 0 0 0
837 279 1 0.5897 -11.052890964269531 -0.07187072285180207 11.994260559947119 1 0 0
835 279 2 -1.1794 -11.094847666596621 -0.3787160809437342 11.088506431163692 1 0 0
896 299 1 0.5897 -7.979673118684804 2.406829723552672 15.467110564011687 0 0 0
789 263 1 0.5897 -4.728270246306042 -4.715879331377417 13.950698427667152 0 0 0
1089 363 1 0.5897 -6.431169955851312 -4.6748952210874 17.288629860080142 0 0 0
1152 384 1 0.5897 -6.823104537782875 -4.016594027124284 19.63038069384011 0 0 0
1225 409 2 -1.1794 -8.080826577299092 -3.4453927207955246 20.80687573032207 0 0 0
1227 409 1 0.5897 -8.89387620512229 -3.072575091255942 20.466234653383914 0 0 0
1109 370 1 0.5897 -8.6699527867897 -3.4603672048828624 17.637526308086343 0 0 0
1219 407 2 -1.1794 -10.34973740844531 -2.089612066951444 20.088650405354734 0 0 0
1108 370 2 -1.1794 -9.273497871204773 -4.2030507331928 17.619700085764954 0 0 0
1129 377 2 -1.1794 -7.647327038219807 -1.9694296462847252 17.69899948804253 0 0 0
1151 384 1 0.5897 -6.011216742264332 -5.274819976095427 19.407187657243334 0 0 0
1150 384 2 -1.1794 -6.15193472782663 -4.393370370513231 19.061309432888862 0 0 0
1248 416 1 0.5897 -5.828320630869541 -1.5717371041838213 20.52175512577022 0 0 0
1097 366 1 0.5897 -8.95942674685805 -5.788165575439039 18.377389799267903 0 0 0
1130 377 1 0.5897 -7.2114214810475605 -1.7412510774285304 18.520022643362566 0 0 0
1143 381 1 0.5897 -8.364653268229414 -5.153354529197473 21.32332018344058 0 0 0
1088 363 1 0.5897 -6.60288783119939 -5.9238891628862 16.450426265679546 0 0 0
1087 363 2 -1.1794 -6.463107722187605 -4.97938498503885 16.38167135448073 0 0 0
1110 370 1 0.5897 -10.142994819576492 -3.806817074113482 17.67523580255076 0 0 0
1141 381 2 -1.1794 -8.505803153024644 -6.098109840888763 21.385506303583973 0 0 0
1121 374 1 0.5897 -4.784698512296785 -3.475073856020261 18.37099386323758 0 0 0
1131 377 1 0.5897 -6.978117345555065 -1.8383264260468888 17.02725737538119 0 0 0
1142 381 1 0.5897 -8.543223863828675 -6.395487311059086 20.476400711999922 0 0 0
1096 366 2 -1.1794 -8.82780181595297 -6.6734431330354855 18.71701620809602 0 0 0
1226 409 1 0.5897 -7.8287843203142256 -2.859404617568332 21.520545462270263 0 0 0
1101 367 1 0.5897 -10.173535257417255 -1.17668745553107 16.29349879844743 0 0 0
1011 337 1 0.5897 -11.919273775938954 3.949705940946277 20.46455498823795 0 -1 0
1229 410 1 0.5897 -7.791344527686036 3.5315342458366565 18.373190438385024 0 0 0
1217 406 1 0.5897 -11.718498052012318 3.5380151099615187 17.648166792018245 0 0 0
1251 417 1 0.5897 -11.404466536297884 1.8739365920133526 21.331222884401257 0 0 0
1218 406 1 0.5897 -13.195474650892264 3.209683626524262 17.693349456823988 0 0 0
1195 399 2 -1.1794 -9.491265051537816 2.0575232133234493 16.39305770477378 0 0 0
1249 417 2 -1.1794 -11.555307803427567 0.9310920755026899 21.399359680354856 0 0 0
1204 402 2 -1.1794 -11.872578365735182 0.3362419414137108 18.73707160261734 0 0 0
1196 399 1 0.5897 -9.63639141758866 1.1134768983439578 16.45683158256228 0 0 0
1246 416 2 -1.1794 -6.270697709870753 -1.0165443277932162 19.879623835794796 0 0 0
1250 417 1 0.5897 -11.590600118326977 0.6275600078510024 20.492204971425792 0 0 0
1009 337 2 -1.1794 -11.10533716390481 3.572825322037211 20.79854318404025 0 -1 0
1260 420 1 0.5897 -9.834649077576866 2.9867721772386915 19.632532490811506 0 0 0
1259 420 1 0.5897 -9.029691330295226 1.7244757688399588 19.407222715125876 0 0 0
1258 420 2 -1.1794 -9.15829713597105 2.6107762284932434 19.069110489096992 0 0 0
1100 367 1 0.5897 -9.103284984477455 -0.9639186725163196 17.34265245603425 0 0 0
1236 412 1 0.5897 -7.857053656117988 -0.25391778631799156 20.118551942943128 0 0 0
1235 412 1 0.5897 -9.33096009232153 -0.597055019361699 20.152565203043103 0 0 0
1234 412 2 -1.1794 -8.725799313179149 0.14427724824545507 20.171771477135465 0 0 0
1205 402 1 0.5897 -12.013076702245952 1.2200615030488713 18.397203977205223 0 0 0
1197 399 1 0.5897 -9.450476427333808 2.355943870834615 17.30167593531415 0 0 0
1216 406 2 -1.1794 -12.330968336988553 2.8025185470341913 17.63894548698748 0 0 0
1206 402 1 0.5897 -11.189208187794005 -0.03073548166472584 18.17618050846349 0 0 0
1099 367 2 -1.1794 -9.918723507114438 -0.5917524067110023 17.007048198242188 0 0 0
1010 337 1 0.5897 -10.84393174674965 4.1581843339863 21.509352796854394 0 -1 0
40 14 2 -1.1794 -14.950372590034686 3.753314308132561 1.9760156090932801 1 0 0
177 59 1 0.5897 -14.014372777312715 4.465558119738075 3.342172851079518 1 0 0
42 14 1 0.5897 -15.391420289778765 4.307838961564228 1.3323940843334254 1 0 0
85 29 2 -1.1794 -10.859862979905415 4.7969052239681655 1.7484394784463473 1 0 0
55 19 2 -1.1794 -13.123552419418884 6.1830442199126185 1.060988551042254 1 0 0
56 19 1 0.5897 -12.310327620599592 5.804859641643388 1.3952376208621355 1 0 0
66 22 1 0.5897 -13.35869306032329 2.9698260185737304 1.7518130145730149 1 0 0
65 22 1 0.5897 -11.88389924974216 3.308309921255683 1.7104085837622054 1 0 0
64 22 2 -1.1794 -12.491052363545293 2.5683745977248353 1.7054766438102396 1 0 0
191 64 1 0.5897 -12.56063880717383 6.186803352600643 4.225409577110779 1 0 0
190 64 2 -1.1794 -11.946232723133214 6.920588655563066 4.24031918587686 1 0 0
183 61 1 0.5897 -12.12996648728283 3.694828484039828 4.538614984975567 1 0 0
181 61 2 -1.1794 -11.31639214588337 3.3218366021183137 4.877809052018186 1 0 0
176 59 1 0.5897 -14.251735106947141 4.5615594302981215 4.83436793665583 1 0 0
175 59 2 -1.1794 -13.579848909256167 4.690364195798971 4.164857663686362 1 0 0
108 36 1 0.5897 -10.056836246805245 2.7574686247000333 3.7130663956230223 1 0 0
162 54 1 0.5897 -14.395560040789503 6.735760269562867 2.2298711999661425 1 0 0
45 15 1 0.5897 -9.644013651327537 2.132093698845374 1.3749655837808508 1 0 0
167 56 1 0.5897 -16.438727009642854 6.184159514287362 3.4874653750533278 1 0 0
43 15 2 -1.1794 -9.669519821012754 1.8353349075912853 0.465243952033181 1 0 0
192 64 1 0.5897 -11.082612656525292 6.511321148576574 4.187636503600668 1 0 0
106 36 2 -1.1794 -9.378928864932425 2.3895431929614084 3.1461966939705865 1 0 0
57 19 1 0.5897 -13.388772259442078 5.594837003190589 0.35395413685382393 1 0 0
182 61 1 0.5897 -11.055619431476929 3.915503318841175 5.58192996242535 1 0 0
206 69 1 0.5897 -14.806605470322442 7.401278234801474 4.5468511018399385 1 0 0
160 54 2 -1.1794 -15.0783842316375 7.102756750816244 2.7914147456406155 1 0 0
291 97 1 0.5897 -15.12802681053816 10.714557747997326 4.5203043232769815 1 0 0
207 69 1 0.5897 -14.615215148106305 8.648006534477187 5.384160674610201 1 0 0
152 51 1 0.5897 -12.848820403129537 7.8917211064853845 0.5177117055011556 1 0 0
205 69 2 -1.1794 -14.772595283305524 7.706323393950299 5.4535472784456225 1 0 0
284 95 1 0.5897 -17.257030712608866 11.575053195863912 4.858039529895377 1 0 0
153 51 1 0.5897 -12.662271177868412 9.131558501072217 1.3662706107191542 1 0 0
151 51 2 -1.1794 -12.70893306879931 8.836744546434272 0.4567588485295829 1 0 0
216 72 1 0.5897 -13.039412496041038 9.768923785131431 3.6844288465429575 1 0 0
215 72 1 0.5897 -12.232056861766107 8.507000668795705 3.4657073958827347 1 0 0
174 58 1 0.5897 -16.398468506789875 9.983073478091036 1.7593216845694077 1 0 0
173 58 1 0.5897 -14.923820087406451 10.320662014529518 1.7068583492096412 1 0 0
172 58 2 -1.1794 -15.53173741670372 9.58137070583706 1.6999484383327217 1 0 0
161 54 1 0.5897 -15.215638730747813 7.988344171725071 2.4548390447125064 1 0 0
193 65 2 -1.1794 -13.897815430600543 11.809271178291255 1.7636662540980774 1 0 0
283 95 2 -1.1794 -16.588670350001905 11.706042844800976 4.185430109228289 1 0 0
285 95 1 0.5897 -17.027342651613253 11.483353087226643 3.364373973275086 1 0 0
148 50 2 -1.1794 -17.988433285767417 10.775022552012455 2.0135984927875406 1 0 0
150 50 1 0.5897 -18.420383537653862 11.323574097850866 1.358784253420109 1 0 0
289 97 2 -1.1794 -14.307717756271774 10.343147409753762 4.844686495684764 1 0 0
214 72 2 -1.1794 -12.35898614144045 9.392912272948156 3.125946388012415 1 0 0
290 97 1 0.5897 -14.045448440060238 10.926384082565143 5.556920774148276 1 0 0
532 178 2 -1.1794 -10.896909181246393 5.00185558166087 7.005739134711207 1 0 0
521 174 1 0.5897 -10.583535354379702 3.4181646378760107 7.7663423963728935 1 0 0
534 178 1 0.5897 -11.763053841148666 5.406623472279321 7.0512161782931715 1 0 0
645 215 1 0.5897 -12.38508879341207 6.886991077952004 8.64264242531103 1 0 0
644 215 1 0.5897 -12.609580826712307 6.96616002412887 10.137814108014473 1 0 0
643 215 2 -1.1794 -11.944171613420792 7.104784136447581 9.463809077889561 1 0 0
510 170 1 0.5897 -13.793495316560893 6.739330422806248 6.6407477915071755 1 0 0
508 170 2 -1.1794 -13.350439490573555 6.1877396206512945 7.285509153436747 1 0 0
543 181 1 0.5897 -10.501777793684678 6.1089528404981746 9.838187617675853 0 0 0
509 170 1 0.5897 -14.059288116671773 5.731144822344728 7.738566789452215 1 0 0
636 212 1 0.5897 -15.087715205333652 7.580059837275307 9.884147772383894 1 0 0
459 153 1 0.5897 -9.964429154665964 4.036003842715873 10.710970739468086 0 0 0
457 153 2 -1.1794 -10.102719686014296 3.0908143315423082 10.772986254494604 0 0 0
519 173 1 0.5897 -16.27017676123944 7.358658244229179 6.385700231221971 1 0 0
458 153 1 0.5897 -10.145245398829761 2.7943664014229537 9.863802290934451 0 0 0
518 173 1 0.5897 -16.49352600372984 7.436381787454007 7.881118808592367 1 0 0
533 178 1 0.5897 -10.286714342257017 5.739199791263555 7.017844427994538 1 0 0
520 174 2 -1.1794 -10.445500592807605 2.5330040164239236 8.103720669005153 1 0 0
641 214 1 0.5897 -13.293641416487649 12.745820481384964 7.017091760505979 1 0 0
635 212 1 0.5897 -14.818486229461874 8.590254913685978 8.789016767383755 1 0 0
634 212 2 -1.1794 -15.528764199712445 8.133040668167439 9.239200521333332 1 0 0
566 189 1 0.5897 -13.20028974632823 9.803406486007567 9.861849724660502 0 0 0
565 189 2 -1.1794 -13.168386344027235 10.101437546693145 10.770952432315536 0 0 0
642 214 1 0.5897 -14.769954354827203 12.41418565840851 7.059767796718398 1 0 0
640 214 2 -1.1794 -13.904532005222283 12.00905701895849 7.0047335626370995 1 0 0
617 206 1 0.5897 -17.056462536750246 12.750271212089675 7.754681159266433 1 0 0
567 189 1 0.5897 -13.018624607496552 11.044884891112687 10.709069490746986 0 0 0
630 210 1 0.5897 -12.781759209074758 9.16273567730936 7.5318217836831 1 0 0
628 210 2 -1.1794 -13.464099065584032 9.530657309535027 8.09334878432386 1 0 0
629 210 1 0.5897 -13.596475618331414 10.418226099281387 7.760053734680566 1 0 0
327 109 1 0.5897 -13.53658875207838 13.126521790255204 9.857393548167622 0 -1 0
525 175 1 0.5897 -11.781132294194888 8.01214618956098 5.66268488499206 1 0 0
874 292 2 -1.1794 -13.336062566723555 4.762906155233395 14.854061239322055 0 0 0
887 296 1 0.5897 -10.174507841380263 4.026281781670237 14.107567265016481 0 0 0
876 292 1 0.5897 -12.470814388043122 4.357354383752284 14.799406406880752 0 0 0
945 315 1 0.5897 -14.074744714347148 6.9241908077979595 11.979239091179956 1 0 0
848 283 1 0.5897 -13.737277304981832 3.6113681672274254 12.026513479524326 1 0 0
900 300 1 0.5897 -14.486561818599831 7.589772232451473 14.309625183548919 0 0 0
899 300 1 0.5897 -13.661590481364655 6.339916440008949 14.087396480323742 0 0 0
898 300 2 -1.1794 -13.808957026651253 7.220870401559242 13.743028507796275 0 0 0
886 296 2 -1.1794 -10.889346164887039 3.5762377256637503 14.557755510967882 0 0 0
944 315 1 0.5897 -14.256965820420511 5.673162206893593 11.146306448328994 1 0 0
869 290 1 0.5897 -12.442103778256577 8.14662448904608 13.054975508837654 0 0 0
943 315 2 -1.1794 -14.107754934874311 6.615924885103112 11.07359580652337 1 0 0
875 292 1 0.5897 -13.94722051170434 4.026334860946029 14.843608566142342 0 0 0
649 217 2 -1.1794 -15.747948486900764 8.151433515547854 15.488663172841832 0 -1 0
660 220 1 0.5897 -15.519063424217673 11.377770736518922 14.80573530226492 0 -1 0
650 217 1 0.5897 -15.490746067622336 8.73713885658653 16.200720772058915 0 -1 0
670 224 2 -1.1794 -13.926182785050473 10.602200269049778 14.567743121458758 0 -1 0
956 319 1 0.5897 -16.777170861916588 10.642730420379724 12.029203197908176 1 0 0
877 293 2 -1.1794 -15.328614166323113 9.646723066769596 12.398339574951908 0 0 0
879 293 1 0.5897 -14.66388730772038 9.77105669820141 11.720881977351123 0 0 0
878 293 1 0.5897 -14.885658522510845 9.877894487873139 13.214736978461463 0 0 0
680 227 1 0.5897 -11.002959251236476 9.41215343452092 15.449689545839645 0 -1 0
728 243 1 0.5897 -17.307608884316217 12.720487668061736 11.169679681367759 1 -1 0
672 224 1 0.5897 -13.488548789739292 10.040002750509064 15.207025963731938 0 -1 0
683 228 1 0.5897 -16.68889192993931 13.367566510112141 14.103222298087893 0 -1 0
658 220 2 -1.1794 -16.388624248513885 11.774592606997668 14.855791790534495 0 -1 0
870 290 1 0.5897 -12.172663526588718 9.151863852208436 11.955345578204152 0 0 0
671 224 1 0.5897 -13.212447848977448 11.04734559626921 14.110979375771867 0 -1 0
659 220 1 0.5897 -16.99212390002112 11.031718247464315 14.846272552800427 0 -1 0
868 290 2 -1.1794 -11.731862802282187 8.603508348462189 12.604398067970385 0 0 0
1018 340 2 -1.1794 -11.740234319662408 7.177349172174075 20.16542490963569 0 -1 0
1019 340 1 0.5897 -12.347949700507092 6.4379256915555025 20.15555946503717 0 -1 0
1020 340 1 0.5897 -10.873339727580323 6.776063557016931 20.105618517409958 0 -1 0
1030 344 2 -1.1794 -9.291033705574968 5.991104902600336 19.85630916033447 0 -1 0
1043 348 1 0.5897 -12.065106059431939 8.757504462742354 19.400165682690947 0 -1 0
1032 344 1 0.5897 -8.850937290493869 5.449385879423586 20.511383893001586 0 -1 0
1239 413 1 0.5897 -10.008691588282446 5.150117692602805 17.018810143910763 0 0 0
1237 413 2 -1.1794 -10.674373694475216 5.017020204813411 17.69365904304796 0 0 0
1003 335 2 -1.1794 -13.374178694146586 4.949222843480749 20.10191607650973 0 -1 0
1208 403 1 0.5897 -12.121479755002508 6.037860704380865 17.348614148947362 0 0 0
1207 403 2 -1.1794 -12.934187965079868 6.41754034113179 17.01480296282668 0 0 0
1238 413 1 0.5897 -10.237281993329534 5.252661035163362 18.511938560249995 0 0 0
990 330 1 0.5897 -14.214462941988415 6.984528871257389 18.176449852714313 0 -1 0
989 330 1 0.5897 -15.036840405685403 8.237075197555136 18.39307723559483 0 -1 0
1034 345 1 0.5897 -14.608907307320766 7.645154378937306 20.487475065593543 0 -1 0
1035 345 1 0.5897 -14.424035435467232 8.891907922434239 21.326212065080043 0 -1 0
1033 345 2 -1.1794 -14.565870529454624 7.947685839409978 21.394628539298118 0 -1 0
980 327 1 0.5897 -12.649372020182524 8.116719304440338 16.454947339321514 0 -1 0
988 330 2 -1.1794 -14.90039785497384 7.352779972536915 18.733360306460014 0 -1 0
1209 403 1 0.5897 -13.194323821629816 5.83672063257638 16.29981600256272 0 0 0
1140 380 1 0.5897 -11.878039272519807 12.468927139615403 20.50622434428046 0 -1 0
1118 373 1 0.5897 -13.878534947509195 11.17424945681362 21.502937738519627 0 -1 0
993 331 1 0.5897 -16.22796318857658 12.847721542070563 16.293957013491344 0 -1 0
1138 380 2 -1.1794 -12.31480948476625 13.017663289837163 19.85477192412288 0 -1 0
1128 376 1 0.5897 -13.89390756311023 13.802237808650013 20.120825925324553 0 -1 0
1022 341 1 0.5897 -13.26515162914614 12.283211473147052 18.50068110340426 0 -1 0
1013 338 1 0.5897 -10.829616179761526 10.559164578795212 18.370417203874524 0 -1 0
1126 376 2 -1.1794 -14.760210375474195 14.203806608279677 20.186982102153536 0 -1 0
979 327 2 -1.1794 -12.507125465511331 9.060666283526182 16.38364730217772 0 -1 0
1117 373 2 -1.1794 -14.14270531603027 10.59051371395061 20.79181626979748 0 -1 0
1044 348 1 0.5897 -12.879166245969843 10.014766456791836 19.620862605627998 0 -1 0
1002 334 1 0.5897 -16.211962633287015 10.235124825520462 17.685529126341592 0 -1 0
1127 376 1 0.5897 -15.368789155014106 13.465217326541222 20.170296387541754 0 -1 0
1119 373 1 0.5897 -14.955617495285457 10.970611365882586 20.458978847970315 0 -1 0
1042 348 2 -1.1794 -12.202055182520594 9.640646911925874 19.057103765545328 0 -1 0
1021 341 2 -1.1794 -13.701694696901303 12.046805624961188 17.68232926670006 0 -1 0
1098 366 1 0.5897 -17.220662585533134 14.003843056821463 18.157767777899636 0 -1 0
992 331 1 0.5897 -15.143465268796321 13.050042424813764 17.33046570583052 0 -1 0
1001 334 1 0.5897 -14.733576278370546 10.556936336114454 17.63955484223355 0 -1 0
1000 334 2 -1.1794 -15.349271507867066 9.824129095259163 17.631100944925677 0 -1 0
991 331 2 -1.1794 -15.957248920420769 13.432125711165426 17.002060208572246 0 -1 0
1111 371 2 -1.1794 -16.401264107035193 11.982109105719726 20.106393360522006 0 -1 0
1023 341 1 0.5897 -13.035302984731135 12.17846468168321 17.007898814073307 0 -1 0
981 327 1 0.5897 -12.470282855396256 9.366899451689417 17.289831759625933 0 -1 0
1113 371 1 0.5897 -16.837627895395386 11.76191647582128 19.2834350471078 0 -1 0
311 104 1 0.5897 -2.7245809055892307 -7.829279295495677 3.49177137939066 1 1 0
201 67 1 0.5897 0.31566733606249997 -8.427916361537958 0.35348538019051334 1 1 0
243 81 1 0.5897 -0.8691773554949158 -5.395314064817081 5.404324445295727 0 1 0
317 106 1 0.5897 -1.191997897142306 -3.689563182696813 1.7114908456613487 1 1 0
316 106 2 -1.1794 -1.7979833616234764 -4.430076021857151 1.687343031264422 1 1 0
3 1 1 0.5897 -1.4269201044885715 -3.3302193870636962 4.527518489977086 0 0 0
241 81 2 -1.1794 -1.0078413309056593 -6.340359326341277 5.467690878865649 0 1 0
305 102 1 0.5897 -1.5050752515456907 -6.005722088988187 2.453281377006588 1 1 0
293 98 1 0.5897 -4.967578144378456 -3.7265253866815167 2.418742809152833 1 1 0
306 102 1 0.5897 -0.6970569919984353 -7.266555193687685 2.2307542649930543 1 1 0
304 102 2 -1.1794 -1.3761689923609133 -6.891856586537672 2.7917139699473346 1 1 0
318 106 1 0.5897 -2.6664987253218557 -4.030891720022938 1.7367708649902653 1 1 0
310 104 2 -1.1794 -3.430150538302346 -8.293978235041006 3.9416975034902615 1 1 0
242 81 1 0.5897 -1.0591330793867524 -6.636817607439408 4.5589639897336705 0 1 0
309 103 1 0.5897 -2.6881660285553783 -1.4304096912030424 0.36702931963884705 1 1 0
303 101 1 0.5897 -7.165924479314137 -2.0960244754284494 1.0791207797181719 1 1 0
25 9 2 -1.1794 -4.071566884623147 0.6837088088779648 5.467083809246196 0 0 0
302 101 1 0.5897 -7.402483111885515 -2.0089025749331855 2.5719884008321787 1 1 0
103 35 2 -1.1794 -2.887952762389622 -2.3413375875212905 4.168328582468295 1 0 0
294 98 1 0.5897 -4.693550032778838 -2.710316399424351 1.3303873561251687 1 1 0
27 9 1 0.5897 -3.9262263905387726 1.6272199622733723 5.39626227390973 0 0 0
89 30 1 0.5897 -4.531912610507204 0.9717884884349459 2.452745515304521 1 0 0
292 98 2 -1.1794 -4.254982931850204 -3.272138738978504 1.969360165832397 1 1 0
105 35 1 0.5897 -3.3242777017385974 -2.5658440581692297 3.3465161506814316 1 0 0
26 9 1 0.5897 -4.108304001651133 0.37788805805882575 4.560755794306451 0 0 0
95 32 1 0.5897 -5.753082680926017 -0.8322679167263853 3.4802598400270597 1 0 0
88 30 2 -1.1794 -4.396249298362844 0.08746577177708659 2.793268654291811 1 0 0
96 32 1 0.5897 -6.029681796448742 -1.8317491584284449 4.583355248865055 1 0 0
90 30 1 0.5897 -3.712203517371103 -0.2823218864086954 2.2350534769031682 1 0 0
94 32 2 -1.1794 -6.465994612121175 -1.289747041944361 3.9259866115525672 1 0 0
104 35 1 0.5897 -3.5606518504021016 -2.4627856311178773 4.838397054728064 1 0 0
307 103 2 -1.1794 -2.4360084866510565 -0.8463958897450397 1.0822748989262365 1 1 0
199 67 2 -1.1794 0.5809557092551625 -7.845663202035999 1.0654052302768706 1 1 0
555 185 1 0.5897 -2.5157708482351833 -6.678979209538849 6.3975944225618955 0 1 0
359 120 1 0.5897 -4.583597179764208 -3.102880305252203 8.782609109979433 0 0 0
554 185 1 0.5897 -2.756135314955883 -6.5921850721775375 7.889873342851119 0 1 0
544 182 2 -1.1794 0.3737128615353029 -7.8586138606523495 7.308999963625958 0 1 0
335 112 1 0.5897 -4.885437461958285 -5.429966443607685 9.537596515055498 0 0 0
546 182 1 0.5897 -0.059118199743371846 -7.3055217359597355 6.658601345102475 0 1 0
553 185 2 -1.1794 -3.1886758341471717 -6.8129778393565905 7.065058511594041 0 1 0
348 116 1 0.5897 -1.387262080875507 -6.4365291977134556 9.917030844244726 0 0 0
347 116 1 0.5897 -1.115057533142343 -5.4258440036113535 8.82308834113188 0 0 0
404 135 1 0.5897 -5.188390221123391 -3.721897588370105 5.844102886705212 1 0 0
336 112 1 0.5897 -3.4089443433659525 -5.0998803757171345 9.489472302455976 0 0 0
334 112 2 -1.1794 -4.2743179302515735 -4.693298911608709 9.533430783080433 0 0 0
346 116 2 -1.1794 -1.8261669173532518 -5.888128357289332 9.266732545034587 0 0 0
632 211 1 0.5897 -4.639114350654488 -5.806551198666206 6.6956306710527365 1 1 0