#include		in.partitions
include		in.temp
variable        temperature equal 263.98
variable	tempDamp equal 100.0
include		in.pressure
variable        pressure equal 4875.0
variable        pressureDamp equal 1000.0 # This is 1 ps
include		in.seed
variable        seed equal 745823

units		real
atom_style	full
read_restart	restart.lmp.${pid}
read_restart	restart.lmp.1
Reading restart file ...
  restart file = 30 Jul 2021, LAMMPS = 30 Jul 2021
  restoring atom style full from restart
  orthogonal box = (0.45737805 1.6302622 0.55800015) to (17.750194 21.998916 21.655196)
  2 by 4 by 4 MPI processor grid
  restoring pair style lj/cut/tip4p/long/omp from restart
  restoring bond style harmonic/omp from restart
  restoring angle style harmonic/omp from restart
  864 atoms
  576 bonds
  288 angles
Finding 1-2 1-3 1-4 neighbors ...
  special bond factors lj:    0        0        0       
  special bond factors coul:  0        0        0       
     2 = max # of 1-2 neighbors
     1 = max # of 1-3 neighbors
     1 = max # of 1-4 neighbors
     2 = max # of special neighbors
  special bonds CPU = 0.002 seconds
  read_restart CPU = 0.009 seconds
include 	in.setup
variable	out_freq equal 1000
variable	out_freq2 equal 10000
variable	out_freq3 equal 1000

timestep	2.0

neigh_modify    delay 7 every 1

include		in.tip4p
# This is TIP4P/Ice

# create groups ###
group ox type 2
288 atoms in group ox
group hy type 1
576 atoms in group hy

# set charges - beside manually ###
set group ox charge -1.1794
Setting atom values ...
  288 settings made for charge
set group hy charge 0.5897
Setting atom values ...
  576 settings made for charge

# ### TIP3P Potential Parameters ###
pair_style lj/cut/tip4p/long/omp 2 1 1 1 0.1577 8.5
pair_coeff 1 1*2 0.000 0.000
pair_coeff 2 2 0.21084 3.1668
bond_style  harmonic
bond_coeff  1 450 0.9572
angle_style harmonic
angle_coeff 1 55 104.52
kspace_style pppm/tip4p/omp 1.0e-5
pair_modify tail yes

thermo          ${out_freq}
thermo          1000
thermo_style    custom step temp pe etotal epair emol press lx ly lz vol pxx pyy pzz pxy pxz pyz enthalpy

restart 	${out_freq3} restart.lmp.${pid} restart2.lmp.${pid}
restart 	1000 restart.lmp.${pid} restart2.lmp.${pid}
restart 	1000 restart.lmp.1 restart2.lmp.${pid}
restart 	1000 restart.lmp.1 restart2.lmp.1


include         in.dump
dump            myDump all atom ${out_freq2} dump.water.${pid}
dump            myDump all atom 10000 dump.water.${pid}
dump            myDump all atom 10000 dump.water.1
dump            myDump2 all dcd ${out_freq2} dump.dcd
dump            myDump2 all dcd 10000 dump.dcd
dump_modify     myDump append yes
dump_modify     myDump2 append yes


variable natoms 	equal  "count(all)"                        # NUMBER ATOMS
variable H      	equal  "enthalpy/v_natoms"                 # ENTHALPY-per-atom
variable Vol      	equal  "vol/v_natoms"                 # volume-per-atom
fix AVG all 		ave/time ${out_freq} 1 ${out_freq} v_Vol v_H file vol_enthalpy.dat
fix AVG all 		ave/time 1000 1 ${out_freq} v_Vol v_H file vol_enthalpy.dat
fix AVG all 		ave/time 1000 1 1000 v_Vol v_H file vol_enthalpy.dat


timer           timeout 23:50:00 every 1000
New timer settings: style=normal  mode=nosync  timeout=23:50:00

fix 		1 all shake 1e-6 200 0 b 1 a 1
       0 = # of size 2 clusters
       0 = # of size 3 clusters
       0 = # of size 4 clusters
     288 = # of frozen angles
  find clusters CPU = 0.001 seconds
fix             2 all nph iso ${pressure} ${pressure} ${pressureDamp}
fix             2 all nph iso 4875 ${pressure} ${pressureDamp}
fix             2 all nph iso 4875 4875 ${pressureDamp}
fix             2 all nph iso 4875 4875 1000
fix             3 all temp/csvr ${temperature} ${temperature} ${tempDamp} ${seed}
fix             3 all temp/csvr 263.98 ${temperature} ${tempDamp} ${seed}
fix             3 all temp/csvr 263.98 263.98 ${tempDamp} ${seed}
fix             3 all temp/csvr 263.98 263.98 100 ${seed}
fix             3 all temp/csvr 263.98 263.98 100 745823

run             250000
PPPM initialization ...
  extracting TIP4P info from pair style
  using 12-bit tables for long-range coulomb (../kspace.cpp:340)
  G vector (1/distance) = 0.37429376
  grid = 24 24 25
  stencil order = 5
  estimated absolute RMS force accuracy = 0.0030683194
  estimated relative force accuracy = 9.2401528e-06
  using double precision FFTW3
  3d grid and FFT values/proc = 3822 576
Last active /omp style is kspace_style pppm/tip4p/omp
Neighbor list info ...
  update every 1 steps, delay 7 steps, check yes
  max neighbors/atom: 2000, page size: 100000
  master list distance cutoff = 10.8154
  ghost atom cutoff = 10.8154
  binsize = 5.4077, bins = 4 4 4
  1 neighbor lists, perpetual/occasional/extra = 1 0 0
  (1) pair lj/cut/tip4p/long/omp, perpetual
      attributes: half, newton on, omp
      pair build: half/bin/newton/omp
      stencil: half/bin/3d
      bin: standard
Per MPI rank memory allocation (min/avg/max) = 10.20 | 10.21 | 10.22 Mbytes
Step Temp PotEng TotEng E_pair E_mol Press Lx Ly Lz Volume Pxx Pyy Pzz Pxy Pxz Pyz Enthalpy 
11750000    277.75523   -3864.5548   -3388.4918   -3864.5548            0    3824.6362    17.292816    20.368653    21.097195    7431.0943     4681.358    2941.3923    3851.1584    221.65867    1903.8183    357.93335   -2973.9973 
11751000    262.64146   -3875.4433   -3425.2848   -3875.4433            0    3148.4686    17.353058     20.43961    21.170691     7509.027    2690.0818    3685.8231    3069.5008    895.22074    1321.4527   -1019.9755   -3080.4915 
11752000    266.32139   -3878.8502   -3422.3844   -3878.8502            0    6877.4559    17.251406    20.319878    21.046676     7377.838    6093.1668    5694.3688    8844.8322   -1346.8607   -2091.1859   -930.56795   -2682.3825 
11753000    261.30026   -3894.8382   -3446.9785   -3894.8382            0    4641.3444    17.331112     20.41376    21.143916    7480.5726    5539.8376    4869.7541    3514.4414   -537.41397   -378.00364    1868.7762   -2940.6242 
11754000    249.55592    -3889.512   -3461.7817    -3889.512            0    4983.9341    17.238855    20.305094    21.031363    7361.7462     4596.884    3200.3102    7154.6081   -1461.1118    57.680335    702.43624    -2926.689 
11755000     263.0337   -3850.5066   -3399.6758   -3850.5066            0    3978.7629    17.280614     20.35428    21.082308     7415.374    2858.7499    4798.6899    4278.8489   -282.37037    863.16292   -132.31239     -2969.39 
11756000    275.32808   -3864.9769    -3393.074   -3864.9769            0    5913.6064    17.235502    20.301145    21.027273    7357.4518    5764.8123    5421.1442    6554.8627    845.91314   -713.59646   -12.411846   -2758.5388 
11757000    250.01273   -3809.4952   -3380.9819   -3809.4952            0    5497.9886    17.240271    20.306762     21.03309    7363.5604    4452.4832    5347.7134    6693.7692    452.10316     -756.535    720.82117   -2790.5531 
11758000    286.41761   -3856.5708   -3365.6609   -3856.5708            0    5149.2564     17.25725    20.326761    21.053804    7385.3374    5308.5551    6041.5184    4097.6957   -260.82377   -719.90415     -17.8889    -2811.047 
11759000    277.96837   -3825.3983     -3348.97   -3825.3983            0    6534.9988    17.212089    20.273567    20.998708    7327.5085    8501.6476    4593.1873    6510.1615    1400.5391   -310.71448   -814.59214   -2650.6126 
11760000     249.2877   -3801.1793   -3373.9087   -3801.1793            0    4090.6094     17.28488    20.359305    21.087513    7420.8672    5634.1594    4276.0328     2361.636    860.55998    212.99478    1625.0954   -2931.1995 
11761000    267.69989   -3867.2341   -3408.4057   -3867.2341            0    6840.0819    17.262041    20.332404    21.059649    7391.4902    7135.4697     7605.188     5779.588     53.50348   -1213.2036    432.07614   -2671.0633 
11762000    277.17508   -3860.4923   -3385.4237   -3860.4923            0    3222.6963    17.278678    20.352001    21.079947    7412.8831    2357.7703    4379.1731    2931.1454   -762.47378   -1157.7117    617.58643   -3037.0203 
11763000    271.38463   -3846.8489   -3381.7049   -3846.8489            0     5143.664    17.266395    20.337532    21.064961    7397.0844    5694.0325    5795.6377    3941.3218   -734.34279   -707.50207   -697.43857   -2826.8122 
11764000    251.21271   -3848.7693   -3418.1993   -3848.7693            0    4361.8734     17.26968    20.341401    21.068969    7401.3072    4541.8416    4510.2976    4033.4808   -420.32564    -393.9959   -962.95701   -2947.3766 
11765000    262.07614   -3839.2802   -3390.0907   -3839.2802            0    5229.5374    17.355202    20.442135    21.173306      7511.81    7240.1795    4677.7441    3770.6886    4.0824252   -816.54134   -1044.9308   -2817.1842 
11766000    272.87019   -3864.7646   -3397.0744   -3864.7646            0    5212.6589    17.376962    20.467766    21.199853    7540.1005    4153.2043    7783.9374     3700.835     1362.095   -1166.3385    1274.5416   -2823.8663 
11767000    257.47173    -3855.394   -3414.0963    -3855.394            0    2861.9406     17.38461    20.476774    21.209183    7550.0605    1950.4393    4766.6974    1868.6851   -574.73774   -141.49841   -496.60048   -3098.9683 
11768000    248.81206   -3883.2934   -3456.8381   -3883.2934            0    3224.0014    17.336504    20.420112    21.150494    7487.5575    2766.2916    3300.6759    3605.0366   -226.34186   -413.59055    939.43845   -3104.7825 
11769000    253.89802   -3849.5864   -3414.4139   -3849.5864            0    3390.2952    17.336255    20.419819    21.150191    7487.2348    3396.1613     3280.296    3494.4284   -875.83095   -783.20086   -986.06728   -3044.2152 
11770000    259.91523   -3880.0922   -3434.6064   -3880.0922            0    4634.4848    17.254517    20.323542     21.05047    7381.8292    5783.3739    3505.0543    4615.0263   -1307.1909   -79.070169    1371.6172   -2935.6744 
11771000    255.48765    -3870.428   -3432.5309    -3870.428            0    3135.5739    17.299911     20.37701    21.105851    7440.2441    2568.7629    2770.2029     4067.756    124.28219   -1533.2546    798.38536    -3092.295 
11772000    269.15647    -3842.866    -3381.541    -3842.866            0    5092.1888    17.268368    20.339856    21.067368    7399.6207    7365.3612    4110.4767    3800.7285   -880.25355   -1403.2388   -1165.0047    -2832.013 
11773000     251.8979   -3883.8044     -3452.06   -3883.8044            0    6790.2704    17.251711    20.320236    21.047047    7378.2283    7603.4945    4665.1703    8102.1464   -1177.0724   -1435.4388    559.93183   -2721.4005 
11774000    278.11894   -3817.8926   -3341.2063   -3817.8926            0    5158.3412     17.34946    20.435372      21.1663    7504.3566    5222.8877    5496.6658    4755.4701   -549.40551    671.81771   -377.37386   -2776.6602 
11775000    268.20817   -3849.1392   -3389.4395   -3849.1392            0    4179.4162    17.368947    20.458326    21.190075    7529.6723    3370.7937    4730.9816    4436.4732    144.41462   -306.89281    663.27057   -2930.4872 
11776000    270.28155   -3836.8675   -3373.6142   -3836.8675            0    4788.4504    17.348137    20.433814    21.164687    7502.6407    4785.1108    4698.3208    4881.9196   -200.43453   -58.784501    1142.0398     -2849.67 
11777000    279.39709   -3864.8406   -3385.9636   -3864.8406            0    4453.6734    17.402175    20.497463    21.230613     7572.969    1363.1623      5605.48     6392.378    664.77818    -1778.849   -1659.1852   -2894.0821 
11778000    256.63757   -3873.5481   -3433.6801   -3873.5481            0    6617.2059    17.304883    20.382867    21.111917    7446.6617    7229.1235     7646.814    4975.6802    912.89135   -1155.8794    -82.92468   -2715.0388 
11779000    253.61117   -3875.9429   -3441.2621   -3875.9429            0    5192.8091    17.248125    20.316013    21.042672    7373.6286    5879.6927    4130.3455    5568.3889    28.219474    301.94079    263.34436   -2882.8439 
11780000    278.27426   -3835.3398   -3358.3872   -3835.3398            0    4405.9976    17.264954    20.335836    21.063204    7395.2334    5472.7193    4125.2585    3620.0151    804.15729   -490.82253    534.33229    -2883.192 
11781000    273.87815   -3839.1519   -3369.7341   -3839.1519            0    4012.1322    17.244267    20.311469    21.037966    7368.6824    3301.4694    4253.7072    4481.2201   -47.586751    159.74561    72.884062   -2938.5717 
11782000    269.60371   -3848.5188   -3386.4273   -3848.5188            0     5079.352    17.309599    20.388421     21.11767    7452.7504    5859.4711    6119.8875    3258.6974   -373.49214   -16.003111   -661.77716   -2834.3489 
11783000     269.4278   -3874.7934   -3413.0033   -3874.7934            0    4063.2489     17.39625    20.490485    21.223385    7565.2369     4744.049    3624.1169    3821.5808   -783.78422   -1819.6151    810.99736   -2964.7001 
11784000    264.41938   -3889.5564   -3436.3507   -3889.5564            0    4783.1242    17.353954    20.440665    21.171783    7510.1893    4470.4158    4840.9353    5038.0215    886.15788    526.86533   -346.78241   -2912.4627 
11785000    259.98527   -3880.4543   -3434.8485   -3880.4543            0    6322.4577    17.261438    20.331694    21.058914    7390.7156    4912.0769    7388.3052    6666.9911   -859.90091    804.23404    7.3983372    -2753.376 
11786000    254.45934      -3850.9   -3414.7654      -3850.9            0    4678.8093     17.33644    20.420036    21.150416    7487.4741    5368.5926    5296.8344    3371.0007   -952.65378   -833.54041   -1915.7039   -2903.8528 
11787000    267.21834   -3868.2588   -3410.2557   -3868.2588            0    5614.3205    17.326641    20.408495    21.138462    7474.7858    6102.3493    3347.2951     7393.317    441.25488    362.62754    593.32724    -2798.227 
11788000     255.5553   -3852.1081    -3414.095   -3852.1081            0    4101.1193    17.435608    20.536843    21.271401    7616.7002    3992.6733     4413.989    3896.6955    2292.9097    1067.0907   -58.912148   -2958.5355 
11789000    276.19741   -3899.0776   -3425.6847   -3899.0776            0    3503.6585    17.348421    20.434148    21.165033    7503.0085    4480.5164    3595.8329    2434.6261    882.90669    2926.2499    -97.98361   -3042.3015 
11790000    263.02151    -3861.003   -3410.1931    -3861.003            0    4300.4845    17.284226    20.358536    21.086716    7420.0261    6071.8402    3648.9403     3180.673   -89.298344   -26.687315   -173.61446   -2944.8228 
11791000    259.91477   -3858.3319   -3412.8469   -3858.3319            0    4795.3557    17.342513     20.42719    21.157825    7495.3459     4059.364    5576.2693    4750.4337    1724.3652   -54.259134   -2561.8991   -2888.6573 
11792000     262.2748   -3873.4043   -3423.8743   -3873.4043            0    5077.9529    17.319926    20.400585    21.130269    7466.0976     5754.691    6165.7179    3313.4499    1728.0954    1179.8389    1204.4345   -2870.9595 
11793000    270.30317   -3867.7115   -3404.4211   -3867.7115            0      3675.88    17.339203    20.423291    21.153787    7491.0549    3438.7266    4430.6183    3158.2951   -52.476138    562.19769   -257.87444   -3002.8336 
11794000     262.6586   -3847.2707   -3397.0828   -3847.2707            0     3665.023    17.368476    20.457771      21.1895    7529.0598    3356.0077    3806.2176    3832.8436   -104.38442   -5.3932408   -1412.4353   -2994.6501 
11795000    261.29554   -3882.0761   -3434.2245   -3882.0761            0    5436.1468    17.340177    20.424438    21.154975    7492.3172    6081.1873    5085.3805    5141.8725   -504.46293    240.21172    827.45068   -2840.2289 
11796000    289.47313   -3895.2494   -3399.1024   -3895.2494            0    6194.3211    17.243734     20.31084    21.037315    7367.9981    6350.8801    5848.3851     6383.698   -563.28329   -415.48958   -1252.8901   -2733.4935 
11797000    258.26288   -3873.5312   -3430.8774   -3873.5312            0    5617.4368    17.274259    20.346796    21.074556    7407.1968     4710.324    5764.5795    6377.4069    817.62717    -352.6689    88.204972   -2824.0461 
11798000    273.01137   -3850.7226   -3382.7904   -3850.7226            0    6769.6452    17.237051    20.302969    21.029161    7359.4347    8047.0402    5061.8576    7200.0378    1246.3587   -401.88219    -335.6267   -2656.2057 
11799000    264.39959   -3837.8855   -3384.7137   -3837.8855            0    7075.6768    17.225769    20.289681    21.015398    7344.9944    7347.7219    6995.9985    6883.3099    625.24774   -1057.7527   -1107.0064   -2626.7728 
11800000    269.43067    -3857.258   -3395.4631    -3857.258            0    7628.7757     17.17098    20.225147    20.948556    7275.1318    7900.8707    6574.3743    8411.0822   -1040.7778   -738.33981   -7.7526331   -2586.0474 
11801000    264.68054   -3828.1664    -3374.513   -3828.1664            0    5403.6597    17.319705    20.400325        21.13    7465.8126    6959.3296    4048.2975    5203.3521    124.89479    200.67583    802.29578   -2786.1559 
11802000    268.85781   -3861.9357   -3401.1226   -3861.9357            0    6152.4179    17.288763    20.363879    21.092251    7425.8705    6908.7341    6053.9015    5494.6179     1362.559    1577.8608    81.363772   -2734.8238 
11803000    272.88152   -3860.9333   -3393.2237   -3860.9333            0    4794.4766     17.32182    20.402816     21.13258    7468.5472    4657.2901    6076.6679    3649.4719    117.08403   -587.23827   -232.29956    -2871.004 
11804000    269.88989   -3806.9037   -3344.3217   -3806.9037            0    4784.4383    17.192731    20.250767    20.975092    7302.8137    2994.6165    6670.6333     4688.065    718.39976   -86.640081   -598.27215   -2834.7596 
11805000    274.72144   -3854.4095   -3383.5464   -3854.4095            0    6947.8081    17.257381    20.326915    21.053964    7385.5059    7176.0345    7638.6314    6028.7584    976.25173   -351.16948     292.6791   -2635.1978 
11806000    263.08926   -3811.3132   -3360.3873   -3811.3132            0    4749.7804    17.335347    20.418749    21.149083    7486.0588    4311.2367    3957.6606    5980.4438    409.78446    353.77209    96.610666   -2841.8229 
11807000    264.98533   -3835.0631   -3380.8873   -3835.0631            0    6576.7686    17.254052    20.322994    21.049903    7381.2329    6568.4641    6964.8395    6197.0022    1028.9518    145.12107    784.12433   -2672.9132 
11808000     263.8118   -3854.0492   -3401.8848   -3854.0492            0    4628.0728    17.322326    20.403412    21.133197    7469.2023    5216.7563    2512.1996    6155.2626   -336.14497    1024.3542    1550.2805   -2897.7458 
11809000    264.30593   -3839.1583    -3386.147   -3839.1583            0    6395.1372    17.275217    20.347923    21.075724    7408.4287    6526.2881    6476.3752    6182.7484   -340.12185    116.67286   -875.42123   -2695.1886 
11810000     258.1828   -3878.4687   -3435.9522   -3878.4687            0    4463.8309    17.373953    20.464222    21.196183     7536.185    6017.3255    3560.2461    3813.9211    701.31651   -947.65021   -956.37589   -2945.3436 
11811000    263.41867   -3858.4432   -3406.9527   -3858.4432            0    5598.9632    17.336929    20.420613    21.151013    7488.1085    5012.8841    5956.0608    5827.9445   -903.70439   -151.34184    180.23295   -2795.5102 
11812000     263.2323   -3785.5201   -3334.3489   -3785.5201            0    6012.7816    17.322724    20.403881    21.133683    7469.7171    6697.7599    5563.0826    5777.5024    193.81865    -1580.507    1421.2529   -2679.3275 
11813000    274.71626   -3815.3975   -3344.5432   -3815.3975            0    3050.6027    17.337069    20.420778    21.151184    7488.2899   -86.476183    3930.2619    5308.0223    1554.8526   -455.25756    -959.5994   -3011.3898 
11814000    271.35532   -3855.9677    -3390.874   -3855.9677            0    5819.6277    17.293351    20.369284    21.097848    7431.7841    6328.2154    6394.3768     4736.291   -528.12964   -342.93351   -944.18012   -2760.1139 
11815000     251.8865   -3856.1943   -3424.4695   -3856.1943            0    4477.9701    17.258169    20.327843    21.054926    7386.5177    3465.4508    5449.9805     4518.479    385.46946    1576.6697    180.88011   -2942.0811 
11816000    266.02422   -3829.8696   -3373.9132   -3829.8696            0    3665.2624    17.379514    20.470771    21.202966    7543.4226    2738.0213    3498.5171    4759.2489      454.359   -11.267633   -2183.4743   -2970.6863 
11817000    251.90589   -3838.1712   -3406.4131   -3838.1712            0    4726.9113    17.234953    20.300498    21.026603    7356.7485    6513.8001    4378.6304    3288.3034    2465.9273   -207.65343    215.26473   -2899.2599 
11818000    276.05606   -3862.2019   -3389.0513   -3862.2019            0    4161.9685    17.247703    20.315515    21.042157    7373.0868    6577.2106    3085.6263    2823.0686   -1053.5554   -39.868501    838.79202   -2941.5193 
11819000    255.51695   -3873.7192   -3435.7719   -3873.7192            0    6838.7937    17.198031    20.257009    20.981558    7309.5693    6312.2808    9191.3559    5012.7445    865.91071    285.88937    599.84164   -2706.7389 
11820000     269.2529   -3876.4711   -3414.9808   -3876.4711            0    6102.7868    17.347212    20.432725    21.163559    7501.4406    7256.5995    6647.5625    4404.1983    2178.1749   -566.39747    866.26539    -2747.331 
11821000    275.47149    -3903.196   -3431.0473    -3903.196            0    5482.5007     17.23984    20.306255    21.032565    7363.0087    5001.3309    7404.8885    4041.2826    372.36507    1593.4083    714.07476   -2842.3258 
11822000    284.35712   -3828.2375   -3340.8591   -3828.2375            0    3075.8501    17.382996    20.474873    21.207214    7547.9575    1734.1496    3616.9328    3876.4679     119.7023    587.33712    -130.3661    -3002.272 
11823000    265.42697   -3888.8868   -3433.9541   -3888.8868            0    5684.6745    17.257519    20.327078    21.054133    7385.6828    6199.0571     5232.945    5622.0214    58.683482   -4.4197815   -315.66586    -2821.643 
11824000    269.57517   -3887.8742   -3425.8316   -3887.8742            0     5620.195    17.273038    20.345357    21.073066    7405.6263    5172.3169    6020.2329    5668.0353    803.13231    918.21348    -303.8141   -2818.8311 
11825000    268.22804   -3854.6755   -3394.9418   -3854.6755            0    3194.5427    17.283475    20.357651    21.085799    7419.0583    2713.5599    3721.3236    3148.7447   -263.81516   -1250.7263    -1294.211   -3049.2944 
11826000    254.74244   -3848.7583   -3412.1385   -3848.7583            0    4154.8764    17.331923    20.414716    21.144906    7481.6233    3017.5812    3300.7563    6146.2919    -639.7282    744.18492   -26.547151   -2958.7924 
11827000    262.42971   -3885.2271   -3435.4316   -3885.2271            0    4049.0775    17.304075    20.381914    21.110931    7445.6175    3634.8132    3646.4249    4865.9944    384.55456    1003.0299    253.61891   -2995.7556 
11828000    283.40743   -3849.5057   -3363.7551   -3849.5057            0    4412.6698    17.343426    20.428265     21.15894      7496.53     5025.124    3888.2899    4324.5956     132.7244    628.33906   -495.55371   -2881.3214 
11829000    262.53253   -3860.8618     -3410.89   -3860.8618            0     5348.452     17.32624    20.408022    21.137972    7474.2664    5084.7366     5554.558    5406.0615   -106.05122    -239.8651   -938.94379   -2827.8846 
11830000    272.99036   -3849.0745   -3381.1784   -3849.0745            0    4230.2662    17.329332    20.411664    21.141744    7478.2681     4470.095    5477.5238    2743.1799    654.94942    194.90482   -1075.4556   -2919.8134 
11831000    264.42719   -3838.3913   -3385.1722   -3838.3913            0    5660.5551    17.327237    20.409197    21.139189    7475.5573     6547.678    5965.8554     4468.132    1327.7141    -1612.716    496.10434   -2768.0396 
11832000    252.51408   -3863.4803   -3430.6799   -3863.4803            0    2885.7203     17.34996    20.435961     21.16691    7505.0051    2694.0341    4674.2119    1288.9148    458.10738    839.35108   -249.95658   -3114.8297 
11833000    258.83378   -3860.8345   -3417.2022   -3860.8345            0    6714.5984    17.261513    20.331782    21.059006    7390.8122    5967.2494    7403.1019    6773.4438    1943.2897    218.09171    469.21357    -2693.453 
11834000    265.85312   -3794.8129   -3339.1497   -3794.8129            0    3971.0962    17.373275    20.463423    21.195355    7535.3025    3190.6307    3930.9242    4791.7338   -1091.7885    1203.6877    27.796824   -2902.7475 
11835000    264.56077   -3865.9005   -3412.4524   -3865.9005            0    4398.0081    17.316682    20.396764    21.126311    7461.9031    3451.5145    5246.4919    4496.0179   -1668.5796    966.74427    1643.2681   -2933.8426 
11836000    266.77534   -3882.2992   -3425.0554   -3882.2992            0    2795.5117    17.344894    20.429993     21.16073    7498.4328    1524.1269    3357.4364    3504.9717    88.302174    -1030.902    290.30287   -3119.3468 
11837000    260.22169   -3873.3416   -3427.3305   -3873.3416            0    8221.3839    17.207782    20.268495    20.993454    7322.0097    7038.7377    7820.6141       9804.8   -2005.9655   -680.98978    1065.3006   -2549.4183 
11838000    280.51985   -3849.5318   -3368.7304   -3849.5318            0    5032.1489    17.331585    20.414318    21.144493     7481.186    5560.5911    5330.8928    4204.9628   -1043.6047    1202.9732    431.10538   -2819.6956 
11839000    263.08253   -3867.4236   -3416.5091   -3867.4236            0    5830.9027     17.25895    20.328763    21.055878    7387.5201    7242.1534      5050.12    5200.4347   -631.98009   -1346.0404    931.00118   -2788.2912 
11840000    257.70548   -3829.1674   -3387.4691   -3829.1674            0    6879.2576    17.184303    20.240839    20.964809    7292.0783     7368.452     6783.911    6485.4098    624.51982     -615.916   -1286.5858   -2655.8773 
11841000    250.03564   -3851.6815   -3423.1289   -3851.6815            0    6437.1367    17.193742    20.251957    20.976325     7304.102     6306.655    4553.2508    8451.5043   -1526.1427    691.42309    1007.8107   -2737.4269 
11842000    275.29899   -3862.0545   -3390.2014   -3862.0545            0    2963.0166    17.274126    20.346639    21.074394     7407.026    1893.0047    2548.7682    4447.2768   -498.30586   -96.665282    1832.0332   -3070.1249 
11843000     253.8032   -3853.6562   -3418.6462   -3853.6562            0    5688.8598    17.219198    20.281941    21.007381    7336.5915    5785.3117    4432.5591    6848.7086    279.63521   -1662.2565    268.12202   -2809.9572 
11844000    255.93162   -3857.1784   -3418.5203   -3857.1784            0    5319.3861    17.234883    20.300416    21.026517    7356.6591    5781.8103    4192.2084    5984.1397   -1360.4308   -900.34801    1313.9174    -2847.807 
11845000    268.37289   -3884.9449    -3424.963   -3884.9449            0    5413.1784    17.254796     20.32387    21.050811    7382.1876     5641.231    5076.6838    5521.6204    310.08302   -277.92524   -510.42165   -2842.1713 
11846000    267.27293   -3850.1022   -3392.0056   -3850.1022            0    4776.0953    17.332168    20.415004    21.145204    7481.9405    4975.6683    6074.8273    3277.7902   -62.929553   -1665.0613    655.22332   -2870.8551 
11847000    268.45728   -3862.3531   -3402.2265   -3862.3531            0    3984.6045    17.364737    20.453367    21.184939    7524.1984    4440.1903    3816.9735    3696.6497   -396.02213   -1153.7411    1051.2017   -2964.9851 
11848000    253.91958   -3847.6106   -3412.4011   -3847.6106            0    5311.1946    17.219452     20.28224    21.007691     7336.916    4725.5067     4442.665    6765.4119   -2249.8735   -990.98932    376.32739   -2844.0959 
11849000    258.36201   -3832.4302   -3389.6065   -3832.4302            0    4908.7202    17.294058    20.370116    21.098711    7432.6957     5840.947    3794.8901    5090.3235   -1333.3473    356.50878   -1681.6191   -2857.5099 
11850000    244.33567   -3831.6461   -3412.8631   -3831.6461            0    6106.3335    17.238756    20.304978    21.031242    7361.6198    5053.0941     7047.506    6218.4005    343.07881   -2019.6778   -1367.6376   -2757.2769 
11851000    251.70068   -3860.8704   -3429.4641   -3860.8704            0     5765.453    17.243898    20.311034    21.037516    7368.2091    5197.8967    5513.7372    6584.7251   -200.21624    588.10924   -287.15733   -2809.9214 
11852000    279.49441   -3866.2573   -3387.2135   -3866.2573            0     3539.306    17.320433    20.401182    21.130888    7466.7538     5134.657    4022.7707    1460.4902    -259.1759   -594.31476   -184.67188   -3001.8009 
11853000    259.15773   -3823.3205    -3379.133   -3823.3205            0    5718.7223    17.213531    20.275266    21.000468    7329.3507    7714.4632     4264.961    5176.7429    133.60503    854.27601   -343.30458   -2767.8527 
11854000    267.59083   -3861.7523   -3403.1108   -3861.7523            0    4540.3441    17.227363    20.291558    21.017343    7347.0334    2542.1972    5736.2544    5342.5807   -1121.9205    1136.8932    261.36205   -2916.6177 
11855000     251.8375   -3808.7265   -3377.0857   -3808.7265            0    3350.9273    17.310715    20.389736    21.119032    7454.1925    1480.7765    4087.7012    4484.3043   -59.802403      974.777    1689.8107   -3012.8005 
11856000    248.87444   -3848.9331   -3422.3708   -3848.9331            0    3870.8942     17.27892    20.352285    21.080242    7413.1941    3326.5034    4067.2492    4218.9299     -110.211    534.27022    33.036021   -3003.8736 
11857000    260.66575   -3878.7753   -3432.0031   -3878.7753            0    4730.1743    17.263925    20.334623    21.061948    7393.9106    5014.2337      4364.38    4811.9093   -1719.2327    1439.2817   -1396.8985   -2921.9361 
11858000    263.04403   -3846.0566   -3395.2081   -3846.0566            0    4090.1993     17.22224    20.285524    21.011093    7340.4811    5265.5939    3871.2132    3133.7909   -226.28747   -1378.4877     423.6995   -2957.3384 
11859000    259.85494   -3853.6186   -3408.2361   -3853.6186            0     4520.374    17.288042     20.36303    21.091371    7424.9414    3944.4327    5883.2543     3733.435   -190.38546    321.66673   -1237.2355   -2918.7467 
11860000    255.31227   -3863.4152   -3425.8187   -3863.4152            0    3453.0565    17.340106    20.424354    21.154889    7492.2253    3207.4856    3082.0447    4069.6391    474.77346    854.89898    86.179612   -3048.5156 
11861000    268.66073   -3871.4993    -3411.024   -3871.4993            0    5805.1089    17.297413    20.374068    21.102804    7437.0222    2644.3256    8515.9591     6255.042   -31.290105    -962.8528     41.72145   -2781.3941 
11862000    260.58919    -3862.454    -3415.813    -3862.454            0    6947.4473    17.251415    20.319888    21.046686    7377.8484    7629.4338    6891.5035    6321.4046   -932.10579     484.1806   -2262.8544   -2668.2791 
11863000    262.54239   -3880.2063   -3430.2176   -3880.2063            0    3532.6106     17.28276    20.356809    21.084927    7418.1382    3048.6815    3366.5405    4182.6099     633.2049    403.11226   -146.87954   -3048.0388 
11864000    271.64591    -3810.725   -3345.1332    -3810.725            0    4838.6947    17.249936    20.318146    21.044882    7375.9519    5211.5278    4652.1294     4652.427    635.72614    382.49454   -717.79549   -2824.6315 
11865000    268.89245    -3811.103   -3350.2305    -3811.103            0    4714.2236    17.327315    20.409288    21.139284    7475.6575    4468.6409    3384.7777     6289.252    208.31921    779.80429    762.41753   -2836.2632 
11866000    255.22211   -3850.6074   -3413.1654   -3850.6074            0    5435.7047    17.260216    20.330255    21.057424    7389.1467    7397.7749    4792.0928    4117.2465   -156.46658    328.46748   -879.72349   -2827.3969 
11867000    259.03722   -3890.2467   -3446.2657   -3890.2467            0    4872.7116    17.259392    20.329284    21.056418    7388.0883    6183.2614    4184.8544    4250.0189   -437.06088   -54.123023   -77.219378   -2921.2423 
11868000    265.43542   -3903.6014   -3448.6542   -3903.6014            0    5571.0084    17.279621    20.353111    21.081097    7414.0963    4699.6119    6100.9928    5912.4205   -532.77716   -843.16376   -374.02804   -2846.2778 
11869000    267.98017   -3862.0123   -3402.7035   -3862.0123            0      2572.55    17.351163    20.437378    21.168379    7506.5671    3671.1436    2017.5499    2028.9565    337.46239   -1202.0758   -194.99467   -3121.0721 
11870000    254.95971   -3854.6645   -3417.6723   -3854.6645            0    5244.1552    17.209782    20.270849    20.995893     7324.562    7030.2405    3811.2798    4890.9452    -447.4159   -2005.9596    119.65874   -2857.4852 
11871000     260.6717     -3858.42   -3411.6376     -3858.42            0    5767.6175    17.287317    20.362176    21.090486     7424.007     6980.645     3404.852    6917.3557    8.9644612   -270.86986    1176.7767   -2787.1689 
11872000    272.70802   -3817.1713   -3349.7591   -3817.1713            0    4027.0647    17.306605    20.384895    21.114018     7448.885    4148.8425    3442.0624    4490.2893    -484.6226    1587.6203   -753.23848   -2912.2816 
11873000    249.66329   -3851.7423    -3423.828   -3851.7423            0     6761.745    17.240322    20.306823    21.033153    7363.6264    7191.3674    6510.4195     6583.448   -1083.9768   -616.77049    -550.4267   -2697.6779 
11874000    263.39786   -3836.6701   -3385.2152   -3836.6701            0    6255.5243    17.234518    20.299986    21.026072    7356.1915    6006.0237    7597.7786    5162.7706   -127.41941    251.22647     1085.333   -2714.1069 
11875000    276.03153   -3834.6848   -3361.5762   -3834.6848            0     7818.064    17.270274    20.342102    21.069694    7402.0718    7315.8675     7642.109    8496.2153   -502.58942   -400.05043   -2638.6657   -2517.6035 
11876000    265.74846   -3885.8983   -3430.4146   -3885.8983            0    5326.0106    17.270776    20.342693    21.070306    7402.7168    5079.6175    6044.2109    4854.2034   -1813.3696   -184.76918   -1530.6069    -2855.413 
11877000    272.04721   -3874.8403   -3408.5607   -3874.8403            0    3491.1336     17.32058    20.401355    21.131067    7466.9436     2717.574     5514.243    2241.5838   -534.09958   -1415.0923   -1171.4977   -3028.3842 
11878000    269.07316   -3876.1584   -3414.9762   -3876.1584            0    4249.6727     17.33168     20.41443     21.14461    7481.3091    3872.5372    4960.8557    3915.6252   -589.33838    1006.6906    380.96038   -2951.3062 
11879000    270.80755   -3850.8578   -3386.7029   -3850.8578            0    3562.7367    17.342782    20.427506    21.158153     7495.694    1422.2887    3957.1343    5308.7872   -75.610058    18.416553   -708.96352   -2997.2352 
11880000    255.89843   -3879.8393   -3441.2382   -3879.8393            0    5247.7316    17.287484    20.362373     21.09069    7424.2226    4752.4738    7698.8852    3291.8359   -394.15017    1409.6101   -2325.4145   -2873.0417 
11881000    258.10313   -3877.3346   -3434.9547   -3877.3346            0    6284.8091    17.190494    20.248131    20.972362    7299.9625    6260.9838    5774.7117    6818.7319    1217.2567    444.47177     -167.971   -2765.8584 
11882000    273.46778   -3859.5601   -3390.8457   -3859.5601            0    4061.9122    17.309226    20.387982    21.117215     7452.269    4764.8501    3437.3566    3983.5299    587.72903   -212.42284   -432.89024   -2949.3821 
11883000    261.75324   -3880.8651    -3432.229   -3880.8651            0    3825.3162     17.35533    20.442287    21.173462    7511.9767    2060.0288    4759.4073    4656.5126   -292.35455     78.52637     28.26581   -3013.1485 
11884000    257.64344   -3914.1479   -3472.5558   -3914.1479            0    4109.2442     17.34671    20.432133    21.162945    7500.7884    4348.5305    4673.0394    3306.1629     36.27457    795.92759   -287.70748   -3023.0402 
11885000    245.96178   -3899.4146   -3477.8445   -3899.4146            0    4744.8766    17.239179    20.305476    21.031758    7362.1615    2543.6734    5712.4582    5978.4982   -549.95725   -605.83047   -90.996846   -2968.3891 
11886000    253.61265   -3844.6115   -3409.9281   -3844.6115            0     4051.189    17.266752    20.337953    21.065397    7397.5439    3457.4235    4589.4271    4106.7163   -150.01987    299.93032    1321.5411   -2972.8632 
11887000    252.75502   -3852.2676   -3419.0542   -3852.2676            0     5281.671    17.239349    20.305676    21.031966    7362.3794    4089.0759    6213.0975    5542.8395   -853.50891   -1322.4639    -400.2856   -2851.9466 
11888000    263.85146   -3841.1999   -3388.9676   -3841.1999            0    6147.3286    17.177251    20.232533    20.956206    7283.1054    6712.2852    6059.5366    5670.1639    1421.4699    244.86595    1472.4674   -2736.0191 
11889000    259.18211   -3900.4024   -3456.1731   -3900.4024            0    5783.3227    17.174927    20.229795    20.953371    7280.1492    6044.1353    4897.3603    6408.4725   -36.100166    144.10441    581.37428   -2842.1374 
11890000     266.5277   -3872.6525   -3415.8332   -3872.6525            0    5554.6414    17.255724    20.324963    21.051943    7383.3783    4678.1539    4511.1525    7474.6177     467.6792    66.962448   -1207.8036    -2817.715 
11891000    263.10271   -3893.2986   -3442.3495   -3893.2986            0    5187.0411    17.226313    20.290321    21.016061    7345.6897    5199.3817      5521.78    4839.9617   -464.03625   -476.92704   -145.32383   -2886.6652 
11892000    253.65821   -3875.4988   -3440.7373   -3875.4988            0    2305.6603    17.345831    20.431098    21.161874     7499.649     3414.585    2496.7189    1005.6769    -470.6606    984.05537   -1540.9906   -3188.5564 
11893000     256.6617   -3860.7015   -3420.7921   -3860.7015            0    4069.7612    17.330873    20.413479    21.143624    7480.2635    3796.3842    5715.4053     2697.494   -1381.3964    871.57577    1621.4351   -2976.8139 
11894000    244.35583   -3859.3532   -3440.5357   -3859.3532            0    5545.5528     17.31564    20.395536     21.12504    7460.5564    4480.2843    7520.3814    4635.9927   -54.262861   -830.52351    89.177592   -2837.1542 
11895000     261.8121   -3854.2982   -3405.5612   -3854.2982            0    4851.5233    17.363774    20.452232    21.183764    7522.9465    5421.2357    5174.3785    3958.9556    862.86523   -1561.9201     218.6225   -2873.2789 
11896000     260.5944   -3907.4221   -3460.7722   -3907.4221            0    5604.6392    17.323269    20.404522    21.134347    7470.4216    5337.7619    5453.6124    6022.5432   -875.29617    -297.6435   -158.62443   -2850.1556 
11897000    249.55059   -3901.8272    -3474.106   -3901.8272            0    5449.4973    17.301479    20.378857    21.107764    7442.2673    3907.3064    6137.1958    6303.9897   -1420.5517   -1014.6896    1476.8037   -2882.6294 
11898000    254.48795   -3920.3294   -3484.1458   -3920.3294            0    5207.1152    17.404191    20.499838    21.233072    7575.6013    6469.6765    4115.1729    5036.4962   -787.80811    203.75816    1014.9197   -2908.8513 
11899000    276.36099   -3856.1716   -3382.4983   -3856.1716            0    6876.4014    17.371693     20.46156    21.193425    7533.2437    6553.0057    9515.6524    4560.5461     142.6698    159.55394    588.88992    -2627.025 
11900000    266.53714   -3887.6668   -3430.8313   -3887.6668            0    4126.2021    17.392142    20.485645    21.218372    7559.8778    3735.4666    5274.5363    3368.6033    388.85676    404.19471    57.015992   -2975.9049 
11901000    270.20323   -3854.9853   -3391.8662   -3854.9853            0    4593.9009    17.292574    20.368368      21.0969    7430.7819    5448.1901    4640.6531    3692.8596    63.388973   -490.67005     1086.994   -2894.0236 
11902000     249.0866   -3858.7488   -3431.8229   -3858.7488            0    5741.0503    17.290157    20.365522    21.093952    7427.6672    4361.6467     6026.856    6834.6482   -696.51052    290.65944   -32.583295   -2809.9242 
11903000    265.16518   -3843.1063   -3388.6223   -3843.1063            0    5764.1392    17.250196    20.318453    21.045199    7376.2855    5246.1408    6818.4155    5227.8612   -22.598645   -415.96059    1594.9363   -2768.5418 
11904000    250.38228   -3875.1432   -3445.9965   -3875.1432            0    4527.1419    17.275998    20.348844    21.076677     7409.434    6426.7748    1888.0061    5266.6448    1389.8054   -45.402739    406.76196   -2956.7981 
11905000    258.22194   -3847.6171   -3405.0336   -3847.6171            0    4588.2288    17.266854    20.338073    21.065521    7397.6745    4168.6547     4952.473    4643.5589    -353.9064    865.89408   -648.95023    -2910.021 
11906000    257.23717   -3907.4545   -3466.5588   -3907.4545            0    6307.6456    17.237255     20.30321    21.029411    7359.6971    4689.4604    5424.4017    8809.0747   -606.99141    77.494836   -655.37266   -2789.5362 
11907000    260.10487   -3859.9419   -3414.1311   -3859.9419            0    4524.3107    17.306178    20.384392    21.113497    7448.3335    5464.9973    4739.6423    3368.2925   -1336.7265   -1621.0943     541.3796   -2922.6719 
11908000    260.11792    -3851.849   -3406.0158    -3851.849            0    4599.0881    17.190512    20.248152    20.972384    7299.9859    5170.8497    3067.9618    5558.4528   -233.04462   -189.40888    823.36531    -2916.384 
11909000    259.74258    -3864.662   -3419.4721    -3864.662            0    5797.2359    17.223488    20.286994    21.012615    7342.0769    6316.2699    4852.3237    6223.1139   -503.46997   -1119.8394    1335.2063   -2798.7234 
11910000    264.86225   -3843.7394   -3389.7746   -3843.7394            0    4827.0144     17.30983    20.388693    21.117952    7453.0494    4749.5344    5275.8881    4455.6207   -1341.3073    597.40002   -531.37703   -2865.1019 
11911000    246.68772   -3868.2922   -3445.4779   -3868.2922            0    4638.6087    17.278656    20.351974     21.07992     7412.854     2951.498    7078.2659    3886.0623   -116.72657     113.6276   -850.69627   -2944.0031 
11912000    250.83703   -3856.3276   -3426.4015   -3856.3276            0    3474.8026     17.27449    20.347067    21.074837    7407.4932    3996.2415    4592.4585     1835.708   -81.890414    -370.8257    407.87119   -3051.0162 
11913000    269.92196   -3871.3969   -3408.7599   -3871.3969            0    5153.8344    17.264081    20.334807    21.062139    7394.1118    4120.0526    4211.8367    7129.6138   -318.87603    538.89888   -1698.4432   -2852.9934 
11914000     265.4508   -3892.0911   -3437.1175   -3892.0911            0    4537.9361    17.336861    20.420532    21.150929    7488.0194    4404.1843    3497.4445    5712.1795    70.443484   -342.26789    1915.5593   -2941.5518 
11915000    270.08152   -3873.0403   -3410.1299   -3873.0403            0    4962.8242    17.231736    20.296709    21.022677    7352.6292     5815.665    3465.5136     5607.294   -109.56455    558.57381   -734.53713   -2877.9635 
11916000    269.79405   -3860.2253   -3397.8076   -3860.2253            0    5531.4345    17.263469    20.334086    21.061391    7393.3245    5662.3369    6579.5183    4352.4484    216.69951    -442.8551    653.88525   -2801.3859 
11917000    250.11019    -3874.248   -3445.5677    -3874.248            0    3384.3762    17.216823    20.279143    21.004484    7333.5564    2717.5953    4623.9951    2811.5383    574.41959     340.3606   -645.09107   -3083.6005 
11918000    282.96074   -3860.4483   -3375.4633   -3860.4483            0    6305.0558    17.242514    20.309404    21.035827    7366.4346    4887.3188    4543.4392    9484.4095   -478.67535    304.97996   -118.07246   -2698.0992 
11919000    269.06987   -3837.3413   -3376.1647   -3837.3413            0    5041.7211        17.27    20.341778    21.069359    7401.7186    5235.8047    6448.2511    3441.1076    1075.4738   -316.01151     1258.153   -2831.9287 
11920000    260.75212   -3841.8287   -3394.9085   -3841.8287            0    5540.3635    17.199463    20.258696    20.983305    7311.3954    3787.4972    5338.8072     7494.786    1660.2762    10.181567    315.39822   -2804.1439 
11921000    257.91989   -3843.7958     -3401.73   -3843.7958            0    5529.3906    17.281952    20.355857    21.083942    7417.0977     7042.051    6130.5134    3415.6074   -896.11877    112.65474     335.3203   -2803.6116 
11922000    275.52236   -3894.5749    -3422.339   -3894.5749            0    4621.6021    17.282794    20.356848    21.084968    7418.1814    3528.2924    4025.9942    6310.5196    1054.9826    1042.5858   -1323.1903   -2922.3437 
11923000    252.08385    -3875.885   -3443.8219    -3875.885            0    4554.0151    17.325631    20.407305    21.137229    7473.4782    2689.6427      6041.38    4931.0227   -1221.8829    1362.0131   -452.11045   -2947.4661 
11924000    254.05885   -3861.3083   -3425.8601   -3861.3083            0    4116.3226    17.283062    20.357165    21.085296    7418.5272    6816.5715    1767.4598    3764.9366   -1554.5089    1002.7236    125.00663   -2980.5085 
11925000    282.25739   -3881.7256   -3397.9461   -3881.7256            0    7116.9379    17.268169    20.339622    21.067126    7399.3655     9176.299    5778.3707    6396.1439   -1048.9881   -1893.2606   -154.95693   -2629.9419 
11926000    266.38053   -3878.7185   -3422.1513   -3878.7185            0    4547.3873    17.257787    20.327393     21.05446     7386.027    4031.1617    3357.8514    6253.1488    337.73631    422.99585   -591.50066   -2932.3176 
11927000    262.83153   -3842.2445   -3391.7603   -3842.2445            0    6079.9881    17.253237    20.322034    21.048908    7380.1862    6756.8094    4960.1204    6523.0345   -970.75165    107.48387   -454.21335   -2737.3563 
11928000    274.11188   -3859.8014    -3389.983   -3859.8014            0    6541.4756    17.268712    20.340262    21.067788    7400.0632    8201.6224    6017.4232    5405.3812    1637.1199    1067.4283   -1895.8289   -2684.0117 
11929000    255.10684   -3841.3405   -3404.0961   -3841.3405            0    3772.7043    17.290076    20.365426    21.093853    7427.5625    5316.2011    3013.9803    2987.9313    -508.9348    1510.5971    613.02479   -2995.4241 
11930000     262.6226   -3878.8695   -3428.7434   -3878.8695            0    6084.7425    17.243791    20.310908    21.037384     7368.071    6587.2625    5747.1788    5919.7861     355.1156    214.36644    -75.01552   -2774.9028 
11931000    270.52559   -3882.6806   -3419.0089   -3882.6806            0    5956.1669     17.28149    20.355313    21.083378    7416.5027    5601.1074     6726.312    5541.0813   -492.73451     -969.721    1437.2051   -2774.7775 
11932000    278.29794   -3878.0062   -3401.0131   -3878.0062            0    5738.8326    17.292454    20.368227    21.096754    7430.6277    7278.0505    5943.6254     3994.822    531.88448    2008.9386   -344.41471   -2779.1068 
11933000    260.47454   -3901.0051   -3454.5607   -3901.0051            0    3782.1217     17.28798    20.362957    21.091296    7424.8618    3078.4712    4175.6842    4092.2097   -30.844743   -165.57418   -758.22784   -3045.0174 
11934000    263.53584   -3909.5362   -3457.8448   -3909.5362            0    3944.7247    17.258595    20.328346    21.055446    7387.0651    4729.7214    2878.2321    4226.2205   -513.62968   -610.18056     565.5225   -3032.8687 
11935000    267.81119   -3843.2594   -3384.2401   -3843.2594            0    5637.7775    17.162086     20.21467    20.937704    7263.8317    4733.8557    5720.3521    6459.1249    1325.1469    491.93135   -112.22681   -2786.9992 
11936000    270.11268    -3855.748   -3392.7841    -3855.748            0    4872.7802    17.308752    20.387423    21.116637    7451.6569    6280.6023    3428.9256    4908.8127    609.77754   -706.13705    1261.9238   -2863.2358 
11937000    267.24379   -3883.9295   -3425.8828   -3883.9295            0    3382.9666    17.384337    20.476453    21.208851    7549.7051    2991.1406    3792.1346    3365.6245   -261.98024    213.30505    71.578418   -3053.4023 
11938000    274.23712    -3875.087    -3405.054    -3875.087            0    5317.0342    17.348423     20.43415    21.165035    7503.0106     4972.968    5222.0021    5756.1325   -1244.3459   -487.26005    160.11818   -2823.2444 
11939000    250.69842   -3890.6088   -3460.9203   -3890.6088            0    7118.2896     17.16677    20.220188    20.943419    7269.7815    6156.0377    8646.8197    6552.0114   -265.52989   -571.38192    614.36996   -2706.2228 
11940000    271.13704   -3830.3156    -3365.596   -3830.3156            0     6453.661    17.271154    20.343138    21.070767    7403.2024    6488.6357    6625.0843    6247.2629    1302.7685   -373.01543    870.02682   -2668.8064 
11941000    268.35772   -3842.4978   -3382.5419   -3842.4978            0    3384.3261     17.31547    20.395336    21.124833    7460.3366    1126.1353    4333.6097    4693.2334    1464.4943   -650.32601   -1123.1564   -3014.3226 
11942000    266.24919   -3844.1969   -3387.8549   -3844.1969            0      5771.09     17.29691    20.373475     21.10219    7436.3728    6062.6326    6969.8236    4280.8138   -568.46382    342.24193   -436.59266   -2761.9694 
11943000    270.17335   -3875.5649    -3412.497   -3875.5649            0    3019.8242    17.373493     20.46368    21.195621    7535.5855    2936.2699    3379.1166    2744.0861   -412.54188   -369.91362   -911.22549    -3080.622 
11944000    270.40795   -3860.4602   -3396.9902   -3860.4602            0    4524.0774    17.314285     20.39394    21.123387    7458.8049    4545.0352    5166.9823    3860.2147   -576.71824    -2.775818   -352.39301   -2904.8655 
11945000    253.00045   -3867.3586   -3433.7245   -3867.3586            0    2349.4712    17.393656    20.487429     21.22022    7561.8529    1390.8119    1026.4953    4631.1064   -521.56452    295.55497   -34.380391   -3174.6204 
11946000    262.57692   -3859.7252   -3409.6773   -3859.7252            0    3806.9551    17.338471    20.422429    21.152894    7490.1062    3061.4371    4029.0941    4330.3341    973.97137     1262.023    738.80118   -2993.8226 
11947000    257.55407   -3833.7055   -3392.2667   -3833.7055            0    6157.6594    17.291707    20.367347    21.095842    7429.6643    6317.2197    5943.7642    6211.9942   -205.87664    773.21394    57.876293   -2725.0595 
11948000    261.78529   -3844.7922   -3396.1011   -3844.7922            0    5364.7043    17.266757    20.337959    21.065404    7397.5507    5594.9239    6470.7507    4028.4381    555.28755   -789.31491    748.08312   -2817.3263 
11949000     274.1689   -3849.1316   -3379.2154   -3849.1316            0     5247.719    17.372345    20.462328     21.19422    7534.0922    4643.9193    5566.5629    5532.6747    -80.34455   -950.99576   -73.430178   -2802.6118 
11950000    254.04193   -3849.3867   -3413.9675   -3849.3867            0    4701.2751    17.391047    20.484357    21.217037     7558.451    6053.8985    3638.9059    4411.0208   -885.67247    31.192403   -1022.8533   -2895.7353 
11951000    262.42485   -3857.3565   -3407.5693   -3857.3565            0    4745.4935    17.403279    20.498764    21.231959    7574.4102     4954.428    3568.1975     5713.855    91.184411    1321.8919   -531.00248   -2883.3583 
11952000    267.01004   -3846.4195   -3388.7734   -3846.4195            0    3723.8163    17.383741    20.475751    21.208123    7548.9284    2360.1229    3140.3293    5670.9968    788.65796   -386.71844   -233.99465   -2978.8059 
11953000    261.40895   -3881.9643   -3433.9183   -3881.9643            0    4413.4554     17.34948    20.435396    21.166325    7504.3828    4707.3917    4989.0763    3543.8983   -784.60068   -1069.0709    637.07868   -2950.8933 
11954000    262.45776   -3884.1267   -3434.2831   -3884.1267            0    4315.1115    17.383395    20.475343    21.207702    7548.4782    4396.0801    5066.9869    3482.2675   -1294.1295   -889.23792    -413.9113   -2959.2462 
11955000    245.19749   -3863.3617   -3443.1016   -3863.3617            0    6189.8244    17.274849    20.347491    21.075276    7407.9561    6761.3976    4525.9329    7282.1426    1883.3502    1081.5443   -60.838415   -2774.3688 
11956000    248.08571   -3861.6489   -3436.4385   -3861.6489            0    5773.2126    17.345452    20.430651    21.161411    7499.1572    6143.6481    5794.8533    5381.1363   -58.393532    1117.7164     458.1815   -2805.0366 
11957000    263.41811    -3872.527   -3421.0373    -3872.527            0    4904.1413    17.341073    20.425493    21.156069    7493.4789    6184.1558    5753.5546    2774.7135   -114.50854    245.95005   -514.09552   -2885.0897 
11958000    268.16291   -3828.8693   -3369.2473   -3828.8693            0    3924.1872    17.346264    20.431607    21.162401    7500.2098    2771.6744    4553.2983    4447.5889   -7.7815359   -1413.0874   -119.28863   -2940.0084 
11959000    259.65655   -3837.8736   -3392.8312   -3837.8736            0    7569.0457    17.267905    20.339311    21.066804     7399.026    8319.2026    6972.6489    7415.2855    381.95277   -941.94394    717.06152   -2576.0766 
11960000    272.15646   -3826.0084   -3359.5415   -3826.0084            0    5637.6133    17.346395    20.431762    21.162561    7500.3802    5075.9561    7267.9767    4568.9071    778.73222    -1109.349    289.86665   -2742.8692 
11961000    269.17469   -3881.3906   -3420.0344   -3881.3906            0    4433.4655    17.416476    20.514308     21.24806    7591.6542    5022.4095    4670.9066    3607.0804    866.21355    230.20184   -81.038042   -2929.1766 
11962000    265.53974   -3859.4219   -3404.2958   -3859.4219            0    5970.5176    17.322704    20.403857    21.133658     7469.691    4576.9015    7416.7749    5917.8764    1069.8626   -1119.7949    712.59495   -2753.8809 
11963000    278.81521   -3869.8765   -3391.9968   -3869.8765            0    6473.2403    17.240613    20.307165    21.033508    7363.9989     5584.393    7079.7588    6755.5691    894.15999   -492.98739   -419.24563   -2696.7943 
11964000    269.89739   -3890.5267   -3427.9318   -3890.5267            0    5260.8561    17.341117    20.425545    21.156122    7493.5356    4051.1888    4931.2014    6800.1781   -782.38607   -701.61345    334.72444   -2852.9963 
11965000    248.83948   -3897.2635   -3470.7612   -3897.2635            0    2635.5906    17.331131    20.413783    21.143939    7480.5976    255.08337     2818.197    4833.4915    1462.9084   -463.39216    324.47534   -3183.2266 
11966000    260.41787   -3860.7295   -3414.3822   -3860.7295            0    6295.8356    17.245541    20.312969     21.03952    7370.3152    6042.6757    7052.9893    5791.8418   -538.87203    1266.4581    858.25256   -2737.6524 
11967000    258.64575   -3886.1815   -3442.8716   -3886.1815            0    5906.4255    17.260518     20.33061    21.057791    7389.5336    7370.7506    4529.3555    5819.1705      563.476   -773.94872    570.06342   -2806.3434 
11968000    248.42763   -3840.1304   -3414.3339   -3840.1304            0    4077.7169    17.273841    20.346303    21.074046    7406.6593    3487.5363     5115.669    3629.9453    2119.6263   -448.15702    646.19771   -2973.8649 
11969000    266.76389   -3857.2862    -3400.062   -3857.2862            0    4471.0484     17.30818    20.386749    21.115939    7450.9178       4677.6    5875.7243     2859.821    784.97569    1292.8422   -176.83556     -2914.22 
11970000     254.4855   -3890.9105    -3454.731   -3890.9105            0    3724.7427     17.30722    20.385619    21.114768    7449.6788    2093.3829    5221.2391     3859.606    1081.7005   -582.35537   -329.46414   -3050.0529 
11971000    259.91651   -3858.7429   -3413.2549   -3858.7429            0    4074.4671    17.290068    20.365417    21.093843    7427.5521    2705.5325    4180.0127     5337.856   -197.53356   -261.50706   -599.72945   -2971.8954 
11972000    262.49011   -3895.3644   -3445.4653   -3895.3644            0    5711.6847    17.232874    20.298049    21.024066    7354.0863    8105.3963    5339.2618     3690.396   -187.83473   -174.37457    793.44688   -2832.8768 
11973000     260.2567   -3876.4249   -3430.3538   -3876.4249            0    5837.9537    17.188386    20.245648     20.96979    7297.2775    7517.6333    5734.3875    4261.8403   -1288.3755   -304.28497   -709.37317   -2809.0595 
11974000    261.15464   -3881.0782    -3433.468   -3881.0782            0    3355.9231    17.283052    20.357152    21.085283    7418.5137     2908.802     4149.901    3009.0663    1518.8011   -754.63368   -312.87169    -3070.386 
11975000    252.54993   -3858.4394   -3425.5775   -3858.4394            0    5627.0884      17.2082    20.268987    20.993964    7322.5433    5616.7784    5366.2235    5898.2634     635.9652    824.08208   -603.48436   -2824.6506 
11976000    268.61761    -3868.644   -3408.2426    -3868.644            0    5186.2895    17.280045    20.353611    21.081615    7414.6428    5922.6724    3927.5516    5708.6444   -927.38115   -1016.6802    822.76095   -2847.4234 
11977000    274.79487   -3807.0745   -3336.0855   -3807.0745            0    6086.3821     17.26037    20.330435    21.057611    7389.3436    6215.9639    6661.6426    5381.5398   -1656.8254    -561.9742   -130.41911   -2680.1804 
11978000    269.18802   -3837.6527   -3376.2736   -3837.6527            0    4485.7612    17.287601     20.36251    21.090833    7424.3728    6230.6142    3384.9044    3841.7651    603.72251    953.12813   -58.065742   -2890.5695 
11979000    270.98673   -3859.3533   -3394.8913   -3859.3533            0    6291.1384    17.309363    20.388144    21.117383    7452.4467    4197.4393    7472.1978    7203.7779   -684.24913     382.5211    580.65198   -2711.1308 
11980000    274.48079   -3842.6941   -3372.2435   -3842.6941            0    4697.9308    17.333286    20.416321    21.146568    7483.3885    2600.8533    5824.4344    5668.5048   -1710.4104    1416.2755    -324.3506   -2859.5228 
11981000    263.69141   -3833.7483   -3381.7903   -3833.7483            0    3833.5895    17.296041    20.372452     21.10113    7435.2529    3927.1312    2795.4036    4778.2336    324.86515    629.38344   -1558.4025   -2966.0929 
11982000    274.44896   -3886.5841   -3416.1879   -3886.5841            0    2240.3725    17.397649    20.492133    21.225092    7567.0624    418.74791    2686.5732    3615.7963    70.114738   -209.20874    1033.9592   -3168.9453 
11983000    258.35477   -3851.3945   -3408.5833   -3851.3945            0    5506.0877    17.357197    20.444486     21.17574    7514.4014    4000.8573    5093.6234    7423.7824    646.29424    1351.3505   -153.14125    -2805.172 
11984000     268.6732   -3855.3066   -3394.8099   -3855.3066            0    4286.8444    17.318918    20.399398     21.12904    7464.7947     4738.632    3477.3114    4644.5899    -647.2296   -375.58183   -50.624883   -2928.1167 
11985000    261.16296   -3883.6599   -3436.0356   -3883.6599            0    5035.5422     17.27731    20.350389    21.078278    7411.1223    4802.5313     3700.761    6603.3342   -890.03431   -1223.7791   -8.0370483    -2891.776 
11986000    266.52297   -3845.5727   -3388.7614   -3845.5727            0    4636.7694     17.29346    20.369411    21.097981    7431.9241    3161.2063    5327.6599     5421.442    108.06452    403.48884   -537.25633    -2886.196 
11987000    257.19146   -3834.9369   -3394.1196   -3834.9369            0    3689.1848     17.27909    20.352486    21.080449    7413.4129    2159.9356    4931.1409    3976.4779    223.07126    -525.8491   -765.10442   -2995.2559 
11988000     276.0361   -3887.1274    -3414.011   -3887.1274            0     3139.989    17.317012    20.397153    21.126715    7462.3308    3785.6527     1905.796    3728.5183    432.20288   -44.008585    282.20922   -3072.2846 
11989000    259.54799   -3857.7637   -3412.9074   -3857.7637            0     5158.262    17.214462    20.276363    21.001604      7330.54    5376.0858    4457.4807    5641.2197    1138.0674      -7.6818    95.395422   -2861.4458 
11990000    258.83884    -3850.516   -3406.8751    -3850.516            0      5010.66    17.274734    20.347355    21.075135    7407.8079    6057.3558    3344.6824    5629.9419    248.74463    -698.3964   -378.37791    -2865.547 
11991000    255.19121   -3857.4974   -3420.1084   -3857.4974            0    4159.9149    17.343855    20.428771    21.159463    7497.0863    4887.2459    3750.9166    3841.5821   -721.70351    128.16056   -1835.2568   -2965.2745 
11992000    262.19448   -3845.5145   -3396.1221   -3845.5145            0    3374.0829    17.402247    20.497548      21.2307    7573.0629    4890.5136    2595.3281     2636.407    273.65208   -1161.8099    943.23164   -3023.4704 
11993000     262.6593    -3828.015   -3377.8259    -3828.015            0    5284.6212    17.317016    20.397157    21.126719    7462.3348       4119.1    5230.0172    6504.7464    95.296906   -145.80074   -729.14463    -2802.698 
11994000    271.28047   -3874.9454     -3409.98   -3874.9454            0    5739.7306    17.338654    20.422644    21.153118    7490.3436    5041.2172    5408.4698    6769.5048   -310.44509     254.9107    1211.6849   -2782.9777 
11995000    279.08445   -3856.3099   -3377.9687   -3856.3099            0    4872.7191    17.389045    20.481998    21.214594    7555.8403    4653.2753    3609.2011     6355.681    531.34642    1258.8689    1609.2753   -2841.0234 
11996000    255.50736   -3871.1749    -3433.244   -3871.1749            0    2855.8762    17.422902    20.521877      21.2559    7600.0612    1963.0595    3320.0049    3284.5642    656.00729     197.3095   -1577.0601   -3116.7013 
11997000    266.28033   -3868.8226   -3412.4273   -3868.8226            0     5257.669    17.261541    20.331815     21.05904    7390.8483    4183.8765    4921.4344    6667.6961    1595.9063   -1374.5997    795.19794   -2845.7139 
11998000    266.29841   -3866.0474   -3409.6211   -3866.0474            0    5643.7397    17.365015    20.453693    21.185277    7524.5588    3363.5568    7045.2787    6522.3837    68.617384    264.41949    -1006.996   -2790.2885 
11999000    253.65689   -3902.7824   -3468.0231   -3902.7824            0    3215.0004    17.425815    20.525308    21.259454    7603.8737    2368.0996    4350.3251    2926.5764     415.1748    1039.4116    1469.6801   -3111.4966 
12000000    273.44622   -3854.5107   -3385.8332   -3854.5107            0    5417.3547    17.331564    20.414293    21.144467    7481.1581     4346.291    6840.4366    5065.3365    561.20123    1480.8864    1174.4123   -2794.7726 
Loop time of 370.949 on 64 procs for 250000 steps with 864 atoms

Performance: 116.458 ns/day, 0.206 hours/ns, 673.947 timesteps/s
193.5% CPU use with 32 MPI tasks x 2 OpenMP threads

MPI task timing breakdown:
Section |  min time  |  avg time  |  max time  |%varavg| %total
---------------------------------------------------------------
Pair    | 24.343     | 31.518     | 36.692     |  55.7 |  8.50
Bond    | 0.93253    | 1.1306     | 1.7509     |  16.3 |  0.30
Kspace  | 166.14     | 174.06     | 182.15     |  31.1 | 46.92
Neigh   | 3.6719     | 4.1289     | 4.6078     |  14.4 |  1.11
Comm    | 70.49      | 76.364     | 81.607     |  29.0 | 20.59
Output  | 0.54922    | 0.54955    | 0.55102    |   0.0 |  0.15
Modify  | 68.523     | 70.859     | 74.825     |  19.3 | 19.10
Other   |            | 12.34      |            |       |  3.33

Nlocal:        27.0000 ave          34 max          19 min
Histogram: 1 0 1 7 4 5 8 3 1 2
Nghost:        2482.62 ave        2516 max        2453 min
Histogram: 3 1 2 7 5 4 4 5 0 1
Neighs:        8254.00 ave       11262 max        5975 min
Histogram: 1 4 5 5 6 4 3 3 0 1

Total # of neighbors = 264128
Ave neighs/atom = 305.70370
Ave special neighs/atom = 2.0000000
Neighbor list builds = 14405
Dangerous builds = 1

unfix		3
unfix		2
unfix		1

write_data	data.final.${pid}
write_data	data.final.1
System init for write_data ...
PPPM initialization ...
  extracting TIP4P info from pair style
  using 12-bit tables for long-range coulomb (../kspace.cpp:340)
  G vector (1/distance) = 0.37410957
  grid = 24 24 25
  stencil order = 5
  estimated absolute RMS force accuracy = 0.0030887855
  estimated relative force accuracy = 9.3017858e-06
  using double precision FFTW3
  3d grid and FFT values/proc = 3822 576
Last active /omp style is kspace_style pppm/tip4p/omp
WARNING: Not all mixed pair coeffs generated from mixing. Use write_data with 'pair ij' option to store all pair coeffs. (../write_data.cpp:312)

write_restart   restart.lmp.${pid}
write_restart   restart.lmp.1
System init for write_restart ...
PPPM initialization ...
  extracting TIP4P info from pair style
  using 12-bit tables for long-range coulomb (../kspace.cpp:340)
  G vector (1/distance) = 0.37410957
  grid = 24 24 25
  stencil order = 5
  estimated absolute RMS force accuracy = 0.0030887855
  estimated relative force accuracy = 9.3017858e-06
  using double precision FFTW3
  3d grid and FFT values/proc = 3822 576
Last active /omp style is kspace_style pppm/tip4p/omp
Total wall time: 0:06:11
