LAMMPS (30 Jul 2021)
  using 1 OpenMP thread(s) per MPI task
package omp 0
using multi-threaded neighbor list subroutines
echo both

include		in.partitions
variable        pid world 0
include		in.temp
variable        temperature equal 245.90
variable	tempDamp equal 100.0
include		in.pressure
variable        pressure equal 4750.0
variable        pressureDamp equal 1000.0 # This is 1 ps
include		in.seed
variable        seed world 745823

units		real
atom_style	full
read_restart    restart.lmp.${pid}
read_restart    restart.lmp.0
Reading restart file ...
  restart file = 30 Jul 2021, LAMMPS = 30 Jul 2021
  restoring atom style full from restart
  triclinic box = (-3.2912706 -0.12082528 -0.18982321) to (14.901270 22.700824 19.419821) with tilt (-0.12925545 -6.6286678 0.27424481)
  4 by 4 by 4 MPI processor grid
  restoring pair style lj/cut/tip4p/long/omp from restart
  restoring bond style harmonic/omp from restart
  restoring angle style harmonic/omp from restart
  1008 atoms
  672 bonds
  336 angles
Finding 1-2 1-3 1-4 neighbors ...
  special bond factors lj:    0        0        0       
  special bond factors coul:  0        0        0       
     2 = max # of 1-2 neighbors
     1 = max # of 1-3 neighbors
     1 = max # of 1-4 neighbors
     2 = max # of special neighbors
  special bonds CPU = 2.387 seconds
  read_restart CPU = 2.739 seconds

include 	in.setup
variable	out_freq equal 1000
variable	out_freq2 equal 10000
variable	out_freq3 equal 1000

timestep	2.0

neigh_modify    delay 7 every 1

include		in.tip4p
# This is TIP4P/Ice

# create groups ###
group ox type 2
336 atoms in group ox
group hy type 1
672 atoms in group hy

# set charges - beside manually ###
set group ox charge -1.1794
Setting atom values ...
  336 settings made for charge
set group hy charge 0.5897
Setting atom values ...
  672 settings made for charge

# ### TIP3P Potential Parameters ###
pair_style lj/cut/tip4p/long/omp 2 1 1 1 0.1577 8.5
pair_coeff 1 1*2 0.000 0.000
pair_coeff 2 2 0.21084 3.1668
bond_style  harmonic
bond_coeff  1 450 0.9572
angle_style harmonic
angle_coeff 1 55 104.52
kspace_style pppm/tip4p/omp 1.0e-5
pair_modify tail yes

thermo          ${out_freq}
thermo          1000
thermo_style    custom step temp pe etotal epair emol press lx ly lz vol pxx pyy pzz pxy pxz pyz enthalpy

restart 	${out_freq3} restart.lmp.${pid} restart2.lmp.${pid}
restart 	1000 restart.lmp.${pid} restart2.lmp.${pid}
restart 	1000 restart.lmp.0 restart2.lmp.${pid}
restart 	1000 restart.lmp.0 restart2.lmp.0


include         in.dump
dump            myDump all atom ${out_freq2} dump.water.${pid}
dump            myDump all atom 10000 dump.water.${pid}
dump            myDump all atom 10000 dump.water.0
dump            myDump2 all dcd ${out_freq2} dump.dcd
dump            myDump2 all dcd 10000 dump.dcd
dump_modify     myDump append yes
dump_modify     myDump2 append yes


variable natoms 	equal  "count(all)"                        # NUMBER ATOMS
variable H      	equal  "enthalpy/v_natoms"                 # ENTHALPY-per-atom
variable Vol      	equal  "vol/v_natoms"                 # volume-per-atom
fix AVG all 		ave/time ${out_freq} 1 ${out_freq} v_Vol v_H file vol_enthalpy.dat
fix AVG all 		ave/time 1000 1 ${out_freq} v_Vol v_H file vol_enthalpy.dat
fix AVG all 		ave/time 1000 1 1000 v_Vol v_H file vol_enthalpy.dat



fix 		1 all shake 1e-6 200 0 b 1 a 1
       0 = # of size 2 clusters
       0 = # of size 3 clusters
       0 = # of size 4 clusters
     336 = # of frozen angles
  find clusters CPU = 2.436 seconds
fix             2 all nph tri ${pressure} ${pressure} ${pressureDamp}
fix             2 all nph tri 4750 ${pressure} ${pressureDamp}
fix             2 all nph tri 4750 4750 ${pressureDamp}
fix             2 all nph tri 4750 4750 1000
fix             3 all temp/csvr ${temperature} ${temperature} ${tempDamp} ${seed}
fix             3 all temp/csvr 245.9 ${temperature} ${tempDamp} ${seed}
fix             3 all temp/csvr 245.9 245.9 ${tempDamp} ${seed}
fix             3 all temp/csvr 245.9 245.9 100 ${seed}
fix             3 all temp/csvr 245.9 245.9 100 745823


run             250000
PPPM initialization ...
  extracting TIP4P info from pair style
  using 12-bit tables for long-range coulomb (../kspace.cpp:340)
  G vector (1/distance) = 0.37879787
  grid = 24 27 36
  stencil order = 5
  estimated absolute RMS force accuracy = 0.0024801461
  estimated relative force accuracy = 7.4688863e-06
  using double precision FFTW3
  3d grid and FFT values/proc = 4050 480
Last active /omp style is kspace_style pppm/tip4p/omp
Neighbor list info ...
  update every 1 steps, delay 7 steps, check yes
  max neighbors/atom: 2000, page size: 100000
  master list distance cutoff = 10.8154
  ghost atom cutoff = 10.8154
  binsize = 5.4077, bins = 5 5 4
  1 neighbor lists, perpetual/occasional/extra = 1 0 0
  (1) pair lj/cut/tip4p/long/omp, perpetual
      attributes: half, newton on, omp
      pair build: half/bin/newton/tri/omp
      stencil: half/bin/3d/tri
      bin: standard
Per MPI rank memory allocation (min/avg/max) = 9.326 | 9.338 | 9.352 Mbytes
Step Temp PotEng TotEng E_pair E_mol Press Lx Ly Lz Volume Pxx Pyy Pzz Pxy Pxz Pyz Enthalpy 
 9250000    260.34849   -4850.8248   -4330.0956   -4850.8248            0    2776.3642     18.19254     22.82165    19.609644    8141.6062    2820.2684     3045.177    2463.6473   -1047.2279   -294.86741   -2881.0488   -4000.4385 
 9251000    243.36784    -4849.328   -4362.5623    -4849.328            0    4638.9601    18.256966    22.705526    19.473233    8072.3178    4128.5437    5198.1809    4590.1558     171.7045    400.69137    874.14592   -3816.4339 
 9252000    244.33924   -4843.8927    -4355.184   -4843.8927            0    4892.0567    18.286816    22.636986    19.525891    8082.9065    4676.4807    6450.6118    3549.0775    -209.1595   -9.2897481   -1685.6293    -3778.504 
 9253000    234.83934   -4842.5184   -4372.8107   -4842.5184            0    4771.1268    18.179525    22.878803     19.42577    8079.6783    4902.5436    5376.1163    4034.7205    948.87978    760.62677    2438.5781   -3810.6106 
 9254000     239.6335    -4882.886   -4403.5894    -4882.886            0    4257.4498    18.038266    23.125667     19.35987    8075.9102    5116.7478    3616.0202    4039.5816   -635.38452   -449.75168   -1063.1811   -3902.1518 
 9255000    259.82313   -4872.6407   -4352.9624   -4872.6407            0    5012.4521    18.018155    23.233556    19.213426    8043.2362     4490.475    4729.3939    5817.4875    281.38818   -882.31693    295.64375     -3764.99 
 9256000    249.04508   -4844.5715   -4346.4506   -4844.5715            0    5029.3749    17.823851    23.327999    19.376139    8056.4971    5444.3987    4236.3677    5407.3584    224.26713    326.34837   -710.35165   -3755.5204 
 9257000    238.14905   -4830.6728   -4354.3453   -4830.6728            0    4789.7374    18.014039    23.114909    19.286734    8030.8585    3660.2321    5968.8778    4740.1024    331.09697    1033.3226   -14.127744   -3793.3625 
 9258000    242.88411   -4838.6145   -4352.8163   -4838.6145            0    3752.5178    18.061923    23.045007    19.366989    8061.2602    3392.1313     3111.051    4754.3712   -342.15155    1340.1565    178.88641   -3911.6507 
 9259000    247.51457   -4822.1398   -4327.0801   -4822.1398            0    3998.4949    18.083416    22.969527    19.489237    8095.1962    3605.4557    4681.9069    3708.1222    150.32507    141.98898    -82.47505   -3855.0172 
 9260000    246.41156   -4833.1634   -4340.3099   -4833.1634            0    3597.9217    18.197589    22.938993    19.430041    8110.7667    5634.0814    1733.1048    3426.5788    2430.5887   -869.90593    1129.0373   -3914.7217 
 9261000    248.30259   -4863.4125   -4366.7766   -4863.4125            0    6179.9125    18.041718    22.797177    19.446126    7998.1966    5508.9655    6646.8276    6383.9445    318.19647   -809.50621    -952.2655   -3645.9177 
 9262000      256.576   -4827.6673   -4314.4836   -4827.6673            0    4545.1626     18.17615    22.943697    19.411292    8095.0537    2455.9318    4566.6401    6612.9159    2447.0653   -188.92641    1153.1464   -3777.8905 
 9263000    253.41477   -4831.3049   -4324.4441   -4831.3049            0    5121.4103    18.239306    22.786181    19.452218    8084.4217    3992.3794     6403.746    4968.1054    1011.5639    196.37844   -108.59692   -3720.6144 
 9264000    239.20282   -4839.1624   -4360.7272   -4839.1624            0    4521.2488    18.127887    22.819625    19.498187    8065.8462    3672.5469    5038.7463    4852.4531    -206.3911     986.4233   -1290.4259   -3828.8832 
 9265000    244.48619    -4848.223   -4359.2204    -4848.223            0    5554.9178    18.122217    22.873525    19.448554    8061.7948    4838.5413    5856.7876    5969.4246    917.37394   -178.80206    881.45345    -3706.112 
 9266000    257.26291   -4866.6954   -4352.1378   -4866.6954            0    6115.7796    18.193578     22.79496    19.402845    8046.7843     5078.215    7251.7266    6017.3972   -69.418224    -289.4325   -972.62731    -3634.426 
 9267000    243.71194   -4841.4233   -4353.9693   -4841.4233            0    6820.2721    18.047267     22.76508    19.507315    8014.5307    8772.0053    5598.9598    6089.8512     1090.957   -415.60744    1588.3327   -3556.7906 
 9268000    254.48999   -4890.7766   -4381.7652   -4890.7766            0    4607.4806    18.274331    22.745843     19.42496    8074.2771    3996.8535    4008.7814    5816.8069    1743.4069    -289.1469   -2000.0813   -3839.2111 
 9269000     233.5933    -4814.903   -4347.6876    -4814.903            0    6322.4682    18.145215    22.620335    19.556937    8027.1612    6545.3285    6763.7189    5658.3573    281.99515    105.75736    73.987913   -3607.5294 
 9270000    249.47511   -4868.9434   -4369.9624   -4868.9434            0     4371.692    18.205845    22.731877    19.478999    8061.4426    2837.9459    5543.8349    4733.2953   -367.82324    379.13079   -1483.1373   -3855.9919 
 9271000    252.94878   -4888.6234   -4382.6946   -4888.6234            0    2197.9679    18.108601    22.774673    19.588747    8078.7412    1568.2149    2845.3094    2180.3794    129.10352   -135.09533   -1282.4662   -4123.7297 
 9272000    249.29421   -4847.4128   -4348.7935   -4847.4128            0    6426.2456      18.2312    22.753859    19.256219    7988.0603    5560.3016    5837.5473    7880.8879   -704.30607   -1890.2981    328.17108   -3600.1509 
 9273000    248.80513   -4889.5263   -4391.8853   -4889.5263            0    3505.0343    18.076376    23.033739    19.458325    8101.7951    3954.8537    2771.8038    3788.4453    1592.6847   -510.85767    681.02484   -3977.7431 
 9274000    248.49999   -4811.8361   -4314.8054   -4811.8361            0    5743.1028    18.186649    23.027348    19.265519    8068.2126    4337.0203      6227.41    6664.8781    3.6880504    479.89522   -1148.5231    -3639.034 
 9275000    257.86438   -4851.6308   -4335.8702   -4851.6308            0    4706.7453    17.959077    23.113998    19.437398    8068.5816    5852.7315    4211.3738    4056.1306   -812.84653    816.88653   -552.25925   -3782.0181 
 9276000    249.01952   -4836.0998     -4338.03   -4836.0998            0    4952.8735    18.149155    22.972238    19.318574    8054.4299    3778.1185    3917.0069    7163.4953     186.9011   -533.58114    422.78124   -3756.2378 
 9277000    250.14493   -4822.1713   -4321.8505   -4822.1713            0    4248.9003    18.105554    22.983693    19.428007     8084.625    4934.8337    3384.0527    4427.8143   -324.73144   -590.56473   -2342.4454   -3820.8798 
 9278000     250.6161   -4870.7423   -4369.4791   -4870.7423            0    3541.3168    18.046247    22.951458    19.451856    8056.7188    2748.0165    4400.7348     3475.199    2488.3869   -12.613907    1151.0372    -3953.378 
 9279000    248.45933   -4856.0283   -4359.0789   -4856.0283            0    4366.8133    18.107965    23.302464    19.184892    8095.2609    4412.7993    3836.1724    4851.4683   -596.31941    431.80277   -342.31956   -3843.5282 
 9280000    250.66856    -4834.953   -4333.5849    -4834.953            0    5548.9473    18.085685    22.923444    19.459407    8067.6011     4562.008    6093.1446    5991.6894   -70.500615    1299.5237    76.480456   -3680.7086 
 9281000    243.25474   -4812.2734   -4325.7339   -4812.2734            0    4237.7951     18.26439    22.909086     19.39821    8116.6083    2716.4543    3953.5627    6043.3684    1864.6243    370.92327   -797.38678   -3824.0959 
 9282000    253.88443   -4853.5613    -4345.761   -4853.5613            0    5158.1563    18.112429    22.763151    19.592987    8078.1094    6837.0701    5216.5458     3420.853    290.53274    105.98606   -911.19084   -3738.0738 
 9283000    244.74569   -4837.9966    -4348.475   -4837.9966            0    4820.2914    18.200875    22.681492    19.418178    8016.2704       4514.4    4575.7724    5370.7018    508.39296   -1905.4783   -2512.8591   -3784.9392 
 9284000     237.9866   -4860.9133   -4384.9106   -4860.9133            0    4873.9187    18.179881    22.845711    19.402945    8058.6698    5163.0311    4827.4471    4631.2779   -757.81813    240.65627   -254.27047   -3812.0915 
 9285000    242.71876   -4875.6535    -4390.186   -4875.6535            0    5527.4075    18.104698    22.772905    19.425453     8009.048     6012.331    6499.4704    4070.4211    347.23855    984.13193     1189.759    -3744.564 
 9286000     236.4827   -4858.4289   -4385.4343   -4858.4289            0    3925.0038    18.404839    22.651359    19.368816    8074.7553    5130.7904    2819.6316    3824.5895    35.544767     -157.012    645.40015   -3923.2179 
 9287000     253.2874    -4859.935   -4353.3289    -4859.935            0    4901.0456    18.148324    22.675333     19.51867    8032.3092     4380.284    5539.7132    4783.1395   -373.80991    881.10812   -988.93799   -3779.2058 
 9288000    252.91251   -4866.4804   -4360.6242   -4866.4804            0    4500.7195    18.326432    22.655031    19.420928    8063.2952    3789.6899    5516.2547    4196.2139   -787.01137   -997.16961   -976.82543   -3831.3626 
 9289000    239.21261   -4845.4768    -4367.022   -4845.4768            0    4663.2955    18.000341    22.993704    19.441068     8046.551    4422.3969    4595.8606     4971.629    266.21381      137.258   -203.08628   -3819.7811 
 9290000    237.06498   -4822.7292     -4348.57   -4822.7292            0    4360.0498    18.146424    23.038503    19.384561     8104.034    4260.7473    4829.4302    3989.9718     1894.978   -228.91271    -472.0848     -3833.26 
 9291000    248.16048   -4851.4982   -4355.1466   -4851.4982            0    3598.1216    18.099078    23.023536    19.470116    8113.2903    4101.6797    3806.8279    2885.8573    820.54421    191.86884   -726.22703   -3929.4024 
 9292000    242.55681   -4843.6298   -4358.4862   -4843.6298            0    4593.2424    18.202026    22.869651    19.464239    8102.4563    4705.5489    4815.8422    4258.3363    875.81798    1301.0462   -393.42072   -3815.7211 
 9293000    250.58021   -4840.6303   -4339.4389   -4840.6303            0    6164.4386     18.13833    22.981322    19.356258    8068.5165     6029.257    6088.6793    6375.3797    2292.6454     709.8171    491.76388    -3614.063 
 9294000    240.41337   -4868.5681   -4387.7116   -4868.5681            0    4746.4468    18.124406    22.964126    19.357656     8056.872    4542.4495    3868.6556    5828.2353    633.15701   -1347.7932   -769.56894   -3829.9983 
 9295000     245.6551    -4881.702   -4390.3615    -4881.702            0    3744.8729    18.093267    22.807257    19.518564    8054.4876    6853.7902    1481.8149    2899.0135    691.92074   -1734.9329    193.28193   -3950.4646 
 9296000    248.78266   -4879.1762   -4381.5802   -4879.1762            0    6821.9156    18.133892    22.691586    19.475518    8013.9178    5657.2657    7570.8966    7237.5844    439.42342    1637.6618    567.55437   -3584.2704 
 9297000    243.37772   -4837.8963   -4351.1108   -4837.8963            0    5240.4782    18.391436    22.744238    19.307993    8076.5181    4718.6806    4795.1571    6207.5969    787.91852    556.00272     105.2624   -3733.8467 
 9298000    245.13265   -4872.6053   -4382.3097   -4872.6053            0    4360.9659    18.033944    22.922786    19.555041    8083.8238    3703.1257    5911.5249     3468.247    113.51818    417.53327   -1415.9363   -3868.1768 
 9299000    250.85724    -4838.688   -4336.9425    -4838.688            0    4580.2661     18.12697    23.100101    19.246274    8059.0851    2992.2191    4786.8831    5961.6961    1271.1397   -480.09733    181.37679   -3798.6079 
 9300000    234.93479   -4853.6986      -4383.8   -4853.6986            0    5323.4999    17.909178    23.130475    19.409519    8040.3502     7021.468    3920.8977     5028.134   -1231.8102    284.48886   -1029.8514    -3759.565 
 9301000    249.27406   -4794.1112   -4295.5322   -4794.1112            0    3987.1908    18.067674    23.411502    19.195233     8119.418    3831.3703    2147.1554    5983.0466   -1103.5468   -887.98888    400.58653   -3823.3955 
 9302000    236.17376   -4851.0585   -4378.6818   -4851.0585            0    6708.1911    17.971667    22.945532     19.47203    8029.6708    8546.4584    6550.3945    5027.7205   -650.58117   -169.74167   -1108.9786   -3593.1223 
 9303000    238.37226   -4879.5433   -4402.7693   -4879.5433            0    3154.9651    18.201909    23.034371    19.273794    8080.9149    2028.0086    3612.8642    3824.0227     1223.439    319.43982    827.67115   -4030.9508 
 9304000     260.9911   -4847.6849   -4325.6704   -4847.6849            0    3391.3143    18.146469    22.936355    19.420855    8083.2288    3218.1232    3225.6521    3730.1677    95.417381   -255.29234    849.45152   -3925.8833 
 9305000    252.67857   -4850.3508   -4344.9624   -4850.3508            0    4086.6245    18.092206    22.875856    19.527951    8082.1247    7777.8866    3025.9778    1456.0092    235.23298   -1720.9278    1202.1691    -3863.274 
 9306000    255.51977   -4823.8006   -4312.7295   -4823.8006            0    6057.9022     18.20637     22.79479    19.406334    8053.8299     5703.731    5847.4542    6622.5215   -1567.0527   -998.13839   -712.12757   -3601.1874 
 9307000    242.39106   -4876.4498   -4391.6377   -4876.4498            0    3837.0975    18.268685    22.638945    19.560507    8089.9081    3108.1763    4827.7031    3575.4131    301.56885   -1460.0188    1916.2245   -3938.9254 
 9308000    238.71965   -4836.8151   -4359.3463   -4836.8151            0    3755.7073    18.276645    22.669942    19.581086    8113.0408    1715.5534    4619.5546    4932.0141   -878.94591   -1133.6153   -431.68939   -3914.9696 
 9309000    234.86852   -4830.1028   -4360.3367   -4830.1028            0    5250.0512    18.190744     22.71425    19.521078    8065.8967     3466.164    6205.4404    6078.5491   -795.64126   -443.09587   -447.52194   -3742.7584 
 9310000    240.32426   -4841.6407   -4360.9625   -4841.6407            0    5952.5448    18.201476    22.944241    19.286091    8054.2394    5516.8633    5101.0035    7239.7676   -1075.3394    -186.8221   -58.672189   -3661.7598 
 9311000    242.79591   -4819.7062   -4334.0844   -4819.7062            0    5180.4255    17.983758    22.964127    19.566795    8080.7204    5982.6859    5187.4354    4371.1551   -1618.6579    515.37608    1569.8313   -3723.5764 
 9312000    250.98275   -4805.8127   -4303.8162   -4805.8127            0    4778.1716    18.168283    22.864881    19.493579    8097.9374    4055.6072    5417.2709    4861.6368   -2470.3339    124.06894    650.48181   -3739.5136 
 9313000    253.97559   -4841.6196   -4333.6371   -4841.6196            0    3491.0487    18.155999    22.909393     19.44373    8087.4818     2168.166    4541.5486    3763.4315   -464.41308    752.52351    317.46836   -3921.8762 
 9314000    235.85264    -4837.775   -4366.0406    -4837.775            0    3864.4593    18.138885     23.09511    19.414101    8132.9461    3213.6966    3335.0386    5044.6426   -135.69378   -273.40502    1851.8354   -3907.6745 
 9315000    242.79321   -4865.2905   -4379.6741   -4865.2905            0    3794.2021    17.989766    23.198899    19.390343    8092.4197    4733.2051    3991.3432    2658.0579   -569.75852     914.8831   -5.9051191   -3931.8837 
 9316000    253.15655   -4831.1832   -4324.8388   -4831.1832            0    4679.9698    18.022884    23.243306      19.3595    8109.9154    3462.2244    6077.0539    4500.6313     93.41485   -75.859459    1081.5681   -3771.3163 
 9317000    248.14847   -4870.8007   -4374.4731   -4870.8007            0    4096.3436     18.07351    23.095619     19.31759    8063.5271     2706.497     3825.683    5756.8509   -446.01088   -410.46281    -1069.042   -3892.7502 
 9318000    251.98921   -4863.8351   -4359.8256   -4863.8351            0    3342.1924    18.089059    23.012341    19.466046    8103.1617    3019.7246    2902.4402    4104.4124    313.45043     249.6464    55.587427   -3964.8576 
 9319000    242.28539    -4872.662   -4388.0613    -4872.662            0    6208.4038     18.05604    22.697853     19.46552    7977.6189    5425.0426    6585.5183    6614.6505    75.425342   -711.82421    1994.0095   -3665.7421 
 9320000    239.97296   -4830.2455   -4350.2699   -4830.2455            0    3634.6243    18.232269    22.924905    19.366927    8094.8533    2315.4844    4056.4902    4531.8983   -299.19051    1019.9127   -109.55031   -3921.1839 
 9321000    247.68509    -4859.867   -4364.4662    -4859.867            0    5149.0029    18.076655    22.779527     19.58352    8064.0557     4795.911    6161.7114    4489.3862   -116.38324    573.21231    209.36361   -3758.9127 
 9322000    254.35617    -4816.212   -4307.4682    -4816.212            0    3652.1939    18.311955    22.720667    19.572937    8143.5128    1347.2893    5843.7406    3765.5517     1214.386     692.3859   -100.13057   -3873.7162 
 9323000    243.93613   -4881.1649   -4393.2625   -4881.1649            0    5975.9854    18.136224    22.722496    19.486865    8030.5423    7556.7831    5453.9859    4917.1872    406.05483   -814.80236   -2129.4569   -3693.3717 
 9324000     241.3592   -4880.4644   -4397.7162   -4880.4644            0    4644.8435    18.075544    22.871256    19.459105     8044.596    5982.3926    3358.5886    4593.5491   -77.280025   -161.34936   -1440.7978    -3852.773 
 9325000    234.68179   -4841.0481   -4371.6555   -4841.0481            0    4285.6891    18.060558     23.14823    19.317102    8075.9002    5018.8558    3388.5835    4449.6279    912.59081   -506.88216   -188.07763   -3866.8926 
 9326000    245.19293   -4845.2635   -4354.8473   -4845.2635            0    4468.5614    18.079851    23.167635    19.407532     8129.182    3346.9198    4138.0998    5920.6646    121.02393    443.65399   -1421.8528   -3825.0736 
 9327000    234.77811   -4876.0435   -4406.4583   -4876.0435            0    3832.0597      18.1472     22.99987    19.318856    8063.3664    4128.6728    3037.4848    4330.0214    646.08759   -396.28765    225.27212   -3955.8237 
 9328000    249.28775   -4804.3883    -4305.782   -4804.3883            0    6242.7849    17.978356    22.812297    19.615041    8044.6697    7745.8814    5871.2078    5111.2654    995.20803   -1529.2039   -806.91934   -3573.3581 
 9329000    251.83805   -4885.7892   -4382.0819   -4885.7892            0    3738.9959    18.075686     22.81511    19.594453    8080.7284    3178.9545    4398.6416    3639.3917    126.39323   -292.70515     561.8606   -3941.4445 
 9330000    263.00396   -4858.4582   -4332.4178   -4858.4582            0    4124.7517    18.228067    22.861681    19.426583    8095.5284    3401.6057    3323.6111    5649.0383   -688.71918   -416.54747    1062.5988   -3845.4291 
 9331000     252.6447   -4860.7133   -4355.3927   -4860.7133            0    4470.1973    18.139301    22.869913    19.505405    8091.7048    5856.4186    4696.4226    2857.7507    2132.0086    1788.3582    66.893918   -3827.8682 
 9332000    236.13421   -4865.6914   -4393.3938   -4865.6914            0    4204.2837    18.052478    22.988381    19.406738    8053.7432     4496.771    3831.6203    4284.4599   -1124.3292    142.52848   -1437.8613   -3899.5772 
 9333000    246.31825   -4831.2934   -4338.6265   -4831.2934            0    5039.4976    18.135141    23.061162    19.325764    8082.3714    3768.7115    5655.6583    5694.1229   -754.01759    7.6352267    395.86326   -3744.6053 
 9334000     248.2125   -4829.8162   -4333.3606   -4829.8162            0    3720.7751    18.053164    23.210793    19.348548    8107.5883    4546.9368    3035.2828    3580.1057    628.59044   -231.04226   -543.78417   -3893.4129 
 9335000     242.0813   -4861.3827   -4377.1901   -4861.3827            0    4805.6229    18.013893    23.053432    19.404489    8058.3364     6787.839    3941.2429    3687.7868    28.503658    -756.3727    -822.2989    -3812.421 
 9336000    241.90063   -4856.8341   -4373.0029   -4856.8341            0    6074.8748    18.181165    22.966242    19.195479    8015.1304     4075.163    6700.3251    7449.1362   -157.72608    735.76477   -933.42366   -3662.8959 
 9337000     245.2577     -4859.27   -4368.7243     -4859.27            0     3013.998    17.956784    22.930809    19.691352    8108.1818    4915.5993    2317.4223    1808.9723    1348.3825   -464.11628    636.91353   -4012.3205 
 9338000    251.28262   -4863.3573    -4360.761   -4863.3573            0    2992.7771    18.228223    22.967897    19.298918    8079.7612    1995.5387    2268.2215    4714.5711     968.7333   -1080.6248   -245.25567    -4008.107 
 9339000    235.89587     -4875.07   -4403.2491     -4875.07            0    5171.5726    18.001885    22.901016    19.558551    8063.2367    5137.3741    5265.0708    5112.2728   -170.65526    227.76986    103.40984    -3795.103 
 9340000    246.81918   -4865.8223   -4372.1534   -4865.8223            0    5434.1017    18.114649    23.081949    19.283757    8062.9512    6630.5638    4945.3523    4726.3889    479.51423   -393.89975      1835.55   -3733.1581 
 9341000    242.62433   -4860.6088   -4375.3302   -4860.6088            0    5257.0655    17.990937    23.071298    19.419938    8060.7163    5755.5851    4995.6766    5019.9347    188.84889    655.09484   -1111.8992   -3757.3239 
 9342000    245.61547   -4860.7189   -4369.4576   -4860.7189            0    5045.3518    18.170109    23.119931    19.197411    8064.6722    3662.7016     4683.659    6789.6949   -283.18638    1830.3256    559.63349   -3776.0487 
 9343000    248.02592   -4829.4062   -4333.3237   -4829.4062            0    4445.1881    18.228899    22.859703    19.362061    8068.3103    3559.1369    4627.5646    5148.8629   -207.26658   -649.10772    881.96546   -3810.2672 
 9344000    245.08782   -4850.0127   -4359.8068   -4850.0127            0    4952.8614    18.206529     22.63876    19.496904    8036.1024    4979.9064    5952.7021    3925.9756   -587.86648     52.51878    1462.5247   -3779.3398 
 9345000     224.4438   -4850.6667   -4401.7513   -4850.6667            0    5018.9558     18.24742    22.587764    19.603172    8079.8084    4407.2838     5622.364    5027.2195    2256.1157   -683.88481    1841.3293   -3810.3391 
 9346000    259.12954     -4862.04   -4343.7489     -4862.04            0    6101.1907    18.128212    22.637369    19.497413    8001.2515    4975.3801    6680.4057    6647.7864   -104.61579   -1045.5709    213.93303   -3631.8007 
 9347000    252.60491   -4867.1012   -4361.8602   -4867.1012            0    4315.8435     18.34046    22.555752    19.600976    8108.5876     4073.791    5173.1669    3700.5725     337.2044    716.05535     168.9656   -3851.4882 
 9348000    247.08331   -4856.3682    -4362.171   -4856.3682            0    5491.0733    18.194322    22.722842    19.462573    8046.3475     3807.644    7035.7408    5629.8352    585.38778     275.9776    -44.63786   -3717.8061 
 9349000    245.92817     -4859.71   -4367.8233     -4859.71            0    5811.4667    18.020839    23.080051    19.276297    8017.4337    6928.3003    4120.3368    6385.7631   -1025.3732   -1048.9109   -2227.8675   -3688.3115 
 9350000    237.95428   -4836.4856   -4360.5476   -4836.4856            0    4004.7519    18.091436    23.222889    19.240815    8083.7481    3214.1396    4078.4645    4721.6517   -87.216094   -172.80427   -993.97536   -3888.4147 
 9351000    245.32768   -4895.9238   -4405.2381   -4895.9238            0    2883.3576    18.131502    22.936235    19.474376    8098.7776    1258.1661    3847.2074    3544.6993   -319.33975    895.03608   -324.15298   -4064.6779 
 9352000     241.0485    -4841.693   -4359.5662    -4841.693            0    5651.0799    18.143106    22.769541    19.473464    8044.6868    5676.7562    5646.0483    5630.4353   -90.669588    402.42915    1637.5797   -3696.5617 
 9353000    242.83348   -4829.4321   -4343.7351   -4829.4321            0    4782.8943    18.218375    22.713258    19.501672    8069.7655     5895.809     4841.226    3611.6479   -892.60766   -727.61297   -387.21799   -3780.8399 
 9354000    241.09974   -4821.9191   -4339.6898   -4821.9191            0    5680.6242    18.014374    22.890419    19.599345    8081.9185    7331.4353    4635.9547    5074.4827    728.29193   -1529.7333    715.39262   -3670.1345 
 9355000    255.50231   -4826.0865   -4315.0503   -4826.0865            0    3783.7942    18.142673    23.098268    19.287127    8082.5473    3287.4634    2925.9538    5137.9654   -741.76427    639.37982    86.115971   -3869.0331 
 9356000    237.99642   -4869.5463   -4393.5241   -4869.5463            0    3747.6061    18.047697    23.058092    19.451592    8094.6919     4008.568     3327.455    3906.7953    559.60886   -242.30172   -12.477577   -3951.1088 
 9357000    250.94726   -4853.3568   -4351.4312   -4853.3568            0    5508.7377    18.106762    22.877479    19.409666    8040.2029    5241.3446    6790.9788    4493.8897    32.264617   -1120.6809    1304.4509    -3705.487 
 9358000    244.27707   -4832.8602   -4344.2759   -4832.8602            0    4076.4623    18.116413    23.138496    19.407627    8135.4159    3547.7001    3093.4066    5588.2802   -776.37096   -148.00045    935.64985   -3860.6171 
 9359000    248.19909   -4863.8309    -4367.402   -4863.8309            0    6183.0685    17.960274    22.934082    19.475289    8021.9185    6282.4121    6617.7172    5649.0762   -363.07596    450.75258   -847.96483   -3644.0359 
 9360000    256.97767   -4844.3757   -4330.3886   -4844.3757            0    6562.1673    18.078526    22.983085    19.316449    8025.9905    7418.0913    5553.3043    6715.1063     2627.166   -382.42685    458.42489   -3562.2814 
 9361000    248.96749   -4818.3518   -4320.3861   -4818.3518            0     5686.641    18.155631    22.983173    19.293748    8050.7794    5075.9769    5689.9361      6294.01   -14.386149   -141.12308   -1817.1853   -3652.7042 
 9362000    240.86677   -4834.1045   -4352.3412   -4834.1045            0    4565.9224    18.036218    22.958482    19.485142    8068.4895    5273.4389    4501.4491    3922.8793    355.30282    -398.0314   -245.11096   -3815.0662 
 9363000    253.02805   -4878.9256   -4372.8383   -4878.9256            0    6020.8438    18.282002    22.766272    19.251348    8012.6618    4010.9398    7231.8364    6819.7551    1708.4704   -290.03648   -1823.4571   -3669.2638 
 9364000    259.25098   -4870.0168   -4351.4828   -4870.0168            0    4334.7642    18.006149    22.963232    19.553041    8084.7789     4301.542    5175.8586    3526.8921    553.63246    1907.3469   -1504.1084   -3840.3785 
 9365000    244.88446   -4853.8139   -4364.0147   -4853.8139            0    3209.3378    18.130797    23.121889    19.256831    8072.8154    1995.7507    4397.7149    3234.5479    1591.9511    447.64073    135.40365   -3986.1674 
 9366000    241.46069   -4871.4486   -4388.4974   -4871.4486            0    5679.5476    17.871279    23.152503    19.371392    8015.2009    7803.2594    4538.9057    4696.4776    1352.7367   -655.73786   -813.48269   -3724.5953 
 9367000    242.11875   -4881.3164    -4397.049   -4881.3164            0    5026.9122    18.091581    22.975115    19.354622    8044.8679    4259.3959     5705.736    5115.6046    1091.3842    420.77746    679.66918   -3807.2607 
 9368000    240.31582   -4862.6816   -4382.0203   -4862.6816            0    5011.4721    17.992293    23.028996    19.394374    8035.9511    5532.7197    4975.7914    4525.9052   -1274.4838   -389.77393   -1080.2149   -3794.6953 
 9369000    234.65382   -4849.5663   -4380.2296   -4849.5663            0    2949.0117    18.107782    23.087026     19.43725    8125.8364    1521.3335    3695.7381    3629.9635    2178.0327   -1062.7814   -718.52677   -4030.7511 
 9370000    246.99049   -4860.2007   -4366.1892   -4860.2007            0     4774.381    17.987619    22.980239    19.501203    8061.0127    2620.1726    6029.2143     5673.756    1377.8634   -978.25064   -1640.8305   -3804.9054 
 9371000    248.03137   -4880.9602   -4384.8668   -4880.9602            0    5304.7758    18.140457    23.005924    19.310561    8059.0305    5871.2734    4181.8238    5861.2303    566.48893   -640.97129   -1757.6185   -3761.3822 
 9372000    260.09958   -4858.6768   -4338.4455   -4858.6768            0    5409.9982    18.041948    22.954172    19.458605    8058.5472    4935.7775     5389.113     5905.104    2025.8203    449.77597   -44.778422    -3702.632 
 9373000    245.60013   -4852.3771   -4361.1465   -4852.3771            0    6204.0039    18.193101    22.812794    19.283224    8003.2217    6101.5403    5734.8541    6775.6173    944.90073      91.7888   -2072.5545   -3637.0227 
 9374000    247.37532   -4845.0855   -4350.3043   -4845.0855            0    4929.8435    18.329981    22.707097    19.331657     8046.235    2183.8108    6375.1215    6230.5983   -170.19045   -851.13381   -1314.1406   -3771.8064 
 9375000    245.86417   -4830.3409   -4338.5822   -4830.3409            0    4686.0334    18.125205    22.798739    19.546202    8077.1126    4517.6827    5503.0932    4037.3244    109.53311   -79.912211    1353.8667   -3786.5843 
 9376000    255.84725   -4890.6271   -4378.9009   -4890.6271            0    5089.1451    18.201496    22.714108    19.482771    8054.7763    4350.0902    6146.6994    4770.6456    1768.5637    1352.5366    -897.3764   -3781.0758 
 9377000     243.3927   -4870.0343   -4383.2188   -4870.0343            0    4330.5409      18.2019    22.729382    19.430953    8038.9336    3946.2216    4962.2398    4083.1614    371.51213    652.20653    641.66142   -3875.5079 
 9378000     229.6109   -4834.9837   -4375.7336   -4834.9837            0     3655.765    18.174881    22.854957      19.5572    8123.7897     3761.063    4310.1003    2896.1317    357.80509    677.44589   -360.13686    -3942.609 
 9379000    251.86264   -4830.7668   -4327.0104   -4830.7668            0     4762.194    18.248853    22.744645    19.523648    8103.5574    4893.8767     5207.199    4185.5061   -1188.3082    32.767751   -139.11713   -3764.2045 
 9380000    243.10861   -4872.2357   -4385.9884   -4872.2357            0    6031.6701    18.213284     22.73768     19.40052    8034.2948    6632.4997     5757.721    5704.7895    1174.9104   -976.10869    1945.0028   -3679.2459 
 9381000     232.0636   -4858.7799   -4394.6241   -4858.7799            0    5860.0594    17.996763     22.89632    19.452219    8015.4745    6718.6239    5819.7092    5041.8452   -511.23045   -175.86257   -1410.3411   -3709.5979 
 9382000    257.63933   -4840.7166   -4325.4061   -4840.7166            0    5440.8159    18.076567    23.113351    19.247845    8041.9429    5374.6897    5001.2126    5946.5453    2046.0049    586.61254    823.38698   -3687.2882 
 9383000    248.53085   -4838.3237   -4341.2313   -4838.3237            0    4556.1022    18.039492    23.116309    19.382242    8082.5199      4117.88    4696.8324    4853.5943    212.39954    694.14445   -1186.8029   -3804.1795 
 9384000    232.19414   -4853.9605   -4389.5435   -4853.9605            0    4257.5001    18.039587    23.078731    19.403216    8078.1559    5344.1889    3689.3497    3738.9618    1787.5175    218.34437   -343.91921   -3887.9605 
 9385000    239.84067   -4852.5154   -4372.8044   -4852.5154            0    6837.7054     18.13939    22.977253    19.177393    7993.0099    4779.5452    7908.6869    7824.8841    924.18691    271.26706   -706.93333   -3575.7341 
 9386000    254.54077   -4850.9409   -4341.8279   -4850.9409            0    4613.4689    17.927713    22.924784    19.620512    8063.8133    5255.2796    4921.8834    3663.2437    376.31254   -205.69904   -1.5855968   -3799.2727 
 9387000    250.72901   -4875.4874   -4373.9984   -4875.4874            0    3908.3066    18.176368    22.875735    19.353167    8047.0037    2980.9305     4067.937    4676.0521    262.84545   -839.02618   -238.81503   -3915.3301 
 9388000    243.46185   -4853.8221   -4366.8684   -4853.8221            0    4355.9807    18.074272    22.773264    19.588731    8062.9213    4270.7532    5804.9343    2992.2545   -693.09753   -194.94785   -1171.4961    -3854.651 
 9389000    240.64718   -4874.2323   -4392.9082   -4874.2323            0    3833.3806    18.319215    22.723404    19.462288    8101.6626    2777.4298    5016.3835    3706.3284    396.65976   -173.08764     2091.787   -3939.9773 
 9390000    256.44376   -4852.2875   -4339.3683   -4852.2875            0    5054.4921    18.047535    22.979448    19.400326    8045.7496    5503.4984     5774.325     3885.653    46.682996    455.59511   -87.079257   -3746.2792 
 9391000    245.46039   -4869.3654   -4378.4143   -4869.3654            0    3652.9137    18.082687    23.143838     19.34631    8096.4844    2479.7179    3468.0556    5010.9675    725.49172    196.34279   -211.05097   -3947.0822 
 9392000    255.79071   -4870.5652   -4358.9522   -4870.5652            0    5996.4247     17.88368    23.117909    19.371277    8008.7307    6884.3105     5139.093    5965.8708   -565.41746   -756.45123    136.66167   -3658.5751 
 9393000    245.08942   -4857.8133   -4367.6042   -4857.8133            0     3223.674    17.919263    23.406497    19.278391    8085.8812     4389.394    2864.0471     2417.581    572.54908    97.182796    956.46614   -3987.4547 
 9394000    247.29049   -4854.9336   -4360.3221   -4854.9336            0    4036.5148    17.972316    23.259394     19.32759    8079.4193     4141.762    3650.9106    4316.8718    200.54701   -315.23888   -1396.0234   -3884.6994 
 9395000    251.94931    -4864.269   -4360.3393    -4864.269            0     4213.348    17.973515    23.015439    19.498544    8065.9307    3342.0905    4230.0013    5067.9523   -99.791876   -328.26155    450.03351   -3864.7091 
 9396000    244.06655   -4864.6646   -4376.5013   -4864.6646            0    3811.6461    18.390939    22.723431    19.395262    8105.3813    1071.1057     6453.007    3910.8256    630.75546    616.25431   -851.23046   -3925.9317 
 9397000    238.28638   -4870.3124   -4393.7102   -4870.3124            0    4664.8304    18.155755    22.676913    19.558253    8052.4551    5229.2131    4323.7632    4441.5149   -1235.7415   -1453.3325   -1260.9905   -3845.8875 
 9398000    239.15355   -4857.0396   -4378.7029   -4857.0396            0    4595.6566    18.249917    22.813106    19.338382      8051.29    2528.6913    6141.9021    5116.3765    864.19786    613.41837     921.3218   -3839.0818 
 9399000    256.58816   -4849.8036   -4336.5955   -4849.8036            0    3913.5915    18.112039    22.756364    19.717096      8126.68    3943.4659    4875.7785    2921.5302    40.963764    1030.7851    401.64715   -3872.7595 
 9400000    246.35064   -4870.2884   -4377.5567   -4870.2884            0    3745.3781    18.258184    22.935826    19.378924    8115.2447    3778.5177    3229.3694    4228.2473    382.44578   -473.16907    -262.3229   -3934.2818 
 9401000    251.19944   -4822.2536   -4319.8237   -4822.2536            0    5666.2859      18.1238      22.8529    19.513921    8082.3033    4525.5234    6049.0266    6424.3078   -560.73058    316.98709   -1103.0485   -3651.9267 
 9402000    246.08809   -4844.0535   -4351.8469   -4844.0535            0    6097.2623    18.122777    22.815198    19.327207    7991.3119    6962.0653    5144.4877    6185.2339    556.80325   -653.47908    1074.5625   -3641.2409 
 9403000    247.63051   -4846.0362   -4350.7446   -4846.0362            0    5355.7077    18.256702    22.479982    19.582795    8036.9816    4103.5108    6650.1368    5313.4756   -244.53415    207.50787   -1512.7181    -3722.996 
 9404000    249.71694   -4861.0758   -4361.6111   -4861.0758            0    5604.6233    18.157695    22.631022    19.521778    8022.0295    5469.1993    7034.2112    4310.4595    305.16946    610.52422    -1163.667    -3705.909 
 9405000    239.46962   -4852.8339   -4373.8651   -4852.8339            0    4793.6303    18.223684    22.765696    19.483946    8083.3989    3257.6054    5200.4455    5922.8402    337.43619     -96.8398    24.958438   -3808.7532 
 9406000    227.72792   -4846.9902   -4391.5062   -4846.9902            0    4397.0936    18.136254    22.865863    19.514278    8092.5925    3402.8339    5632.3642    4156.0827    234.91071    716.04681    608.47244   -3872.5517 
 9407000    247.55326   -4862.6648   -4367.5277   -4862.6648            0     5114.876    18.093736    22.895123    19.410996    8041.1663    5870.3084    5230.9033    4243.4165    857.02485   -1237.7755    438.02522   -3767.6951 
 9408000    235.42889   -4856.4898   -4385.6029   -4856.4898            0    5947.0413     17.98872    22.888892    19.471088     8017.062    4402.5502    6565.4573    6873.1164    600.61529    1594.0462    563.61934   -3690.2711 
 9409000    239.67539   -4867.2987   -4387.9183   -4867.2987            0    3788.8025     18.15264    23.024629    19.366193    8094.2515    3941.4032    4076.1364    3348.8679    1027.7631    20.481348   -258.31439    -3940.664 
 9410000     254.9843   -4860.8351    -4350.835   -4860.8351            0    7565.8772    17.943479    23.114499    19.351411    8026.0851     9640.188    6522.6264     6534.817    2502.1301    635.24271    610.22365   -3465.2323 
 9411000    228.51697   -4842.1995   -4385.1373   -4842.1995            0    4507.1015    18.057356    23.174514    19.298461    8075.8356    4775.9885    3845.6399    4899.6762    1293.2442    -271.9699   -330.47734   -3854.3009 
 9412000    243.98627   -4849.0122   -4361.0095   -4849.0122            0    2704.0108    18.059702    23.163392    19.481331    8149.5072    2475.4145    3295.5168     2341.101    154.93918   -961.50592    1545.0722   -4039.6318 
 9413000     238.2919   -4838.7222   -4362.1089   -4838.7222            0    5703.1011    18.114392     22.85508     19.35328    8012.3713    4681.7736    6978.9597      5448.57     1722.227   -512.35849    1016.9143   -3695.6889 
 9414000    249.11651   -4879.2299   -4380.9661   -4879.2299            0    3561.4636    18.072757    22.910828    19.586631    8110.0764    2025.0596    4970.4672    3688.8639    926.17139    836.65567    1304.1555   -3959.7264 
 9415000     232.4879   -4842.6337   -4377.6292   -4842.6337            0    4147.6933    18.153463    22.983027    19.367394    8080.4936    4623.1698     2950.563    4869.3471    409.41229    -1533.021    508.21371   -3888.8413 
 9416000    259.04016    -4837.416   -4319.3037    -4837.416            0    5482.1087    18.122597    23.039866    19.210606    8021.2391    4636.4556    5921.9106    5887.9599    908.92013   -755.53315   -416.70269   -3677.9981 
 9417000    238.28563   -4843.0023   -4366.4016   -4843.0023            0    5042.9108    17.799805    23.151797    19.527862    8047.3826    6542.9847    4544.9605    4040.7872   -2248.3443   -1070.4304    671.87602   -3774.5513 
 9418000    248.15033   -4837.6165   -4341.2852   -4837.6165            0    3176.5655    18.230496    23.110115    19.202733    8090.2814    2439.6432    3804.4447    3285.6084    1330.9249   -420.99504    83.646114   -3966.4871 
 9419000    252.69559    -4831.754   -4326.3316    -4831.754            0     4996.629    17.989484    22.751679    19.709933    8067.0975    6535.3666    4123.1529    4331.3675    348.17658   -339.56735    538.73582   -3738.4765 
 9420000    243.09103   -4845.4801    -4359.268   -4845.4801            0    4780.7753    18.298686    22.836092    19.392083    8103.3789    3004.2177    5404.2299    5933.8784   -356.72713    979.52955   -845.73114   -3794.2785 
 9421000    248.58484   -4844.8258   -4347.6254   -4844.8258            0    4839.2811     18.03184    22.924817    19.661383     8127.556    5022.0989    4380.8183    5114.9262    1450.9089     364.4831    1130.0337   -3774.0154 
 9422000    250.15383    -4875.275   -4374.9364    -4875.275            0    3494.2229     18.14922    22.993959    19.427816    8107.6632    4253.7982    2739.1987    3489.6718   -52.058825   -647.56088    557.61103   -3961.7727 
 9423000    223.90603   -4836.8346   -4388.9949   -4836.8346            0    5315.4245    18.156012    22.953585    19.323659    8053.0491    4779.0599    4757.5171    6409.6966   -177.59334    189.03418    882.35235   -3764.7224 
 9424000     256.1282   -4886.9039   -4374.6159   -4886.9039            0    4342.8637    18.077427    23.020442    19.377194    8063.8265    4740.0265     4607.204    3681.3606   -232.68152    1283.7074   -727.55416   -3863.8837 
 9425000    238.80494   -4845.8992   -4368.2598   -4845.8992            0     5757.706    18.101731    23.017654    19.289702    8037.2349    6305.0567    5543.2329    5424.8284   -1350.8742    80.781779    507.16395   -3693.3713 
 9426000    253.04473   -4874.1457   -4368.0249   -4874.1457            0    5816.0568    18.142495    22.822726    19.342973    8009.1744    6802.9506    5374.3874    5270.8324   -1373.2998   -621.39689    1745.9181    -3688.677 
 9427000     253.4628   -4848.7305   -4341.7735   -4848.7305            0    3734.4989    18.157219    22.887975    19.552745    8125.7681    4948.1851    3079.4453    3175.8662   -1369.9895    968.06688   -766.76149    -3899.213 
 9428000    239.33455   -4835.2571   -4356.5584   -4835.2571            0    4457.2909    18.240136    22.825512    19.360617     8060.608    5368.3857    4727.7384    3275.7486    -1226.225   -734.73456   -962.98411   -3832.5785 
 9429000    242.52779    -4831.658   -4346.5724    -4831.658            0    4182.1174    18.150834    22.889889    19.509699    8105.7054    4160.0744    4451.2376    3935.0402    1303.2624    131.14956    2008.1749   -3852.1901 
 9430000    242.49496   -4835.5301   -4350.5103   -4835.5301            0    5825.9624    18.129045    23.024943     19.27792    8046.9939    6636.8426     4534.837    6306.2076    491.62802   -80.485878   -512.41383   -3666.7919 
 9431000    249.10262   -4869.8787   -4371.6426   -4869.8787            0    5888.6702    17.964113    23.033011    19.303718    7987.2533    6528.7126    5885.8186    5251.4792    271.91238   -592.59594   -844.60878   -3685.6956 
 9432000    256.79857    -4870.717   -4357.0882    -4870.717            0    3006.3094      17.9262     23.48815    19.227733    8095.9002    4165.1915     1647.145    3206.5917   -2357.1429   -737.99641   -1816.8598    -4002.132 
 9433000    242.46892   -4867.8452   -4382.8774   -4867.8452            0    6589.4275    17.963959    22.971174    19.385812    7999.6182    9014.5074    4755.0614    5998.7135   -676.07451     160.4323    29.283758   -3614.1137 
 9434000     237.7074    -4871.942   -4396.4978    -4871.942            0    4012.2615    18.059833    23.024645     19.41605    8073.6061      4935.04    3504.4935    3597.2509   -1806.4737    462.33068   -667.85199    -3924.073 
 9435000    256.79639    -4854.168   -4340.5435    -4854.168            0    3952.6464    18.081144    23.083858     19.37396    8086.3535    3554.6905    3802.4923    4500.7565   -654.00666   -671.05794   -288.35704   -3874.4033 
 9436000    254.61476   -4855.2751   -4346.0141   -4855.2751            0    5514.9384    17.983686    22.800173    19.652374    8058.0853    7233.5671    5481.0318    3830.2163   -1204.4864    -332.2143   -305.99875   -3697.9046 
 9437000    242.86518   -4862.1133    -4376.353   -4862.1133            0    3262.3253     18.38229    22.748466    19.426104    8123.3923    1986.9664    3288.0369    4511.9727    550.72211   -236.81359    366.78638   -3989.8609 
 9438000    246.17781   -4836.1316   -4343.7456   -4836.1316            0    5856.5785    18.099569    22.663243    19.586347      8034.22    6802.7332    6544.4921    4222.5104   -1858.0217    1687.2728   -595.65392   -3657.5253 
 9439000    239.99692   -4876.9127   -4396.8892   -4876.9127            0    4720.2957     18.24179    22.847078    19.391229    8081.7139    3417.4883     5656.937    5086.4618     472.1229   -59.591492   -403.87981   -3840.5386 
 9440000    263.87958   -4845.7934   -4318.0016   -4845.7934            0    5653.8077    18.132324    22.768211     19.47971    8042.0148    7528.1241    5488.5074    3944.7915   -976.42909   -389.04733   -1653.3097   -3654.8974 
 9441000    260.00444   -4865.0823   -4345.0413   -4865.0823            0       3637.5    18.075721    22.947407    19.578213    8120.8655    4843.7176    3322.8034    2745.9791   -618.33174   -870.37512   -1655.8536   -3914.2358 
 9442000    250.71382    -4859.415   -4357.9564    -4859.415            0    4363.1709    18.114703    22.972652    19.390691    8069.2957     5211.315    3815.3721    4062.8255   -252.57829   -1880.8809    212.40209   -3844.4879 
 9443000    252.57422   -4860.2682   -4355.0886   -4860.2682            0    6362.2993    17.965126    22.899835    19.491828    8018.9073    7521.8462    5842.8344    5722.2173    1151.6505    556.69313    637.97884   -3611.0333 
 9444000    243.27413   -4843.4553    -4356.877   -4843.4553            0    4897.0729     18.28607    22.946339    19.202087    8057.1644    3514.1207     5891.961     5285.137   -1201.5924    530.13201    -1556.477   -3781.4441 
 9445000    242.60839    -4846.597   -4361.3503    -4846.597            0    3396.1937     18.12862     22.91922    19.590249    8139.6275     4241.543    3353.1128    2593.9254   -31.384696    197.55768    1117.0537   -3958.1945 
 9446000     254.7598   -4884.7696   -4375.2186   -4884.7696            0    3658.5937    18.037702    22.680074    19.713723    8064.8134     4451.105    4676.1367    1848.5394    1645.5405   -75.751092    575.74465   -3944.9056 
 9447000     244.6774   -4857.7819   -4368.3968   -4857.7819            0    4086.1036    18.195554    22.765779    19.489591    8073.2898    4669.7858    5006.2528    2582.2722      491.271    221.48082   -702.48889   -3887.2963 
 9448000       252.81    -4865.233   -4359.5818    -4865.233            0    3804.8394    18.182731    22.887522    19.459979    8098.4191    4447.7229    3567.6313    3399.1641   -831.69291    761.20935    -462.3637   -3910.2031 
 9449000    252.94245   -4848.7906   -4342.8745   -4848.7906            0    5284.0315    18.150593    22.883392    19.427337    8069.0889    7094.2333    4864.9656    3892.8957    783.70771    1604.4222   -385.01784   -3721.0529 
 9450000    239.33809   -4855.2022   -4376.4965   -4855.2022            0    5190.2602    18.089914    23.117454    19.274799    8060.5814    3478.4081    5011.8956    7080.4769    1091.6664    1136.2377    246.72376   -3766.3538 
 9451000    249.64548   -4858.1979   -4358.8761   -4858.1979            0    4807.3032     17.95678    23.152125     19.31036     8028.043    5827.1099    4144.7487     4450.051    671.48451   -1383.4813    913.44299   -3796.0333 
 9452000    238.91115   -4836.2538    -4358.402   -4836.2538            0    4704.2058    17.888683    23.355032    19.319709    8071.5958    5675.8158    3789.8683    4646.9332   -1633.6139    52.296396   -641.87375   -3804.6419 
 9453000    244.63995   -4889.0825   -4399.7724   -4889.0825            0    3840.1807    18.116027    22.788229    19.542892    8067.9348    2962.9508    5252.3446    3305.2467    546.46597    217.07133   -502.65585    -3947.927 
 9454000    244.08819   -4887.0079   -4398.8013   -4887.0079            0    4759.4396    18.276179    22.640315     19.49533    8066.7475    3761.8904    5550.6669    4965.7615    307.88457    285.10706   -371.91109   -3838.8759 
 9455000    240.05152   -4874.6136   -4394.4809   -4874.6136            0    5096.4753    18.292292    22.543722    19.478793    8032.5932    5178.9761    5442.5756    4667.8742    162.78468   -1.4542902    1232.5213   -3797.4434 
 9456000    239.26555   -4861.6171   -4383.0564   -4861.6171            0    3988.2254    18.213369    22.722761    19.553986    8092.5739     5004.139    3985.4505    2975.0866   -1502.4654    -1428.428    -1422.957   -3912.3585 
 9457000     244.9453   -4846.0095   -4356.0886   -4846.0095            0    5852.7257    18.163682    22.823054    19.356686    8024.3277    6813.0116    4953.1466     5792.019   -361.76171    206.20765   -730.30289   -3671.1641 
 9458000    254.95144   -4853.0449   -4343.1105   -4853.0449            0    4525.9983     18.04084    22.963721     19.45762    8060.9969    4662.8955    5184.2468    3730.8527   -986.75908    299.69646   -2440.2108   -3811.0279 
 9459000    249.33918   -4866.1896   -4367.4805   -4866.1896            0    3192.5781    18.120033    23.192943    19.252649    8091.0583    2489.2206    3112.6889    3975.8248   -991.34624    1043.2405   -1817.0116   -3990.7569 
 9460000    257.15284   -4858.1634    -4343.826   -4858.1634            0    5840.0536    17.878766    23.071178    19.425434    8012.6842    8438.8357    4748.7445    4332.5807     2072.471   -137.92682   -657.18425   -3661.3761 
 9461000    246.89442   -4850.0114   -4356.1921   -4850.0114            0    4858.1385    18.131536    23.097415    19.318481    8090.4177    4084.1767    5524.6803    4965.5584    614.99159    200.41486   -449.61674   -3782.9781 
 9462000    235.64483   -4836.7268    -4365.408   -4836.7268            0    4605.7393    18.060418    22.995112     19.46297    8082.9973     3893.454    4765.6118     5158.152   -199.35099    483.44405   -1828.6136   -3822.4732 
 9463000    240.72574   -4841.9056   -4360.4244   -4841.9056            0    5839.4715    18.234906     22.85259    19.314129    8048.4838    6784.6092    4855.2917    5878.5135   -572.31121   -224.37965   -2008.6318   -3674.9938 
 9464000    248.87757   -4861.7528   -4363.9669   -4861.7528            0     5604.284    18.118202     22.84524    19.393889    8027.4154    5673.2852    5292.7779    5846.7888     1452.022      407.463    326.58291   -3707.8643 
 9465000     234.5916   -4882.3779   -4413.1657   -4882.3779            0    3589.3921    18.048256    22.972285    19.560747    8110.0751     3243.168    3599.6966    3925.3116   -734.40804      -441.32   -957.55173   -3988.6228 
 9466000    241.79977   -4851.9965   -4368.3671   -4851.9965            0    4189.2898    18.311837    22.910264    19.295082    8094.8467    4255.6751    2731.4735    5580.7207    375.60359   -1406.8738   -208.83076   -3873.8003 
 9467000    236.97701   -4864.1783    -4390.195   -4864.1783            0    6203.9888     17.88532    22.915096    19.492936    7989.0591    6964.5271    7154.8628    4492.5766    1149.5532    510.31491   -1870.0276   -3667.3544 
 9468000    241.78135   -4826.2892   -4342.6967   -4826.2892            0    4035.9116     18.19183    23.125018    19.289901    8114.9986    3462.5296    3661.3904    4983.8147    1441.8466     447.4798    295.21474   -3865.0509 
 9469000    239.02925   -4839.2854   -4361.1973   -4839.2854            0    6458.8954    18.002655    22.907225    19.384025    7993.7948    7731.7264    5430.1874    6214.7723    608.11794   -833.03424   -1609.7744   -3608.2109 
 9470000    240.55075   -4882.3251   -4401.1939   -4882.3251            0    2450.4778    18.091469    23.106872    19.524997    8162.1763    1827.8699    2494.0671    3029.4962     1668.741   -769.60845    867.77941   -4109.4964 
 9471000    230.52116   -4830.6468    -4369.576   -4830.6468            0    4714.3973    18.200611    22.992985    19.294158    8074.3425     6235.791    4226.1755    3681.2255   -1135.7445   -609.06021   -1445.8419   -3814.4274 
 9472000    238.25333   -4883.3732   -4406.8371   -4883.3732            0     3564.271    18.080366     22.89976    19.535285    8088.3118    4468.9618     2850.564    3373.2871    164.43155    245.17043   -869.64739   -3986.3966 
 9473000    240.58413   -4875.8457   -4394.6477   -4875.8457            0    4305.3901    18.249114    22.827828    19.343973    8058.4604    3552.9368    4676.7901    4686.4433   -1088.2437    647.22273   -1132.7223   -3888.6594 
 9474000    246.71701   -4858.8096   -4365.3451   -4858.8096            0    2536.1872    18.121546    22.895991    19.612592    8137.4754    2924.2254      2402.38    2281.9563    1131.2454   -291.63082    556.69329   -4064.3587 
 9475000    240.85777   -4858.8474   -4377.1021   -4858.8474            0    5220.8579    18.249718    22.798877    19.304741    8032.1829    6205.8153    4581.7965     4874.962   -90.545799   -1471.5417    381.51753   -3765.5248 
 9476000    241.65315   -4855.7922   -4372.4561   -4855.7922            0    3256.2659    18.056213    22.910024    19.708282    8152.6912    3454.5862    3210.0719    3104.1397    782.53552    45.112996   -45.728651   -3985.2905 
 9477000    269.71907   -4838.9235   -4299.4521   -4838.9235            0    4759.5043    18.233133    22.898651     19.33096    8070.9489    3479.6193    5735.1889    5063.7048   -586.30373    148.44077    -69.14519   -3739.2274 
 9478000    250.07807   -4836.5104   -4336.3234   -4836.5104            0    4865.7867    18.048034    22.827493    19.515937    8040.3976    4937.5989    5242.3201    4417.4411   -164.14212   -197.10891   -3012.8095   -3765.7566 
 9479000    245.77333   -4844.3624   -4352.7854   -4844.3624            0    4666.4881    18.172756    22.979914    19.328235    8071.6325    5172.0536    4632.6135    4194.7973    47.660158    1091.1132    360.42076   -3803.4629 
 9480000    265.67088   -4854.5053   -4323.1307   -4854.5053            0    4462.3251    17.959615    22.917474    19.608663    8070.7105     6140.144    3245.5085    4001.3229   -115.24592   -222.35562   -1557.4464   -3797.9015 
 9481000    252.93289   -4851.5308   -4345.6338   -4851.5308            0    3693.8033    18.220051    22.930769    19.415049    8111.6032    3178.8578    4320.2013    3582.3507    272.55591   -750.54853    71.979657    -3908.659 
 9482000    243.13429   -4848.7268   -4362.4281   -4848.7268            0    5401.7228    18.000079    22.775568    19.565954     8021.298    6036.2444    5838.0208     4330.903    653.26445   -562.27689    818.23086   -3730.5216 
 9483000    237.07992    -4850.871   -4376.6819    -4850.871            0    4484.3029    18.163062    23.128802    19.242336    8083.5104    2037.7423    4216.7447    7198.4217   -1409.9489    435.03948   -3457.7379   -3848.0288 
 9484000    254.74262   -4850.3676   -4340.8508   -4850.3676            0    4759.3641    17.974037    23.118745    19.403435    8062.8484    4123.6071    5677.3748    4477.1104    2243.7043    519.25964     591.0188    -3781.205 
 9485000    246.65109   -4882.0077   -4388.6751   -4882.0077            0    4903.9961    17.996721    23.164938    19.256856    8028.0471    3147.6117     5545.232    6019.1447   -611.41904    329.28493   -835.54653   -3814.5111 
 9486000    245.39808   -4861.6627   -4370.8363   -4861.6627            0    3466.7851     18.03492    23.077175    19.518553    8123.5241    4150.8353    4786.4889    1463.0311     287.5063    782.82348    890.62365   -3960.1149 
 9487000     241.6191   -4848.4042   -4365.1362   -4848.4042            0    4400.6967     18.12178    22.922728    19.375233    8048.4842    3699.3447    4818.7317    4684.0137    595.05984   -973.22331    347.52267   -3848.5873 
 9488000    238.53702    -4822.847   -4345.7435    -4822.847            0     4661.625    18.109091    22.914535    19.439121    8066.4846     4606.567    5207.3087    4170.9993    74.601774   -643.11918   -553.93917   -3797.3434 
 9489000    244.87215   -4852.2142   -4362.4396   -4852.2142            0    4064.8543    18.053478    22.965358    19.494247    8082.4044    4119.2318    3010.8722     5064.459   -797.83296   -668.03647   -1747.1198   -3883.3007 
 9490000    254.76453   -4860.6061   -4351.0456   -4860.6061            0    3681.4299    18.301272    23.069688    19.140744    8081.3108    3518.4544    3009.0536    4516.7817    318.72996   -282.75484   -925.63251    -3917.161 
 9491000    241.35889   -4868.1281   -4385.3805   -4868.1281            0     5959.622     18.08307    22.971383     19.37397     8047.814    6591.6171    5584.4278    5702.8212   -1370.1936    1127.9735   -2419.2026   -3685.9049 
 9492000    242.54784   -4860.4471   -4375.3215   -4860.4471            0    3531.5117    18.186244    22.999726    19.359865    8097.8178    2146.6947     3951.769    4496.0714   -134.20912     792.1132    1057.2538   -3958.2557 
 9493000    254.21264   -4848.6824   -4340.2257   -4848.6824            0    3347.6091    18.062526    22.859559    19.706261    8136.7422    5131.7837    3382.8665     1528.177   -400.46689   -1083.7566   -769.49976   -3942.9782 
 9494000     246.4112   -4831.4832   -4338.6304   -4831.4832            0    6422.2951    18.217631    22.761427    19.285917    7997.0844    3409.6758     7170.432    8686.7774    19.383612   -1112.5771    2144.2874   -3589.6027 
 9495000    248.69361   -4823.7275   -4326.3095   -4823.7275            0    5242.7409    18.102154    22.829109    19.615024     8106.027    4557.3828    6221.2807    4949.5591    310.26687   -284.55645   -1308.0137   -3706.5227 
 9496000    238.81869   -4851.0297   -4373.3628   -4851.0297            0    2691.6273    18.153556    22.983705    19.609197    8181.6624    3850.3651    2623.8798     1600.637   -521.09687     439.1108    -1066.222   -4052.1947 
 9497000     253.2539   -4860.8859   -4354.3468   -4860.8859            0    6713.2158    18.016183    22.865435    19.393596    7989.1505    6650.7409    6504.6182    6984.2882    962.46982     607.6859   -137.67545   -3572.1661 
 9498000    257.50286   -4851.9496    -4336.912   -4851.9496            0    4142.0388     18.07983    22.822904    19.640489     8104.338    4719.7823    5052.1471    2654.1871    121.54883    901.31858   -2215.5329   -3847.3502 
 9499000    241.95692   -4855.7582   -4371.8145   -4855.7582            0    4590.9574    18.063132     22.98284    19.437878     8069.481    4377.9107    4904.0856     4490.876    1500.1844    1607.2263   -763.64321   -3831.5272 
 9500000    247.57756   -4822.5904   -4327.4047   -4822.5904            0    5227.3426    18.033454    23.119052    19.332201    8059.9108      5909.45    4778.3908    4994.1871    1200.3124   -419.73909    785.97825    -3712.954 
Loop time of 597.13 on 64 procs for 250000 steps with 1008 atoms

Performance: 72.346 ns/day, 0.332 hours/ns, 418.669 timesteps/s
99.2% CPU use with 64 MPI tasks x 1 OpenMP threads

MPI task timing breakdown:
Section |  min time  |  avg time  |  max time  |%varavg| %total
---------------------------------------------------------------
Pair    | 27.023     | 31.331     | 35.426     |  30.8 |  5.25
Bond    | 0.27944    | 0.28926    | 0.30641    |   1.1 |  0.05
Kspace  | 276.37     | 286.87     | 302.58     |  36.4 | 48.04
Neigh   | 3.9028     | 4.4993     | 5.5283     |  22.0 |  0.75
Comm    | 120.71     | 135.02     | 144.84     |  54.7 | 22.61
Output  | 0.78314    | 0.78394    | 0.7855     |   0.1 |  0.13
Modify  | 125.24     | 129.55     | 134.67     |  20.7 | 21.70
Other   |            | 8.788      |            |       |  1.47

Nlocal:        15.7500 ave          20 max          12 min
Histogram: 1 7 8 10 0 16 15 3 2 2
Nghost:        2476.94 ave        2494 max        2459 min
Histogram: 2 3 4 7 16 6 14 9 1 2
Neighs:        5189.06 ave        6601 max        3917 min
Histogram: 1 7 8 8 9 9 15 3 2 2

Total # of neighbors = 332100
Ave neighs/atom = 329.46429
Ave special neighs/atom = 2.0000000
Neighbor list builds = 8603
Dangerous builds = 0

unfix		3
unfix		2
unfix		1

write_data	data.final.${pid}
write_data	data.final.0
System init for write_data ...
PPPM initialization ...
  extracting TIP4P info from pair style
  using 12-bit tables for long-range coulomb (../kspace.cpp:340)
  G vector (1/distance) = 0.38359408
  grid = 24 30 32
  stencil order = 5
  estimated absolute RMS force accuracy = 0.0019140126
  estimated relative force accuracy = 5.7639921e-06
  using double precision FFTW3
  3d grid and FFT values/proc = 4080 384
Last active /omp style is kspace_style pppm/tip4p/omp
WARNING: Not all mixed pair coeffs generated from mixing. Use write_data with 'pair ij' option to store all pair coeffs. (../write_data.cpp:312)

write_restart   restart.lmp.${pid}
write_restart   restart.lmp.0
System init for write_restart ...
PPPM initialization ...
  extracting TIP4P info from pair style
  using 12-bit tables for long-range coulomb (../kspace.cpp:340)
  G vector (1/distance) = 0.38359408
  grid = 24 30 32
  stencil order = 5
  estimated absolute RMS force accuracy = 0.0019140126
  estimated relative force accuracy = 5.7639921e-06
  using double precision FFTW3
  3d grid and FFT values/proc = 4080 384
Last active /omp style is kspace_style pppm/tip4p/omp
Total wall time: 0:10:03
