LAMMPS data file via write_data, version 30 Jul 2021, timestep = 14750000

864 atoms
2 atom types
576 bonds
1 bond types
288 angles
1 angle types

0.12952984116641453 18.078042558834987 xlo xhi
0.1474566581311727 23.481721141875987 ylo yhi
0.12018782197690037 22.093007978022616 zlo zhi

Masses

1 1.00794
2 15.9994

Atoms # full

707 1 1 0.5897 3.055471517988464 1.9852489914248095 3.6845027708100777 0 0 0
706 1 2 -1.1794 3.0374505103403497 1.8587260654127087 2.735753367851147 0 0 0
30 1 1 0.5897 5.336775897060882 3.7393413867477716 2.4100525787234117 0 0 0
708 1 1 0.5897 2.3081043762162508 2.4008402322604727 2.435115614272628 0 0 0
29 1 1 0.5897 4.619077009924585 2.424971899822864 2.1881397258762614 0 0 0
28 1 2 -1.1794 5.453187303701735 2.867704643788462 2.0319131662652348 0 0 0
819 1 1 0.5897 7.506955757907678 0.16494743119726607 2.5808723238964872 0 0 0
495 1 1 0.5897 8.323865639650407 2.253463991752845 2.894533950009307 0 0 0
1 1 2 -1.1794 0.8673949016144653 3.3086657111491817 1.6551069591452545 0 0 0
494 1 1 0.5897 6.814002075372524 2.1689119743503467 2.9639371863260715 0 0 0
493 1 2 -1.1794 7.610826566737919 1.8175715746831065 3.361230511602158 0 0 0
668 1 1 0.5897 5.586788049817087 3.1923944200535836 0.23314421525365808 0 0 0
136 1 2 -1.1794 5.205497790833924 5.58539419862029 3.1715267521575363 0 0 0
846 1 1 0.5897 7.6517556061259695 2.057380660398062 5.088298954371086 0 0 0
595 1 2 -1.1794 0.5493901713862854 5.831326067351407 2.739922675367433 0 0 0
137 1 1 0.5897 5.204092770901667 5.620375564548603 4.128203681288283 0 0 0
3 1 1 0.5897 0.677187443270232 4.208607160828797 1.9201334270880424 0 0 0
181 1 2 -1.1794 0.7357954995898947 5.892335906051793 5.488679408869229 0 0 0
487 1 2 -1.1794 3.1409662427619938 1.9215034197216416 5.423908664945629 0 0 0
2 1 1 0.5897 0.23588573856024908 2.7771742859672988 2.1398446704770957 0 0 0
597 1 1 0.5897 0.7043551306197967 5.85695932095643 3.684255111604212 0 0 0
188 1 1 0.5897 2.9539273442769405 0.17278108535338887 2.0632648923271617 0 1 0
673 1 2 -1.1794 3.117052035094889 2.2407879097679526 10.629919865932349 0 0 0
35 1 1 0.5897 0.7883118106037976 4.236329582900709 9.618765537594507 0 0 0
356 1 1 0.5897 7.6115646035332105 1.0001853364973758 9.965739131647178 0 0 0
183 1 1 0.5897 0.7607024615273399 5.036251239539262 5.916234720095829 0 0 0
686 1 1 0.5897 5.2297078060572515 4.71861529601373 6.233102400194778 0 0 0
845 1 1 0.5897 7.597133571533171 1.202360849384693 6.336593328761693 0 0 0
82 1 2 -1.1794 5.307562679856761 2.9297735516166674 6.764666676624248 0 0 0
685 1 2 -1.1794 5.312456318428641 5.628304027300752 5.946902731653102 0 0 0
784 1 2 -1.1794 1.0133016779790829 3.290239497270402 6.48653082327176 0 0 0
844 1 2 -1.1794 7.645937255826738 2.1124698704827587 6.044004917385652 0 0 0
355 1 2 -1.1794 7.68246085079743 1.93820460265204 10.142851657632152 0 0 0
274 1 2 -1.1794 5.475750000501165 3.512685668593179 9.468578698690267 0 0 0
678 1 1 0.5897 5.1007871290944715 5.234978002737208 9.955904346781383 0 0 0
83 1 1 0.5897 4.618351099286965 2.5461480527933653 6.222385508943424 0 0 0
36 1 1 0.5897 1.7819217839805064 3.0961904268457405 9.687010968155759 0 0 0
112 1 2 -1.1794 0.6198985718818697 5.843172308986365 10.303984581431592 0 0 0
674 1 1 0.5897 3.8313541538194085 2.527004661524543 10.060609579209354 0 0 0
84 1 1 0.5897 6.120393140419856 2.5703821830315943 6.409238549172983 0 0 0
276 1 1 0.5897 6.3330664579712685 3.1958487087177483 9.752816704460525 0 0 0
675 1 1 0.5897 2.966370984113615 1.3277038139083444 10.385263477199896 0 0 0
275 1 1 0.5897 5.4332069792955275 3.288686119921923 8.53882178062495 0 0 0
34 1 2 -1.1794 0.9883284295753779 3.3825594178013185 9.234892169363038 0 0 0
785 1 1 0.5897 0.9925992314132176 3.3508461101121045 7.441697151770254 0 0 0
489 1 1 0.5897 3.075653068926002 1.0459066310697942 5.805181261637168 0 0 0
488 1 1 0.5897 2.4587034070794114 2.427082713129493 5.865650011508016 0 0 0
786 1 1 0.5897 0.25760955606192937 2.7465124588720675 6.264102604799678 0 0 0
357 1 1 0.5897 7.842804399012522 1.99311933036312 11.08503412719484 0 0 0
166 1 2 -1.1794 3.226397384881758 1.7869688795339604 13.261056772599202 0 0 0
167 1 1 0.5897 3.3592679130202208 1.9137305520044767 12.321528803076639 0 0 0
457 1 2 -1.1794 5.396563713755011 3.1030252209178624 14.064246412344865 0 0 0
458 1 1 0.5897 6.131526817808449 2.73616683426687 13.572844343494918 0 0 0
459 1 1 0.5897 4.636258548447297 2.602758899180469 13.767825482277308 0 0 0
762 1 1 0.5897 5.357369616706816 4.934877270036184 13.036896632829995 0 0 0
594 1 1 0.5897 8.62972799381839 2.339210087437461 13.393244350648823 0 0 0
168 1 1 0.5897 2.4223971512840503 2.268053064462927 13.456787215785578 0 0 0
71 1 1 0.5897 5.3143299618053526 3.031607268813595 15.89139557839357 0 0 0
592 1 2 -1.1794 7.830340160664691 2.0527471660462924 12.951511852774148 0 0 0
466 1 2 -1.1794 1.0796801294479255 3.3772068262254105 13.98936528413417 0 0 0
467 1 1 0.5897 0.27041131110790634 3.0146058707051684 13.629098697412028 0 0 0
593 1 1 0.5897 7.690172582255 1.1591393357287236 13.264719019382571 0 0 0
468 1 1 0.5897 0.9451854721506572 3.3694631461797693 14.93714566062283 0 0 0
365 1 1 0.5897 0.7592518305037254 5.055862129512637 13.150527192148285 0 0 0
761 1 1 0.5897 5.427514808040868 5.966570052322772 11.931044861024231 0 0 0
760 1 2 -1.1794 5.4769615795020785 5.87194579373 12.882380455453118 0 0 0
134 1 1 0.5897 0.9049208068185002 3.7198758026012673 17.081873780625287 0 0 0
40 1 2 -1.1794 7.9133733680596645 2.2818997720579413 20.23110757213275 0 0 0
756 1 1 0.5897 7.063778074266968 2.1771033620189617 17.15470089497459 0 0 0
755 1 1 0.5897 7.946516528871141 1.9823038038172482 18.369188895551275 0 0 0
754 1 2 -1.1794 7.8640428651816325 1.7405579627561338 17.446592625450194 0 0 0
667 1 2 -1.1794 5.591097325726013 3.04278838160396 21.260419295499524 0 0 0
289 1 2 -1.1794 3.3081834300930937 1.5358739161004185 17.611654819189063 0 0 0
21 1 1 0.5897 0.6683535378220807 4.177239327985739 20.625006017249703 0 0 0
143 1 1 0.5897 5.515224700480523 4.779297761277977 20.69783447908351 0 0 0
569 1 1 0.5897 2.2353493505221986 2.0614930913092673 20.502011794131768 0 0 0
19 1 2 -1.1794 0.6404273725932076 3.238490978153006 20.810131925543097 0 0 0
570 1 1 0.5897 3.1919686094627786 1.4575025368708754 19.49598003790605 0 0 0
571 1 2 -1.1794 0.7727354110269349 5.394354240719304 17.42257458289209 0 0 0
669 1 1 0.5897 4.824954336359414 2.4915532470610406 21.101179134119278 0 0 0
72 1 1 0.5897 4.664711445397961 2.3615944516891263 17.083578916337622 0 0 0
291 1 1 0.5897 2.583183082975767 2.06249836723802 17.27510253528365 0 0 0
568 1 2 -1.1794 3.0732908305279687 1.6037935368510843 20.434582053541305 0 0 0
41 1 1 0.5897 7.086833957724099 2.6003148157817555 20.593941053760986 0 0 0
42 1 1 0.5897 7.960799762983039 1.3670798120092396 20.508876100686614 0 0 0
648 1 1 0.5897 0.5123412144151711 5.731452679445629 19.227049572026516 0 0 0
278 1 1 0.5897 5.295804760734421 4.651492846358357 17.434375737798092 0 0 0
290 1 1 0.5897 3.0868465825018845 0.6376801830573132 17.365592479454314 0 0 0
142 1 2 -1.1794 5.361905860508992 5.710597831244874 20.538335550270382 0 0 0
70 1 2 -1.1794 5.342246750638333 2.9952422478826906 16.847608726816716 0 0 0
646 1 2 -1.1794 0.4544362516293141 5.825630518373649 20.177951821936702 0 0 0
135 1 1 0.5897 0.19658687147320275 2.3865334484942315 17.19313853038024 0 0 0
144 1 1 0.5897 5.272799006566081 5.779817793105387 19.587697723555905 0 0 0
277 1 2 -1.1794 5.3563357329516785 5.548550894228541 17.762869956383042 0 0 0
279 1 1 0.5897 4.554509665565337 5.971314685699053 17.455418955942577 0 0 0
20 1 1 0.5897 0.6534035971889931 3.181787255359313 21.765673233677983 0 0 -1
133 1 2 -1.1794 0.9420923684562134 2.8148075210324874 16.772408798724484 0 0 0
217 1 2 -1.1794 5.261499696361394 11.022175159401451 2.2939740328349054 0 0 0
123 1 1 0.5897 2.8555338671230803 8.558699944828316 2.4195836215118685 0 0 0
121 1 2 -1.1794 2.9411968566836673 9.488919523476085 2.628525411925132 0 0 0
122 1 1 0.5897 2.8105977182759365 9.535193749427016 3.5757693906301404 0 0 0
44 1 1 0.5897 1.5099892231494099 10.645213583633915 2.11752346487739 0 0 0
218 1 1 0.5897 5.860562821711121 10.477223668048207 2.804278345238633 0 0 0
417 1 1 0.5897 8.107628775474549 6.659647957176337 2.6739152578560357 0 0 0
219 1 1 0.5897 4.421441355175721 10.566019428784445 2.343028818558293 0 0 0
255 1 1 0.5897 2.1289690338719467 6.484744372720289 2.2564445668105906 0 0 0
43 1 2 -1.1794 0.6570151821447824 10.99761925146541 1.8637383318989502 0 0 0
254 1 1 0.5897 2.9376229000300644 6.7828967394583275 1.0116964487546407 0 0 0
415 1 2 -1.1794 7.3047133850677675 7.126413448421896 2.442319250149992 0 0 0
162 1 1 0.5897 7.441344597889758 6.859018184223495 0.5732466992147325 0 0 1
66 1 1 0.5897 7.69640821167023 9.811539913841923 4.124026365907442 0 0 0
65 1 1 0.5897 7.514858294300041 8.850829061039393 2.968001170184021 0 0 0
64 1 2 -1.1794 7.591514760955451 9.782733392436159 3.172914111695867 0 0 0
253 1 2 -1.1794 2.96268225557898 6.854545263619338 1.9659922171609252 0 0 0
416 1 1 0.5897 6.6003832341295645 6.579024574525909 2.7895241498248695 0 0 0
363 1 1 0.5897 5.401286764497285 10.694341237838401 0.4098065009041495 0 0 1
138 1 1 0.5897 4.398692375313306 6.0313207986359085 2.913865862662898 0 0 0
773 1 1 0.5897 8.917197189067652 10.80107797719258 2.6580211108903526 0 0 0
793 1 2 -1.1794 2.9782804148204143 9.457106136944939 5.577107559404293 0 0 0
396 1 1 0.5897 0.8507678605979281 11.158402045189122 0.18172293720701305 0 0 0
795 1 1 0.5897 3.7174514458750556 9.979797098672185 5.887941885194197 0 0 0
578 1 1 0.5897 6.034323144086506 10.512018929364688 6.580550443011686 0 0 0
10 1 2 -1.1794 2.966571427997639 6.999070507329558 6.710070210126684 0 0 0
526 1 2 -1.1794 7.5571468012623475 7.042983758251467 9.565344547437173 0 0 0
145 1 2 -1.1794 7.53841232957425 7.222131997713791 6.798810270939292 0 0 0
580 1 2 -1.1794 4.925971543880477 10.738755364617793 9.629746131217034 0 0 0
256 1 2 -1.1794 2.623293934893193 9.84634308551265 10.612470423106922 0 0 0
146 1 1 0.5897 6.68608201730857 6.865289179422716 6.549054704050903 0 0 0
13 1 2 -1.1794 0.5022474252679203 10.914122872235778 9.387691162182662 0 0 0
258 1 1 0.5897 3.4688354631030234 10.235760177234871 10.389759204603626 0 0 0
650 1 1 0.5897 2.820057417084506 7.124433150038296 8.545368241979505 0 0 0
551 1 1 0.5897 0.7344519929670439 10.525679281920327 7.662182745216865 0 0 0
527 1 1 0.5897 7.5726154267257275 7.979142775428416 9.76446431186386 0 0 0
15 1 1 0.5897 1.3148910856801372 10.544761699844743 9.733284349589281 0 0 0
11 1 1 0.5897 2.220184137993057 6.589464907893629 6.27264496181934 0 0 0
581 1 1 0.5897 5.7971914956412975 10.477671124238855 9.928094949353785 0 0 0
147 1 1 0.5897 7.550573223711143 7.16812022705218 7.754526447989551 0 0 0
550 1 2 -1.1794 0.7240654680721543 10.530293991667959 6.704941132715623 0 0 0
649 1 2 -1.1794 2.7241857088845474 7.266834495944422 9.487159616657772 0 0 0
577 1 2 -1.1794 5.166010369780461 10.725502577626527 6.922105210841818 0 0 0
714 1 1 0.5897 7.697302638852083 8.882830394577228 6.208396370183259 0 0 0
651 1 1 0.5897 3.4629466977117374 6.799465767134366 9.87704276340883 0 0 0
822 1 1 0.5897 8.197057606038312 10.123560521253006 10.023232346367664 0 0 0
257 1 1 0.5897 2.6639205916489956 8.96115213488167 10.250421498247881 0 0 0
528 1 1 0.5897 8.23041179550744 6.666012676806649 10.131792136293496 0 0 0
820 1 2 -1.1794 7.431196593313279 9.676804561165344 10.383876376259787 0 0 0
552 1 1 0.5897 0.6736651697194947 11.456847943158127 6.4699234943690715 0 0 0
677 1 1 0.5897 5.910018199097712 6.510583238350768 9.856650883905646 0 0 0
12 1 1 0.5897 2.9197589717643906 7.919895911320944 6.452825536926521 0 0 0
582 1 1 0.5897 4.9589879907041805 10.6414952726989 8.677952887623798 0 0 0
713 1 1 0.5897 8.386141953121836 10.228820293095518 6.132778360349866 0 0 0
114 1 1 0.5897 1.3162852807424188 6.308876103866902 9.840955452681126 0 0 0
794 1 1 0.5897 2.223989602078629 9.799135188916987 6.05699154699316 0 0 0
687 1 1 0.5897 4.517003152892195 6.053849258617447 6.266851332703427 0 0 0
165 1 1 0.5897 8.94248578855947 6.449403138810013 6.252241310707248 0 0 0
676 1 2 -1.1794 5.128269239176872 6.140075794135982 10.266279106004502 0 0 0
579 1 1 0.5897 4.987674032125128 11.605757677932965 6.591002855455495 0 0 0
712 1 2 -1.1794 7.593375042473299 9.767792322998645 5.85863889727965 0 0 0
828 1 1 0.5897 7.498808240504352 7.32798469276947 14.841634881414642 0 0 0
259 1 2 -1.1794 0.8070188338856548 10.712607961644329 14.43050363539362 0 0 0
332 1 1 0.5897 2.9908011410251283 8.002058428104874 13.55891453191994 0 0 0
797 1 1 0.5897 2.8837684375445307 9.723446175026229 12.31079092557984 0 0 0
796 1 2 -1.1794 3.0201767107461985 9.739918302254548 13.258187942351219 0 0 0
798 1 1 0.5897 2.191610115143285 10.06041474042635 13.614475284127671 0 0 0
722 1 1 0.5897 4.558823263406369 10.619924871907957 13.717613334492848 0 0 0
333 1 1 0.5897 3.9915894576722843 6.868525565522338 13.485501402561244 0 0 0
261 1 1 0.5897 0.8704741355477655 10.729669086616273 15.385557752939558 0 0 0
721 1 2 -1.1794 5.328610677203126 11.074732812357873 14.059344521948734 0 0 0
723 1 1 0.5897 5.201906903850344 11.081470372381913 15.008218543669361 0 0 0
331 1 2 -1.1794 3.110355827683424 7.081491520468679 13.79249299447068 0 0 0
225 1 1 0.5897 3.2913882420540217 6.697517834575496 15.799061988469564 0 0 0
826 1 2 -1.1794 7.559006046960816 7.357886382029449 13.886687837368052 0 0 0
475 1 2 -1.1794 7.725632038682132 9.867124284981081 13.150875899748483 0 0 0
476 1 1 0.5897 6.933452127695003 10.315888441024564 13.446261941989972 0 0 0
477 1 1 0.5897 7.624076115226299 8.96882734831132 13.465569108651414 0 0 0
827 1 1 0.5897 6.848574540168819 6.792542952011703 13.583569232451243 0 0 0
104 1 1 0.5897 9.02974067138953 10.768496871192545 13.882013176726417 0 0 0
366 1 1 0.5897 1.5829253194309927 6.315052980865895 13.317627533263432 0 0 0
851 1 1 0.5897 9.021461705284413 6.424457030694913 13.673902030998741 0 0 0
821 1 1 0.5897 7.580388479282047 9.66997975144907 11.329460484765445 0 0 0
364 1 2 -1.1794 0.7016070545917843 6.01012953672713 13.102047308652628 0 0 0
113 1 1 0.5897 0.8079968766108463 5.990132987011891 11.231050494222506 0 0 0
520 1 2 -1.1794 7.571868411777536 7.067003024755214 16.57393524368149 0 0 0
394 1 2 -1.1794 0.8554201028310465 11.112244058760393 21.198357093856146 0 0 0
4 1 2 -1.1794 2.7934924882586007 6.7930711234520285 21.233025141228488 0 0 0
7 1 2 -1.1794 7.475729840091026 9.521041731516949 17.810125755215992 0 0 0
139 1 2 -1.1794 7.738912365088112 9.590085323228244 20.704464141645836 0 0 0
521 1 1 0.5897 6.922283576182256 6.46192433620983 16.931913539687457 0 0 0
224 1 1 0.5897 3.2450637828112248 7.594410106821753 17.017960183810985 0 0 0
141 1 1 0.5897 7.676661686212343 8.65410156971161 20.895105463163674 0 0 0
161 1 1 0.5897 6.789588491544592 6.423096391402433 21.25090701249661 0 0 0
462 1 1 0.5897 9.100731131722814 6.243394135414915 20.830083409883365 0 0 0
160 1 2 -1.1794 7.604170740222422 6.778764599637283 21.606119797903027 0 0 0
690 1 1 0.5897 2.231530206400066 9.873026533577328 20.729188212210566 0 0 0
625 1 2 -1.1794 3.0506225353906298 9.224140255125157 17.622915093132008 0 0 0
688 1 2 -1.1794 2.9838613579634075 9.356695959392185 20.44006717783548 0 0 0
140 1 1 0.5897 6.860611066849866 9.929096940011974 20.877109729536663 0 0 0
627 1 1 0.5897 2.3246848303227536 9.801655874523146 17.38694472493507 0 0 0
689 1 1 0.5897 3.7450943511229804 9.85062270443612 20.744623132679834 0 0 0
5 1 1 0.5897 3.680601898820888 6.457782699046334 21.103446967240437 0 0 0
626 1 1 0.5897 3.1524087780261065 9.34028468322375 18.56768281762237 0 0 0
223 1 2 -1.1794 3.138099171251529 6.683508447832127 16.74391315741726 0 0 0
6 1 1 0.5897 2.8302684019172815 7.696719467184454 20.919401768828216 0 0 0
361 1 2 -1.1794 5.259765177445879 10.714244267050411 21.436043473073724 0 0 0
8 1 1 0.5897 7.443391766417737 9.714983721038186 18.747029428625154 0 0 0
246 1 1 0.5897 8.975038231120353 10.22523529873043 17.260465436710938 0 0 0
9 1 1 0.5897 6.7341465046227755 9.999969585105735 17.440130841669635 0 0 0
647 1 1 0.5897 1.300825595004523 6.191360990711486 20.434912746084336 0 0 0
522 1 1 0.5897 7.434814933176881 7.88076681438343 17.059047255640927 0 0 0
287 1 1 0.5897 8.89685283954334 10.779251576311545 21.334970936320545 0 0 0
680 1 1 0.5897 4.509877202556189 10.340991861752569 17.02650683056786 0 0 0
681 1 1 0.5897 5.209962419995242 11.664755936085028 17.248918582373577 0 0 0
679 1 2 -1.1794 5.286526471769143 10.838789590628576 16.771170286750447 0 0 0
572 1 1 0.5897 1.4813858280664878 6.0073415777174715 17.226928011117913 0 0 0
445 1 2 -1.1794 0.8320696496189376 10.929738591891384 17.258714142029774 0 0 0
362 1 1 0.5897 5.092214766814575 11.635589691043167 21.237737614516604 0 0 0
200 1 1 0.5897 5.140352677534763 13.428876952461694 5.0061299344500885 0 0 0
173 1 1 0.5897 4.5639253948311 14.111357575782392 2.7958688981608453 0 0 0
172 1 2 -1.1794 5.282809499430344 13.648215698542538 3.225912023527328 0 0 0
293 1 1 0.5897 3.090164942812537 16.731047529808432 2.636324778516505 0 0 0
558 1 1 0.5897 2.9155572254298425 14.896427640746968 1.0483626013432032 0 0 0
556 1 2 -1.1794 3.0490944847456447 14.895064683989593 1.996333105924216 0 0 0
557 1 1 0.5897 2.2736009077980817 14.45732925354828 2.34737445772061 0 0 0
478 1 2 -1.1794 7.440554006246553 15.070101872375433 2.270088995617293 0 0 0
374 1 1 0.5897 0.5699217534310188 13.324874915985266 3.85200982089038 0 0 0
174 1 1 0.5897 5.21282630625031 12.74814256203853 2.907705066208034 0 0 0
479 1 1 0.5897 8.247486021479073 14.62666739186398 2.5316606853815595 0 0 0
449 1 1 0.5897 7.415154917341309 16.863020561578676 2.590609219474004 0 0 0
480 1 1 0.5897 6.740230968734231 14.492203756568749 2.573092249022653 0 0 0
373 1 2 -1.1794 0.7767931620548723 13.468442201206202 2.9284060497705866 0 0 0
294 1 1 0.5897 3.0839996032832926 17.585006052096603 3.8865228675159145 0 0 0
317 1 1 0.5897 7.301250868258054 15.104206226430513 0.33426561058282944 0 0 0
292 1 2 -1.1794 3.0033084789783446 17.636648849217337 2.934021056579589 0 0 0
308 1 1 0.5897 7.371567858649017 17.632983273211437 4.616690701865416 0 0 0
45 1 1 0.5897 0.6420561264818617 11.880094128144298 2.234295332221903 0 0 0
307 1 2 -1.1794 7.2603780058320915 17.51436007870249 5.560104227516479 0 0 0
518 1 1 0.5897 7.145813968385054 15.863808758330777 6.179851187328559 0 0 0
186 1 1 0.5897 7.181519913457781 16.810395117191312 9.919334249860457 0 0 0
239 1 1 0.5897 2.808915508594427 16.637490278488677 5.975632042370802 0 0 0
382 1 2 -1.1794 2.9618885080647908 17.550487660476893 10.472725357022544 0 0 0
811 1 2 -1.1794 3.0985700916873773 14.928728053758862 9.259028326341472 0 0 0
519 1 1 0.5897 8.09203549918112 14.687121568503766 6.289119561282297 0 0 0
813 1 1 0.5897 2.388713278173668 14.495146253782554 9.732672090059538 0 0 0
17 1 1 0.5897 2.7385479904046752 14.786796794651947 7.489446725200753 0 0 0
384 1 1 0.5897 3.0478530803823207 16.707569154529335 10.027284582379513 0 0 0
377 1 1 0.5897 6.610474925806979 14.65800874722317 9.718987641715566 0 0 0
376 1 2 -1.1794 7.473684239283552 14.96543801060884 9.442354567077727 0 0 0
238 1 2 -1.1794 2.8444588470024192 17.539037803106858 5.6558818873158545 0 0 0
766 1 2 -1.1794 1.0576552105260528 13.527595906623135 10.401154194238888 0 0 0
812 1 1 0.5897 3.881206182161412 14.427775709768516 9.488609664746047 0 0 0
456 1 1 0.5897 5.061967950099235 12.593762162876821 9.84619335023677 0 0 0
454 1 2 -1.1794 5.201848468084258 13.495743298120441 10.134569356691022 0 0 0
16 1 2 -1.1794 2.7097129503800486 14.887421669157435 6.537877629735422 0 0 0
517 1 2 -1.1794 7.279899448121871 15.04146964133969 6.651137312893693 0 0 0
59 1 1 0.5897 8.8175982036192 13.935197971408812 10.141083466666592 0 0 0
378 1 1 0.5897 7.4477710162018695 14.925283743667041 8.486231876250127 0 0 0
18 1 1 0.5897 3.421940916431793 14.334641688546526 6.216361244518262 0 0 0
656 1 1 0.5897 1.4079694458388903 13.788051206163228 5.978653968147434 0 0 0
201 1 1 0.5897 5.741910077764495 13.782624011968247 6.349731015029332 0 0 0
199 1 2 -1.1794 4.964067562749047 13.397127022115853 5.946544490490222 0 0 0
768 1 1 0.5897 0.2588598397361963 13.970645689184929 10.115121541582292 0 0 0
655 1 2 -1.1794 0.672374593065955 13.176324137490406 5.949184163036699 0 0 0
184 1 2 -1.1794 7.191991672301968 17.637687088370342 10.400792806376916 0 0 0
14 1 1 0.5897 0.5318553093748426 11.837098006974891 9.639746312105542 0 0 0
455 1 1 0.5897 5.07586480655808 13.46676233626632 11.083109658286595 0 0 0
429 1 1 0.5897 5.9223127472833905 13.980407941405632 13.176722677361367 0 0 0
232 1 2 -1.1794 2.7306229804591777 14.798997459580082 13.893284851555098 0 0 0
234 1 1 0.5897 2.753276633300187 14.784179136060361 14.850212072408942 0 0 0
606 1 1 0.5897 2.513941248515232 16.46922997544683 13.38083851010037 0 0 0
427 1 2 -1.1794 5.1337064221844955 13.50950863225741 12.907403317473992 0 0 0
233 1 1 0.5897 3.54886362309301 14.379556876040718 13.627293727853237 0 0 0
639 1 1 0.5897 1.4583811737567596 13.711149669198702 13.333608995412723 0 0 0
428 1 1 0.5897 5.224650987348369 12.642837773115572 13.303518248079332 0 0 0
604 1 2 -1.1794 2.4941289819472847 17.420667878705494 13.277641923371513 0 0 0
297 1 1 0.5897 8.047355250386595 14.548082713728618 13.8211908093356 0 0 0
296 1 1 0.5897 7.043980054217937 14.910313663279378 14.895464168006205 0 0 0
295 1 2 -1.1794 7.185670631151962 14.944605694704792 13.949324220009096 0 0 0
270 1 1 0.5897 7.417692207164346 16.62868942080424 13.313140230757798 0 0 0
638 1 1 0.5897 0.8721612946273068 12.315964495146178 13.37543552694825 0 0 0
637 1 2 -1.1794 0.7123039378933094 13.19418808993749 13.029769898792521 0 0 0
269 1 1 0.5897 7.416108007963452 17.60117096571543 12.152731164359476 0 0 0
605 1 1 0.5897 2.5335019314196643 17.560317201776623 12.33139321903914 0 0 0
767 1 1 0.5897 0.9237177593244116 13.371024261304338 11.336027447602035 0 0 0
268 1 2 -1.1794 7.397970070546071 17.56371655747946 13.109140754630541 0 0 0
49 1 2 -1.1794 7.100665412909365 14.561807476056828 16.636391961077365 0 0 0
664 1 2 -1.1794 3.0898866395122813 14.792662525255286 21.234250968068693 0 0 0
52 1 2 -1.1794 0.7503269538728525 13.643682831823842 17.363127590084183 0 0 0
50 1 1 0.5897 7.29439093318835 15.384096275965753 17.08652141790253 0 0 0
665 1 1 0.5897 2.404349169450708 14.313047236459598 20.769236690877577 0 0 0
583 1 2 -1.1794 3.023613242752581 17.515515599713098 17.584925819879643 0 0 0
125 1 1 0.5897 5.111812654503649 13.416400307992122 18.834792127512728 0 0 0
53 1 1 0.5897 0.821397908343541 13.740105983122378 18.312915581670403 0 0 0
684 1 1 0.5897 4.558928952306277 13.875280940835223 20.930861348629584 0 0 0
451 1 2 -1.1794 0.8828512300230391 13.581930347907301 20.152896544970098 0 0 0
666 1 1 0.5897 3.1176681098831653 15.647881683558493 20.805147773702423 0 0 0
318 1 1 0.5897 7.235303942595169 15.95128287688285 21.053904033454742 0 0 0
824 1 1 0.5897 3.6963960029263876 14.373305636166693 17.11002076650837 0 0 0
610 1 2 -1.1794 7.387373285903246 17.16036079692547 17.497124763396172 0 0 0
126 1 1 0.5897 5.785958484604809 13.644055209102602 17.49839536681015 0 0 0
584 1 1 0.5897 3.0567754498158433 16.61961754561696 17.249433963739264 0 0 0
683 1 1 0.5897 6.07024670011432 13.875480562474824 20.843927605296273 0 0 0
452 1 1 0.5897 0.9880184456575408 12.703170556126379 20.517611952324295 0 0 0
682 1 2 -1.1794 5.300435198913315 13.344409646870096 20.640093481471247 0 0 0
124 1 2 -1.1794 5.00665468116908 13.256553888040614 17.89680265625566 0 0 0
715 1 2 -1.1794 2.9147581878768976 17.328532137927983 20.248635911838498 0 0 0
159 1 1 0.5897 7.272531662010552 17.565093392601437 19.34045886757913 0 0 0
316 1 2 -1.1794 7.235170938736043 15.042321488875041 21.354060818987428 0 0 0
825 1 1 0.5897 2.2036374932176925 14.593081595409421 16.987567006535876 0 0 0
51 1 1 0.5897 7.857633528099739 14.0047762512414 16.817801588244286 0 0 0
157 1 2 -1.1794 7.181510618627852 17.62211804055461 20.291721814464736 0 0 0
117 1 1 0.5897 8.7170500816447 14.294217168713613 20.62853508882506 0 0 0
453 1 1 0.5897 0.14541602941861242 13.955359744553398 20.635587138628708 0 0 0
612 1 1 0.5897 8.16796704068974 17.63434156272068 17.210410870769643 0 0 0
716 1 1 0.5897 3.000529637305085 17.4033275535328 19.298115266843503 0 0 0
446 1 1 0.5897 0.8155880512070824 11.886025424852532 17.297707269144965 0 0 0
823 1 2 -1.1794 3.04436028031243 14.901915222811738 16.649954403335407 0 0 0
267 1 1 0.5897 6.107869910551764 21.97342312305059 2.746233983702746 0 0 0
696 1 1 0.5897 1.739198418453494 21.607953208430725 2.6246082504667867 0 0 0
266 1 1 0.5897 4.598316434021224 22.01386537620615 2.640154916489861 0 0 0
265 1 2 -1.1794 5.314025397907372 21.558253929674425 3.0833385430686726 0 0 0
227 1 1 0.5897 4.33266374275929 18.662446597632957 2.53266399421367 0 0 0
228 1 1 0.5897 5.138434051903681 19.94047887174527 2.436498326315759 0 0 0
345 1 1 0.5897 0.5247051294959925 18.497275463503808 1.0863916816018433 0 0 0
450 1 1 0.5897 6.684172321342065 18.188382187214373 2.5590017092583035 0 0 0
694 1 2 -1.1794 1.1006398488457596 21.088186200510098 3.112809405872932 0 0 0
226 1 2 -1.1794 5.173872444286145 19.00605377009603 2.2318783587133293 0 0 0
187 1 2 -1.1794 2.916629790672844 22.561941356473632 1.9161032149399482 0 0 0
249 1 1 0.5897 4.900186611959674 21.470788607510215 4.869793521019871 0 0 0
818 1 1 0.5897 8.311153394743599 22.21712124365886 2.543060383151753 0 0 0
189 1 1 0.5897 3.0292031787548526 22.461603862815654 0.9707492668537012 0 0 0
344 1 1 0.5897 1.2456978913192895 18.24680741452828 2.3939321201424457 0 0 0
413 1 1 0.5897 0.9612143983645169 21.044099175454342 4.912681976637577 0 0 0
343 1 2 -1.1794 0.45603286466324483 18.646564497679787 2.0294912531587634 0 0 0
817 1 2 -1.1794 7.5593173103799955 22.651199512514285 2.139896770961297 0 0 0
695 1 1 0.5897 1.0031158454479563 20.285252414491456 2.6008429461106988 0 0 0
448 1 2 -1.1794 7.5023251981610315 17.781834434026905 2.844520738701054 0 0 0
498 1 1 0.5897 7.7545809805305295 22.93287382784733 0.4085841641304607 0 0 0
602 1 1 0.5897 5.018238982846804 18.905359493263912 0.26827668178850883 0 0 0
185 1 1 0.5897 8.016126455355984 18.05284169815995 10.1465873104097 0 0 0
387 1 1 0.5897 4.950769948702836 19.621081735921663 6.492412188879933 0 0 0
701 1 1 0.5897 3.1782319386141866 22.830551102300472 7.642324937792422 0 0 0
403 1 2 -1.1794 0.6718160732494197 18.727660166288196 9.602060274841476 0 0 0
32 1 1 0.5897 8.190212495210513 22.327185109136558 6.0981680762601105 0 0 0
385 1 2 -1.1794 4.9845984155009155 18.717421457604047 6.806352778430484 0 0 0
85 1 2 -1.1794 7.527434702781442 22.568239416585744 9.497212747890641 0 0 0
101 1 1 0.5897 5.784729036044569 18.501362412251375 9.772030733260124 0 0 0
39 1 1 0.5897 3.8123669741792687 22.44092976904795 9.754324026833201 0 0 0
37 1 2 -1.1794 3.14194652280573 23.072473318957627 9.49375764136328 0 0 0
86 1 1 0.5897 7.735951589716534 22.60642897052721 8.563673068201929 0 0 0
247 1 2 -1.1794 4.956989952456125 21.330172931030273 5.815016574747746 0 0 0
100 1 2 -1.1794 4.98921687588004 18.947890552303942 9.482253230911489 0 0 0
102 1 1 0.5897 5.00510102543558 18.87157381344751 8.52811168537584 0 0 0
340 1 2 -1.1794 0.511856620792948 18.538720927880046 6.698686359546726 0 0 0
555 1 1 0.5897 4.959370218143855 20.674232563607234 10.033545182730098 0 0 0
33 1 1 0.5897 6.682410360715259 22.373508199565794 6.224742930551843 0 0 0
38 1 1 0.5897 2.3139838098651575 22.608821532283944 9.619015579520429 0 0 0
342 1 1 0.5897 0.586517330651714 18.605343693366 7.650750540232777 0 0 0
94 1 2 -1.1794 0.9260446605285446 21.495198432095297 9.950651199249245 0 0 0
31 1 2 -1.1794 7.483774883531689 22.76085663559356 6.5768262448521355 0 0 0
702 1 1 0.5897 2.2902834067008753 22.274722296479478 6.549286407044304 0 0 0
700 1 2 -1.1794 3.05720464939887 22.829215461326203 6.692667960297535 0 0 0
554 1 1 0.5897 5.9495816554406105 21.819241803039205 10.016295759298373 0 0 0
404 1 1 0.5897 1.5151583904163648 18.342241861933932 9.839593305454981 0 0 0
414 1 1 0.5897 0.6758213883374933 20.435717021322002 6.2694449631991525 0 0 0
553 1 2 -1.1794 5.090947192536854 21.56614669288516 10.355214844319798 0 0 0
87 1 1 0.5897 8.296864696282757 22.16455994374795 9.89873911218935 0 0 0
248 1 1 0.5897 4.306804366125131 21.92675106432853 6.185955194485298 0 0 0
341 1 1 0.5897 1.2829812425954938 18.038354792967713 6.43187427714172 0 0 0
405 1 1 0.5897 0.7978920637244961 19.66970800102062 9.715761934055251 0 0 0
386 1 1 0.5897 5.741153183920523 18.336633823440987 6.360419319729082 0 0 0
240 1 1 0.5897 3.615576037714706 17.914228315181123 6.0811045131017 0 0 0
383 1 1 0.5897 3.7515000374763803 18.03293371082138 10.22787908027064 0 0 0
412 1 2 -1.1794 0.900469891869322 21.262617510379417 5.8427549899910804 0 0 0
309 1 1 0.5897 7.952389550845806 18.046886576800627 5.952225855696172 0 0 0
96 1 1 0.5897 0.8891760258212229 21.41104913206812 10.903541568044052 0 0 0
379 1 2 -1.1794 0.6766895198436393 21.35426682554764 12.684618600766896 0 0 0
88 1 2 -1.1794 5.391977381785813 21.305434292133096 13.233195117510073 0 0 0
381 1 1 0.5897 1.484408730228634 21.695161134271757 13.06878858670743 0 0 0
90 1 1 0.5897 5.223171844581096 20.385621413822875 13.437491947411207 0 0 0
763 1 2 -1.1794 5.002197578257438 18.686898820733603 13.931207149131266 0 0 0
738 1 1 0.5897 3.7991096956147614 22.06773273394542 13.574530807485838 0 0 0
89 1 1 0.5897 5.377997794975835 21.345383437057414 12.276815350202726 0 0 0
736 1 2 -1.1794 2.985512228693976 22.434522169503026 13.920518113940458 0 0 0
789 1 1 0.5897 6.639159710256589 22.36108310081131 13.684129702679266 0 0 0
765 1 1 0.5897 5.779335271845652 18.252290761687615 13.579966477493883 0 0 0
787 1 2 -1.1794 7.425080360817235 22.8578129652213 13.911661344915593 0 0 0
503 1 1 0.5897 1.2493217120963673 18.57771907347364 13.80914033193044 0 0 0