LAMMPS data file via MDAnalysis

        2592  atoms
        1728  bonds
         864  angles
           0  dihedrals
           0  impropers

           2  atom types
           1  bond types
           1  angle types
           0  dihedral types
           0  improper types

0.000000 23.489000 xlo xhi
0.000000 21.594412 ylo yhi
0.000000 43.452122 zlo zhi
-9.241996 3.823670 5.795598 xy xz yz


Masses

1 1.008000
2 15.999000

Atoms

1 0 2 -1.179400 13.392373 17.842510 4.961904
2 0 1 0.589700 13.723132 18.547159 5.513195
3 0 1 0.589700 12.575937 18.178377 4.612214
4 0 2 -1.179400 -0.121917 4.204489 2.475674
5 0 1 0.589700 -0.682204 3.648120 3.008359
6 0 1 0.589700 -0.641753 4.409410 1.702284
7 0 2 -1.179400 4.743668 1.888318 0.347538
8 0 1 0.589700 7.989237 7.147765 43.533146
9 0 1 0.589700 4.793694 1.873886 1.303293
10 0 2 -1.179400 12.600597 21.843397 4.454158
11 0 1 0.589700 12.004085 21.109596 4.554962
12 0 1 0.589700 13.459672 21.442558 4.420787
13 0 2 -1.179400 19.628384 4.690485 1.702190
14 0 1 0.589700 20.043440 4.935277 2.526819
15 0 1 0.589700 20.348518 4.541578 1.098314
16 0 2 -1.179400 2.489663 0.271485 2.572729
17 0 1 0.589700 2.583068 1.185193 2.316778
18 0 1 0.589700 -5.911856 21.452286 2.115861
19 0 2 -1.179400 1.663006 6.487535 1.675843
20 0 1 0.589700 2.407880 6.043694 2.064958
21 0 1 0.589700 1.454258 5.971165 0.899373
22 0 2 -1.179400 -8.332676 20.588392 4.125286
23 0 1 0.589700 -7.769549 21.102291 3.554034
24 0 1 0.589700 -7.736161 20.086372 4.672101
25 0 2 -1.179400 18.950806 0.912369 5.700416
26 0 1 0.589700 9.618043 22.146990 4.860425
27 0 1 0.589700 19.130976 1.824714 5.491137
28 0 2 -1.179400 2.392987 2.982795 2.285704
29 0 1 0.589700 2.983165 3.727511 2.325245
30 0 1 0.589700 1.528730 3.371949 2.249527
31 0 2 -1.179400 -4.833509 19.699192 3.902378
32 0 1 0.589700 -5.357156 19.375998 4.631135
33 0 1 0.589700 -5.322497 19.455786 3.119762
34 0 2 -1.179400 21.056538 2.450163 3.043871
35 0 1 0.589700 21.366953 1.665831 3.488403
36 0 1 0.589700 20.445948 2.842736 3.660623
37 0 2 -1.179400 -2.797732 18.232435 5.023028
38 0 1 0.589700 -2.486484 18.749743 5.762985
39 0 1 0.589700 -3.541766 18.719690 4.688471
40 0 2 -1.179400 8.022621 3.463202 2.436867
41 0 1 0.589700 7.439404 2.900977 2.937259
42 0 1 0.589700 7.449070 3.970042 1.869840
43 0 2 -1.179400 13.055223 1.712399 0.333770
44 0 1 0.589700 13.073062 0.781545 0.539203
45 0 1 0.589700 13.361900 2.137870 1.132345
46 0 2 -1.179400 -2.920213 21.483606 4.460157
47 0 1 0.589700 -3.464446 20.730141 4.256354
48 0 1 0.589700 -2.043327 21.127943 4.523584
49 0 2 -1.179400 3.918652 5.107426 2.317481
50 0 1 0.589700 4.331519 5.366498 3.138825
51 0 1 0.589700 4.633493 5.038700 1.692971
52 0 2 -1.179400 1.785240 21.553627 3.110832
53 0 1 0.589700 10.659694 0.714468 2.629217
54 0 1 0.589700 2.374752 21.086136 2.526685
55 0 2 -1.179400 9.363194 6.145821 1.203004
56 0 1 0.589700 10.180534 5.681180 1.332739
57 0 1 0.589700 9.020363 5.798375 0.381683
58 0 2 -1.179400 -0.352140 20.136629 4.419333
59 0 1 0.589700 0.361874 20.596506 3.991868
60 0 1 0.589700 0.025862 19.790138 5.225168
61 0 2 -1.179400 3.441702 0.788859 5.596382
62 0 1 0.589700 -5.505045 22.140627 4.694767
63 0 1 0.589700 3.688382 1.709141 5.609059
64 0 2 -1.179400 10.411335 2.366192 1.882396
65 0 1 0.589700 11.007394 3.105711 1.929559
66 0 1 0.589700 9.552187 2.763046 1.817658
67 0 2 -1.179400 3.010357 19.036224 4.514607
68 0 1 0.589700 2.448761 19.035595 5.285569
69 0 1 0.589700 2.492380 18.619057 3.831263
70 0 2 -1.179400 5.716862 2.303442 3.387196
71 0 1 0.589700 5.842828 1.462399 3.819397
72 0 1 0.589700 5.019326 2.720509 3.881489
73 0 2 -1.179400 5.334562 17.799519 5.138481
74 0 1 0.589700 5.671474 18.461838 5.736876
75 0 1 0.589700 4.516804 18.161890 4.820017
76 0 2 -1.179400 15.404658 3.750456 1.880250
77 0 1 0.589700 14.728877 3.293211 2.369518
78 0 1 0.589700 14.974903 4.040641 1.078465
79 0 2 -1.179400 20.901243 1.800453 0.247766
80 0 1 0.589700 20.651110 0.886902 0.351954
81 0 1 0.589700 20.766710 2.184975 1.113025
82 0 2 -1.179400 4.507476 21.454254 4.434443
83 0 1 0.589700 4.099648 20.595045 4.480371
84 0 1 0.589700 5.433084 21.270092 4.346384
85 0 2 -1.179400 11.705890 5.019673 2.001056
86 0 1 0.589700 12.269712 5.243200 2.736888
87 0 1 0.589700 12.286583 4.984862 1.245476
88 0 2 -1.179400 9.587945 21.815538 3.126236
89 0 1 0.589700 18.654995 1.090733 2.827919
90 0 1 0.589700 10.245772 21.409716 2.570740
91 0 2 -1.179400 17.390873 6.220579 1.337072
92 0 1 0.589700 16.967934 5.638632 0.710807
93 0 1 0.589700 18.212223 5.790660 1.540654
94 0 2 -1.179400 7.404386 20.397875 4.218822
95 0 1 0.589700 8.112520 20.614813 3.621282
96 0 1 0.589700 7.812091 19.874552 4.904726
97 0 2 -1.179400 11.434779 1.009762 5.868935
98 0 1 0.589700 11.337316 0.656785 4.985245
99 0 1 0.589700 11.451830 1.954986 5.746265
100 0 2 -1.179400 17.960518 2.543651 1.796306
101 0 1 0.589700 18.519073 3.313505 1.780648
102 0 1 0.589700 17.089817 2.890026 1.943354
103 0 2 -1.179400 11.027503 19.317816 4.438457
104 0 1 0.589700 10.291146 19.307034 5.040780
105 0 1 0.589700 10.659018 19.068539 3.592871
106 0 2 -1.179400 13.256947 2.390089 3.099453
107 0 1 0.589700 13.199589 1.472756 3.353157
108 0 1 0.589700 12.544724 2.811921 3.567607
109 0 2 -1.179400 19.172232 3.527339 5.043351
110 0 1 0.589700 19.475306 4.112408 5.734248
111 0 1 0.589700 18.485044 4.014904 4.602158
112 0 2 -1.179400 -2.824719 11.144125 1.900152
113 0 1 0.589700 -3.557626 10.623906 2.208690
114 0 1 0.589700 -3.156763 11.603216 1.131253
115 0 2 -1.179400 3.082735 8.763437 0.754174
116 0 1 0.589700 2.653498 7.951295 1.005455
117 0 1 0.589700 2.793761 9.398434 1.405666
118 0 2 -1.179400 18.627480 7.261768 4.259238
119 0 1 0.589700 17.970785 6.614444 4.027647
120 0 1 0.589700 19.453159 6.813572 4.125125
121 0 2 -1.179400 16.911257 11.965187 1.698937
122 0 1 0.589700 17.570450 12.329336 2.281248
123 0 1 0.589700 17.330273 11.932445 0.841043
124 0 2 -1.179400 -0.754117 7.428348 2.700441
125 0 1 0.589700 -0.586804 8.359719 2.586490
126 0 1 0.589700 -0.050553 6.998316 2.226484
127 0 2 -1.179400 -0.990877 13.943230 1.129574
128 0 1 0.589700 -0.296568 13.404114 1.491850
129 0 1 0.589700 -1.173942 13.557136 0.274166
130 0 2 -1.179400 20.883913 5.895963 3.906916
131 0 1 0.589700 -2.059064 6.435875 3.342960
132 0 1 0.589700 21.467861 5.588943 4.594823
133 0 2 -1.179400 15.718822 7.937982 5.469495
134 0 1 0.589700 15.549019 7.707885 4.556575
135 0 1 0.589700 16.150831 8.785159 5.423819
136 0 2 -1.179400 -0.347057 10.136651 2.382794
137 0 1 0.589700 0.216327 10.897106 2.286782
138 0 1 0.589700 -1.212331 10.502337 2.514605
139 0 2 -1.179400 1.815417 4.900439 4.629573
140 0 1 0.589700 1.118537 4.642088 5.224000
141 0 1 0.589700 1.489033 4.683749 3.757690
142 0 2 -1.179400 18.508780 9.671836 2.767359
143 0 1 0.589700 18.621788 8.900499 3.318073
144 0 1 0.589700 17.923744 10.233606 3.266109
145 0 2 -1.179400 4.081549 3.460770 5.107634
146 0 1 0.589700 4.509188 4.111797 5.657399
147 0 1 0.589700 3.220992 3.823213 4.940112
148 0 2 -1.179400 4.734933 11.393785 2.486576
149 0 1 0.589700 3.935878 11.029334 2.848153
150 0 1 0.589700 4.477442 11.758600 1.641367
151 0 2 -1.179400 10.121065 8.827034 1.101960
152 0 1 0.589700 10.089710 7.881240 1.217078
153 0 1 0.589700 10.031796 9.177791 1.987424
154 0 2 -1.179400 3.138024 7.384928 4.619873
155 0 1 0.589700 2.607572 6.596023 4.580724
156 0 1 0.589700 4.024067 7.077708 4.478716
157 0 2 -1.179400 1.199492 12.542152 1.919325
158 0 1 0.589700 1.500512 12.938286 2.735129
159 0 1 0.589700 1.964595 12.531764 1.354739
160 0 2 -1.179400 7.559045 7.565311 2.805749
161 0 1 0.589700 7.456196 8.372822 2.307818
162 0 1 0.589700 8.042786 6.988143 2.221330
163 0 2 -1.179400 6.671053 13.719481 1.461528
164 0 1 0.589700 7.415841 13.378870 1.944429
165 0 1 0.589700 6.990922 14.517775 1.050144
166 0 2 -1.179400 5.704830 6.076241 4.203489
167 0 1 0.589700 6.439842 6.461131 3.739215
168 0 1 0.589700 6.098288 5.477654 4.833545
169 0 2 -1.179400 0.176277 7.725778 5.464298
170 0 1 0.589700 0.151171 7.339622 4.589523
171 0 1 0.589700 0.306306 8.657166 5.308518
172 0 2 -1.179400 7.164120 10.171460 1.762157
173 0 1 0.589700 7.734935 10.787200 2.210972
174 0 1 0.589700 6.289199 10.483747 1.953854
175 0 2 -1.179400 9.141111 5.031420 4.444267
176 0 1 0.589700 8.550153 4.956932 5.188749
177 0 1 0.589700 8.672596 4.631117 3.715808
178 0 2 -1.179400 2.634348 9.848170 3.487398
179 0 1 0.589700 2.759395 8.989701 3.883847
180 0 1 0.589700 2.031014 10.293536 4.074570
181 0 2 -1.179400 11.381294 3.479769 4.742945
182 0 1 0.589700 11.732768 4.164212 5.306685
183 0 1 0.589700 10.508202 3.779348 4.524196
184 0 2 -1.179400 12.496089 10.673005 1.800188
185 0 1 0.589700 11.860020 10.312427 2.410318
186 0 1 0.589700 11.992977 11.249447 1.231958
187 0 2 -1.179400 18.321701 8.510082 0.301632
188 0 1 0.589700 18.039682 7.689831 0.697423
189 0 1 0.589700 18.370363 9.121516 1.034332
190 0 2 -1.179400 11.097580 7.109624 4.678102
191 0 1 0.589700 10.294997 6.608669 4.601573
192 0 1 0.589700 11.784464 6.478001 4.497816
193 0 2 -1.179400 8.884548 12.490158 2.337044
194 0 1 0.589700 9.451790 12.549650 3.101449
195 0 1 0.589700 9.474472 12.354668 1.600438
196 0 2 -1.179400 15.479027 7.394165 2.744193
197 0 1 0.589700 15.368965 8.290301 2.437396
198 0 1 0.589700 16.221285 7.064365 2.249888
199 0 2 -1.179400 14.518620 13.244997 1.024770
200 0 1 0.589700 15.315214 12.865129 1.375750
201 0 1 0.589700 14.238393 12.631142 0.349389
202 0 2 -1.179400 13.450239 5.631823 4.082878
203 0 1 0.589700 14.080997 6.216360 3.675818
204 0 1 0.589700 13.947751 5.152890 4.740425
205 0 2 -1.179400 7.987913 8.146136 5.619546
206 0 1 0.589700 7.952368 7.919165 4.690570
207 0 1 0.589700 8.170952 9.081370 5.629274
208 0 2 -1.179400 15.216549 9.755348 1.572773
209 0 1 0.589700 15.919302 10.357354 1.789167
210 0 1 0.589700 14.425326 10.239184 1.776107
211 0 2 -1.179400 16.991949 4.954224 4.124101
212 0 1 0.589700 16.342171 4.801873 4.803783
213 0 1 0.589700 16.551458 4.732715 3.306328
214 0 2 -1.179400 10.801172 9.625667 3.738154
215 0 1 0.589700 11.013511 8.757358 4.069797
216 0 1 0.589700 10.064442 9.907046 4.269677
217 0 2 -1.179400 16.656775 10.520094 4.779281
218 0 1 0.589700 16.783129 11.166232 5.471355
219 0 1 0.589700 15.838759 10.768737 4.365693
220 0 2 -1.179400 -6.407813 18.543819 1.867159
221 0 1 0.589700 -7.086099 18.114931 2.378294
222 0 1 0.589700 -6.867513 19.198643 1.349255
223 0 2 -1.179400 -0.716873 16.529995 0.696158
224 0 1 0.589700 -0.899987 15.594847 0.711146
225 0 1 0.589700 -0.651961 16.775414 1.618762
226 0 2 -1.179400 15.614035 14.370542 4.114278
227 0 1 0.589700 15.062265 13.602854 4.008012
228 0 1 0.589700 16.496794 14.039073 4.013094
229 0 2 -1.179400 13.422852 19.438427 2.270142
230 0 1 0.589700 13.802076 19.842249 3.047988
231 0 1 0.589700 14.136962 19.394508 1.642531
232 0 2 -1.179400 -3.264364 15.004857 2.592646
233 0 1 0.589700 -3.493797 15.829556 2.172259
234 0 1 0.589700 -2.435627 14.762249 2.197648
235 0 2 -1.179400 -4.441571 20.702618 0.815069
236 0 1 0.589700 -1.294433 26.232090 43.562382
237 0 1 0.589700 -3.539881 20.603979 1.092088
238 0 2 -1.179400 -5.327520 13.341785 3.811778
239 0 1 0.589700 -4.630110 13.933052 3.552199
240 0 1 0.589700 -4.948656 12.805962 4.504789
241 0 2 -1.179400 12.590651 15.210715 5.724518
242 0 1 0.589700 12.649046 14.735091 4.897082
243 0 1 0.589700 12.889770 16.090517 5.513748
244 0 2 -1.179400 -3.724780 17.348083 1.353335
245 0 1 0.589700 -3.022614 17.900164 1.678556
246 0 1 0.589700 -4.509921 17.862322 1.496629
247 0 2 -1.179400 -1.981474 12.504132 4.315423
248 0 1 0.589700 -2.712669 12.328011 4.897971
249 0 1 0.589700 -2.326685 12.361802 3.435539
250 0 2 -1.179400 15.382348 16.893213 3.309236
251 0 1 0.589700 15.472791 16.002207 3.636933
252 0 1 0.589700 14.616530 17.233706 3.757405
253 0 2 -1.179400 0.482186 10.650757 5.250131
254 0 1 0.589700 0.653813 11.191193 6.019331
255 0 1 0.589700 -0.247026 11.078052 4.814811
256 0 2 -1.179400 1.549200 18.339605 2.397593
257 0 1 0.589700 0.778630 17.928619 2.771729
258 0 1 0.589700 1.284572 18.600742 1.516677
259 0 2 -1.179400 7.286545 16.299475 0.742147
260 0 1 0.589700 10.103915 23.056694 43.565075
261 0 1 0.589700 7.248791 16.760601 1.579028
262 0 2 -1.179400 -0.261489 14.584736 4.369076
263 0 1 0.589700 -0.881386 13.864130 4.391186
264 0 1 0.589700 0.579858 14.164571 4.243080
265 0 2 -1.179400 -1.652954 20.024059 1.561057
266 0 1 0.589700 -1.104296 20.338482 2.274751
267 0 1 0.589700 -1.063444 19.932730 0.817292
268 0 2 -1.179400 4.642892 14.580636 3.242627
269 0 1 0.589700 4.400485 15.380636 2.783341
270 0 1 0.589700 5.463860 14.319922 2.842735
271 0 2 -1.179400 3.760354 20.598207 1.211318
272 0 1 0.589700 4.513947 20.223534 1.653094
273 0 1 0.589700 3.645250 20.058992 0.430588
274 0 2 -1.179400 2.328566 13.634875 4.286073
275 0 1 0.589700 3.088496 13.978917 3.830484
276 0 1 0.589700 2.672300 12.949408 4.853423
277 0 2 -1.179400 -3.003530 15.553965 5.418640
278 0 1 0.589700 -2.876050 15.243299 4.522911
279 0 1 0.589700 -3.110940 16.496914 5.329732
280 0 2 -1.179400 4.149180 16.933197 1.970753
281 0 1 0.589700 4.809593 17.602451 2.110463
282 0 1 0.589700 3.325949 17.391142 2.085630
283 0 2 -1.179400 6.236453 12.142617 4.598481
284 0 1 0.589700 5.629084 12.200394 5.330886
285 0 1 0.589700 5.710679 11.835410 3.864332
286 0 2 -1.179400 -0.930419 16.994297 3.367261
287 0 1 0.589700 -0.738442 16.185167 3.834681
288 0 1 0.589700 -1.432735 17.512232 3.990366
289 0 2 -1.179400 8.593418 10.999861 5.179526
290 0 1 0.589700 8.827366 11.738711 5.736241
291 0 1 0.589700 7.711926 11.192829 4.886682
292 0 2 -1.179400 9.773617 18.119213 2.249704
293 0 1 0.589700 9.098419 17.953409 2.900306
294 0 1 0.589700 9.372076 18.718258 1.625315
295 0 2 -1.179400 14.934356 15.936038 0.605001
296 0 1 0.589700 14.766310 15.000235 0.671267
297 0 1 0.589700 15.088495 16.214815 1.507010
298 0 2 -1.179400 7.853582 14.408357 4.642402
299 0 1 0.589700 7.365853 13.598552 4.752984
300 0 1 0.589700 8.761862 14.136818 4.648051
301 0 2 -1.179400 5.781076 19.239622 2.180337
302 0 1 0.589700 6.181285 19.434155 3.025694
303 0 1 0.589700 6.457140 19.430618 1.537666
304 0 2 -1.179400 12.904922 14.365616 3.006747
305 0 1 0.589700 12.771191 15.234432 2.636808
306 0 1 0.589700 13.593554 13.984800 2.471877
307 0 2 -1.179400 11.249852 20.908854 0.986947
308 0 1 0.589700 11.891512 20.444237 1.514601
309 0 1 0.589700 10.976577 20.274750 0.327717
310 0 2 -1.179400 10.528682 13.543849 4.461200
311 0 1 0.589700 11.177220 13.909213 3.867557
312 0 1 0.589700 11.025097 12.991457 5.058768
313 0 2 -1.179400 4.975455 15.311875 5.982128
314 0 1 0.589700 5.161450 15.049260 5.081357
315 0 1 0.589700 5.060828 16.261217 5.976059
316 0 2 -1.179400 12.414350 16.749941 2.153703
317 0 1 0.589700 13.085303 17.420124 2.090901
318 0 1 0.589700 11.618875 17.233345 2.340469
319 0 2 -1.179400 14.112611 11.810804 4.083578
320 0 1 0.589700 13.431646 11.703418 4.740384
321 0 1 0.589700 13.650774 11.827355 3.247935
322 0 2 -1.179400 7.454020 17.002590 3.672377
323 0 1 0.589700 7.487287 16.073204 3.882503
324 0 1 0.589700 6.697144 17.326820 4.147402
325 0 2 -1.179400 10.284348 13.350404 10.338482
326 0 1 0.589700 10.296567 13.848549 11.154488
327 0 1 0.589700 9.475487 13.606800 9.911508
328 0 2 -1.179400 11.328301 20.924261 7.564068
329 0 1 0.589700 10.495485 20.610285 7.894289
330 0 1 0.589700 11.110214 21.695744 7.046806
331 0 2 -1.179400 -6.758801 18.886360 5.697156
332 0 1 0.589700 -6.969740 17.979208 5.899744
333 0 1 0.589700 -6.706099 19.314173 6.550882
334 0 2 -1.179400 9.587191 16.797783 10.027868
335 0 1 0.589700 9.015983 16.050989 9.883224
336 0 1 0.589700 10.460375 16.452835 9.892954
337 0 2 -1.179400 7.505552 22.190147 6.972494
338 0 1 0.589700 7.820429 22.392767 7.852072
339 0 1 0.589700 8.262454 22.304619 6.408234
340 0 2 -1.179400 14.122728 17.117243 8.118247
341 0 1 0.589700 14.021224 18.003071 7.779877
342 0 1 0.589700 14.785624 16.725077 7.559020
343 0 2 -1.179400 22.157391 1.983117 6.586360
344 0 1 0.589700 23.038174 1.697595 6.792216
345 0 1 0.589700 21.856123 1.366226 5.923121
346 0 2 -1.179400 12.309961 15.929460 9.629185
347 0 1 0.589700 13.053218 16.202215 9.102427
348 0 1 0.589700 12.680892 15.368973 10.306730
349 0 2 -1.179400 6.929160 17.854355 11.336126
350 0 1 0.589700 6.825758 17.573578 10.427376
351 0 1 0.589700 7.047838 18.798491 11.280987
352 0 2 -1.179400 14.013726 19.620293 6.998498
353 0 1 0.589700 14.564860 20.390802 7.085832
354 0 1 0.589700 13.237379 19.829636 7.505443
355 0 2 -1.179400 15.618144 14.702098 9.550452
356 0 1 0.589700 15.003467 14.562343 10.265275
357 0 1 0.589700 15.172886 14.371917 8.773283
358 0 2 -1.179400 9.081317 19.244024 8.684569
359 0 1 0.589700 9.190700 18.383364 9.080952
360 0 1 0.589700 8.394229 19.655090 9.198479
361 0 2 -1.179400 17.878130 13.215340 10.163896
362 0 1 0.589700 18.043306 13.770340 10.924026
363 0 1 0.589700 17.037716 13.507407 9.833026
364 0 2 -1.179400 -4.332633 20.846552 7.560792
365 0 1 0.589700 -5.123396 20.514217 7.969146
366 0 1 0.589700 -4.634831 21.512018 6.947186
367 0 2 -1.179400 1.189631 18.634668 6.325672
368 0 1 0.589700 1.257128 17.684252 6.353428
369 0 1 0.589700 1.089457 18.893694 7.241281
370 0 2 -1.179400 17.221205 16.905312 9.339006
371 0 1 0.589700 16.557341 16.227097 9.287210
372 0 1 0.589700 -5.453189 16.427223 9.431745
373 0 2 -1.179400 -8.085070 22.173079 7.030235
374 0 1 0.589700 -7.744222 22.421993 7.887675
375 0 1 0.589700 -7.340284 22.235792 6.441844
376 0 2 -1.179400 -1.532867 17.136763 8.225595
377 0 1 0.589700 -1.558423 18.011696 7.846540
378 0 1 0.589700 -0.869297 16.678829 7.720176
379 0 2 -1.179400 6.601815 1.783596 6.304693
380 0 1 0.589700 7.481520 1.543948 6.566624
381 0 1 0.589700 6.319970 1.070990 5.736246
382 0 2 -1.179400 -3.780526 15.805709 9.087170
383 0 1 0.589700 -3.071495 16.334911 8.739577
384 0 1 0.589700 -3.367377 15.232488 9.728056
385 0 2 -1.179400 14.548863 18.185167 10.600314
386 0 1 0.589700 14.411324 17.812910 9.730144
387 0 1 0.589700 14.720315 19.108679 10.438279
388 0 2 -1.179400 -1.679942 19.672800 7.140626
389 0 1 0.589700 -1.167468 20.473267 7.186872
390 0 1 0.589700 -2.571240 19.956774 7.296356
391 0 2 -1.179400 0.073357 14.608964 9.827976
392 0 1 0.589700 -0.652352 14.515410 10.436228
393 0 1 0.589700 -0.271640 14.319139 8.985317
394 0 2 -1.179400 -6.527648 19.522678 8.301445
395 0 1 0.589700 -6.426366 18.590494 8.473383
396 0 1 0.589700 -7.217862 19.799809 8.895286
397 0 2 -1.179400 2.442275 13.555377 10.624448
398 0 1 0.589700 2.590569 14.296582 11.207396
399 0 1 0.589700 1.547387 13.660455 10.327988
400 0 2 -1.179400 3.314301 20.783428 7.798382
401 0 1 0.589700 2.526461 20.422787 8.187851
402 0 1 0.589700 3.004551 21.459040 7.199988
403 0 2 -1.179400 8.660657 18.822475 5.982743
404 0 1 0.589700 8.406559 17.905033 5.942362
405 0 1 0.589700 8.880207 18.969118 6.902177
406 0 2 -1.179400 1.722541 16.955667 9.706176
407 0 1 0.589700 1.140601 16.204479 9.665483
408 0 1 0.589700 2.587596 16.587502 9.579977
409 0 2 -1.179400 0.023586 21.763042 7.018750
410 0 1 0.589700 0.216841 22.122280 7.883615
411 0 1 0.589700 0.748634 22.043221 6.470464
412 0 2 -1.179400 6.263719 17.434834 8.550748
413 0 1 0.589700 6.188693 18.325220 8.217436
414 0 1 0.589700 6.893346 17.017445 7.971068
415 0 2 -1.179400 14.196427 1.875050 6.365065
416 0 1 0.589700 15.037556 1.510216 6.610118
417 0 1 0.589700 13.892791 1.316463 5.652653
418 0 2 -1.179400 4.237662 15.874055 9.519312
419 0 1 0.589700 4.985907 16.427608 9.329783
420 0 1 0.589700 4.517047 15.329194 10.252275
421 0 2 -1.179400 -1.280444 17.570742 10.794517
422 0 1 0.589700 -1.364193 17.356768 9.865588
423 0 1 0.589700 -1.301102 18.523350 10.822451
424 0 2 -1.179400 5.783860 19.903385 7.000658
425 0 1 0.589700 6.351038 20.654516 6.862629
426 0 1 0.589700 4.917873 20.278919 7.094224
427 0 2 -1.179400 7.900454 14.631754 9.728870
428 0 1 0.589700 7.167754 14.520432 10.325439
429 0 1 0.589700 7.506379 14.685740 8.860065
430 0 2 -1.179400 1.116371 19.507904 8.850376
431 0 1 0.589700 1.362840 18.650845 9.187383
432 0 1 0.589700 0.415724 19.794638 9.426901
433 0 2 -1.179400 7.121930 20.534828 10.586736
434 0 1 0.589700 7.605391 21.107073 11.176240
435 0 1 0.589700 6.303382 20.990868 10.435725
436 0 2 -1.179400 17.176577 6.537142 7.502502
437 0 1 0.589700 16.523464 6.065324 8.008931
438 0 1 0.589700 16.694420 6.919112 6.773196
439 0 2 -1.179400 -0.624077 4.468046 5.925159
440 0 1 0.589700 -0.899930 3.587711 6.164179
441 0 1 0.589700 -0.691534 4.967060 6.737870
442 0 2 -1.179400 15.750252 2.756709 9.493402
443 0 1 0.589700 15.197909 1.994455 9.631338
444 0 1 0.589700 16.633448 2.425505 9.591535
445 0 2 -1.179400 13.500293 7.400155 6.843622
446 0 1 0.589700 13.802546 7.488330 7.746487
447 0 1 0.589700 14.264705 7.586203 6.309731
448 0 2 -1.179400 20.311571 3.136826 8.106215
449 0 1 0.589700 20.133692 3.943002 7.628079
450 0 1 0.589700 20.946978 2.678199 7.565714
451 0 2 -1.179400 18.979807 8.967293 6.656124
452 0 1 0.589700 19.873636 8.681957 6.793447
453 0 1 0.589700 18.671148 8.437678 5.923879
454 0 2 -1.179400 18.227961 1.583498 9.168197
455 0 1 0.589700 18.859962 2.216580 8.844943
456 0 1 0.589700 9.623905 22.636843 9.738862
457 0 2 -1.179400 12.648578 3.589804 11.150758
458 0 1 0.589700 12.673600 3.465673 10.202046
459 0 1 0.589700 12.770040 4.527377 11.272467
460 0 2 -1.179400 19.688427 5.487852 7.051173
461 0 1 0.589700 20.315786 6.163759 6.818937
462 0 1 0.589700 18.853279 5.938110 7.059438
463 0 2 -1.179400 12.790216 22.058384 9.579291
464 0 1 0.589700 12.119994 21.870867 10.229198
465 0 1 0.589700 12.388665 21.841385 8.740121
466 0 2 -1.179400 15.144459 5.269981 8.653959
467 0 1 0.589700 15.322284 4.412251 9.030971
468 0 1 0.589700 14.455419 5.630155 9.202535
469 0 2 -1.179400 15.073347 20.770477 10.250029
470 0 1 0.589700 15.458832 21.265068 10.969703
471 0 1 0.589700 14.405344 21.347435 9.896152
472 0 2 -1.179400 1.738037 6.510963 7.394284
473 0 1 0.589700 0.993498 6.178751 7.883423
474 0 1 0.589700 1.358753 6.947687 6.634601
475 0 2 -1.179400 6.893871 4.439699 5.978489
476 0 1 0.589700 6.730294 3.501296 6.009980
477 0 1 0.589700 6.704997 4.745293 6.864865
478 0 2 -1.179400 0.032581 2.631968 9.619745
479 0 1 0.589700 22.985682 1.858381 9.479265
480 0 1 0.589700 0.914249 2.344089 9.421194
481 0 2 -1.179400 -1.996132 7.824499 7.120757
482 0 1 0.589700 -1.553210 8.122892 7.912119
483 0 1 0.589700 -1.304471 7.720870 6.474835
484 0 2 -1.179400 4.615774 2.801384 7.935905
485 0 1 0.589700 4.618983 3.736218 7.748748
486 0 1 0.589700 5.317754 2.448695 7.399298
487 0 2 -1.179400 3.380781 9.202546 6.814428
488 0 1 0.589700 4.205241 8.861182 7.138609
489 0 1 0.589700 3.103452 8.570722 6.154719
490 0 2 -1.179400 2.547010 1.644423 9.091558
491 0 1 0.589700 3.222895 2.137160 8.638521
492 0 1 0.589700 -6.085565 22.709641 9.697868
493 0 2 -1.179400 20.658503 3.483685 10.784149
494 0 1 0.589700 20.524990 3.276589 9.859598
495 0 1 0.589700 20.995981 4.374411 10.781697
496 0 2 -1.179400 4.241483 5.424649 7.380710
497 0 1 0.589700 4.791830 6.197215 7.453630
498 0 1 0.589700 3.376700 5.770154 7.199837
499 0 2 -1.179400 -2.970085 21.962797 9.544056
500 0 1 0.589700 -3.811412 22.163118 9.935786
501 0 1 0.589700 -3.175740 21.674084 8.655787
502 0 2 -1.179400 -0.556804 5.312337 8.583209
503 0 1 0.589700 -0.709842 4.434009 8.921501
504 0 1 0.589700 -1.150439 5.866306 9.080383
505 0 2 -1.179400 -0.976709 20.344135 10.348997
506 0 1 0.589700 -0.732500 21.006168 10.991985
507 0 1 0.589700 -1.795199 20.657570 9.983561
508 0 2 -1.179400 9.372162 6.460095 7.467704
509 0 1 0.589700 8.688326 6.154455 8.054927
510 0 1 0.589700 8.923468 7.013681 6.833842
511 0 2 -1.179400 15.182477 4.459194 6.076519
512 0 1 0.589700 14.835648 3.578785 6.185602
513 0 1 0.589700 15.125065 4.848000 6.948550
514 0 2 -1.179400 7.912014 2.586393 9.649887
515 0 1 0.589700 7.296745 1.861513 9.640257
516 0 1 0.589700 8.759841 2.173770 9.544827
517 0 2 -1.179400 5.650106 7.818837 7.218491
518 0 1 0.589700 6.210485 8.063823 7.950106
519 0 1 0.589700 6.161896 8.016459 6.437749
520 0 2 -1.179400 12.414482 2.957868 8.499403
521 0 1 0.589700 12.331872 3.807958 8.074436
522 0 1 0.589700 13.075922 2.502004 7.989269
523 0 2 -1.179400 11.259324 9.019670 6.647730
524 0 1 0.589700 12.136086 8.743198 6.881655
525 0 1 0.589700 11.016724 8.452890 5.918171
526 0 2 -1.179400 10.338667 1.296214 9.177105
527 0 1 0.589700 11.053020 1.863593 8.910876
528 0 1 0.589700 1.626900 22.309156 9.789646
529 0 2 -1.179400 4.913673 3.453711 10.892541
530 0 1 0.589700 5.005335 3.336760 9.947097
531 0 1 0.589700 4.824796 4.395606 11.009238
532 0 2 -1.179400 11.779749 5.218908 6.972066
533 0 1 0.589700 12.351963 5.972809 6.877239
534 0 1 0.589700 10.926476 5.594209 7.148804
535 0 2 -1.179400 5.160923 22.179005 9.802583
536 0 1 0.589700 4.523114 22.349012 10.489576
537 0 1 0.589700 4.712054 21.606853 9.185706
538 0 2 -1.179400 7.400770 5.140888 8.775827
539 0 1 0.589700 7.689682 4.249196 8.947059
540 0 1 0.589700 6.775871 5.323960 9.471489
541 0 2 -1.179400 13.154674 6.173044 10.477518
542 0 1 0.589700 13.502201 6.850135 11.052593
543 0 1 0.589700 12.473757 6.611104 9.977912
544 0 2 -1.179400 14.234848 13.704357 7.492281
545 0 1 0.589700 13.496674 13.177064 7.774798
546 0 1 0.589700 13.846564 14.434841 7.018638
547 0 2 -1.179400 -4.100030 11.679863 5.748054
548 0 1 0.589700 19.204556 10.745128 5.770814
549 0 1 0.589700 -3.888724 11.903267 6.653781
550 0 2 -1.179400 12.689339 9.653722 9.981197
551 0 1 0.589700 12.071481 8.950022 9.815834
552 0 1 0.589700 13.534978 9.272725 9.780875
553 0 2 -1.179400 10.531904 14.872472 7.594686
554 0 1 0.589700 11.011299 15.093403 8.389979
555 0 1 0.589700 11.137464 15.056056 6.881920
556 0 2 -1.179400 16.938280 10.169038 8.120704
557 0 1 0.589700 16.833658 11.042882 7.753144
558 0 1 0.589700 17.718149 9.827004 7.699242
559 0 2 -1.179400 15.955004 16.276752 6.156293
560 0 1 0.589700 16.781069 15.900860 6.434534
561 0 1 0.589700 15.719371 15.783446 5.372589
562 0 2 -1.179400 15.136463 8.587317 9.359464
563 0 1 0.589700 15.729847 9.070764 8.792676
564 0 1 0.589700 15.676882 7.916695 9.765334
565 0 2 -1.179400 9.352876 10.563376 10.885733
566 0 1 0.589700 9.311307 10.307571 9.964599
567 0 1 0.589700 9.778681 11.414900 10.877064
568 0 2 -1.179400 16.737129 12.687194 7.092273
569 0 1 0.589700 17.295094 13.455091 7.029386
570 0 1 0.589700 15.864812 13.041344 7.207421
571 0 2 -1.179400 18.723043 7.909038 9.786742
572 0 1 0.589700 18.052546 7.637410 10.405663
573 0 1 0.589700 18.372341 7.681752 8.927303
574 0 2 -1.179400 12.133852 12.177742 8.461097
575 0 1 0.589700 12.217535 11.350381 8.928919
576 0 1 0.589700 11.639167 12.735539 9.055054
577 0 2 -1.179400 20.793446 6.353058 10.352077
578 0 1 0.589700 21.313997 6.886341 10.946174
579 0 1 0.589700 20.091576 6.929270 10.071445
580 0 2 -1.179400 -1.665164 13.972150 7.467455
581 0 1 0.589700 -2.364245 13.374996 7.708170
582 0 1 0.589700 -2.044867 14.535662 6.797439
583 0 2 -1.179400 3.674747 11.872540 6.083506
584 0 1 0.589700 3.668676 10.924698 6.185036
585 0 1 0.589700 3.744825 12.207350 6.976920
586 0 2 -1.179400 -2.784452 10.022614 9.686230
587 0 1 0.589700 19.977388 9.411526 9.676233
588 0 1 0.589700 -2.014140 9.467594 9.696372
589 0 2 -1.179400 -5.262263 14.996857 6.959573
590 0 1 0.589700 -4.778839 15.319365 7.716455
591 0 1 0.589700 -4.702878 15.185309 6.210506
592 0 2 -1.179400 1.318058 10.143507 8.448347
593 0 1 0.589700 1.075534 10.861053 7.867782
594 0 1 0.589700 2.133083 9.815556 8.087896
595 0 2 -1.179400 0.512202 16.034155 6.525878
596 0 1 0.589700 1.307411 15.582888 6.782011
597 0 1 0.589700 0.273590 15.641584 5.687584
598 0 2 -1.179400 -0.588597 8.523184 9.302200
599 0 1 0.589700 0.127764 9.013268 8.914431
600 0 1 0.589700 -0.173425 7.935596 9.928466
601 0 2 -1.179400 17.500111 10.525210 10.820882
602 0 1 0.589700 17.338757 10.383751 9.888420
603 0 1 0.589700 17.519524 11.473248 10.918786
604 0 2 -1.179400 0.872394 12.656176 7.144776
605 0 1 0.589700 1.531334 13.324056 6.991946
606 0 1 0.589700 0.049298 13.125993 7.096598
607 0 2 -1.179400 3.014120 7.647300 9.623003
608 0 1 0.589700 2.505614 7.287355 10.345304
609 0 1 0.589700 2.737679 7.149253 8.856107
610 0 2 -1.179400 -3.651202 12.403081 8.295669
611 0 1 0.589700 -3.432191 11.716514 8.921758
612 0 1 0.589700 -4.284402 12.945425 8.754472
613 0 2 -1.179400 5.342250 6.237400 10.411338
614 0 1 0.589700 5.665682 6.895237 11.022177
615 0 1 0.589700 4.468766 6.531962 10.187373
616 0 2 -1.179400 6.360144 13.662259 7.444828
617 0 1 0.589700 5.690937 13.144509 7.879481
618 0 1 0.589700 5.883657 14.362439 7.008688
619 0 2 -1.179400 11.960165 11.654608 5.856864
620 0 1 0.589700 11.839024 10.709908 5.819884
621 0 1 0.589700 12.055119 11.847236 6.789397
622 0 2 -1.179400 4.853111 10.008512 9.699778
623 0 1 0.589700 4.359897 9.209260 9.545301
624 0 1 0.589700 5.759831 9.733720 9.666164
625 0 2 -1.179400 2.620672 14.656858 7.283692
626 0 1 0.589700 2.896764 14.658398 8.199358
627 0 1 0.589700 3.423970 14.754066 6.785489
628 0 2 -1.179400 9.133522 9.969941 8.155739
629 0 1 0.589700 9.035357 10.843165 7.784888
630 0 1 0.589700 9.849225 9.583026 7.663224
631 0 2 -1.179400 8.151649 16.101025 6.934760
632 0 1 0.589700 9.015643 15.814506 7.202520
633 0 1 0.589700 7.952085 15.572717 6.163945
634 0 2 -1.179400 7.167254 8.508986 9.424306
635 0 1 0.589700 7.855926 8.999425 8.988745
636 0 1 0.589700 7.610474 8.023834 10.116001
637 0 2 -1.179400 1.710354 10.962342 11.107958
638 0 1 0.589700 1.720949 10.783646 10.167788
639 0 1 0.589700 2.017741 11.860872 11.183624
640 0 2 -1.179400 8.860848 12.621553 7.412311
641 0 1 0.589700 9.493766 13.310585 7.581785
642 0 1 0.589700 8.020782 13.032997 7.571647
643 0 2 -1.179400 10.963475 7.481528 9.585097
644 0 1 0.589700 10.330626 7.387264 10.291194
645 0 1 0.589700 10.521619 7.142134 8.809952
646 0 2 -1.179400 4.194758 12.329255 8.788837
647 0 1 0.589700 4.394662 11.499099 9.213758
648 0 1 0.589700 3.462550 12.677472 9.285697
649 0 2 -1.179400 6.977895 8.320271 15.571848
650 0 1 0.589700 7.363370 8.760509 16.326284