LAMMPS data file via write_data, version 30 Jul 2021, timestep = 3750000

1008 atoms
2 atom types
672 bonds
1 bond types
336 angles
1 angle types

-3.147594322483082 14.75759332203729 xlo xhi
-0.10564705558429921 22.68564605557943 ylo yhi
-0.11380665458447403 19.343804654584474 zlo zhi
0.09545834976568096 -6.627042527203618 -0.24186667059087916 xy xz yz

Masses

1 1.008
2 15.999

Pair Coeffs # lj/cut/tip4p/long/omp

1 0 0
2 0.21084 3.1668

Bond Coeffs # harmonic/omp

1 450 0.9572

Angle Coeffs # harmonic/omp

1 55 104.52

Atoms # full

21 7 1 0.5897 1.3586322454022248 2.4900872724226697 0.8836827598358161 0 0 0
31 11 2 -1.1794 1.5027525837838613 1.2147654519771791 2.193488049130206 0 0 0
32 11 1 0.5897 1.3406598964512089 1.4216661049548645 3.1138840861599504 0 0 0
55 19 2 -1.1794 -0.3117390430422189 4.052054451586807 3.340009637488844 0 0 0
56 19 1 0.5897 -0.977845427797289 3.6919843151079244 2.754299432347551 0 0 0
57 19 1 0.5897 0.4575674388028057 4.172770851862419 2.7833007862462593 0 0 0
121 41 2 -1.1794 -2.4843084317354496 2.7335859686319184 2.151922055488067 1 0 0
122 41 1 0.5897 -2.4804874907800967 2.262975833402508 1.3183876182830252 1 0 0
46 16 2 -1.1794 2.152549228038648 4.7042107018161206 2.1796854892889828 0 0 0
123 41 1 0.5897 -3.4119772545864047 2.850432570229697 2.3572507395498414 1 0 0
86 29 1 0.5897 -1.8792695895722689 1.5481019773757976 3.5128471043529212 1 0 0
158 53 1 0.5897 -4.339567465167206 4.186236103030649 4.480419855920702 1 0 0
71 24 1 0.5897 3.2173657756767797 0.49784954697796513 1.983273904223208 0 0 0
482 161 1 0.5897 -1.0544891289896992 0.11083052460220758 0.8217982900489496 1 1 0
33 11 1 0.5897 0.7532125411475068 0.6797014708576299 1.9321545462226437 0 0 0
16 6 2 -1.1794 5.672618095861148 4.60977256346863 -0.09969288291189497 0 0 0
52 18 2 -1.1794 3.84572800627489 2.9220823283467077 3.1848969768831736 0 0 0
85 29 2 -1.1794 -1.7285377853061408 1.1586322485933405 4.374170171290294 1 0 0
72 24 1 0.5897 4.680965019717852 0.11028935424554501 1.9753961315561188 0 0 0
602 201 1 0.5897 -0.8957801111703416 5.298725157193155 0.2618534524806838 1 0 1
47 16 1 0.5897 2.124517056494354 5.268209080605951 1.4067675025342015 0 0 0
70 24 2 -1.1794 3.96423206986175 0.37290968397538965 1.3977024475390307 0 0 0
54 18 1 0.5897 3.1775636962463913 3.4516156612762012 2.749602543109665 0 0 0
78 26 1 0.5897 0.5626691390047842 2.7614012118740794 4.240718595470815 0 0 0
527 176 1 0.5897 3.881049697523392 1.8028885622994244 0.18309069622333596 0 0 1
48 16 1 0.5897 2.3293336516520275 5.301631148239044 2.90641517297369 0 0 0
76 26 2 -1.1794 1.1530814001853393 2.154617066068628 4.687463404093521 0 0 0
87 29 1 0.5897 -2.579148290522692 0.799884086900927 4.627455095488109 1 0 0
19 7 2 -1.1794 1.2061017285956916 2.853420787945414 0.011329181013721101 0 0 0
101 34 1 0.5897 -2.807612493786276 4.558440804194979 0.25984137694823245 1 0 0
53 18 1 0.5897 4.326141078526476 2.5059651834940055 2.46913235708905 0 0 0
5 2 1 0.5897 3.381551762758466 0.2760128377307732 4.733179676559006 0 0 0
6 2 1 0.5897 3.7716083984803817 1.655158801768294 4.2454374767982905 0 0 0
603 201 1 0.5897 -0.10218094421111923 4.063601437335911 -0.10796916301377027 1 0 1
134 45 1 0.5897 -1.9449852852060106 2.4094849451644302 5.707328835530172 1 0 0
135 45 1 0.5897 -1.3840039586550734 3.548035269426991 6.532637766054231 1 0 0
43 15 2 -1.1794 0.013160831005652351 4.707422940888154 7.0260965926663195 0 0 0
34 12 2 -1.1794 0.10476137393543983 1.033907758666648 6.8982559437661335 0 0 0
35 12 1 0.5897 0.18685122706432367 1.7501225011248986 7.528006330141712 0 0 0
36 12 1 0.5897 -0.7456798873606716 0.6397454181001344 7.092510288083866 0 0 0
124 42 2 -1.1794 -4.75567277747178 2.4438182072175665 7.171324798600657 1 0 0
98 33 1 0.5897 -3.9399127446159965 4.696245303470085 8.78737483771579 1 0 0
401 134 1 0.5897 2.883068668946934 0.2283966270202682 8.315059560357643 0 1 0
58 20 2 -1.1794 2.5895377351562594 4.042653558096978 6.220494483328474 0 0 0
59 20 1 0.5897 2.2399653999047695 3.325223151689599 5.691910714940863 0 0 0
67 23 2 -1.1794 -2.318752165022078 0.12360731783574658 7.964096026686002 0 0 0
60 20 1 0.5897 3.3572788783526804 3.6695749503385846 6.653854013330865 0 0 0
126 42 1 0.5897 -3.8961179243483732 2.8019568631551732 6.949381117430637 1 0 0
45 15 1 0.5897 0.9009598864227222 4.365499728586613 6.919759783614243 0 0 0
133 45 2 -1.1794 -2.1966814410235607 3.0786365378130482 6.3438378473054815 1 0 0
69 23 1 0.5897 -2.6601479054250246 0.8348402416036101 8.506155785407476 0 0 0
88 30 2 -1.1794 -4.587472614859092 0.776449490384818 5.016656542851606 1 0 0
22 8 2 -1.1794 0.4241100350978604 2.663097404728995 9.320168104595933 0 0 0
125 42 1 0.5897 -5.364960757266021 3.1640990729187157 7.009254284770079 1 0 0
669 223 1 0.5897 -5.1434405398902685 1.6138153234943273 8.556822133794798 1 0 0
77 26 1 0.5897 0.5885689493691753 1.6706708191261528 5.290311287396437 0 0 0
159 53 1 0.5897 -3.0668950333659466 4.25965293078605 5.297321388514793 1 0 0
44 15 1 0.5897 -0.08698567785110223 4.825383886467731 7.97071458611083 0 0 0
525 175 1 0.5897 -1.4580835957277576 2.566350926253995 9.480712074976728 0 0 0
402 134 1 0.5897 1.8803242407858303 -0.07255701000481109 7.221333763318133 0 1 0
522 174 1 0.5897 1.8069015358138625 5.112703341240318 9.094878018659323 0 0 0
90 30 1 0.5897 -4.617779234807918 1.2743970684642014 5.833599201971056 1 0 0
606 202 1 0.5897 -6.109141707651777 4.429187382345877 9.524889960283062 1 0 0
24 8 1 0.5897 1.1614951556945492 3.269296605785804 9.392192650276613 0 0 0
157 53 2 -1.1794 -3.716242545871311 4.8078158424281465 4.856579648084549 1 0 0
4 2 2 -1.1794 3.9374479846956696 1.0254268697669828 4.947023723022998 0 0 0
520 174 2 -1.1794 2.4052250665617354 4.559413203730037 9.597122596889076 0 0 0
667 223 2 -1.1794 -5.399164767590852 1.0412804388255568 9.28005949341451 1 0 0
574 192 2 -1.1794 0.700138041345066 0.4974587314044032 11.091623897201888 0 0 0
556 186 2 -1.1794 0.46577617747611644 3.3731499702907906 13.046850301762623 0 0 0
560 187 1 0.5897 -4.896021457461574 3.676876932554397 12.655764467760177 0 0 0
587 196 1 0.5897 -1.1677994824003135 5.41946140203876 10.293129178597187 0 0 0
986 329 1 0.5897 -4.374691236588335 -0.20216683850701134 10.099141841835253 1 1 0
557 186 1 0.5897 0.15525203272880272 2.5724706749258357 13.469681669512802 0 0 0
524 175 1 0.5897 -2.809806981978754 3.0995855226473954 9.905879219290275 0 0 0
550 184 2 -1.1794 -1.5052328708110299 4.743264624836863 12.004139217352346 0 0 0
535 179 2 -1.1794 -1.9820233230789244 0.8172796038589458 12.035927221570612 0 0 0
536 179 1 0.5897 -1.988290908908077 1.4527592375002554 12.75173247072332 0 0 0
537 179 1 0.5897 -1.9662370702425975 1.3509119122610114 11.241407196477944 0 0 0
987 329 1 0.5897 -3.4496274676151075 -0.19311042100643155 11.29764449539364 1 1 0
625 209 2 -1.1794 -6.00027737454689 2.3619302877389643 11.817624085377762 1 0 0
668 223 1 0.5897 -5.630224797481008 1.6402148664815577 9.990087991552747 1 0 0
627 209 1 0.5897 -6.94790960030762 2.228771655590655 11.791183458822722 1 0 0
552 184 1 0.5897 -2.3746094894148264 4.360687088023971 12.123444463266289 0 0 0
558 186 1 0.5897 -0.32083831665999973 3.76419078828979 12.666401447284418 0 0 0
559 187 2 -1.1794 -4.0901852928624685 3.9551461587191827 13.09122693533392 0 0 0
576 192 1 0.5897 0.1389144385417378 0.3755636575195351 11.857403713242391 0 0 0
663 221 1 0.5897 -6.608437410863264 5.112997499050157 13.69217282079579 1 0 0
626 209 1 0.5897 -5.699450489309969 1.8043061847722364 12.535151504091552 1 0 0
561 187 1 0.5897 -3.8671034010622076 3.2271002997759104 13.671302880575896 0 0 0
99 33 1 0.5897 -4.080912189554513 5.250146391621762 10.189248257038017 1 0 0
523 175 2 -1.1794 -2.3462921333296936 2.28698089958922 9.703055783566407 0 0 0
551 184 1 0.5897 -1.381891009091488 5.302770492625657 12.770969775286813 0 0 0
575 192 1 0.5897 1.56221193560779 0.1925199433616363 11.374853885789417 0 0 0
662 221 1 0.5897 -7.330848216747248 3.782495899974225 13.69871059229626 1 0 0
589 197 2 -1.1794 -5.376420668521254 0.585649944848379 14.324503327301946 1 0 0
591 197 1 0.5897 -4.743195785374262 -0.11536996154916826 14.479150576499489 1 0 0
580 194 2 -1.1794 -2.1315028483882426 2.2048655704037734 14.3387184500293 0 0 0
661 221 2 -1.1794 -6.837151193208236 4.37861828305683 14.261963497401132 1 0 0
97 33 2 -1.1794 -4.201929051854433 4.451902755737789 9.6749888671934 1 0 0
23 8 1 0.5897 0.5986646742742936 1.993298840951598 9.981379661886654 0 0 0
590 197 1 0.5897 -5.3120081748794465 1.1426447894725629 15.100318123647565 1 0 0
571 191 2 -1.1794 -5.307671093984167 0.1783819189950654 17.91113239552542 0 0 0
528 176 1 0.5897 -3.4448616391910614 2.770140499937781 19.056095378558027 0 0 0
628 210 2 -1.1794 -8.14084127735818 2.213874644045823 16.5298668729176 1 0 0
582 194 1 0.5897 -1.7520985319376923 2.885787605500557 14.894351999820246 0 0 0
163 55 2 -1.1794 -8.771076967110655 1.2468979457032625 19.049899808604877 1 0 -1
639 213 1 0.5897 -5.729564199294082 3.442399076321457 15.360887375271055 1 0 0
563 188 1 0.5897 -0.7549886563607489 4.663129645387555 15.661510070000887 0 0 0
538 180 2 -1.1794 -2.850107003255257 0.8223590444603279 16.543895102901132 0 0 0
539 180 1 0.5897 -2.5796763762205854 1.4704926114306414 17.194362270408497 0 0 0
164 55 1 0.5897 -8.722342899180276 1.7596684108641125 18.243079114285564 1 0 -1
540 180 1 0.5897 -3.7278299447183514 0.5575604755804222 16.819345440308062 0 0 0
638 213 1 0.5897 -6.129592643946597 2.5958440970147216 16.550555227729376 1 0 0
549 183 1 0.5897 -4.075425390328418 3.8391292462708106 16.798656659050167 0 0 0
562 188 2 -1.1794 -0.9575508796609338 3.86184214791215 16.144392523708824 0 0 0
547 183 2 -1.1794 -3.4816771403109694 4.559953240632963 17.008925173921 0 0 0
564 188 1 0.5897 -1.8091949628312758 4.03282754233191 16.546653318550426 0 0 0
637 213 2 -1.1794 -5.379266386890116 2.8231520633774343 16.0013101559747 1 0 0
572 191 1 0.5897 -6.096865136467638 -0.12138944071338817 17.4597771481793 0 0 0
601 201 2 -1.1794 -7.4948934355508126 4.33503022685041 19.0914383784257 1 0 0
581 194 1 0.5897 -2.467994925652812 1.5530789757776269 14.95371601125987 0 0 0
20 7 1 0.5897 -5.3362896493205785 1.8625958042966908 18.878901422085328 0 0 -1
526 176 2 -1.1794 -2.626399721817962 2.2754038453174736 19.014892689530114 0 0 0
630 210 1 0.5897 -8.183811051915804 1.7088473886028523 15.717847519953038 1 0 0
165 55 1 0.5897 -9.373450411546772 0.5320110313851831 18.843906086317872 1 0 -1
548 183 1 0.5897 -3.671680567171993 5.227421876195771 16.349622325871692 0 0 0
614 205 1 0.5897 -7.542524688793866 5.279895112148798 17.527461558331993 1 0 0
18 6 1 0.5897 -1.4230072310068262 3.5641204609465706 19.132737710220837 0 0 -1
508 170 2 -1.1794 0.49660752550908516 0.7255055205468482 14.536880886619928 0 0 0
593 198 1 0.5897 -7.61464991202262 -0.03518765818887368 14.549125078149011 1 0 0
289 97 2 -1.1794 -2.852012158203468 10.165438877930713 2.5639038955286138 1 0 0
332 111 1 0.5897 -2.151919874558372 9.48312237474924 0.9208497172263996 1 0 0
255 85 1 0.5897 -2.2922880560382097 8.600089552727379 3.951989369001767 1 0 0
146 49 1 0.5897 -1.6376561173746138 6.416901163343443 2.0118613781534895 1 0 0
112 38 2 -1.1794 -3.414439177194538 6.397770895124523 2.6479400746965016 1 0 0
147 49 1 0.5897 -1.0809453006110017 7.551076120537223 1.1777453831933178 1 0 0
145 49 2 -1.1794 -0.8922063708924712 6.656456351328213 1.4611911378725837 1 0 0
291 97 1 0.5897 -3.6854471709739074 10.555396567434746 2.8278823011454643 1 0 0
113 38 1 0.5897 -3.563874163304999 5.966291894797809 3.489217452325852 1 0 0
239 80 1 0.5897 3.8041352355316373 8.595963615294997 1.2335519551608607 0 0 0
696 232 1 0.5897 4.059807889884584 10.888850801945237 -0.004079559999026552 0 0 1
221 74 1 0.5897 4.493143960658163 10.573924066918282 2.6437816930327247 0 0 0
200 67 1 0.5897 0.4833339440862856 7.6470014529399855 2.350296174971619 0 0 0
188 63 1 0.5897 0.7470706983400275 9.49576488780192 1.227788918870981 0 0 0
245 82 1 0.5897 1.184262701986043 8.992309214898132 4.279514756333008 0 0 0
199 67 2 -1.1794 1.0816654198443176 8.343814692319263 2.620111418390597 0 0 0
240 80 1 0.5897 3.4415851969324027 7.152875937812951 0.9542389941597265 0 0 0
220 74 2 -1.1794 3.748365478220572 10.470330030389505 3.236107275868432 0 0 0
9 3 1 0.5897 -0.5692971606494206 5.738097616625649 4.0272914099674395 0 0 0
238 80 2 -1.1794 3.6155407168525393 7.764882794787316 1.6694026906051391 0 0 0
114 38 1 0.5897 -3.655918579124777 5.740734962062185 1.995021070854016 1 0 0
201 67 1 0.5897 1.9550210686425311 7.982769306171091 2.467556416208757 0 0 0
694 232 2 -1.1794 3.520099602024785 10.100432003192958 -0.06263035193820639 0 0 1
187 63 2 -1.1794 0.7961734630342994 10.074528825345427 0.46694779090235394 0 0 0
290 97 1 0.5897 -2.187232841666513 10.747108625451734 2.932856336384311 1 0 0
174 58 1 0.5897 3.522304815976783 9.072768324079549 4.492132708576839 0 0 0
189 63 1 0.5897 1.721216005245787 10.313376013213844 0.4064450847160094 0 0 0
224 75 1 0.5897 -0.06593615668104436 10.69640242725544 4.188931531432662 0 0 0
10 4 2 -1.1794 2.380366750995151 6.319917703592186 4.476722794655822 0 0 0
331 111 2 -1.1794 -1.8931125495542958 8.924764841526917 0.18769544601189891 1 0 0
12 4 1 0.5897 1.4500833103004425 6.467398907650553 4.647705472748783 0 0 0
222 74 1 0.5897 3.032415135365187 10.9377906383155 2.8056472269631794 0 0 0
223 75 2 -1.1794 -0.6445577760775638 11.228009627451923 3.642170211557963 0 0 0
82 28 2 -1.1794 2.383229410287475 6.1869299391024715 -0.09967227748064587 0 0 0
191 64 1 0.5897 0.3043380488013594 9.593819842652021 9.275869309486252 0 0 0
110 37 1 0.5897 -4.213598096491323 5.703371640349854 6.354104767040869 1 0 0
246 82 1 0.5897 0.7404352151287878 9.095479980858853 5.723224701026311 0 0 0
7 3 2 -1.1794 -0.5163603722075791 6.330402564858778 4.777394667134157 0 0 0
293 98 1 0.5897 -4.1414637877615 10.078140882620707 7.142360568539919 1 0 0
8 3 1 0.5897 -0.32521866930761867 5.7590920577592 5.521279675375903 0 0 0
588 196 1 0.5897 -1.2935889321961205 6.31106420840437 9.076060153368 0 0 0
244 82 2 -1.1794 1.0830502587890125 9.61722328908655 4.997503788629844 0 0 0
173 58 1 0.5897 3.4465800761513687 7.614877066047561 4.893139665710082 0 0 0
294 98 1 0.5897 -5.287679439832924 9.650216765876785 8.034080776814175 1 0 0
292 98 2 -1.1794 -5.0958791898876425 10.102501119677468 7.212559677584905 1 0 0
65 22 1 0.5897 2.431374991066477 7.3220124754369245 8.838894693918945 0 0 0
64 22 2 -1.1794 2.142301879160888 6.842162130478948 8.062692336648114 0 0 0
202 68 2 -1.1794 0.21306152981223114 8.853484882590491 7.633134240177404 0 0 0
203 68 1 0.5897 -0.6870341560751227 8.565863459418615 7.7864779755954565 0 0 0
204 68 1 0.5897 0.7433995890825695 8.069740381941312 7.777465843922902 0 0 0
257 86 1 0.5897 -4.3705447226740635 8.476794235721522 4.905152802835863 1 0 0
235 79 2 -1.1794 -2.2016366921221606 7.763060445433304 8.189723219231572 0 0 0
236 79 1 0.5897 -2.893302928690974 7.22540702820893 7.803809068707464 0 0 0
237 79 1 0.5897 -2.657801776028573 8.332055951503058 8.809747479898752 0 0 0
302 101 1 0.5897 -2.052639880509316 9.739514391785876 6.14988134010424 1 0 0
111 37 1 0.5897 -5.018269176973009 6.32307614035079 7.4768093463003575 1 0 0
303 101 1 0.5897 -1.4892946569610146 10.96422813505515 6.838987470450663 1 0 0
109 37 2 -1.1794 -4.136180228402326 6.027136065031857 7.251577217255945 1 0 0
301 101 2 -1.1794 -2.290754658211012 10.618004030149264 6.446270001350105 1 0 0
228 76 1 0.5897 1.8402003168286676 11.019959258939906 5.885843253984214 0 0 0
172 58 2 -1.1794 3.9363608223878854 8.420740133270733 5.057570485010154 0 0 0
66 22 1 0.5897 2.9531767236380215 6.561993252157747 7.638062641887548 0 0 0
586 196 2 -1.1794 -0.7045021962832569 5.686275109620991 9.499130428877445 0 0 0
253 85 2 -1.1794 -2.3968757586586475 8.264055731764595 4.842155555257983 1 0 0
254 85 1 0.5897 -1.7471244405305004 7.564613977799056 4.912563076616176 1 0 0
11 4 1 0.5897 2.60979552792715 5.571023935373704 5.027019749296501 0 0 0
759 253 1 0.5897 -5.808184082161702 8.682129092482239 13.812828580174628 1 0 0
678 226 1 0.5897 0.4455537906512639 8.97937987184483 13.95202826412949 0 0 0
794 265 1 0.5897 -5.516216517033534 10.495186340377442 12.37871516096536 1 0 0
616 206 2 -1.1794 -6.684518475944003 6.144629232144689 12.044990514773906 1 0 0
742 248 2 -1.1794 0.11531596475943662 7.504234139209315 11.42643203727207 0 0 0
724 242 2 -1.1794 0.5656804200727361 10.532204275825626 13.17736618307766 0 0 0
618 206 1 0.5897 -6.727585618145474 5.720651742969203 11.187867949184007 1 0 0
693 231 1 0.5897 -2.7762563452028632 9.261679065635061 11.16184585805328 0 0 0
649 217 2 -1.1794 -4.1884177408938275 6.905407370698838 10.86784042630387 1 0 0
650 217 1 0.5897 -3.6065729354538103 7.17845035114208 11.577267273326127 1 0 0
651 217 1 0.5897 -4.980663504479984 6.601172362715541 11.310722023593435 1 0 0
795 265 1 0.5897 -6.364259718420103 9.726935264557573 11.387321010802419 1 0 0
744 248 1 0.5897 -0.2596502871970059 7.0366816178824525 10.680027291588528 0 0 0
793 265 2 -1.1794 -6.2738109325153335 9.91274678148461 12.321967709761587 1 0 0
725 242 1 0.5897 0.7949156898971879 11.10735965438645 13.907388199728377 0 0 0
617 206 1 0.5897 -7.159725365622624 6.9675787731043455 11.929797687493082 1 0 0
703 235 2 -1.1794 -2.2990557521610793 7.909386944332111 12.78763314860119 0 0 0
704 235 1 0.5897 -1.369414363973731 7.82468362454924 12.575605390964064 0 0 0
705 235 1 0.5897 -2.3373964260178433 8.632277975105822 13.4138660325802 0 0 0
743 248 1 0.5897 0.20812721143568824 8.407039965852492 11.12209176987661 0 0 0
750 250 1 0.5897 -3.389738611781544 10.107124225777039 14.28290324229597 0 0 0
513 171 1 0.5897 -4.190027902044463 5.616724546730764 14.06057466171843 0 0 0
836 279 1 0.5897 -5.316254155672594 8.212224627432363 10.179911802330498 1 0 0
726 242 1 0.5897 -0.09082617289703965 11.022485943046195 12.682441648909005 0 0 0
192 64 1 0.5897 0.937957306089352 10.511197152998363 10.300100707014918 0 0 0
190 64 2 -1.1794 0.2728565976620567 9.829578265624875 10.203045108265998 0 0 0
266 89 1 0.5897 -3.4957380580299646 11.152442223585641 10.05970286892851 1 0 0
692 231 1 0.5897 -1.7226665092592754 9.696783255737998 10.165495185758731 0 0 0
691 231 2 -1.1794 -2.668134960585485 9.587478002690395 10.26830312140136 0 0 0
835 279 2 -1.1794 -5.99608927841321 8.7204808975991 9.737312678812462 1 0 0
534 178 1 0.5897 1.4695460551248472 6.610877201710852 12.073477185727304 0 0 0
514 172 2 -1.1794 -0.9792744565888052 6.004325710801433 14.477878600584985 0 0 0
515 172 1 0.5897 -1.86474698034971 6.314627853017075 14.28794339699239 0 0 0
516 172 1 0.5897 -0.44013342089304164 6.7952466981101685 14.4665483336888 0 0 0
511 171 2 -1.1794 -3.913493343509505 6.135314329639666 14.816137349025643 0 0 0
695 232 1 0.5897 -2.8659414118730275 9.464466930271861 18.556616973246356 0 0 0
741 247 1 0.5897 -5.998604625466036 8.477315178302062 18.52420939967096 0 0 0
333 111 1 0.5897 -7.994387122932237 9.252570501344776 19.083747820169478 1 0 -1
740 247 1 0.5897 -6.564811966099391 7.445210853969008 17.572207496549716 0 0 0
762 254 1 0.5897 -7.472870465505409 8.114594940472982 15.226673976849362 1 0 0
568 190 2 -1.1794 -1.1929866123340647 6.793747380344711 18.01711160839959 0 0 0
615 205 1 0.5897 -7.309082365505903 5.518790403115119 16.050851168362378 1 0 0
797 266 1 0.5897 -6.958985352491782 10.3378965172271 16.973643245381496 1 0 0
805 269 2 -1.1794 -5.4546572707480525 10.596480611744342 16.021881496796404 1 0 0
749 250 1 0.5897 -2.8868386605245924 9.300964863561953 15.461596668110207 0 0 0
613 205 2 -1.1794 -7.624564127128091 5.947516707835782 16.846409885544787 1 0 0
748 250 2 -1.1794 -2.5938207486377864 9.729224144465 14.65723638780812 0 0 0
83 28 1 0.5897 -4.886755474233976 6.563693090815267 19.0111015636937 0 0 -1
796 266 2 -1.1794 -7.769157678476807 10.126173848179288 17.43747177769845 1 0 0
706 236 2 -1.1794 -2.9926198272579843 8.48771525479991 17.1374392860738 0 0 0
707 236 1 0.5897 -3.8653914085647108 8.113597330063293 17.258689704122382 0 0 0
708 236 1 0.5897 -2.3931025877844965 7.782810528585606 17.382478713088773 0 0 0
739 247 2 -1.1794 -5.743581939717213 7.857129868391986 17.84113006148379 0 0 0
758 253 1 0.5897 -5.6360121942105 8.91664944934287 15.298547286880318 1 0 0
569 190 1 0.5897 -1.3233101481595684 5.932611543151827 18.414278761015126 0 0 0
676 226 2 -1.1794 0.4793205687903441 8.267887325310891 14.591500104540748 0 0 0
570 190 1 0.5897 -0.37524919369978615 6.710473959380846 17.526495080624713 0 0 0
798 266 1 0.5897 -8.16768752882355 9.427810451039573 16.9180594786433 1 0 0
807 269 1 0.5897 -4.850045437879023 11.049487690281937 16.609769799418707 1 0 0
84 28 1 0.5897 -3.9817471878324477 5.421492830799863 18.60067310626131 0 0 -1
760 254 2 -1.1794 -8.302446530997225 8.583201224213282 15.319409851752843 1 0 0
512 171 1 0.5897 -4.498895653172417 6.892697022701859 14.81454730687332 0 0 0
757 253 2 -1.1794 -5.72128249793543 8.220634196347017 14.646947228664974 1 0 0
281 94 1 0.5897 -3.5436777815300053 13.835783002711327 3.237429322524047 1 0 0
280 94 2 -1.1794 -3.3159394794529122 14.156677775069108 2.3648659482489394 1 0 0
282 94 1 0.5897 -2.507755526379418 14.652976219906364 2.4950238897319963 1 0 0
216 72 1 0.5897 0.8912655980402571 11.908222940515424 2.706001218639526 0 0 0
250 84 2 -1.1794 2.4542708263782735 14.065151751553943 0.40055325430704736 0 0 0
369 123 1 0.5897 1.074522227770622 16.596913081232444 3.6214247949318614 0 0 0
215 72 1 0.5897 1.6287983110593887 12.908216482164415 1.8410589991526887 0 0 0
407 136 1 0.5897 4.652684843828402 15.39611851826736 2.282643372107869 0 0 0
313 105 2 -1.1794 -0.7922287187943198 14.983387580194456 1.303042454785787 1 0 0
315 105 1 0.5897 -0.6360133445536484 14.076217687247945 1.0404808639291558 1 0 0
225 75 1 0.5897 -0.6158523633437434 12.098913568347909 4.03840572579678 0 0 0
499 167 2 -1.1794 -2.356883647968777 16.85034489752933 -0.022642453882033328 1 0 0
314 105 1 0.5897 -0.019690730682331292 15.221203908512619 1.8159249238906303 1 0 0
423 141 1 0.5897 -2.3965273796164275 16.70471069768381 3.764286924654216 1 0 0
500 167 1 0.5897 -1.804726785801786 16.163076162637275 0.35033544969963687 1 0 0
408 136 1 0.5897 3.899301115140057 16.426296677438305 1.4681989712696961 0 0 0
252 84 1 0.5897 2.95424728186999 14.675046845479953 0.9431472709689095 0 0 0
367 123 2 -1.1794 1.2571026821277709 16.144110731560374 2.798087421997457 0 0 0
214 72 2 -1.1794 1.7460976452572288 12.323058170778946 2.5894695067909987 0 0 0
368 123 1 0.5897 2.1442289332613598 15.800522726715245 2.9047679981651333 0 0 0
406 136 2 -1.1794 3.7687614626175208 15.70599241970631 2.084962859975437 0 0 0
180 60 1 0.5897 2.2425638612102574 13.45957245096597 3.9571170761482124 0 0 0
251 84 1 0.5897 1.8173342115376991 14.615768416518671 -0.0549832898460119 0 0 0
184 62 2 -1.1794 5.136616953927495 12.442707951864897 0.4330344747794901 0 0 0
269 90 1 0.5897 -3.276191265817435 13.090163405916872 0.9182148224748228 1 0 0
421 141 2 -1.1794 -2.0891297787039695 16.32803103845023 4.588854965434253 1 0 0
770 257 1 0.5897 -1.376879408068648 12.367260929337041 0.08480363211445688 1 0 1
769 257 2 -1.1794 -0.44907954190764343 12.596530561464782 0.14012489982350462 1 0 1
771 257 1 0.5897 -0.0036050527016198153 11.761478106262743 0.2835466870423616 1 0 1
177 59 1 0.5897 0.33110282983230155 13.971545225078447 4.665668529960758 0 0 0
404 135 1 0.5897 -1.5180152932260982 15.762996827676252 7.587210022944651 0 0 0
326 109 1 0.5897 -3.0385718315073946 12.371800998193978 5.422965296899163 1 0 0
227 76 1 0.5897 1.1657687582976557 11.865521965081737 6.9451616888934895 0 0 0
370 124 2 -1.1794 0.1991751225490055 16.117101263131584 7.125983694888334 0 0 0
340 114 2 -1.1794 3.5317228341004956 16.170506468658118 5.208175733513264 0 0 0
211 71 2 -1.1794 -0.49422083901453817 12.21727853624584 7.341670725195139 0 0 0
756 252 1 0.5897 -1.9375359604603615 14.32532654671322 9.063292231015941 0 0 0
213 71 1 0.5897 -0.5676687328278307 12.86711922377957 6.642668385715166 0 0 0
212 71 1 0.5897 -0.6733784446203241 12.706990472848723 8.144378607608115 0 0 0
176 59 1 0.5897 -0.9694257536762962 14.711552042551657 4.896473958017578 0 0 0
232 78 2 -1.1794 1.8465112704404607 14.258094716475311 8.209896969856343 0 0 0
327 109 1 0.5897 -4.070445469783311 13.46374698068559 5.610223274723018 1 0 0
234 78 1 0.5897 1.305245964103018 14.938218454315516 7.808882644645135 0 0 0
325 109 2 -1.1794 -3.5975844116813755 12.976801600926894 4.935274848551424 1 0 0
175 59 2 -1.1794 -0.5691250115871318 13.844770195839924 4.965497221556339 0 0 0
277 93 2 -1.1794 -4.076253005923485 13.771573237768573 7.603084958499823 1 0 0
278 93 1 0.5897 -3.596390845228283 14.598728232099841 7.559856074378281 1 0 0
371 124 1 0.5897 0.3600303764181745 16.668287547860917 7.89188999388681 0 0 0
279 93 1 0.5897 -4.980145425116037 14.027740386446418 7.786795904381509 1 0 0
403 135 2 -1.1794 -2.3455839702127705 15.8027252803132 8.066662551689499 0 0 0
405 135 1 0.5897 -2.159190162839185 16.36168551224146 8.821055798212814 0 0 0
267 89 1 0.5897 -3.561174988603535 12.268518275416703 9.038877000707826 1 0 0
226 76 2 -1.1794 2.009226455951776 11.71993662158867 6.516516952907067 0 0 0
179 60 1 0.5897 2.1822204387648565 13.181432030751951 5.4440446323204315 0 0 0
341 114 1 0.5897 3.1475312313247024 15.355423114401388 4.885122023482167 0 0 0
424 142 2 -1.1794 -4.760234007769528 15.84447574198423 4.991148545840652 1 0 0
233 78 1 0.5897 2.563854225684846 14.12566197611117 7.59007572785993 0 0 0
425 142 1 0.5897 -3.827058679714038 15.950478783312672 4.80579709130274 1 0 0
178 60 2 -1.1794 2.223036072222717 13.896243818233296 4.80870484547759 0 0 0
754 252 2 -1.1794 -1.4307749428221723 13.628007771887857 9.479554591995802 0 0 0
1004 335 1 0.5897 -4.87977615674176 16.659591933055303 9.066720758001798 1 0 0
462 154 1 0.5897 -4.7208937079382585 16.856726827376253 6.4987095584054035 1 0 0
372 124 1 0.5897 0.5500936251900526 16.61964453369372 6.3907430281718165 0 0 0
690 230 1 0.5897 1.575109974403011 12.931979670098025 9.281594101447302 0 0 0
755 252 1 0.5897 -0.7093709916766233 14.082511830630352 9.91476890282213 0 0 0
688 230 2 -1.1794 1.6649797886229374 12.268761924621643 9.965941161557836 0 0 0
727 243 2 -1.1794 -3.943275582172894 11.44540208821336 12.931415599190913 0 0 0
718 240 2 -1.1794 -1.3605163150857944 12.119541351186495 12.021727436982216 0 0 0
784 262 2 -1.1794 -6.259196466544706 13.901161311242529 12.241574111449962 1 0 0
720 240 1 0.5897 -1.2452226051323807 12.683103059452078 12.78683252883487 0 0 0
912 304 1 0.5897 0.7865519806348966 14.940055836556324 11.391654443005605 0 0 0
962 321 1 0.5897 -5.793340044608185 16.80766361206485 12.986504015234397 1 0 0
719 240 1 0.5897 -1.564502919511439 12.723312131903135 11.307486277367389 0 0 0
926 309 1 0.5897 -4.993011316552605 15.028181936397027 14.465323501337872 1 0 0
729 243 1 0.5897 -4.1010492406131345 12.219859929595533 13.471419029923975 0 0 0
911 304 1 0.5897 -0.47181263323880573 15.769256538355599 11.245862062296812 0 0 0
910 304 2 -1.1794 0.2589801854682219 15.407869087118831 10.744213088676464 0 0 0
728 243 1 0.5897 -3.1714248307811603 11.668807752081642 12.411154427579943 0 0 0
773 258 1 0.5897 -6.67069520783096 12.863908364018362 10.845084943746068 1 0 0
689 230 1 0.5897 2.4622045440422156 11.791898373570652 9.73488661337383 0 0 0
786 262 1 0.5897 -6.428413626281967 13.572541399782441 13.12453823744876 1 0 0
817 273 2 -1.1794 -3.739276319899195 14.231990631903994 11.15091340310731 1 0 0
818 273 1 0.5897 -4.455772522849008 13.915645373852557 11.701245705537156 1 0 0
819 273 1 0.5897 -3.597355300729222 13.53062319165869 10.515149151200324 1 0 0
873 291 1 0.5897 -2.758467041399986 15.343513941967274 11.941195134356095 0 0 0
871 291 2 -1.1794 -2.072282617020626 15.958525316753281 12.200634162042471 0 0 0
872 291 1 0.5897 -2.07827678006777 16.62752586581778 11.516032561751704 0 0 0
1005 335 1 0.5897 -4.485489598833055 15.734372115997243 10.198356245822147 1 0 0
1003 335 2 -1.1794 -5.233031619506819 16.207887971788242 9.833166353688075 1 0 0
682 228 2 -1.1794 -1.1909185977666201 13.701651639474493 14.089299821283806 0 0 0
917 306 1 0.5897 -2.3276138765537455 16.580812750905036 13.870021463246694 0 0 0
701 234 1 0.5897 1.8929703888344314 13.281119106430403 11.438513121908256 0 0 0
265 89 2 -1.1794 -3.9872352209929245 11.941433539468349 9.831176938636018 1 0 0
785 262 1 0.5897 -6.889901865715343 14.611782258698085 12.124981317354253 1 0 0
684 228 1 0.5897 -0.7626542115745956 14.506484072677571 14.381114201310519 0 0 0
774 258 1 0.5897 -5.795266962914793 12.118092438878218 9.860501846355776 1 0 0
846 282 1 0.5897 0.14787371930860882 16.58959224775236 14.445963571201467 0 0 0
680 227 1 0.5897 -2.9468609458071198 13.762096473657772 14.388193350047944 0 0 0
730 244 2 -1.1794 -1.4363693537550892 11.782273027165562 16.122903212550533 0 0 0
844 282 2 -1.1794 0.2809825590982564 15.834973971317641 15.019657618929742 0 0 0
717 239 1 0.5897 -3.0314474638993536 12.46745986351754 17.127870275234365 0 0 0
930 310 1 0.5897 -7.340626315147265 15.692740257976357 14.763622214630304 1 0 0
875 292 1 0.5897 -3.0584022037566596 16.393352149856653 16.26893269573889 0 0 0
681 227 1 0.5897 -3.889708711056823 13.493658456752328 15.541885739603572 0 0 0
731 244 1 0.5897 -1.71276205743618 11.101269424577582 15.50958647128332 0 0 0
927 309 1 0.5897 -5.126410251662103 16.446218003095904 14.978564394826092 1 0 0
715 239 2 -1.1794 -3.9516843274616944 12.641965484390003 17.32560643693926 0 0 0
716 239 1 0.5897 -3.938007379779479 13.048055700005735 18.192299327043592 0 0 0
874 292 2 -1.1794 -3.1696391562877073 15.966236274919872 17.118317048222764 0 0 0
907 303 2 -1.1794 -5.6664126626931255 15.409736952766295 18.130244214827457 0 0 0
806 269 1 0.5897 -5.815582598081535 11.289148415025222 15.468468359932865 1 0 0
876 292 1 0.5897 -2.3831226110884796 15.430567011495102 17.222445441668548 0 0 0
683 228 1 0.5897 -0.9582875598706231 13.051981678309152 14.752657511840734 0 0 0