LAMMPS data file via write_data, version 30 Jul 2021, timestep = 8000000

864 atoms
2 atom types
576 bonds
1 bond types
288 angles
1 angle types

0.3789425676753737 17.82862983231808 xlo xhi
1.5378755605746264 22.091302239429755 ylo yhi
0.4623090474586089 21.75088675254694 zlo zhi

Masses

1 1.00794
2 15.9994

Pair Coeffs # lj/cut/tip4p/long/omp

1 0 0
2 0.21084 3.1668

Bond Coeffs # harmonic/omp

1 450 0.9572

Angle Coeffs # harmonic/omp

1 55 104.52

Atoms # full

620 1 1 0.5897 4.678494696063673 3.2140375711240057 3.240139570620426 1 -1 5
302 1 1 0.5897 2.394485936338873 2.81396182353242 3.343979821438783 -2 3 7
642 1 1 0.5897 2.371450138463808 4.8899029097275015 2.4054276036167765 3 2 -4
640 1 2 -1.1794 2.906894014508684 4.100677740100016 2.3234010639722906 3 2 -4
85 1 2 -1.1794 0.8967692060338639 6.243889300595005 3.2066697730275746 -1 5 2
87 1 1 0.5897 0.7164263864099732 6.537520106216276 2.3136094434819765 -1 5 2
401 1 1 0.5897 3.0243821864571014 2.230012750604044 5.374871428750573 -2 -2 2
69 1 1 0.5897 0.8188512576363848 1.944536728846518 5.463496268732841 5 -2 -3
301 1 2 -1.1794 2.095005005929716 2.152934543634657 3.9682198702482614 -2 3 7
641 1 1 0.5897 3.010096327546472 3.9776841113602126 1.3797253546595951 3 2 -4
86 1 1 0.5897 0.39761015363975005 5.432207193278153 3.2978366275914697 -1 5 2
260 1 1 0.5897 4.511491723990363 3.7838962590240626 5.604243501890615 1 -1 6
234 1 1 0.5897 1.8457570818983524 2.8445657522005687 8.780228977791074 -2 2 1
287 1 1 0.5897 2.27530764653436 3.3105667098738962 10.965377667822153 2 1 1
232 1 2 -1.1794 1.6505100820160798 3.435427591532992 8.052865479572212 -2 2 1
412 1 2 -1.1794 3.2296197823602126 5.707354217189014 9.239876351912345 2 -1 2
329 1 1 0.5897 4.495440579480601 6.119492548110518 6.380030514897953 2 5 0
611 1 1 0.5897 4.5267030357639975 2.616934145361464 9.480071843766522 3 4 -1
413 1 1 0.5897 2.8261262989833904 4.936617409677309 8.840559418753992 2 -1 2
400 1 2 -1.1794 3.493220288006048 2.490434344429093 6.167768131204434 -2 -2 2
233 1 1 0.5897 2.2889582323494495 3.204511500379718 7.3780623878852145 -2 2 1
402 1 1 0.5897 3.8151911695108374 1.668147071773081 6.537208753354531 -2 -2 2
560 1 1 0.5897 1.2873233424724342 6.366051854327174 10.418184263924903 6 0 0
286 1 2 -1.1794 3.225936243133673 3.2216884293695065 10.896762683663088 2 1 1
559 1 2 -1.1794 0.5498985452925637 6.278257554856007 11.022166295720451 6 0 0
414 1 1 0.5897 3.6457220521386624 6.165819481304426 8.509832066202577 2 -1 2
468 1 1 0.5897 2.295510816012806 6.198194704696879 12.92989677000267 4 -1 6
274 1 2 -1.1794 1.8225161528824878 3.1023153206986502 14.923173281062047 -1 2 -3
275 1 1 0.5897 2.618633175898324 2.766666370331619 14.51099382831956 -1 2 -3
538 1 2 -1.1794 1.3120257034772318 6.09096359546871 14.515914385711957 1 -3 2
276 1 1 0.5897 1.1168702181874979 2.8383281797556057 14.332659670266274 -1 2 -3
144 1 1 0.5897 3.5510718704212962 2.3596269242924137 12.63044331372053 0 5 2
539 1 1 0.5897 1.6557017304262862 5.215400297268333 14.693604009770787 1 -3 2
597 1 1 0.5897 4.205341210061881 5.461712117203877 13.887153828561184 0 -4 0
622 1 2 -1.1794 0.5340227701681834 3.5420518599387285 11.125150345470798 5 -1 1
466 1 2 -1.1794 3.0591682468788783 5.856252527748353 12.46491295860627 4 -1 6
142 1 2 -1.1794 3.859980751639629 1.9690839711390682 13.447986682686148 0 5 2
540 1 1 0.5897 0.3847455944692784 5.950469772369285 14.324266776329283 1 -3 2
561 1 1 0.5897 0.541322618092141 5.3503574236820555 11.257176263860913 6 0 0
467 1 1 0.5897 3.300692193216726 6.5532976670995176 11.854913043450368 4 -1 6
288 1 1 0.5897 3.5681007343265962 4.0628555558395165 11.199518844349464 2 1 1
850 1 2 -1.1794 0.4225630958634241 1.8844953254468482 17.567734945730415 -5 0 -3
265 1 2 -1.1794 0.6991078768290528 3.383899663758962 20.426685198324513 -3 0 -2
266 1 1 0.5897 1.0836500078211484 3.391770429968855 19.550109676845352 -3 0 -2
824 1 1 0.5897 3.8027518743915523 4.871719148143862 21.01859205157627 -2 3 2
783 1 1 0.5897 1.7490410080333447 4.509924530834926 17.70275630623729 -2 -1 1
47 1 1 0.5897 0.9309184424048799 5.332651280877018 21.14111668633943 2 -2 -2
781 1 2 -1.1794 1.0721306561388082 5.164158532176128 17.876178769654736 -2 -1 1
691 1 2 -1.1794 3.003848508429202 2.977165639658754 18.294237652241016 3 2 3
692 1 1 0.5897 2.365147922822879 2.2860523840736513 18.118910756594808 3 2 3
825 1 1 0.5897 3.459725147972263 3.93923495590238 19.87627893746003 -2 3 2
693 1 1 0.5897 3.5698823647964133 2.9822982003185814 17.52230605244113 3 2 3
823 1 2 -1.1794 3.646685197342765 3.949486701770656 20.81502756863658 -2 3 2
202 1 2 -1.1794 4.289689882126469 6.570354207528404 20.9130634033301 -5 3 1
46 1 2 -1.1794 0.8517770341522486 6.216935767814483 21.498990150954732 2 -2 -2
705 1 1 0.5897 1.5755180413112293 1.7035745166132579 21.58461217167848 3 -2 -3
634 1 2 -1.1794 1.3970174264464663 11.776998247986873 4.9582247754522655 -7 -1 0
408 1 1 0.5897 3.123349466089543 9.414640248509933 4.430295186193902 -5 -1 3
635 1 1 0.5897 0.9555232285786168 11.304574810207592 5.664067315613026 -7 -1 0
115 1 2 -1.1794 2.162721821916901 7.895585599200137 5.038921183910666 -1 -2 4
268 1 2 -1.1794 1.5739917175304423 8.855239154115594 1.7820081052084855 2 4 8
407 1 1 0.5897 3.941102555103903 10.32957641448657 5.316999661988159 -5 -1 3
270 1 1 0.5897 1.0114464630492574 9.629069911641732 1.749515920204225 2 4 8
164 1 1 0.5897 1.6744193458702235 11.71342020916862 2.118620482293953 -4 1 0
406 1 2 -1.1794 3.6897804114289756 10.185870673885718 4.404591255136775 -5 -1 3
636 1 1 0.5897 2.105428316609939 11.193813244103385 4.685488310551363 -7 -1 0
186 1 1 0.5897 3.638413706456025 6.928896307759008 1.2833577823965352 0 4 4
116 1 1 0.5897 1.8557568450579283 7.231412821607427 4.421679953211244 -1 -2 4
184 1 2 -1.1794 3.627236003182492 7.2048125150951545 2.1999005809898087 0 4 4
185 1 1 0.5897 2.9427481443921195 7.872703157177703 2.2411495849111533 0 4 4
269 1 1 0.5897 1.4125019701322588 8.406122028005036 0.9522421822094025 2 4 8
117 1 1 0.5897 2.8659335204440275 7.464748737322299 5.5249404049797946 -1 -2 4
95 1 1 0.5897 0.5540549254268967 7.780121718013622 5.601319005786174 -2 -1 0
165 1 1 0.5897 3.1870883589274692 11.76826313784422 2.0886478151547587 -4 1 0
312 1 1 0.5897 3.350940272667478 10.247922408067762 9.506352215998325 -1 2 2
310 1 2 -1.1794 3.6720944174355057 9.458385382063769 9.070706629670447 -1 2 2
766 1 2 -1.1794 4.6604603422100785 10.871989912582535 6.959954450691854 -3 -2 2
859 1 2 -1.1794 1.2005416615764228 8.472620934044906 8.510996633303433 -1 -2 2
311 1 1 0.5897 2.8816986146217984 8.958275116036711 8.867064622519456 -1 2 2
767 1 1 0.5897 4.41611005065939 10.241991838975236 7.637985732122792 -3 -2 2
328 1 2 -1.1794 4.139324755649904 6.891590638737011 6.8197520853692675 2 5 0
252 1 1 0.5897 3.981772979920831 8.643475608651386 10.582894885834655 4 -4 1
431 1 1 0.5897 2.064701388901158 11.485886099667137 10.797484213158102 -3 -1 -4
430 1 2 -1.1794 3.0152029593723144 11.55313556902324 10.706153762952708 -3 -1 -4
860 1 1 0.5897 0.9380607212567806 8.20162043836619 7.631239351483244 -1 -2 2
768 1 1 0.5897 4.358134091708184 11.715722061177994 7.296135995649635 -3 -2 2
174 1 1 0.5897 0.548295373539986 10.09472517377814 7.721047227777173 2 2 -1
109 1 2 -1.1794 1.4571624968488337 8.41640589572928 12.668460234779719 -2 -1 -6
110 1 1 0.5897 2.327936814812528 8.406900258692088 12.271016731811498 -2 -1 -6
236 1 1 0.5897 1.8719686896569383 11.361137268333687 15.931001153987996 1 -2 -4
113 1 1 0.5897 2.3569651557030182 7.670652666804436 14.91841685553415 -3 -4 2
708 1 1 0.5897 4.483714030017209 11.416773890503531 13.682920958730989 0 -2 -6
112 1 2 -1.1794 2.9354313779614696 8.235146973893308 15.431271710781992 -3 -4 2
114 1 1 0.5897 2.3547229851875775 8.898770517102351 15.803773858135317 -3 -4 2
250 1 2 -1.1794 3.98358349599712 8.384459300464734 11.504417193783512 4 -4 1
371 1 1 0.5897 4.387641995913356 9.194374762096086 14.775023822116186 3 7 -1
111 1 1 0.5897 0.9703829040525142 7.740928266358199 12.196121093697757 -2 -1 -6
102 1 1 0.5897 1.229715149253446 8.052029852503754 19.184937942880985 7 -4 -1
204 1 1 0.5897 4.12532593857175 7.136324460208995 20.15875148769687 -5 3 1
737 1 1 0.5897 3.445597910172248 11.333132325227622 19.095987300603888 2 0 1
324 1 1 0.5897 4.605224803444405 7.966519778491611 18.00217534573614 6 -1 -3
570 1 1 0.5897 1.2330264513099674 10.900024958891128 20.301998402498334 2 0 0
100 1 2 -1.1794 1.871359233363215 7.34727512741237 19.274499858460928 7 -4 -1
322 1 2 -1.1794 4.3796747167400305 8.489313104614759 18.77168236459633 6 -1 -3
323 1 1 0.5897 3.424266459513559 8.45047426601419 18.816580531014154 6 -1 -3
237 1 1 0.5897 2.6690185868325713 11.03081148345461 17.175056617394425 1 -2 -4
736 1 2 -1.1794 3.998638505472802 11.40729841865776 18.318187665851283 2 0 1
738 1 1 0.5897 4.6300970318919745 10.692949007624133 18.40369032975785 2 0 1
235 1 2 -1.1794 2.017313241860313 10.668056243680956 16.575067031517257 1 -2 -4
568 1 2 -1.1794 1.7620941256464058 11.694238681401615 20.227067150361314 2 0 0
433 1 2 -1.1794 4.718736049121679 10.486391355937156 21.128783993586204 -2 2 -2
101 1 1 0.5897 1.5787323623510146 6.676408517106789 18.657545358575952 7 -4 -1
48 1 1 0.5897 1.2013717976838765 6.785657046261436 20.812960375677882 2 -2 -2
33 1 1 0.5897 1.8465034596084786 15.441437051168544 1.3506800502557854 5 7 0
600 1 1 0.5897 2.605812547660864 14.081896087134435 5.056390432897835 -1 -2 -4
163 1 2 -1.1794 2.4116302993692598 11.974753783387591 1.5667864047927247 -4 1 0
617 1 1 0.5897 1.2988771250808424 14.903397542999414 3.8355013534534472 -1 1 1
31 1 2 -1.1794 1.8303509858670408 14.802512779956494 2.0633156592830897 5 7 0
598 1 2 -1.1794 3.5188270973539724 13.939078176479194 5.306069560301674 -1 -2 -4
749 1 1 0.5897 4.3864021962622255 13.16227663874774 3.8053154790887542 2 4 0
618 1 1 0.5897 0.8198734693641341 13.762612877776954 4.708023499301999 -1 1 1
199 1 2 -1.1794 4.699335591045006 15.515846587439864 1.8318585454711902 2 -4 -1
32 1 1 0.5897 2.222899775777135 14.014297116118419 1.6879097968380492 5 7 0
200 1 1 0.5897 3.828001972290435 15.273296008587902 2.145301808464657 2 -4 -1
748 1 2 -1.1794 4.714739714300835 12.968153463998428 2.9273577868180256 2 4 0
616 1 2 -1.1794 1.0373144908494414 14.69452260248998 4.732318348982765 -1 1 1
201 1 1 0.5897 4.691411024785154 15.289570055525381 0.9017753102668078 2 -4 -1
753 1 1 0.5897 2.972594564885048 16.949387316575056 4.779073161889022 4 0 0
124 1 2 -1.1794 3.039439606109147 13.09417612900354 7.946323506582463 1 -1 3
651 1 1 0.5897 3.730806322813779 15.555700727279385 6.053513908670087 1 -1 -1
599 1 1 0.5897 3.470379000664818 13.394687661491954 6.091939493650257 -1 -2 -4
481 1 2 -1.1794 4.113862558256937 15.5314056701391 8.921076221514017 0 4 -1
126 1 1 0.5897 3.3573612109776905 13.958600113994883 8.207078306605583 1 -1 3
29 1 1 0.5897 2.883040607487305 14.94013245015706 10.635268475331944 -7 1 6
125 1 1 0.5897 2.115973089007484 13.09203493589827 8.198317767035304 1 -1 3
654 1 1 0.5897 0.611149668647477 15.920638593018406 6.727777874804851 0 0 -1
649 1 2 -1.1794 4.057903986246571 16.430340554132364 6.264046597224975 1 -1 -1
432 1 1 0.5897 3.1751474552650976 12.482057644415455 10.539333093199522 -3 -1 -4
483 1 1 0.5897 3.9049118728476486 15.990027959424953 8.107250273028328 0 4 -1
653 1 1 0.5897 0.44937309744571136 15.131825985844939 8.009838125359554 0 0 -1
28 1 2 -1.1794 2.4542288542981066 14.603699087674627 11.422184393092522 -7 1 6
30 1 1 0.5897 2.946979433511033 14.988388226553882 12.147123776163385 -7 1 6
162 1 1 0.5897 2.1622663221842284 12.819681289560409 14.30539900475359 2 7 3
814 1 2 -1.1794 0.4218270771116528 16.19037586059808 14.54883492065173 -3 5 -4
160 1 2 -1.1794 1.3927068886093312 12.864589490012548 14.872902075855572 2 7 3
815 1 1 0.5897 0.7578005300424051 15.362587552647398 14.892626948747724 -3 5 -4
518 1 1 0.5897 0.7967725509603814 15.617113655951892 11.345777791377337 0 -1 -5
706 1 2 -1.1794 4.220325452993384 12.219730450031212 13.23326549093377 0 -2 -6
670 1 2 -1.1794 3.371798965676985 16.611381973278405 13.107947629382059 6 3 1
492 1 1 0.5897 4.55342670934293 13.756698816906791 14.332100395087904 0 3 3
707 1 1 0.5897 3.7450216403632695 11.916679220512162 12.45960004043989 0 -2 -6
161 1 1 0.5897 0.6487906858246091 12.795750388191253 14.274398996850495 2 7 3
816 1 1 0.5897 1.0321702312557721 16.85138320726152 14.875721904935139 -3 5 -4
155 1 1 0.5897 4.081818793807723 13.9540466566538 17.589582756991014 3 2 -4
154 1 2 -1.1794 3.5903291409391085 14.666796382269888 17.997903863027112 3 2 -4
536 1 1 0.5897 3.8772285860340903 14.208421850021645 19.79319654354658 6 6 3
475 1 2 -1.1794 1.0299486056171738 14.385122402719016 20.017589559352558 6 -3 -2
535 1 2 -1.1794 4.309004870651126 14.05752677077455 20.63409591179991 6 6 3
14 1 1 0.5897 1.9305213797049379 15.842532153437467 20.76035194211272 0 -5 -6
156 1 1 0.5897 2.7244961371149072 14.624664038752943 17.591881210093597 3 2 -4
477 1 1 0.5897 1.5650414906441115 13.591685867528843 20.038531817301205 6 -3 -2
353 1 1 0.5897 0.7483187465245011 14.130830249294483 18.01299889920734 5 3 -3
13 1 2 -1.1794 2.1307562255355768 16.541548867573063 21.38291984224196 0 -5 -6
846 1 1 0.5897 4.1352941668734315 16.4447486929483 17.331737164441044 -2 0 2
354 1 1 0.5897 0.9863649991186383 13.793464119586861 16.556435932524273 5 3 -3
352 1 2 -1.1794 0.9561464202202036 14.529367495040603 17.167851320269726 5 3 -3
569 1 1 0.5897 2.1368917467752624 11.816128420890763 21.099401426029893 2 0 0
606 1 1 0.5897 4.3607604689379365 20.04044949077271 2.3448989288047395 -7 0 -1
479 1 1 0.5897 1.3000644271324562 19.72965546191638 2.00615758862281 -2 2 -3
751 1 2 -1.1794 2.705480098896474 17.31089363325805 3.9339283746953275 4 0 0
357 1 1 0.5897 2.6306112225343266 19.071567526256477 4.719936488160862 2 -2 2
355 1 2 -1.1794 2.9333567437317885 19.951947851840995 4.94263873877288 2 -2 2
480 1 1 0.5897 1.401104553525232 18.2194646171508 2.040355907911883 -2 2 -3
303 1 1 0.5897 2.578670971135793 21.91524033583513 3.7305347414655943 -2 2 7
704 1 1 0.5897 2.6038691171942085 21.71615554164184 1.2666236062526224 3 -3 -2
703 1 2 -1.1794 1.667485571773928 21.699225514596005 1.0685517199267303 3 -3 -2
604 1 2 -1.1794 4.089482708004616 20.955295308938638 2.268994203644646 -7 0 -1
752 1 1 0.5897 3.521400532438481 17.39604139916367 3.4406461549536873 4 0 0
306 1 1 0.5897 0.7683206118610941 17.22459221904584 4.518186565602144 5 -2 -6
478 1 2 -1.1794 0.7663289104390467 18.935943330310742 2.0441577465971505 -2 2 -3
264 1 1 0.5897 4.7277670658042235 20.77299347651563 4.835917776091494 2 -4 6
757 1 2 -1.1794 0.8237904159180616 18.01767308587649 9.699795646145159 -1 2 3
574 1 2 -1.1794 1.8990592191802584 21.25908141151077 9.566596610839996 3 -1 0
552 1 1 0.5897 4.442090991677615 19.845250578217406 7.9052689490767705 -2 6 -4
551 1 1 0.5897 2.9810726576048787 20.173814492654355 8.128037893526303 -2 6 -4
550 1 2 -1.1794 3.6604136077880653 20.163700077028096 7.453717671869778 -2 6 -4
368 1 1 0.5897 2.5145094443208564 18.086355809503775 10.40348270827001 3 5 -3
356 1 1 0.5897 3.1882696852492685 19.89232295811981 5.863397275469827 2 -2 2
367 1 2 -1.1794 3.363562612656684 18.33874990316013 10.766405268868347 3 5 -3
809 1 1 0.5897 4.674132337871232 18.761942033272966 9.71291860204557 3 -2 -2
575 1 1 0.5897 1.686845413670751 20.917075214145314 10.435106346755097 3 -1 0
758 1 1 0.5897 0.6428171700922173 17.78255193355501 8.789704240560152 -1 2 3
612 1 1 0.5897 4.242621198318235 21.88622562481158 8.730159570262172 3 3 -1
759 1 1 0.5897 0.7622435422899677 17.19077293331508 10.178095612246219 -1 2 3
576 1 1 0.5897 1.0487896109737478 21.40570870789653 9.152059371219808 3 -1 0
369 1 1 0.5897 3.238833347181321 19.239752850720606 11.064622486513823 3 5 -4
42 1 1 0.5897 2.0242480376088885 18.89998805885974 15.484303352520959 0 -2 5
21 1 1 0.5897 1.9234933185378977 20.31283780952751 12.974838150810118 -2 -5 2
153 1 1 0.5897 4.323986327623977 19.930411405347918 14.141193236252954 2 -1 0
628 1 2 -1.1794 1.4699262434984788 20.5496526637498 15.44438736736851 -2 -4 4
671 1 1 0.5897 2.871754458945893 16.990729963828137 13.830698838860256 6 3 1
151 1 2 -1.1794 4.037666431815651 19.903281121147185 13.228157630607742 2 -1 0
19 1 2 -1.1794 1.3423832845180086 20.641513202017634 12.288849738769741 -2 -5 2
672 1 1 0.5897 3.3130529335492285 17.26179820226689 12.408072957461158 6 3 1
40 1 2 -1.1794 2.5057576849902516 18.086539189517925 15.33347659777732 0 -2 5
630 1 1 0.5897 1.3832733357389362 21.336490848643734 15.98265868621778 -2 -4 4
629 1 1 0.5897 0.5716565687167422 20.242103821198285 15.322586672132907 -2 -4 4
143 1 1 0.5897 3.6373685431497864 21.59479319684362 13.369907699616997 0 4 2
41 1 1 0.5897 3.106359870970115 18.02195506188788 16.076043243260173 0 -2 5
20 1 1 0.5897 0.5552622449688558 20.101703925830236 12.362101908105645 -2 -5 1
183 1 1 0.5897 4.663318975900278 17.498649428678107 19.442869297038108 -5 1 -2
547 1 2 -1.1794 3.0594705536008195 20.227855850948924 18.497881051574204 7 -1 5
844 1 2 -1.1794 4.326791657770713 17.3523397435438 17.568232613727886 -2 0 2
17 1 1 0.5897 1.7103483824156056 20.087455619856087 20.94168478394873 0 3 2
16 1 2 -1.1794 1.2480861791778355 19.42954862903537 20.422277329464464 0 3 2
548 1 1 0.5897 2.509535816302572 19.648050375683393 19.024849815197967 7 -1 5
791 1 1 0.5897 4.083657841176438 20.442053609074055 16.610266084313686 2 4 -1
18 1 1 0.5897 1.0516090286581325 18.72810636299686 21.043313612016576 0 3 2
549 1 1 0.5897 3.8176886095309572 20.409625170468328 19.05318733310429 7 -1 5
182 1 1 0.5897 4.4957586094743025 18.564871243278844 20.504543698707863 -4 1 -2
15 1 1 0.5897 2.723899547024474 17.12351836551184 20.907739098605703 0 -5 -6
742 1 2 -1.1794 8.8862020319464 2.737244917921906 3.3323072870632644 -2 0 1
346 1 2 -1.1794 5.793847640222385 5.815188687100176 3.1753458014601494 0 3 -2
383 1 1 0.5897 7.870984358240838 3.6815889870653478 2.081150982667202 -8 -2 -2
409 1 2 -1.1794 7.700700302030498 4.142907710753814 5.496996973375953 3 2 -7
382 1 2 -1.1794 7.223824310929504 3.944498487298142 1.4266590701200093 -8 -2 -2
348 1 1 0.5897 5.534652795497935 5.296081478511299 3.9366899998258433 0 3 -2
384 1 1 0.5897 6.7059000593979645 4.622785807390223 1.860236887000847 -8 -2 -2
619 1 2 -1.1794 5.433479331823559 2.6257356558937 3.2253993169231574 1 -1 5
340 1 2 -1.1794 8.744801150439196 6.5480112384344284 3.769374921135806 2 4 4
347 1 1 0.5897 4.9742749320853035 6.1844782775232785 2.8463722889595755 0 3 -2
744 1 1 0.5897 8.278260642105177 3.161330265018572 3.938018469068666 -2 0 1
342 1 1 0.5897 7.972000988624573 6.029427809382295 3.993317308529616 2 4 4
621 1 1 0.5897 5.872450346561622 2.8193506609838432 2.3970611655550194 1 -1 5
261 1 1 0.5897 5.879829548694467 4.4317403664339245 5.611870153496443 1 -1 6
259 1 2 -1.1794 4.9625083912243815 4.602717767336059 5.398292323575359 1 -1 6
317 1 1 0.5897 6.204004507798733 5.711160587471298 10.65149841197196 -4 -4 -1
316 1 2 -1.1794 5.872515305257992 5.007587944239088 10.093465467443615 -4 -4 0
515 1 1 0.5897 7.085886746631999 4.863445762291351 8.562528205869135 -2 -4 0
531 1 1 0.5897 6.492995726149638 2.1965824048952687 7.570955587766225 -2 -1 -6
610 1 2 -1.1794 4.8919760350760155 2.03067929065364 8.817355080182715 3 4 -1
516 1 1 0.5897 8.567379171751583 4.794123946043237 8.258437161147999 -2 -4 0
411 1 1 0.5897 7.609958268333234 3.2997902173585105 5.941093882696294 3 2 -7
514 1 2 -1.1794 7.757722661737023 5.2250379444227715 7.984428708074255 -2 -4 0
410 1 1 0.5897 7.653496078924749 4.790793538049735 6.200086846936485 3 2 -7
146 1 1 0.5897 8.679178677092091 2.5956675009992702 10.296696422818297 0 2 -3
529 1 2 -1.1794 7.093745283873382 1.9135284884418933 6.881547471491684 -2 -1 -6
318 1 1 0.5897 4.985410738072864 5.282723481607158 9.861854465649158 -4 -4 0
278 1 1 0.5897 5.8020016473776685 1.9754790875348984 13.280521771559176 -1 1 1
572 1 1 0.5897 8.084885396905864 4.381615109107927 13.886084200700314 1 -2 -4
596 1 1 0.5897 5.624284703365237 5.042176137524126 14.207552657172847 1 -4 0
254 1 1 0.5897 4.772511414407429 3.5404275603800284 15.633362154423954 2 8 -8
595 1 2 -1.1794 4.760392265467256 5.154873179261783 14.604147599847161 0 -4 0
253 1 2 -1.1794 5.013650434139241 2.9763060291594203 16.368158432052326 2 8 -8
277 1 2 -1.1794 6.679779290688481 2.02482411016753 12.901882523159868 -1 1 1
573 1 1 0.5897 7.06660077324882 3.734410217966879 12.971588806402988 1 -2 -4
571 1 2 -1.1794 7.349423917228795 4.584769024754571 13.308046182607104 1 -2 -4
179 1 1 0.5897 4.884600349513033 6.498697874973347 16.15633522034677 -7 1 -1
731 1 1 0.5897 7.297295055943507 6.058271564073775 12.130395970208728 2 3 -5
505 1 2 -1.1794 8.913860151207759 3.6127568032662456 15.776680056137595 4 0 -4
255 1 1 0.5897 5.882747515651186 3.2808513988581014 16.629403305123724 2 8 -8
729 1 1 0.5897 7.713128626926035 4.733715877760636 16.822803800646177 0 3 1
789 1 1 0.5897 5.284243312702132 3.0889927338398397 20.364034427388034 4 -2 5
727 1 2 -1.1794 7.093796006649527 4.807637798394782 17.548929629693554 0 3 1
788 1 1 0.5897 6.599991144917322 2.9680651878995423 21.103133532434477 4 -2 5
284 1 1 0.5897 7.49774898568191 2.5329415992114006 18.45625452479399 5 1 -4
728 1 1 0.5897 6.484019960836822 5.493005499223173 17.27543577723153 0 3 1
566 1 1 0.5897 7.9998957221434 5.897570305617179 18.788421713001355 -2 5 -5
787 1 2 -1.1794 6.166235070848233 2.725451320561522 20.285029657720052 4 -2 5
565 1 2 -1.1794 8.577541730263034 6.388974402733895 19.372505046042825 -2 5 -5
285 1 1 0.5897 8.296557079772754 2.4012648294871184 17.176913199874583 5 1 -4
283 1 2 -1.1794 8.20674915948284 2.0304441020920443 18.054836693012724 5 1 -4
567 1 1 0.5897 8.969289422440403 5.7235407870761925 19.938243950515897 -2 5 -5
55 1 2 -1.1794 8.053823008115476 8.582023510806806 2.035491186376425 -2 0 2
527 1 1 0.5897 7.2521622938365 11.424293472911524 3.776620944909736 -3 -3 2
56 1 1 0.5897 7.157112729104603 8.908246236911369 2.1116325872943724 -2 0 2
343 1 2 -1.1794 6.8695821696944614 10.474239101189262 5.403755091916604 -2 -1 -1
57 1 1 0.5897 8.100129540988075 7.859051993732007 2.6611650900176227 -2 0 2
196 1 2 -1.1794 5.404776928963617 9.291771295357027 2.3456532334939744 -1 -2 0
198 1 1 0.5897 4.9888845372737585 8.454427114044408 2.1401836696580805 -1 -2 0
194 1 1 0.5897 8.459307840679365 11.754934681560846 1.7165374596777436 0 -4 1
11 1 1 0.5897 7.260841452042294 7.98860990110956 0.5121867367150938 -5 1 5
435 1 1 0.5897 4.799559847696147 10.004973587153678 0.6636256285383159 -2 2 -1
197 1 1 0.5897 4.854245808669608 9.67152218203655 3.0305252294561935 -1 -2 0
345 1 1 0.5897 7.673788456812794 10.960134909797238 5.586659992423353 -2 -1 -1
818 1 1 0.5897 9.096031770191138 7.957954376823731 9.115973215584612 3 -2 2
755 1 1 0.5897 6.701261307053181 9.031908347248763 6.633715501173648 -4 -2 -2
817 1 2 -1.1794 8.799683863632058 7.139151362406574 9.513547270007338 3 -2 2
754 1 2 -1.1794 6.740555958710289 8.39775290431994 7.349677378761487 -4 -2 -2
776 1 1 0.5897 8.585351026082977 7.60717832598894 6.8204096480913945 3 -3 0
219 1 1 0.5897 6.767037145284961 10.058060142367363 10.533231525488372 4 0 -1
217 1 2 -1.1794 7.033998494054396 10.257378992427325 9.635837543163923 4 0 -1
218 1 1 0.5897 6.701638201309563 11.140951971866537 9.477188793104837 4 0 -1
756 1 1 0.5897 6.790066406666399 8.932880693393665 8.14182345721921 -4 -2 -2
746 1 1 0.5897 8.84486490748843 10.11422761770494 9.052784553689504 -1 4 -7
330 1 1 0.5897 4.902617285386185 7.442825835028676 6.99244708904587 2 5 0
344 1 1 0.5897 6.208600920536694 10.885848799783071 5.960513063061272 -2 -1 -1
732 1 1 0.5897 7.815985395672167 6.862761193180327 10.957426898010109 2 3 -5
819 1 1 0.5897 8.308196882231943 6.699550198748063 8.819639120251276 3 -3 2
829 1 2 -1.1794 6.472895919143833 9.530476211737287 12.258695889308658 5 3 5
830 1 1 0.5897 6.104255979302557 9.54274750391221 13.142016822033018 5 3 5
793 1 2 -1.1794 8.675874003202258 7.707369546507836 15.265225768147177 -4 1 5
730 1 2 -1.1794 7.162775479217675 6.879294270217382 11.656967934881708 2 3 -5
694 1 2 -1.1794 8.179068749796436 11.66351665208084 11.983491503490866 3 -2 -2
372 1 1 0.5897 5.701996181552236 9.836064453067932 15.166185239424294 3 7 -1
831 1 1 0.5897 6.871224592491891 8.663906374209823 12.176892770914726 5 3 5
387 1 1 0.5897 7.519735615651432 8.77043903979105 16.203904143810675 -4 0 1
695 1 1 0.5897 7.554332428909288 10.953812991871661 12.133012707548101 3 -2 -2
251 1 1 0.5897 4.75072831976645 8.821030749710648 11.874920893291288 4 -4 1
370 1 2 -1.1794 5.065209782150512 9.789127082943432 14.453019264840831 3 7 -1
609 1 1 0.5897 9.022776644362496 11.342585158804113 15.605971744624565 4 5 2
794 1 1 0.5897 9.059801605626769 7.50644305017493 14.41167509608502 -4 1 5
509 1 1 0.5897 7.051837839873363 10.687586514237736 19.68695050429944 4 -1 2
178 1 2 -1.1794 5.379198087180179 6.781925515625734 16.925398258132617 -7 1 -1
386 1 1 0.5897 6.991525510762559 9.489190877814302 17.427200255445655 -4 0 1
180 1 1 0.5897 5.8917917818621754 7.530023704463712 16.618959661698 -7 1 -1
510 1 1 0.5897 6.984328267981928 9.176064542028623 19.739975000539722 4 -1 2
508 1 2 -1.1794 7.24119368558029 9.902883055129204 19.172474244086636 4 -1 2
10 1 2 -1.1794 6.886299861783589 7.766406950216404 20.948323090836702 -5 1 4
12 1 1 0.5897 7.559598267129848 7.236864205248437 20.521004326353818 -5 1 4
203 1 1 0.5897 5.203973679233437 6.7363298902549085 21.142958445340426 -5 3 1
385 1 2 -1.1794 6.764593982754721 9.263305512717679 16.525084278657992 -4 0 1
60 1 1 0.5897 6.181616432184512 11.406568996781525 20.992312384314957 3 -1 -2
215 1 1 0.5897 8.888929845278039 10.27967827101914 18.599219896446165 -2 2 2
434 1 1 0.5897 4.799337410705694 9.81621994497829 20.450039060842258 -2 2 -2
772 1 2 -1.1794 7.833282704994223 14.502993159901983 3.6843126484780964 0 -4 5
778 1 2 -1.1794 8.054126802944081 16.667387685386636 1.7382005071677753 -3 0 -1
774 1 1 0.5897 7.618172597099765 13.647016806640774 3.3137131495841623 0 -4 5
131 1 1 0.5897 6.9021606854211495 15.91886682977605 4.513116223107856 -4 2 1
780 1 1 0.5897 7.936907610987445 16.55185318494175 0.7952217675642423 -3 0 -1
773 1 1 0.5897 8.436900591448513 14.309152569585688 4.4015274736989 0 -4 5
779 1 1 0.5897 7.795696424260956 15.827083020163064 2.116903530183208 -3 0 -1
528 1 1 0.5897 6.200334284954993 12.102282136000982 2.924534173874558 -3 -3 2
193 1 2 -1.1794 8.922307630248879 11.86086492539272 0.8854465399447371 0 -4 1
130 1 2 -1.1794 6.616528785992457 16.233726020838912 5.37081353290214 -4 2 1
750 1 1 0.5897 4.794494513136114 13.824087640121347 2.506265581086484 2 4 0
526 1 2 -1.1794 7.14335855999327 11.948832099998402 2.9833232732859933 -3 -3 2
495 1 1 0.5897 8.751564316317516 12.854678060035937 6.536289204179899 -4 -2 0
337 1 2 -1.1794 6.6347646896241015 13.21892214282615 9.054571482081606 -2 0 2
857 1 1 0.5897 8.919999874269182 12.518651861395723 10.627612870487132 -2 -1 -3
339 1 1 0.5897 7.513756887910653 13.074389465749524 9.404980951229192 -2 0 2
220 1 2 -1.1794 8.18902996089838 14.586400066502444 6.931882180752894 2 -3 4
338 1 1 0.5897 6.077579418837817 13.29738125702885 9.828998086355073 -2 0 2
222 1 1 0.5897 7.553813607738579 14.483409764255994 7.640536772525059 2 -3 4
493 1 2 -1.1794 9.090232903546317 12.080653056354208 6.086292779808273 -4 -2 0
64 1 2 -1.1794 6.956985192995783 16.546717567879988 9.208166340684539 4 1 -3
482 1 1 0.5897 5.021165362748292 15.773482985214985 9.106826786675668 0 4 -1
66 1 1 0.5897 7.396249970076716 16.138687365858203 9.954409526198393 4 1 -3
221 1 1 0.5897 7.69541641833218 15.003822901523106 6.225903919082297 2 -3 4
65 1 1 0.5897 7.645438108013895 16.648989280877565 8.550979917323383 4 1 -3
650 1 1 0.5897 4.975715595528469 16.41511826106617 5.992548396559738 1 -1 -1
858 1 1 0.5897 8.985673558037416 14.00599861209107 10.352740042875864 -2 -1 -3
296 1 1 0.5897 8.215239940898417 15.120689636119865 11.884800207706014 0 3 2
359 1 1 0.5897 4.988698538630913 13.4812393400935 12.1124015346621 3 0 -6
364 1 2 -1.1794 7.629268404540232 13.991613313308376 13.418830246641274 0 5 1
497 1 1 0.5897 6.292819110094542 16.03109004718832 15.40449814464122 0 0 1
360 1 1 0.5897 5.542291271687953 14.839289751641223 11.736491098408173 3 0 -6
491 1 1 0.5897 5.1161404651176285 13.991858521132087 15.717783055806196 0 3 3
92 1 1 0.5897 6.384557654109401 16.466687347157084 13.255720450595978 1 -5 0
366 1 1 0.5897 8.176846114851536 14.234537579400321 14.165459259997741 0 5 1
365 1 1 0.5897 6.749797937298466 13.900794021343168 13.785690114952232 0 5 1
490 1 2 -1.1794 4.8480933887038065 14.450858646567658 14.92168754605299 0 3 3
91 1 2 -1.1794 5.961972013467941 16.4477316839219 12.397010633732481 1 -5 0
424 1 2 -1.1794 9.021279302972346 14.417865349056399 15.7504796554994 8 -5 2
93 1 1 0.5897 5.0273742864047195 16.52827784439039 12.587640927029659 1 -5 0
358 1 2 -1.1794 5.33796847327644 13.977910842735245 11.372380045604189 3 0 -6
295 1 2 -1.1794 8.717670591413619 15.56286195285463 11.20044358756522 0 3 2
496 1 2 -1.1794 6.976324081126018 16.610971609859238 15.068548276072951 0 0 1
696 1 1 0.5897 7.977581627184147 12.307624172485937 12.662360249733585 3 -2 -2
849 1 1 0.5897 8.806200853061151 16.924087143063883 14.773746603741245 1 -3 5
425 1 1 0.5897 8.947423337029797 15.296919248581316 16.122115349378078 8 -5 2
59 1 1 0.5897 7.562851837972565 11.986145064627308 21.212175888609025 3 -1 -2
245 1 1 0.5897 7.0906751613301156 15.870887238639735 19.116516764598842 -2 3 -2
327 1 1 0.5897 8.5762944711802 12.911441479792927 16.680444004983215 2 -1 -3
798 1 1 0.5897 6.02548408863052 13.816735348316442 17.792399658310302 2 -6 -3
244 1 2 -1.1794 6.633772582890941 15.052163866113727 18.923533298874794 -2 3 -2
246 1 1 0.5897 6.262774546779898 14.780712692694218 19.76316972110203 -2 3 -2
325 1 2 -1.1794 8.2516501736411 12.090565330678505 17.050711987777063 2 -1 -3
58 1 2 -1.1794 6.762491332985986 12.109782774553087 20.701844725010552 3 -1 -2