LAMMPS (30 Jul 2021)
Processor partition = 1
  using 2 OpenMP thread(s) per MPI task
using multi-threaded neighbor list subroutines
variable        pid world 0 1
variable        phase world IceIII Liquid

shell cd ${phase}
shell cd Liquid
include Restart.lmp
echo both
log log.lammps
#include		in.partitions
include		in.temp
variable        temperature equal 263.47
variable	tempDamp equal 100.0
include		in.pressure
variable        pressure equal 4250.0
variable        pressureDamp equal 1000.0 # This is 1 ps
include		in.seed
variable        seed equal 745823

units		real
atom_style	full
read_restart	restart.lmp.${pid}
read_restart	restart.lmp.1
Reading restart file ...
  restart file = 30 Jul 2021, LAMMPS = 30 Jul 2021
  restoring atom style full from restart
  orthogonal box = (0.37898734 1.5379283 0.46236367) to (17.828585 22.091250 21.750832)
  2 by 4 by 4 MPI processor grid
  restoring pair style lj/cut/tip4p/long/omp from restart
  restoring bond style harmonic/omp from restart
  restoring angle style harmonic/omp from restart
  864 atoms
  576 bonds
  288 angles
Finding 1-2 1-3 1-4 neighbors ...
  special bond factors lj:    0        0        0       
  special bond factors coul:  0        0        0       
     2 = max # of 1-2 neighbors
     1 = max # of 1-3 neighbors
     1 = max # of 1-4 neighbors
     2 = max # of special neighbors
  special bonds CPU = 0.003 seconds
  read_restart CPU = 0.009 seconds
include 	in.setup
variable	out_freq equal 1000
variable	out_freq2 equal 10000
variable	out_freq3 equal 1000

timestep	2.0

neigh_modify    delay 7 every 1

include		in.tip4p
# This is TIP4P/Ice

# create groups ###
group ox type 2
288 atoms in group ox
group hy type 1
576 atoms in group hy

# set charges - beside manually ###
set group ox charge -1.1794
Setting atom values ...
  288 settings made for charge
set group hy charge 0.5897
Setting atom values ...
  576 settings made for charge

# ### TIP3P Potential Parameters ###
pair_style lj/cut/tip4p/long/omp 2 1 1 1 0.1577 8.5
pair_coeff 1 1*2 0.000 0.000
pair_coeff 2 2 0.21084 3.1668
bond_style  harmonic
bond_coeff  1 450 0.9572
angle_style harmonic
angle_coeff 1 55 104.52
kspace_style pppm/tip4p/omp 1.0e-5
pair_modify tail yes

thermo          ${out_freq}
thermo          1000
thermo_style    custom step temp pe etotal epair emol press lx ly lz vol pxx pyy pzz pxy pxz pyz enthalpy

restart 	${out_freq3} restart.lmp.${pid} restart2.lmp.${pid}
restart 	1000 restart.lmp.${pid} restart2.lmp.${pid}
restart 	1000 restart.lmp.1 restart2.lmp.${pid}
restart 	1000 restart.lmp.1 restart2.lmp.1


include         in.dump
dump            myDump all atom ${out_freq2} dump.water.${pid}
dump            myDump all atom 10000 dump.water.${pid}
dump            myDump all atom 10000 dump.water.1
dump            myDump2 all dcd ${out_freq2} dump.dcd
dump            myDump2 all dcd 10000 dump.dcd
dump_modify     myDump append yes
dump_modify     myDump2 append yes


variable natoms 	equal  "count(all)"                        # NUMBER ATOMS
variable H      	equal  "enthalpy/v_natoms"                 # ENTHALPY-per-atom
variable Vol      	equal  "vol/v_natoms"                 # volume-per-atom
fix AVG all 		ave/time ${out_freq} 1 ${out_freq} v_Vol v_H file vol_enthalpy.dat
fix AVG all 		ave/time 1000 1 ${out_freq} v_Vol v_H file vol_enthalpy.dat
fix AVG all 		ave/time 1000 1 1000 v_Vol v_H file vol_enthalpy.dat


timer           timeout 23:50:00 every 1000
New timer settings: style=normal  mode=nosync  timeout=23:50:00

fix 		1 all shake 1e-6 200 0 b 1 a 1
Finding SHAKE clusters ...
       0 = # of size 2 clusters
       0 = # of size 3 clusters
       0 = # of size 4 clusters
     288 = # of frozen angles
  find clusters CPU = 0.001 seconds
fix             2 all nph iso ${pressure} ${pressure} ${pressureDamp}
fix             2 all nph iso 4250 ${pressure} ${pressureDamp}
fix             2 all nph iso 4250 4250 ${pressureDamp}
fix             2 all nph iso 4250 4250 1000
fix             3 all temp/csvr ${temperature} ${temperature} ${tempDamp} ${seed}
fix             3 all temp/csvr 263.47 ${temperature} ${tempDamp} ${seed}
fix             3 all temp/csvr 263.47 263.47 ${tempDamp} ${seed}
fix             3 all temp/csvr 263.47 263.47 100 ${seed}
fix             3 all temp/csvr 263.47 263.47 100 745823

run             250000
PPPM initialization ...
  extracting TIP4P info from pair style
  using 12-bit tables for long-range coulomb (../kspace.cpp:340)
  G vector (1/distance) = 0.37354996
  grid = 24 24 25
  stencil order = 5
  estimated absolute RMS force accuracy = 0.003151729
  estimated relative force accuracy = 9.4913383e-06
  using double precision FFTW3
  3d grid and FFT values/proc = 3822 576
Last active /omp style is kspace_style pppm/tip4p/omp
Neighbor list info ...
  update every 1 steps, delay 7 steps, check yes
  max neighbors/atom: 2000, page size: 100000
  master list distance cutoff = 10.8154
  ghost atom cutoff = 10.8154
  binsize = 5.4077, bins = 4 4 4
  1 neighbor lists, perpetual/occasional/extra = 1 0 0
  (1) pair lj/cut/tip4p/long/omp, perpetual
      attributes: half, newton on, omp
      pair build: half/bin/newton/omp
      stencil: half/bin/3d
      bin: standard
Setting up Verlet run ...
  Unit style    : real
  Current step  : 9000000
  Time step     : 2
  Walltime left : 23:49:59.93
Per MPI rank memory allocation (min/avg/max) = 10.20 | 10.20 | 10.22 Mbytes
Step Temp PotEng TotEng E_pair E_mol Press Lx Ly Lz Volume Pxx Pyy Pzz Pxy Pxz Pyz Enthalpy 
 9000000    269.90552   -3861.3374   -3398.7286   -3861.3374            0    3875.0333    17.449598    20.553321    21.288468    7635.0493    4124.8035    3788.0718    3712.2245   -620.26094    1030.5149   -841.39605   -2967.2461 
 9001000    265.13827   -3860.0659   -3405.6279   -3860.0659            0    5370.9525     17.35301    20.439553    21.170631    7508.9639    3183.5612    6323.7871    6605.5091    469.16504    1898.1826    2138.7345    -2817.452 
 9002000    260.23044   -3850.6539   -3404.6278   -3850.6539            0    4805.0548    17.455951    20.560804    21.296219    7643.3916    3728.0724    3648.2169    7038.8751    509.14319     906.2659    340.96647   -2869.0035 
 9003000    268.23463    -3867.263    -3407.518    -3867.263            0      4443.73    17.419249    20.517574    21.251443    7595.2812    3182.2565    6945.8202    3203.1134   -529.50515   -112.71509   -677.36693   -2915.2888 
 9004000     253.1652   -3876.9885    -3443.072   -3876.9885            0    4659.3863    17.434934    20.536049    21.270579    7615.8174    3531.9789    6879.4791    3566.7008   -780.71028    743.42564   -103.74936   -2925.5592 
 9005000    270.52294   -3843.4813   -3379.8143   -3843.4813            0    5121.9419    17.392795    20.486415    21.219169    7560.7297     5096.815    4591.8044    5677.2063     492.4697    382.36843    273.98142   -2815.0409 
 9006000    274.55513   -3869.0074   -3398.4293   -3869.0074            0    2311.7874    17.436778    20.538221    21.272828    7618.2336    3616.7372    1345.9564    1972.6685    993.32577    507.06158    528.62284   -3141.5802 
 9007000    262.01628   -3836.4193   -3387.3324   -3836.4193            0    5318.8927    17.310735    20.389759    21.119056    7454.2184    4236.8491    7524.4372    4195.3917    302.40562    1446.7512    791.31195   -2809.1042 
 9008000    271.99444   -3843.4747   -3377.2855   -3843.4747            0    2191.4368     17.48006    20.589201    21.325632    7675.1049    2651.5981    1229.7756    2692.9368    700.27987   -72.981236    2282.8704   -3131.9903 
 9009000     273.5079   -3826.6019   -3357.8187   -3826.6019            0    4085.8652    17.428455    20.528417    21.262674    7607.3295    4498.8058    3011.2784    4747.5112    1111.9174   -427.57705    -1466.639    -2904.512 
 9010000    269.37342   -3845.0647   -3383.3679   -3845.0647            0    2856.0084    17.481658    20.591084    21.327582    7677.2106    2722.7261    2475.3232    3369.9757    115.30811   -1916.9496    580.28269   -3063.5971 
 9011000    264.95671    -3852.399   -3398.2722    -3852.399            0    3889.2321    17.357342    20.444656    21.175917    7514.5893    4021.8363    3504.8017    4141.0584    -1040.992   -2567.6495   -547.34382   -2972.0413 
 9012000     273.3181   -3832.2078   -3363.7499   -3832.2078            0    3706.4346    17.429429    20.529565    21.263863    7608.6055    5470.4455    2694.4103    2954.4481    -607.1976    462.52426   -52.897565   -2952.4702 
 9013000    266.15658   -3835.1445   -3378.9612   -3835.1445            0    4374.8098    17.364953    20.453621    21.185202     7524.479    5199.1064    3763.4692    4161.8538   -1468.6875     1125.926    344.80679   -2898.8835 
 9014000    249.20316   -3836.1988   -3409.0731   -3836.1988            0    5306.4562    17.380513    20.471949    21.204185    7544.7241    6445.7119    3511.3289    5962.3279   -1553.0768    298.59665    1485.7564   -2825.1928 
 9015000    257.75451    -3832.037   -3390.2546    -3832.037            0    4545.2288    17.398476    20.493107      21.2261    7568.1412    3945.0408    4351.9589    5338.6867   -1053.3876   -139.66657    461.17324   -2888.5815 
 9016000    265.54564   -3854.7437   -3399.6076   -3854.7437            0    3587.9975    17.361931    20.450061    21.181515    7520.5512    2511.3263    5592.1187    2660.5477      797.492   -762.95345   -716.41467   -3006.0777 
 9017000    277.67891   -3864.5846   -3388.6525   -3864.5846            0    6047.4672    17.277552    20.350674    21.078573    7411.4335    5948.7898     6166.911    6026.7006    472.27722    1768.0321     444.1333   -2734.9929 
 9018000    258.85752    -3888.713   -3445.0401    -3888.713            0    4763.0922    17.255441     20.32463    21.051597    7383.0152    5400.7451     2791.759    6096.7726   -354.58041   -342.24684   -52.996958   -2932.1803 
 9019000    268.37473   -3864.4231   -3404.4381   -3864.4231            0    6241.1993    17.296581    20.373088    21.101788    7435.9485    7006.0709    6847.2214    4870.3056   -509.51082    517.68325    269.38838   -2727.6069 
 9020000    247.80259   -3846.5497   -3421.8245   -3846.5497            0    5743.0953    17.310628    20.389633    21.118926    7454.0803    5804.0612    5077.1582    6348.0666    654.45894    1131.9123   -19.864231    -2797.492 
 9021000    256.83831   -3865.3744   -3425.1623   -3865.3744            0    4722.3804    17.316644    20.396719    21.126265    7461.8543    3251.7899    7315.2078    3600.1434   -1182.9648    964.74074    -296.7846   -2911.2564 
 9022000    269.23634    -3844.462   -3383.0002    -3844.462            0    3436.2598    17.327547    20.409562    21.139567    7475.9584    120.22099    4968.1353    5220.4231   -53.678318    985.24061    331.56137   -3008.3476 
 9023000    247.98698   -3844.4593   -3419.4181   -3844.4593            0    3653.8939    17.359439    20.447126    21.178475    7517.3133    3035.0968     5268.926     2657.659    1089.6972    799.43991   -498.63676   -3018.8333 
 9024000    280.53083   -3816.6295   -3335.8092   -3816.6295            0    4177.9773     17.47766    20.586375    21.322705     7671.945     2350.528    4746.4553    5436.9485   -247.93457    -299.2451    1346.1208    -2868.346 
 9025000    260.32902   -3835.8791   -3389.6841   -3835.8791            0    5098.5004    17.423572    20.522667    21.256718    7600.9382    5208.2113     4936.327    5150.9628    444.37523   -344.69314   -265.74238   -2824.5057 
 9026000    280.06194   -3864.6734   -3384.6568   -3864.6734            0    5747.4704    17.414062    20.511465    21.245115    7588.4984    6095.6125    4978.6146     6168.184    160.83023   -1063.9318    79.435511   -2748.5816 
 9027000    258.87734   -3823.1027   -3379.3958   -3823.1027            0    4930.8498    17.425413    20.524834    21.258963     7603.347    3146.7088    5225.8157    6420.0248    -570.7127   -818.79865   -679.67022   -2832.6286 
 9028000    262.67488    -3851.967   -3401.7512    -3851.967            0    5855.4762    17.400045    20.494955    21.228015    7570.1893    5098.9576    6719.0604    5748.4106    1193.3762   -445.80741   -162.97225   -2755.2865 
 9029000    248.28856   -3867.3524   -3441.7943   -3867.3524            0    2982.0196    17.455757    20.560576    21.295983    7643.1375    3067.5985    3867.5065    2010.9539     68.24059   -626.62024    425.50956   -3109.3965 
 9030000    267.23186   -3845.5893    -3387.563   -3845.5893            0     5802.508    17.302544    20.380111    21.109063    7443.6421    6954.2569    5804.5139    4648.7533   -362.97089    863.75054   -351.43264    -2757.655 
 9031000    272.98638   -3827.2149   -3359.3256   -3827.2149            0    3164.6294     17.45563    20.560426    21.295827    7642.9697    3016.9517    1657.0504    4819.8862   -30.948724    48.416091   -353.65428   -3006.5806 
 9032000    274.43621   -3845.6191   -3375.2448   -3845.6191            0    4369.3295     17.37288    20.462958    21.194873    7534.7881    6070.2531    3950.6806     3087.055    421.98261    1920.8265    260.17792   -2895.1116 
 9033000    270.06831   -3858.7934   -3395.9056   -3858.7934            0    5788.9324    17.383603    20.475589    21.207956    7548.7494    7026.3827    5388.0982    4952.3163   -599.67196    94.924604    521.05563   -2758.5976 
 9034000    263.15545   -3894.5146   -3443.4751   -3894.5146            0    2676.0401    17.496862    20.608992    21.346131    7697.2586    2234.9424    3764.5391    2028.6388   -786.46901    36.277956    1471.1281   -3143.0719 
 9035000    263.82421   -3900.9081   -3448.7225   -3900.9081            0    5875.5302    17.339596    20.423754    21.154267    7491.5646    6876.0977    4781.1145    5969.3784   -191.00708    349.55978   -1049.3189   -2806.7809 
 9036000    248.77725   -3874.5133   -3448.1176   -3874.5133            0    3676.0129    17.309469    20.388268    21.117512    7452.5835    4084.0387    3946.2127    2997.7874   -39.172584    47.581879    1012.7178   -3048.5781 
 9037000    267.19681   -3885.8746   -3427.9084   -3885.8746            0    6151.3176    17.319819    20.400458    21.130138     7465.959    6471.6559    6233.2904    5749.0064   -43.581692    796.89057    424.27275   -2758.1323 
 9038000    268.67394   -3876.2956   -3415.7977   -3876.2956            0    2543.6851    17.403129    20.498587    21.231777    7574.2144    2988.0097    1256.9985    3386.0471    33.338873    1122.0215    1147.5734   -3134.8168 
 9039000    267.39365   -3828.2824   -3369.9788   -3828.2824            0    6733.2848    17.284876    20.359301    21.087508    7420.8625    5964.5897    7890.7675    6344.4972   -1652.8258   -84.617222   -1156.6591   -2641.2646 
 9040000    258.17703   -3863.4414   -3420.9348   -3863.4414            0    2606.1616    17.525298    20.642486    21.380822    7734.8482      1642.36    2947.2992    3228.8257   -4.2907843   -538.40224   -208.29988   -3126.9472 
 9041000    251.24938   -3833.7094   -3403.0766   -3833.7094            0    3388.0697    17.410814    20.507639    21.241153    7584.2535    4427.3863    2512.7384    3224.0844    1176.8982    209.92317    667.84807   -3028.3271 
 9042000    266.86983   -3879.4025   -3421.9968   -3879.4025            0    3840.1377    17.392675    20.486274    21.219023    7560.5732    4448.2095      3633.61    3438.5937   -619.58875    461.64943    753.77093   -2998.5709 
 9043000    270.20663   -3847.1256   -3384.0007   -3847.1256            0    3563.6184    17.338628    20.422614    21.153086    7490.3099    3685.4758    3167.2173    3838.1621    312.79312    33.767543   -1109.5502   -2994.7164 
 9044000    259.81624   -3847.6055   -3402.2894   -3847.6055            0    5000.8151    17.275994    20.348839    21.076672    7409.4285    4850.6998    6575.4907    3576.2549   -153.38313    463.60322    1062.3638   -2861.9067 
 9045000    255.41212   -3898.7162   -3460.9486   -3898.7162            0    4651.8236    17.325158    20.406748    21.136652    7472.8663    4568.3611    4699.4662    4687.6436   -1984.1463    2061.5584   -610.18838   -2953.9739 
 9046000    272.37521   -3867.2388    -3400.397   -3867.2388            0    4924.1071    17.354855    20.441727    21.172883    7511.3597    4541.3037    4266.6208     5964.397   -459.39064    859.51238    300.09909   -2860.9833 
 9047000    250.60439   -3860.8829   -3431.3555   -3860.8829            0     3624.383    17.453134    20.557486    21.292782    7639.6917    4406.6985    2802.3363    3664.1142     -188.254   -26.414104    2495.9185   -3027.5374 
 9048000    272.62381   -3899.7168   -3432.4489   -3899.7168            0    3619.1953    17.392023    20.485505    21.218227    7559.7226    4404.4924    4049.5824    2403.5111     1221.301   -1099.1093    632.01396   -3033.4298 
 9049000    269.98163   -3880.4796   -3417.7403   -3880.4796            0    5156.1642    17.336686    20.420326    21.150716     7487.793    4848.7733    5691.7434    4927.9758     305.7325   -1513.2982   -2218.1852    -2854.678 
 9050000    261.86912   -3916.4563   -3467.6215   -3916.4563            0    4214.1173     17.37362    20.463829    21.195775    7535.7506    3669.4062    4853.0008     4119.945   -825.86659   -335.16037    711.02959    -3004.485 
 9051000    256.63817   -3876.1965   -3436.3274   -3876.1965            0    3507.5188    17.411551    20.508507    21.242052    7585.2164    3008.0861    4534.4335    2980.0368    541.83089    311.39028   -1603.0201   -3048.3166 
 9052000    259.98391   -3907.7184   -3462.1149   -3907.7184            0    6538.0061    17.322504    20.403622    21.133415    7469.4325    7340.6332    7501.4648    4771.9203   -1795.1509    141.19151   -103.81763   -2749.9036 
 9053000    267.93339   -3926.9489   -3467.7203   -3926.9489            0    5747.9607    17.234664    20.300157    21.026249    7356.3779    5582.2088    6342.0673    5319.6059    633.70876    248.25084    1180.8715    -2851.049 
 9054000    269.30893   -3893.9241   -3432.3379   -3893.9241            0    4971.7365     17.31354    20.393063    21.122478    7457.8424    4827.2287    5346.7841    4741.1967   -429.93695    1053.6604    991.98956    -2891.587 
 9055000    269.78708   -3903.5846   -3441.1788   -3903.5846            0    2571.6985    17.441204    20.543434    21.278228     7624.036    2638.5649    2002.8251    3073.7054    689.73435   -533.59768   -408.51368   -3155.2349 
 9056000    266.93762   -3868.9143   -3411.3924   -3868.9143            0     2605.004    17.474423    20.582562    21.318756     7667.683    2877.9173    2418.2008    2518.8939    405.35724    521.49838   -1253.3888    -3120.087 
 9057000    271.96947     -3900.71   -3434.5636     -3900.71            0    4721.5627    17.301302    20.378649    21.107548    7442.0392    3739.8966    7646.9639    2777.8275   -45.925126    573.16717   -1416.0701   -2922.1111 
 9058000    247.30885   -3833.4112   -3409.5323   -3833.4112            0    4562.2757    17.303356    20.381068    21.110054    7444.6898    3822.1264    3539.8754    6324.8253   -345.07124   -36.525606   -814.41501   -2914.1916 
 9059000    272.13869   -3868.9909   -3402.5545   -3868.9909            0    4817.3386    17.336842     20.42051    21.150907    7487.9956    4532.6717    5107.4038    4811.9404   -1168.3398    -127.6182    -517.9376   -2876.4783 
 9060000    256.59722   -3887.5079    -3447.709   -3887.5079            0    5070.0722    17.380212    20.471594    21.203818    7544.3317    4120.8211    5803.6793    5285.7163    1880.4504    1416.1108   -905.00206   -2889.8675 
 9061000    276.24354   -3898.4542   -3424.9822   -3898.4542            0    5688.9109    17.328069    20.410177    21.140204    7476.6341    4385.6373    5205.0407    7476.0548     166.4545   -1463.0728    1417.2579   -2804.6689 
 9062000    253.12861   -3835.8554   -3402.0016   -3835.8554            0    5831.7681    17.293201    20.369106    21.097664    7431.5897    5549.6188    5392.5374    6553.1481    715.51185     657.0845    552.68807   -2769.9422 
 9063000     272.6959   -3857.5604   -3390.1689   -3857.5604            0    3295.0516    17.382771    20.474608     21.20694    7547.6645    5754.1931    2336.9603    1794.0013   -662.81642    1341.8762   -1118.9861   -3027.4663 
 9064000    267.78897   -3892.1574   -3433.1763   -3892.1574            0    4830.0828    17.344246     20.42923    21.159939    7497.5925    4293.9175    4319.4284    5876.9026    292.95874      682.328   -507.68697   -2905.0324 
 9065000    263.54028   -3920.9999   -3469.3008   -3920.9999            0    6388.6115    17.200597    20.260031    20.984688    7312.8413    5971.8635    6184.2227    7009.7482    1027.6044   -285.45511   -1622.3152   -2787.9536 
 9066000    271.92732   -3867.1476   -3401.0735   -3867.1476            0    4604.8267    17.360383    20.448238    21.179627    7518.5398    4152.0738    6531.9486    3130.4576    1259.3654    297.91092    1282.1519   -2896.1534 
 9067000    255.58347   -3883.2107   -3445.1494   -3883.2107            0     3683.812    17.393477    20.487219    21.220002    7561.6196    4436.6167    3866.2998    2748.5195    616.61402   -647.96345    601.35248   -3038.9042 
 9068000    259.95552   -3858.7845   -3413.2297   -3858.7845            0    4181.0117     17.36575     20.45456    21.186175    7525.5155    2666.0105    4266.9646    5610.0601    1446.2873    1398.8582   -1083.6415   -2954.3556 
 9069000    247.89979   -3889.4975   -3464.6058   -3889.4975            0    4484.1044     17.38079    20.472275    21.204523    7545.0851     3538.725     5947.526    3966.0623   -6.0342243   -1095.5962    189.94972   -2971.1869 
 9070000    269.62632   -3890.4054   -3428.2751   -3890.4054            0    4760.5328    17.349867    20.435851    21.166797    7504.8846    5969.9286    5291.0773    3020.5925   -17.042989   -1391.3699    401.68647   -2907.2298 
 9071000     268.7399   -3901.2342   -3440.6232   -3901.2342            0    3200.3153    17.371623    20.461478     21.19334    7533.1531    5150.7235    1011.5998    3438.6225   -1794.7286    385.94066    643.68606   -3089.0259 
 9072000    268.97539   -3805.2478   -3344.2332   -3805.2478            0    4180.9088    17.462011    20.567942    21.303613    7651.3552     6021.906    2629.3958    3891.4246    -1413.143    158.99818    554.38556   -2877.6974 
 9073000    249.75625   -3874.7149   -3446.6412   -3874.7149            0    3365.6322     17.45055    20.554443    21.289631       7636.3    5025.6526    3005.9937    2065.2502    778.10471   -696.12724    157.71311   -3071.8188 
 9074000    268.92425   -3863.9319   -3403.0049   -3863.9319            0     4463.578    17.376576    20.467311    21.199382    7539.5978    6638.9869    3182.3387    3569.4084    881.46846    786.18547   -419.99812   -2912.2019 
 9075000     265.0751   -3840.2306   -3385.9009   -3840.2306            0     6063.237    17.309871    20.388741    21.118002     7453.102    5616.6841    5678.6091    6894.4177   -191.34139   -1336.9378    702.40266   -2726.8523 
 9076000    254.61611   -3853.1609   -3416.7576   -3853.1609            0    6245.8187    17.336178    20.419727    21.150096    7487.1345    4353.6961    7261.1767    7122.5831    239.55697   -303.17092   -1037.9112   -2734.7631 
 9077000    263.90348   -3885.0588   -3432.7372   -3885.0588            0    4046.7241    17.304443    20.382349    21.111381    7446.0937    3454.5279    3698.3984     4987.246   -978.74332    264.97672   -742.63662   -2993.2887 
 9078000    270.10299   -3817.4668   -3354.5195   -3817.4668            0    4214.8265    17.316732    20.396823    21.126372     7461.968    3168.9786    4121.2687    5354.2322    743.65337   -377.56692   -1366.1736   -2895.8403 
 9079000    271.50936   -3897.1561   -3431.7983   -3897.1561            0     4956.015    17.392249    20.485772    21.218503    7560.0182    5078.5848     4912.197    4877.2632    620.81327    188.71909    129.14854   -2885.3723 
 9080000    283.32278   -3877.1457   -3391.5402   -3877.1457            0    4197.6159    17.404493    20.500194    21.233441    7575.9963    3676.9158    4524.2863    4391.6455    702.57288    202.53494   -425.73439   -2927.7534 
 9081000    267.19035   -3892.1996   -3434.2444   -3892.1996            0    2731.6739    17.536043    20.655143    21.393932     7749.085    2686.3454    1527.8693     3980.807    584.02157   -732.07588    -375.1068   -3125.5313 
 9082000    267.24967   -3919.6908    -3461.634   -3919.6908            0    2685.2591    17.447814     20.55122    21.286292    7632.7083    1212.8123    1804.3359    5038.6291   -612.62791    251.45327   -256.46523   -3162.7238 
 9083000    244.92525   -3862.2216   -3442.4281   -3862.2216            0    4252.4803    17.377363    20.468238    21.200342    7540.6226     3857.133    4022.4074    4877.9006    602.93607   -864.52566   -702.27884   -2974.7733 
 9084000    283.88504    -3861.403   -3374.8338    -3861.403            0    3109.4774    17.401317    20.496453    21.229566    7571.8492    3116.1867    2617.0026    3595.2428    723.00829    -458.6289    979.21885   -3031.4615 
 9085000    263.37801   -3879.1927   -3427.7718   -3879.1927            0    4991.0505    17.314474    20.394163    21.123618    7459.0494      5459.73    3499.3446     6014.077    699.26913    747.75472   -978.94533   -2884.8324 
 9086000    255.65196   -3847.7527    -3409.574   -3847.7527            0    4567.3368    17.269781    20.341521    21.069093    7401.4376    3144.7867    6003.5026     4553.721    483.50133    559.77749   -474.54128   -2916.5649 
 9087000     257.9991   -3869.9974   -3427.7958   -3869.9974            0    4572.2254    17.336418    20.420011     21.15039    7487.4465    4897.7723    5066.1358    3752.7682    871.51682    386.55787   -489.97338   -2928.5237 
 9088000      269.467   -3833.7617   -3371.9044   -3833.7617            0    4422.9297    17.439239    20.541121    21.275831    7621.4606    3245.7131    5516.3722    4506.7039   -400.76216    9.3880416   -292.60706   -2880.2905 
 9089000    256.66133   -3889.8863   -3449.9775   -3889.8863            0    3822.2001    17.372771    20.462829     21.19474    7534.6464    4466.8429    3290.5049    3709.2525     587.2759    176.00197    150.31602   -3029.9747 
 9090000    279.05961   -3883.3971   -3405.0985   -3883.3971            0    5824.7507    17.341917    20.426488    21.157098    7494.5733    6790.9586    5413.8703    5269.4233    1869.2249    49.010059    116.79138   -2768.4493 
 9091000    255.79004   -3883.4723   -3445.0569   -3883.4723            0    5508.1577    17.359641    20.447364    21.178722     7517.576    5801.3226    5548.7604    5174.3902    884.86075   -2018.9312   -608.36157   -2841.1638 
 9092000     267.9205   -3848.3023   -3389.0957   -3848.3023            0    4192.3195    17.319513    20.400098    21.129765    7465.5633    2571.4148    2860.7527    7144.7912     318.3091    679.70183    223.67634   -2932.6461 
 9093000    256.76903   -3891.4256   -3451.3322   -3891.4256            0    1758.1631    17.362111    20.450273    21.181734    7520.7845    1422.6086    2722.4329    1129.4479    296.11764    388.67076    1273.3341   -3258.4918 
 9094000    260.33909   -3875.6192   -3429.4069   -3875.6192            0    3805.8662    17.370504    20.460159    21.191974    7531.6966    3981.3415     4471.596    2964.6611   -701.07558    118.40166   -256.02543   -3011.3627 
 9095000    254.66597    -3889.811   -3453.3222    -3889.811            0    5221.6078    17.388205    20.481009     21.21357    7554.7459    4231.1736    7057.6022    4376.0476    149.72651    1383.4552    43.602779   -2878.0148 
 9096000    264.44105   -3852.4066   -3399.1637   -3852.4066            0    6792.2219      17.3561    20.443193    21.174401    7512.9761    8573.3897    5792.7313    6010.5447    1514.1221   -134.29323   -607.12095   -2654.9464 
 9097000    277.03185   -3883.7872   -3408.9641   -3883.7872            0    4407.4399    17.383006    20.474885    21.207227    7547.9716    4692.0505    4428.5388    4101.7303    177.17199   -747.39073    -563.2513   -2923.7956 
 9098000    262.55175     -3905.11   -3455.1053     -3905.11            0    6325.8673     17.33664    20.420272    21.150661    7487.7341    6315.2838    6683.7707    5978.5473   -1718.6355    1182.5466   -2391.7198   -2764.3147 
 9099000    270.28196   -3889.0901   -3425.8361   -3889.0901            0    3224.0021    17.438382    20.540111    21.274786    7620.3367    3178.9992    4308.5635    2184.4436     218.4077    1495.7935   -391.93691   -3067.5373 
 9100000    256.86045   -3878.1166   -3437.8666   -3878.1166            0    4881.0189    17.393442    20.487177    21.219959    7561.5739    5025.3886    6751.1667    2866.5014   -331.75168    932.07972    407.10915   -2899.5985 
 9101000    262.26971    -3914.448   -3464.9267    -3914.448            0    3266.8397    17.444746    20.547606    21.282549    7628.6824    4131.1483    3350.1331    2319.2378    412.50197   -1850.6274   -554.57876   -3101.4695 
 9102000    271.94222   -3877.9211   -3411.8214   -3877.9211            0    3886.3207    17.428065    20.527959    21.262199      7606.82    3709.0159    4108.9637    3840.9825    641.64312   -808.69319    477.03946   -2980.6821 
 9103000    286.18601   -3899.7967   -3409.2836   -3899.7967            0    4397.2304     17.41483     20.51237    21.246052    7589.5031    5707.4643    4792.5376    2691.6894    399.43974   -704.64565    787.77192   -2922.5757 
 9104000    263.32584   -3888.5846   -3437.2531   -3888.5846            0    4286.3925    17.347203    20.432713    21.163547    7501.4279    4325.3078    2930.3139    5603.5558   -193.90552    720.78669    827.19004   -2968.3191 
 9105000    262.70904   -3860.5585   -3410.2842   -3860.5585            0    4288.9585    17.454613    20.559228    21.294587     7641.634    3772.6313    4327.9285    4766.3157   -284.55403   -1177.1218    1902.3204   -2932.2995 
 9106000    257.34021   -3888.9644   -3447.8921   -3888.9644            0    4645.2383    17.400688    20.495711    21.228798    7571.0273    3720.5674    7182.1949    3032.9526   -1315.8072    1134.8831    173.76384    -2934.985 
 9107000    250.02377   -3879.4921   -3450.9599   -3879.4921            0    3114.1875    17.406115    20.502104    21.235419    7578.1136    715.21204    3420.5082    5206.8421    -17.20999   -576.78869    431.85558   -3106.7829 
 9108000    255.85098   -3830.7451   -3392.2253   -3830.7451            0    3037.9982    17.406192    20.502195    21.235513    7578.2143    3003.1583    2955.4579    3155.3785   -606.72158     1067.521    245.27112   -3056.4642 
 9109000    271.45964   -3883.2658   -3417.9932   -3883.2658            0    3610.4942    17.382809    20.474653    21.206986    7547.7145    3772.8755    3423.5148    3635.0923    1669.9522   -293.62901   -1506.4197   -3020.5657 
 9110000    252.05762    -3818.986   -3386.9679    -3818.986            0    3912.4813    17.453915    20.558407    21.293736     7640.718    4985.0523    1405.3419    5347.0499    367.20173   -1118.2393   -90.976453   -2950.9922 
 9111000    267.84321   -3848.1168   -3389.0427   -3848.1168            0    5426.1038    17.443338    20.545949    21.280832     7626.836    5150.5038    4502.3182    6625.4896    128.19827   -1169.0741    331.19821   -2785.4995 
 9112000    254.84562   -3844.3157   -3407.5191   -3844.3157            0    4110.7537    17.384329    20.476444    21.208841    7549.6951    3539.2026     4053.555    4739.5035   -38.119343   -182.53142    764.66266   -2954.9063 
 9113000    255.76141   -3859.0211   -3420.6548   -3859.0211            0    4907.5466     17.37842    20.469484    21.201632    7541.9991     4976.172    5552.9371    4193.5306   -1741.5564     1063.732    377.58495   -2880.8624 
 9114000    271.45624   -3846.3843   -3381.1176   -3846.3843            0    5860.7294    17.427538    20.527338    21.261556    7606.1293    7083.9505     4875.971    5622.2668    700.70507   -1525.2035   -1095.1922   -2731.0009 
 9115000    284.40136   -3891.6585   -3404.2043   -3891.6585            0    3339.7861    17.418437    20.516618    21.250453    7594.2195    3559.6553    3688.3358     2771.367    719.71445     1182.739    315.55786     -3034.31 
 9116000    255.86009   -3860.0032   -3421.4677   -3860.0032            0    4346.3082    17.407974    20.504294    21.237688    7580.5428    4323.8958    3448.3396    5266.6894    277.49137    1453.5693   -1062.5727    -2940.964 
 9117000    250.41105   -3885.9345   -3456.7385   -3885.9345            0    4542.6609    17.333048    20.416041    21.146278      7483.08    3079.2213    5100.4182     5448.343   -113.10378   -324.80598    276.93376   -2960.9841 
 9118000    259.96346    -3905.205   -3459.6366    -3905.205            0    4171.0894    17.306008    20.384192    21.113289    7448.1136    3756.1712    3581.6831    5175.4138   -575.68253   -435.75719   -67.500158   -3006.5599 
 9119000    263.51974   -3873.1757   -3421.5119   -3873.1757            0    3088.3014    17.374833    20.465258    21.197255    7537.3291    2636.9851    3059.4713    3568.4477   -1538.6848    775.21945    89.096601   -3082.0328 
 9120000    261.03565   -3888.4041   -3440.9979   -3888.4041            0    4447.9198    17.434579    20.535632    21.270146    7615.3526     4875.148    4105.7131    4362.8984    578.31476   -860.49239   -427.13464   -2947.0026 
 9121000    251.18127   -3860.6156   -3430.0995   -3860.6156            0    4659.4726    17.321685    20.402657    21.132416    7468.3735    4966.4866    3580.2869    5431.6442    729.25686    768.03058     682.7857   -2922.5964 
 9122000    273.61085   -3821.3178   -3352.3582   -3821.3178            0    2072.3356    17.398115    20.492681    21.225659    7567.6694    1313.2601    4008.0939    895.65295    382.82558    145.58083   -612.74968   -3123.6414 
 9123000    250.87893   -3894.6155   -3464.6176   -3894.6155            0    3642.8438    17.392871    20.486504    21.219261    7560.8285    4237.7952     2445.995    4244.7413   -337.46765    776.22465   -559.29913   -3062.9324 
 9124000    254.99348   -3843.8305   -3406.7804   -3843.8305            0    4370.7781    17.492683    20.604069    21.341032    7691.7443    6476.4402    2506.7733    4129.1208    544.84694   -1765.2586    786.87025   -2916.4831 
 9125000    273.92449    -3821.622   -3352.1248    -3821.622            0    4738.3407    17.434081    20.535045    21.269539    7614.7001     3273.862    5820.2671    5120.8929   -556.02929   -20.605672     2464.755   -2825.9198 
 9126000     271.1875    -3869.943   -3405.1369    -3869.943            0    5530.1148    17.362855     20.45115    21.182643    7521.7524    4041.4605    5447.6461    7101.2377    109.44001   -1464.0928   -923.27576   -2798.4997 
 9127000    275.75557   -3867.6252   -3394.9896   -3867.6252            0    3880.2084    17.384757    20.476948    21.209363    7550.2528      3328.47    3128.4679    5183.6875   -360.27668   -1090.6897    328.65615   -2967.7294 
 9128000    274.11786    -3897.378   -3427.5494    -3897.378            0    3633.7509      17.4105    20.507269    21.240769    7583.8422    3418.6748    3698.8409    3783.7369    1202.3574   -703.45495    2859.4329   -3025.6472 
 9129000    264.38461   -3824.2982    -3371.152   -3824.2982            0    3177.7747    17.423401    20.522464    21.256508    7600.7133    4062.6663    3094.5604    2376.0975   -684.24882   -1725.6292     1612.259   -3018.9001 
 9130000    247.60887   -3842.8553   -3418.4622   -3842.8553            0     5842.704    17.472784    20.580631    21.316756     7665.525    6037.1225    3162.6834    8328.3062    558.76448   -782.24598    950.53632    -2765.284 
 9131000    264.22128   -3890.6006   -3437.7344   -3890.6006            0    5303.7807    17.407737    20.504015    21.237399     7580.233    5733.9749    5468.0089    4709.3583   -285.85473    -416.0908    862.97655   -2851.4018 
 9132000    269.58166   -3866.5219   -3404.4681   -3866.5219            0     5446.432    17.364005    20.452505    21.184046     7523.247    5262.9982    5891.6752    5184.6227    74.810511    422.90175   -959.09676   -2806.8919 
 9133000    254.83785   -3860.3228   -3423.5394   -3860.3228            0    3976.3572    17.345234    20.430394    21.161145    7498.8739    5649.2374    2479.3313    3800.5029   -120.52865    390.19807    237.07333   -2988.6715 
 9134000    256.65121    -3892.059   -3452.1676    -3892.059            0    4271.2397    17.432187    20.532814    21.267227     7612.218    4835.9727    4549.0529    3428.6935    486.24223    722.28158    272.37255     -2977.99 
 9135000    241.44959   -3878.9641   -3465.1277   -3878.9641            0    5654.7744    17.352294     20.43871    21.169758     7508.035    4948.0776    6118.1184    5898.1271    261.62272     219.8391    721.72319    -2845.947 
 9136000    257.58949    -3839.844   -3398.3444    -3839.844            0    5290.0791    17.289892    20.365209    21.093628    7427.3255    5516.2481    3431.3772    6922.6121   -534.85387   -104.39854    702.23547   -2825.3235 
 9137000    258.10897   -3881.7135   -3439.3236   -3881.7135            0    4546.7032    17.405156    20.500975     21.23425    7576.8619    6592.3636    2728.2196    4319.5264   -544.17375   -34.247665   -446.95049   -2936.9094 
 9138000    256.10018   -3832.6729   -3393.7259   -3832.6729            0    3392.5207    17.396822    20.491158    21.224082    7565.9823     3555.963    2213.1429    4408.4564   -263.08331      678.243   -603.22553   -3019.3881 
 9139000    246.84186    -3889.249   -3466.1705    -3889.249            0    3708.3378    17.430611    20.530958    21.265305    7610.1542     4116.452    5527.1943    1481.3672   -936.21331    495.26015    1054.8751   -3054.5958 
 9140000    263.04579   -3862.2673   -3411.4158   -3862.2673            0    3336.6268    17.415712    20.513409    21.247129    7590.6563    2579.6382    3280.4529    4149.7894    1790.6818   -192.93119    1361.0456   -3042.0447 
 9141000    251.99549   -3864.2483   -3432.3366   -3864.2483            0     4438.442    17.321289    20.402191    21.131932     7467.861    4967.2469    4676.1244    3671.9548   -1710.1914     212.7818   -668.20693    -2948.941 
 9142000    246.88215   -3846.8732   -3423.7257   -3846.8732            0     2051.994    17.361436    20.449478    21.180911    7519.9079    1683.9775    3168.0291    1303.9754   -315.46247    715.40137   -82.258839   -3198.6832 
 9143000    269.60257   -3892.8447   -3430.7551   -3892.8447            0     4992.372    17.333011    20.415998    21.146233    7483.0325    5440.1019    5724.1898    3812.8244    817.89586    1388.0143    545.85184   -2885.9258 
 9144000    253.82219   -3858.7795   -3423.7369   -3858.7795            0    4649.7192    17.283904    20.358156    21.086323     7419.611    4997.6268    5132.2456    3819.2852    446.77373   -1243.7912    48.518133   -2920.6028 
 9145000    267.04341     -3830.35   -3372.6468     -3830.35            0    3109.0495    17.334002    20.417164    21.147442    7484.3156    4457.7662    2533.3779    2336.0043   -141.60794   -917.48064    916.85527   -3033.2907 
 9146000    257.09964   -3876.6729   -3436.0129   -3876.6729            0    3825.0952    17.375612    20.466176    21.198206    7538.3433    3486.8461    4333.9403    3654.4991   -464.10345   -265.74024     881.7322   -3015.4858 
 9147000    247.17027   -3869.8262   -3446.1848   -3869.8262            0    5603.9172    17.323846    20.405202    21.135052    7471.1685     5111.592    6295.4784    5404.6811   -309.37749    573.80171    196.52989   -2835.5858 
 9148000    259.29958   -3903.3047   -3458.8741   -3903.3047            0     3451.051    17.278823    20.352172    21.080124    7413.0697    2881.8054    4050.2601    3421.0874    250.07032   -618.50983    -485.7979    -3085.774 
 9149000    275.17774   -3869.1645   -3397.5193   -3869.1645            0    3739.2878     17.45076     20.55469    21.289887    7636.5753    4994.2324    3103.4734    3120.1575   -201.61055   -117.85413   -379.50934   -2981.0688 
 9150000    252.21985   -3847.3613   -3415.0651   -3847.3613            0    4766.0422    17.410912    20.507755    21.241272    7584.3813    5083.7293    4801.4269    4412.9705    1138.5029   -1062.9421    614.38233   -2887.8911 
 9151000    262.97247   -3811.5736   -3360.8477   -3811.5736            0    4613.1495     17.33189    20.414677    21.144865    7481.5807     4561.553    4790.7995    4487.0961    923.28164    907.84345   -907.89078   -2857.5016 
 9152000    240.90729   -3819.0303   -3406.1234   -3819.0303            0    6334.8283    17.315517    20.395392     21.12489    7460.3974    6972.7772    6996.2837    5035.4241    1333.4537   -35.379123    683.40569   -2716.8799 
 9153000    256.18238   -3813.5394   -3374.4516   -3813.5394            0    3821.2811     17.37323    20.463371      21.1953    7535.2441    3975.6727    3584.3516     3903.819    399.21658   -1773.8247     137.6959   -2954.5164 
 9154000    250.04051   -3862.5195   -3433.9586   -3862.5195            0    6356.3255    17.277569    20.350694    21.078594    7411.4553     6365.976    5328.1879    7374.8126   -397.19535   -183.18121   -128.12052   -2746.9131 
 9155000    267.31294   -3880.5342    -3422.369   -3880.5342            0    4440.5847    17.348273    20.433975    21.164853    7502.8171    4088.5353    4449.2675    4783.9512      284.214    122.56292    -242.8645   -2936.4762 
 9156000    248.52693    -3871.315   -3445.3484    -3871.315            0    5128.9693    17.341856    20.426415    21.157023    7494.4934     5612.906    4286.1522    5487.8498    275.95005    55.170363    -1404.159   -2884.7546 
 9157000    254.44478   -3882.8991   -3446.7894   -3882.8991            0     3020.573    17.333778      20.4169    21.147168    7484.0253    2040.9185    4478.3082    2542.4923    694.72583   -58.652104   -166.07515   -3117.1035 
 9158000     259.7629   -3895.1072   -3449.8824   -3895.1072            0    6280.3597     17.30708    20.385454    21.114597    7449.4976    6963.4226    6464.6296     5413.027    246.73591   -876.65465   -1172.4112   -2767.5636 
 9159000    262.38222    -3903.236   -3453.5219    -3903.236            0    4773.1012    17.404056     20.49968    21.232908    7575.4256    6075.9735    5160.3832    3082.9469   -948.14116    1221.7968    80.472378   -2926.1906 
 9160000    270.55843   -3882.1916   -3418.4637   -3882.1916            0    4023.2605    17.423673    20.522785     21.25684    7601.0693    3388.0867    4624.6408     4057.054   -167.61314    143.02102    1076.9554     -2972.47 
 9161000    246.02808   -3904.1368   -3482.4531   -3904.1368            0    2902.6025    17.483729    20.593523    21.330108    7679.9392     1861.984    2687.5267    4158.2969   -113.76647    966.92225   -983.64161   -3157.3499 
 9162000    259.44169   -3910.9505   -3466.2763   -3910.9505            0    3609.9173    17.550162    20.671772    21.411156    7767.8166    2181.9998    4810.6457    3837.1064   -337.19173   -256.93915   -828.19302   -3057.3245 
 9163000    255.34317   -3864.3083   -3426.6588   -3864.3083            0    4007.2138    17.459585    20.565085    21.300653    7648.1667    3160.3193    4157.6487    4703.6733   -709.74975    1663.9574    947.68991   -2979.6915 
 9164000    258.17064   -3896.8075   -3454.3118   -3896.8075            0    3379.3331    17.472573    20.580383    21.316499    7665.2479    3174.2286    3401.4706    3562.3001   -1341.9383    515.36986    1047.4277   -3076.5369 
 9165000     261.8366   -3868.8506   -3420.0716   -3868.8506            0    5638.2298     17.39051    20.483723    21.216381    7557.7497    4334.7511     7328.703    5251.2351    199.37738    1278.6959    357.50587   -2798.6145 
 9166000    265.89674   -3844.3707   -3388.6327   -3844.3707            0    4196.8131    17.283306    20.357452    21.085593     7418.841    4620.6844    3615.9517    4353.8033   -149.19633    -37.09233    847.24048   -2934.5536 
 9167000     252.6527   -3899.9558   -3466.9177   -3899.9558            0    5333.7515    17.265385    20.336343     21.06373    7395.7871    7100.9323    5316.7951    3583.5271    477.84737    1824.9875    847.79773   -2891.6194 
 9168000    274.35686   -3865.1501   -3394.9118   -3865.1501            0    4312.4942     17.29872    20.375608    21.104398    7438.7081    4713.9766    5564.6894    2658.8165    266.30572    216.38057   -320.87002   -2927.0669 
 9169000     269.6652   -3867.8288   -3405.6319   -3867.8288            0    2964.6991    17.347745    20.433352    21.164208    7502.1313    3104.1191    2725.4368    3064.5415    1203.5347    815.63673   -743.76388   -3081.2615 
 9170000    260.65847   -3876.5232   -3429.7635   -3876.5232            0    3208.6243    17.425756    20.525239    21.259382    7603.7966    3516.6002    2720.2216     3389.051   -1062.2994   -562.76804    -467.4518   -3073.9477 
 9171000    255.98573   -3900.8747   -3462.1239   -3900.8747            0    3024.6736    17.443616    20.546275     21.28117    7627.1998    2539.0026    4073.2051    2461.8131    1708.3086    138.38671    797.08834   -3125.6747 
 9172000    270.19171   -3922.9634    -3459.864   -3922.9634            0    3962.2369    17.363038    20.451365    21.182866    7521.9899    5397.4708    3114.8644    3374.3756    614.41458    712.64396    597.19092   -3025.2046 
 9173000    259.31595   -3901.0089   -3456.5502   -3901.0089            0    3743.0857    17.466332    20.573032    21.308885    7657.0369     2721.864    4925.3036    3582.0896    753.77318     -550.996   -553.44522   -3038.5598 
 9174000    249.39805   -3883.9414   -3456.4817   -3883.9414            0    5125.5807    17.261303    20.331535    21.058749    7390.5426    2513.2559    7087.9614    5775.5248    1229.7491   -768.27137   -1349.9823   -2904.0287 
 9175000    260.11105   -3850.4842   -3404.6627   -3850.4842            0    4891.2177    17.434197    20.535181    21.269679     7614.851    5095.7878    6828.1787    2749.6865    684.27249    -37.75384    544.06225   -2861.4696 
 9176000    261.97445    -3888.524   -3439.5088    -3888.524            0     5705.127     17.35813    20.445584    21.176878    7515.6129    5345.5765    6354.8315    5414.9729   -68.000084    740.64892     -60.6333    -2814.184 
 9177000    266.65583   -3832.6964   -3375.6574   -3832.6964            0    5502.4087    17.353019    20.439564    21.170642    7508.9756    6228.2186    5747.1357    4531.8719   -461.83932    703.48251   -134.50634   -2773.0848 
 9178000    268.85085   -3867.7601    -3406.959   -3867.7601            0    4862.4563     17.28671    20.361461    21.089746    7423.2252    4787.7001    5164.4096    4635.2593   -1850.1819   -371.75666   -400.09396   -2880.5488 
 9179000    253.89292   -3845.8438     -3410.68   -3845.8438            0    5611.4773     17.31356    20.393086    21.122502    7457.8678    4540.1578    7220.5264    5073.7477     700.7027    925.27853    -921.5258   -2800.3457 
 9180000    260.41597   -3882.4122   -3436.0682   -3882.4122            0    3143.9082    17.439607    20.541554     21.27628     7621.943    3725.5209     2520.343    3185.8608   -307.77497    -927.9469   -23.027096   -3086.5969 
 9181000      267.638    -3871.895   -3413.1726    -3871.895            0    7718.1403    17.261097    20.331293    21.058498    7390.2782    7025.3861    7320.1035    8808.9314    518.04859   -538.90644    691.19391   -2581.3143 
 9182000    275.29344   -3853.4907   -3381.6472   -3853.4907            0    6146.4088    17.310784    20.389817    21.119116    7454.2821    5322.1558    6264.1613    6852.9094   -307.89676   -337.70731    -591.7871   -2713.4523 
 9183000    255.01316   -3886.3588    -3449.275   -3886.3588            0    4238.2615     17.37318    20.463311    21.195239     7535.178    3802.8474    4660.0459    4251.8912    640.00211    -427.7865    1137.0918   -2983.5204 
 9184000    258.62089    -3862.839   -3419.5717    -3862.839            0    4414.1381    17.325661     20.40734    21.137266    7473.5171    2107.7186    5735.6894    5399.0065    828.08296    1246.8042    612.58652    -2938.459 
 9185000    268.48311   -3860.9169   -3400.7461   -3860.9169            0    4948.6721    17.349437    20.435345    21.166272    7504.3266    6519.6836    5800.8641    2525.4687   -688.85398    215.40552   -319.29284    -2859.149 
 9186000    272.13643   -3861.2778   -3394.8453   -3861.2778            0    4643.0864    17.401902    20.497142     21.23028    7572.6126    4508.9385    3621.0054    5799.3153      -597.32      1429.44    465.62233   -2882.0684 
 9187000    260.58758   -3873.7478   -3427.1096   -3873.7478            0    2223.8747    17.407298    20.503498    21.236863    7579.6595    1598.4663    1876.3736    3196.7843   -187.22747    112.79862     565.0709    -3181.279 
 9188000    278.76277   -3857.7663   -3379.9765   -3857.7663            0    6157.3894    17.312425     20.39175    21.121118    7456.4016    7333.7023    5254.6306    5883.8354     615.9722    211.05797   -724.25896   -2710.3975 
 9189000    257.26341   -3896.8723   -3455.9316   -3896.8723            0    5770.5035    17.321638    20.402602    21.132358    7468.3125     4988.882    6663.0127    5659.6157   -1083.5499   -1469.1656   -345.27852   -2827.4217 
 9190000    267.14396   -3822.5517   -3364.6761   -3822.5517            0    5318.1578     17.37083    20.460543    21.192372    7532.1212    5929.9552    3936.6725    6087.8457    664.18952    -617.8579   -1221.6483   -2780.4857 
 9191000    259.49132   -3844.1741   -3399.4148   -3844.1741            0      4469.24    17.406745    20.502846    21.236188    7578.9364    3138.8891    4717.7674    5551.0636   -1163.4433    301.39692   -967.61031   -2905.4252 
 9192000     268.3097   -3870.3804   -3410.5067   -3870.3804            0    4634.0089    17.437723    20.539334    21.273981    7619.4728     4568.894    3271.5391    6061.5935    601.53296    518.37562   -95.776167   -2895.5655 
 9193000     258.1367   -3849.2878   -3406.8503   -3849.2878            0    2935.0864    17.409151     20.50568    21.239123      7582.08    2648.0375    3534.4605    2622.7613    714.13474    405.00613   -1654.0589   -3082.2977 
 9194000    266.49853   -3854.7346   -3397.9653   -3854.7346            0    2886.1522    17.389582    20.482631     21.21525     7556.541    3603.7618    2788.6764    2266.0184    513.35453    170.41146     179.6969   -3079.8986 
 9195000    267.45993   -3894.5361   -3436.1189   -3894.5361            0     4044.086    17.395986    20.490173    21.223062    7564.8917    1785.3288    4525.2631     5821.666   -1241.2496   -487.78763   -261.45746   -2989.9504 
 9196000    255.80369   -3853.9737    -3415.535   -3853.9737            0    4317.9755    17.446167    20.549281    21.284283    7630.5474    1660.9086    5640.2464    5652.7716    -363.1461    124.22066   -45.637763   -2935.0147 
 9197000    262.63397   -3855.6669   -3405.5213   -3855.6669            0    4672.7685     17.38383    20.475856    21.208232    7549.0449    3654.5598     6332.204    4031.5416    381.08057    145.52806    -39.46575   -2891.0725 
 9198000     264.5449   -3863.2671   -3409.8462   -3863.2671            0      4675.71    17.472323    20.580088    21.316193    7664.9183      3557.84     6286.188     4183.102    567.76861    -512.2783    543.72944   -2887.1721 
 9199000    263.46267   -3837.6732   -3386.1072   -3837.6732            0    5294.0039    17.361165     20.44916    21.180581    7519.5562    4762.3803    6521.4149    4598.2164   -343.75105   -234.49188    1182.6866   -2805.5402 
 9200000    272.83832   -3872.1366    -3404.501   -3872.1366            0    5594.4892    17.318423    20.398814    21.128435    7464.1542    5751.2195    4484.3382    6547.9099    1941.7647   -1281.0818   -51.732592   -2795.5015 
 9201000    261.10669   -3869.9378   -3422.4099   -3869.9378            0     3575.334    17.382893    20.474751    21.207088    7547.8235    4298.5706    2041.6795     4385.752    194.62048    913.58202      117.932   -3028.8469 
 9202000    259.38305   -3846.0878   -3401.5141   -3846.0878            0    3580.2943    17.523859    20.640791    21.379067    7732.9435    1911.5708     3310.365     5518.947   -215.69429   -1123.3298    1006.6346   -2997.7391 
 9203000    264.54031   -3878.9459   -3425.5328   -3878.9459            0    6227.8722    17.378804    20.469935      21.2021    7542.4983     7902.744    4279.4463    6501.4262   -581.27504   -592.94502   -51.796635   -2740.4694 
 9204000     260.1606   -3896.7429   -3450.8365   -3896.7429            0    3269.4814    17.385595    20.477934    21.210385     7551.344    2687.5176       4064.6    3056.3267    986.86906    607.94148    473.65994   -3090.7731 
 9205000    252.11244   -3889.9787   -3457.8666   -3889.9787            0    3866.2937    17.330492     20.41303     21.14316    7479.7705    3340.4081    5122.0812    3136.3919   -205.11843   -387.70387     -116.788   -3036.1128 
 9206000    254.90043   -3860.9356    -3424.045   -3860.9356            0     3893.946    17.284444    20.358792    21.086981    7420.3064    5944.4625     3521.447    2215.9286   -671.68593   -416.05826    -124.4114   -3002.6516 
 9207000    251.65548      -3839.9   -3408.5711      -3839.9            0    2803.6723    17.352235     20.43864    21.169686    7507.9577    3285.4331    1743.4511    3382.1328    492.84203   -563.06054    -770.0707   -3101.5806 
 9208000     266.9698   -3832.2174   -3374.6403   -3832.2174            0    3868.0888     17.29587     20.37225     21.10092    7435.0312    2167.1797     5238.478    4198.6089    1920.6021    1562.3522    184.44421   -2955.2145 
 9209000    271.74113   -3889.1602   -3423.4052   -3889.1602            0    5834.9897    17.279009    20.352391    21.080351    7413.3092    6455.7365    7005.8925    4043.3402   -2309.2528   -171.60964    558.77847   -2792.5523 
 9210000    269.21035   -3841.4609   -3380.0436   -3841.4609            0    6976.2434    17.328125    20.410243    21.140272    7476.7064    8008.8448    6902.0842    6017.8012    446.66433   -572.29628   -317.57268   -2619.3534 
 9211000     267.9663   -3878.9882   -3419.7031   -3878.9882            0     5148.817    17.366649    20.455618    21.187271    7526.6836    5706.9443    5658.5779    4080.9288   -222.83352   -437.27169   -567.49349   -2854.5228 
 9212000    268.94841   -3873.5881   -3412.6197   -3873.5881            0    4693.2768    17.390241    20.483407    21.216054    7557.3998    5472.3071    4109.6896    4497.8337    1187.2665    535.30839   -825.69974   -2895.3412 
 9213000    270.27253   -3832.9227   -3369.6849   -3832.9227            0    5206.7682    17.352299    20.438716    21.169764    7508.0416    5960.1965    4743.6138    4916.4941   -374.24184     1748.213     2336.981   -2799.5589 
 9214000    263.34606   -3843.5779   -3392.2117   -3843.5779            0    3455.1941    17.366377    20.455299     21.18694    7526.3305    4876.6696    1338.4347    4150.4778   -812.14917     125.8315    -593.3454   -3012.9565 
 9215000    252.79107   -3908.7649   -3475.4897   -3908.7649            0    2959.4722     17.37172    20.461591    21.193458    7533.2787    2155.2902    4624.9556    2098.1708    117.23731   -214.10043    655.33784   -3150.3468 
 9216000     265.7117   -3884.0656   -3428.6448   -3884.0656            0    3525.9469    17.416727    20.514603    21.248366    7591.9825    3504.2168    3845.8335    3227.7905    82.856804   -1519.3003   -692.82143   -3038.2474 
 9217000    256.10156   -3874.7565   -3435.8072   -3874.7565            0    6282.7084    17.370029      20.4596    21.191395    7531.0797    7229.6789    5667.9049    5950.5414   -1208.7494    -838.0495   -636.48803    -2745.758 
 9218000    265.93324    -3840.507   -3384.7065    -3840.507            0    4526.8605    17.347472    20.433031    21.163876    7501.7777    3851.6388    5044.6145     4684.328     687.9002     186.7268    660.23114    -2889.442 
 9219000     274.2263   -3841.6361   -3371.6216   -3841.6361            0    4383.4634    17.326591    20.408436    21.138401    7474.7211    4495.2964     3588.826    5066.2677    177.04469   -879.28599    1169.2708   -2893.7753 
 9220000    262.17881   -3861.7208   -3412.3553   -3861.7208            0    4005.6254    17.355534    20.442527    21.173711    7512.2419    4925.3867    3355.0339    3736.4554   -1806.7698   -963.87273   -822.41821   -2973.5056 
 9221000    262.97741   -3855.4847   -3404.7505   -3855.4847            0    5721.7459    17.352744     20.43924    21.170307    7508.6188    5132.6936    4729.5703    7302.9738    271.52964   -741.88739     167.7208   -2778.1878 
 9222000    253.66161   -3849.1846   -3414.4172   -3849.1846            0    3060.9621    17.399619    20.494452    21.227494    7569.6322    1422.3296    4617.1077     3143.449      -308.53    -730.5886   -492.40238   -3076.5013 
 9223000    256.88424   -3862.7323   -3422.4415   -3862.7323            0    2614.0218    17.410516    20.507288    21.240789     7583.864     3386.424    1322.6944    3132.9472   -578.07466   -966.01762    929.26274   -3133.3231 
 9224000    263.01497    -3840.137   -3389.3384    -3840.137            0    4409.6351     17.38336    20.475302    21.207658    7548.4319    4979.2553    3840.2831    4409.3668    163.10978    986.42655    263.56326   -2903.8987 
 9225000    269.11254   -3865.0321   -3403.7824   -3865.0321            0    6083.9987    17.248908    20.316936    21.043628    7374.6335     6621.691    6879.9866    4750.3185    299.44933   -654.33387   -1116.6299   -2749.4394 
 9226000    266.94154   -3846.4892   -3388.9605   -3846.4892            0    4401.4747    17.325703     20.40739    21.137317    7473.5716    4964.7378    1795.6769    6444.0094    -808.6882   -869.53544    2480.2566   -2909.2245 
 9227000    273.11092   -3821.8883   -3353.7855   -3821.8883            0    4995.5619    17.432911    20.533667    21.268111    7613.1667    3879.2022    7184.9794     3922.504    35.569357   -198.34279    654.27925   -2799.1272 
 9228000    267.00836   -3852.7224   -3395.0792   -3852.7224            0    5495.9256    17.376476    20.467193     21.19926    7539.4676    4332.6504    7869.6985     4285.428   -936.37406   -19.888334    707.91092   -2790.7725 
 9229000    274.81558   -3880.0512   -3409.0267   -3880.0512            0    3811.4615    17.374018    20.464298    21.196261    7536.2686    2516.7007    4294.4268    4623.2572   -1429.3155    1443.4587   -681.53353   -2990.1137 
 9230000     266.4598    -3836.021    -3379.318    -3836.021            0    5031.2856    17.340307    20.424591    21.155134    7492.4861    4598.8012    4147.8338    6347.2219   -1061.8113   -500.63069   -749.23962   -2829.5483 
 9231000     262.2733   -3856.5056   -3406.9781   -3856.5056            0    5010.2742    17.362163    20.450334    21.181798    7520.8522    5733.7188    4300.1995    4996.9042    1252.8325   -211.60272    -500.8498   -2857.4317 
 9232000    257.13947   -3830.5919   -3389.8636   -3830.5919            0    4433.9026    17.358271     20.44575     21.17705     7515.796    3058.7085    5755.3489    4487.6505    387.95585   -399.67877    96.474512   -2903.8628 
 9233000    256.52396   -3879.0382   -3439.3649   -3879.0382            0    4486.4315    17.310436    20.389407    21.118691    7453.8318    4673.9066    4889.7412    3895.6466    229.05748    63.817267    753.79976   -2951.6607 
 9234000    268.61913   -3821.8263   -3361.4224   -3821.8263            0    4007.0439    17.376549    20.467279    21.199349    7539.5625    3063.9779    4280.0382    4677.1157    215.68523    374.06203   -370.34981   -2920.8207 
 9235000    251.35056   -3844.1907   -3413.3844   -3844.1907            0    4902.4119    17.332301    20.415161    21.145367    7482.1132    6561.2796    6112.8478    2033.1082   -308.71245   -352.05286    337.92229   -2878.4384 
 9236000    265.78157   -3881.9529   -3426.4124   -3881.9529            0    3113.0445    17.398308    20.492908    21.225895    7567.9214    2782.2105    4535.6719    2021.2509      774.762   -106.97915   -1701.4982   -3082.8245 
 9237000    261.86533   -3890.5227   -3441.6945   -3890.5227            0    2267.9565    17.396124    20.490336     21.22323    7565.0717    3979.4382    1310.7168    1513.7146   -960.19039   -108.90958   -316.73283   -3191.4736 
 9238000    255.17242   -3852.4968     -3415.14   -3852.4968            0    4805.0454    17.388931    20.481863    21.214455    7555.6915    4297.2126     5081.733    5036.1904   -168.64714    134.97538    888.73556   -2885.6624 
 9239000    265.35092   -3888.0153   -3433.2129   -3888.0153            0    4941.6454    17.267037    20.338289    21.065745    7397.9104    5115.9675    4509.3474    5199.6215    336.23538   -149.16824   -922.79631   -2900.0542 
 9240000     277.5104   -3879.6726   -3404.0293   -3879.6726            0    3942.4671     17.40954    20.506138    21.239598     7582.588    4143.6926    5335.8146    2347.8941   -755.35364    3.4252679    752.22911   -2968.0544 
 9241000    258.24347   -3897.3492   -3454.7288   -3897.3492            0    2759.8188    17.359054    20.446673    21.178005    7516.8129    2204.8157     2971.438    3103.2027    517.95993    555.42073    487.43902   -3152.1836 
 9242000     256.5215   -3830.9941   -3391.3251   -3830.9941            0    3326.0509    17.380328     20.47173    21.203959    7544.4826    4544.7564    3596.5357    1836.8608    713.80513    827.96369    1136.4298   -3025.3646 
 9243000    273.68975   -3823.1425   -3354.0476   -3823.1425            0    1922.5867    17.389185    20.482163    21.214765    7556.0233    3088.2688    2160.2761    519.21524    543.65187   -411.30324     -494.648   -3142.1846 
 9244000    261.70877   -3832.8486   -3384.2887   -3832.8486            0     4036.575    17.400181    20.495115     21.22818    7570.3665    4881.5627    3594.2541    3633.9081    663.76099     315.5086   -718.54538   -2938.6265 
 9245000    275.23681   -3829.1181   -3357.3717   -3829.1181            0    3932.8512    17.395033    20.489051    21.221899    7563.6485    3289.5176    3667.3618    4841.6741    547.65398    -48.42719    576.30075   -2923.5465 
 9246000    252.11037   -3827.0886     -3394.98   -3827.0886            0    3151.4215     17.39105     20.48436    21.217041    7558.4549    3176.0424    3181.9128    3096.3094    466.83233    1353.0741   -1223.6907   -3047.5916 
 9247000    265.53482   -3842.5195   -3387.4019   -3842.5195            0    2886.4477    17.377161       20.468    21.200096    7540.3594    4295.0098    2642.0141    1722.3193   -504.40835   -390.70407   -103.22475   -3069.9839 
 9248000    256.27215   -3788.7615   -3349.5198   -3788.7615            0    4363.1542    17.386215    20.478665    21.211142    7552.1526    4913.9644    3684.4907    4491.0077   -1500.8835    668.70992   -625.28327   -2868.9602 
 9249000    260.97366   -3844.4372   -3397.1373   -3844.4372            0    5469.2595    17.283731    20.357952    21.086111    7419.3879     5831.202    4882.7464      5693.83    579.58007    253.01545    226.11467   -2805.3406 
 9250000    253.25321   -3797.4101   -3363.3427   -3797.4101            0    5503.6328    17.453233    20.557603    21.292903    7639.8216    6739.9291    4336.5594      5434.41    1218.1925    141.41248   -44.115229   -2750.1337 
Loop time of 337.048 on 64 procs for 250000 steps with 864 atoms

Performance: 128.172 ns/day, 0.187 hours/ns, 741.735 timesteps/s
192.9% CPU use with 32 MPI tasks x 2 OpenMP threads

MPI task timing breakdown:
Section |  min time  |  avg time  |  max time  |%varavg| %total
---------------------------------------------------------------
Pair    | 24.601     | 31.114     | 38.617     |  55.5 |  9.23
Bond    | 0.89706    | 1.1243     | 1.5242     |  14.9 |  0.33
Kspace  | 150.6      | 159.12     | 167.06     |  28.9 | 47.21
Neigh   | 3.6848     | 3.885      | 4.3067     |   9.8 |  1.15
Comm    | 63.998     | 67.454     | 69.485     |  18.2 | 20.01
Output  | 0.47556    | 0.47583    | 0.47744    |   0.0 |  0.14
Modify  | 60.358     | 62.389     | 65.43      |  15.7 | 18.51
Other   |            | 11.48      |            |       |  3.41

Nlocal:        27.0000 ave          33 max          21 min
Histogram: 4 1 0 4 4 7 7 3 0 2
Nghost:        2452.22 ave        2486 max        2424 min
Histogram: 2 3 7 3 5 4 2 1 2 3
Neighs:        8081.94 ave       10011 max        5464 min
Histogram: 2 2 3 2 3 3 6 2 4 5

Total # of neighbors = 258622
Ave neighs/atom = 299.33102
Ave special neighs/atom = 2.0000000
Neighbor list builds = 14338
Dangerous builds = 1

unfix		3
unfix		2
unfix		1

write_data	data.final.${pid}
write_data	data.final.1
System init for write_data ...
PPPM initialization ...
  extracting TIP4P info from pair style
  using 12-bit tables for long-range coulomb (../kspace.cpp:340)
  G vector (1/distance) = 0.37353276
  grid = 24 24 25
  stencil order = 5
  estimated absolute RMS force accuracy = 0.0031536817
  estimated relative force accuracy = 9.4972188e-06
  using double precision FFTW3
  3d grid and FFT values/proc = 3822 576
Last active /omp style is kspace_style pppm/tip4p/omp
WARNING: Not all mixed pair coeffs generated from mixing. Use write_data with 'pair ij' option to store all pair coeffs. (../write_data.cpp:312)

write_restart   restart.lmp.${pid}
write_restart   restart.lmp.1
System init for write_restart ...
PPPM initialization ...
  extracting TIP4P info from pair style
  using 12-bit tables for long-range coulomb (../kspace.cpp:340)
  G vector (1/distance) = 0.37353276
  grid = 24 24 25
  stencil order = 5
  estimated absolute RMS force accuracy = 0.0031536817
  estimated relative force accuracy = 9.4972188e-06
  using double precision FFTW3
  3d grid and FFT values/proc = 3822 576
Last active /omp style is kspace_style pppm/tip4p/omp
Total wall time: 0:05:37
