LAMMPS data file via write_data, version 30 Jul 2021, timestep = 7750000

1296 atoms
2 atom types
864 bonds
1 bond types
432 angles
1 angle types

-10.53429447122547 12.51429447122547 xlo xhi
-9.060333247923895 12.050331247923895 ylo yhi
0.2769249340258053 21.58307406597462 zlo zhi
-9.062091363873122 1.8433820724357646 2.8222435989145604 xy xz yz

Masses

1 1.008
2 15.999

Pair Coeffs # lj/cut/tip4p/long/omp

1 0 0
2 0.21084 3.1668

Bond Coeffs # harmonic/omp

1 450 0.9572

Angle Coeffs # harmonic/omp

1 55 104.52

Atoms # full

282 94 1 0.5897 -10.382632785641805 -4.030180813161417 1.6552801234086112 1 1 0
280 94 2 -1.1794 -9.511659776594122 -4.423460709665546 1.6004752294710778 1 1 0
270 90 1 0.5897 -8.38906144686283 -7.224073490765077 2.138214785307723 1 1 0
163 55 2 -1.1794 -7.1207289292849065 -7.818715555253897 0.9394851489022967 1 1 0
164 55 1 0.5897 -6.291511935510356 -8.118437560773883 1.3121828921769223 1 1 0
269 90 1 0.5897 -9.227308932490763 -5.985707144357647 2.3734590228563213 1 1 0
268 90 2 -1.1794 -9.073343601766437 -6.869861584624478 2.706086367801896 1 1 0
299 100 1 0.5897 -6.424952461279536 -7.787611498250941 4.052439881249661 1 1 0
324 108 1 0.5897 -7.008693817975482 -4.199473101418473 3.639729265267214 1 1 0
73 25 2 -1.1794 -8.283557939756061 -3.877264342679479 4.840465301827816 1 0 0
314 105 1 0.5897 -8.852734279520524 -6.739145182065564 4.50348060909978 1 1 0
298 100 2 -1.1794 -5.816349210370219 -7.0489043873289035 4.043067305697067 1 1 0
323 108 1 0.5897 -6.2211708020114775 -5.464196006091306 3.3717889164037675 1 1 0
261 87 1 0.5897 -6.54198267824694 -4.828631156492029 1.2865727406221354 1 1 0
311 104 1 0.5897 -2.6392369949645227 -7.879523989672419 3.5522725733154634 1 1 0
260 87 1 0.5897 -6.798313157197837 -6.090640480164233 0.4908819119654595 1 1 0
293 98 1 0.5897 -4.963287335315071 -3.646552302622297 2.4343253178988657 1 1 0
281 94 1 0.5897 -8.909338436454334 -3.681507092966859 1.654217445206265 1 1 0
300 100 1 0.5897 -4.950582372805487 -7.450054967497704 4.119311330339478 1 1 0
315 105 1 0.5897 -8.579844648356433 -5.565065157423163 5.419242134462618 1 1 0
3 1 1 0.5897 -1.4622585026751267 -3.33431573679046 4.571000757553791 0 0 0
275 92 1 0.5897 -10.483405860901748 -7.807747212219018 3.443983192109261 1 1 0
322 108 2 -1.1794 -6.332771240674301 -4.563448153555546 3.0680412683498837 1 1 0
259 87 2 -1.1794 -6.620234297217472 -5.155633420050478 0.3903986739539893 1 1 0
317 106 1 0.5897 -1.2256833550469235 -3.7476856322557293 1.6577314204561167 1 1 0
241 81 2 -1.1794 -1.0073796684741954 -6.374212717373988 5.496823662013093 0 1 0
243 81 1 0.5897 -0.9310862853283197 -5.422697170507703 5.4273376145325125 0 1 0
306 102 1 0.5897 -0.5514638662442195 -7.296781579681707 2.3052489063740946 1 1 0
304 102 2 -1.1794 -1.2464451618909589 -6.925541501209771 2.8487235263467388 1 1 0
316 106 2 -1.1794 -1.8420773234697894 -4.478783130709796 1.616097444345901 1 1 0
310 104 2 -1.1794 -3.364170355881271 -8.268888712307884 4.04125942828571 1 1 0
318 106 1 0.5897 -2.705038276058432 -4.064812912677692 1.6018291426564293 1 1 0
305 102 1 0.5897 -1.4375861448307692 -6.077743167144549 2.447733985528721 1 1 0
242 81 1 0.5897 -0.9881595060833597 -6.683222881599711 4.5911115864182905 0 1 0
313 105 2 -1.1794 -8.703638494338776 -6.514117931024195 5.421818838892436 1 1 0
75 25 1 0.5897 -9.094175849494507 -3.504557942216411 4.493621562860028 1 0 0
633 211 1 0.5897 -5.714978701173367 -6.0322829507913776 5.533684198262394 1 1 0
74 25 1 0.5897 -8.036087577762162 -3.290625602438902 5.555145752767907 1 0 0
201 67 1 0.5897 0.4568981537977095 -8.4390294569764 0.36904123560586 1 1 0
429 143 1 0.5897 -6.404701051610628 -7.201552795562846 8.704101685240126 1 0 0
428 143 1 0.5897 -6.607694940568899 -7.049974129485569 10.196623009321474 1 0 0
427 143 2 -1.1794 -5.959007622108677 -6.923341360488321 9.504239509334035 1 0 0
618 206 1 0.5897 -7.722540827362376 -7.44512584348154 6.709648521842125 1 1 0
420 140 1 0.5897 -9.04884093529638 -6.400176765199347 9.907680802800167 1 0 0
414 138 1 0.5897 -6.771467069541767 -4.952472966348907 7.5586939312683175 1 0 0
413 138 1 0.5897 -7.417377194735001 -3.590878506222108 7.701192728248105 1 0 0
412 138 2 -1.1794 -7.411609726291953 -4.469332119602255 8.081129761950894 1 0 0
350 117 1 0.5897 -7.083158888771168 -4.23405781937713 9.889391772359899 0 0 0
419 140 1 0.5897 -8.739888287150064 -5.31298053763792 8.90059612070896 1 0 0
418 140 2 -1.1794 -9.46795501445569 -5.769747431931807 9.32192749121786 1 0 0
627 209 1 0.5897 -10.17818383010801 -6.731015628391477 6.529459705941055 1 1 0
616 206 2 -1.1794 -7.28128292630517 -7.986700622408164 7.364031155615324 1 1 0
351 117 1 0.5897 -6.961912876089427 -2.9383589821002074 10.662644481484936 0 0 0
404 135 1 0.5897 -5.1366366051729315 -3.8363990689449237 5.863890902545815 1 0 0
349 117 2 -1.1794 -7.108810764220253 -3.8771611894188043 10.777159758415067 0 0 0
555 185 1 0.5897 -2.496394145435179 -6.718126913482839 6.429928597993477 0 1 0
631 211 2 -1.1794 -5.547392320823992 -5.525673481677763 6.328304940666844 1 1 0
335 112 1 0.5897 -4.966046043628446 -5.382202908812513 9.543883134393722 0 0 0
553 185 2 -1.1794 -3.1616162440285454 -6.784896532582442 7.114946381815051 0 1 0
544 182 2 -1.1794 0.4081179410616933 -7.78199296910996 7.400416403567584 0 1 0
334 112 2 -1.1794 -4.331888367709406 -4.669241850363823 9.619512601173493 0 0 0
348 116 1 0.5897 -1.3417839630402124 -6.3854618825719625 9.975615105063579 0 0 0
346 116 2 -1.1794 -1.8389533738384554 -5.842768120985192 9.363614210889656 0 0 0
359 120 1 0.5897 -4.601215984177765 -3.088783346301602 8.786002563515275 0 0 0
336 112 1 0.5897 -3.4822538653219315 -5.087893083789826 9.481285345002647 0 0 0
347 116 1 0.5897 -1.1719892530840514 -5.368765012929936 8.866924581550016 0 0 0
356 119 1 0.5897 1.0564009649995043 -6.9837653658479315 10.253077842402874 0 0 0
546 182 1 0.5897 -0.04308425962170226 -7.270651077353538 6.72870962171281 0 1 0
632 211 1 0.5897 -4.722009719679017 -5.8740097901907635 6.665541327339559 1 1 0
554 185 1 0.5897 -2.6999194115260234 -6.5540043823613 7.9210491222670445 0 1 0
626 209 1 0.5897 -10.414887273047205 -6.513525772399813 8.008802192106574 1 1 0
340 114 2 -1.1794 0.09645627068566753 -4.531401762506773 8.007517378131327 0 0 0
326 109 1 0.5897 -3.3496417988756484 -7.623741428737713 10.928591035674717 0 0 0
652 218 2 -1.1794 -5.6024086694852535 -5.366778577473032 12.51891555871434 0 0 0
780 260 1 0.5897 -7.457684141766579 -3.806078172922655 15.21798370952239 0 0 0
779 260 1 0.5897 -7.155348880016035 -2.789758505622422 14.137528500085418 0 0 0
778 260 2 -1.1794 -7.8721598561818835 -3.292004126276905 14.525037603266815 0 0 0
768 256 1 0.5897 -9.467527115189476 -2.5100274233722537 14.860114468272325 0 0 0
654 218 1 0.5897 -6.128017429888137 -4.7684328054874054 11.987932770171989 0 0 0
653 218 1 0.5897 -6.242850141746581 -5.8490728371801595 13.041832379049378 0 0 0
661 221 2 -1.1794 -9.328353196546638 -4.346332600732177 12.416592054373034 0 0 0
682 228 2 -1.1794 -7.700272963540934 -6.701680281919433 13.709021263348815 0 0 0
684 228 1 0.5897 -8.370531822615137 -6.31457825334517 14.272123843815853 0 0 0
662 221 1 0.5897 -8.817782159386411 -4.07553139723613 13.179656556008133 0 0 0
663 221 1 0.5897 -8.714906628427077 -4.287231696655873 11.684194391649713 0 0 0
740 247 1 0.5897 -10.70949890359307 -3.25397171100336 11.958226134969383 1 0 0
788 263 1 0.5897 -5.042813048076629 -4.5905588341452805 15.42053310810008 0 0 0
729 243 1 0.5897 -8.155946357166066 -6.962864681976312 11.998263173706231 1 0 0
766 256 2 -1.1794 -10.36852453440963 -2.191288719113108 14.913960299937992 0 0 0
667 223 2 -1.1794 -3.785886879499449 -2.977556436642409 11.78278668317379 0 0 0
793 265 2 -1.1794 -1.9809672977678972 -5.732298715625688 15.405521619514685 0 0 0
689 230 1 0.5897 1.345517913200533 -5.82315820187523 13.09124213143168 0 0 0
655 219 2 -1.1794 -0.3704791499454192 -7.43564810182192 11.198794466503426 0 0 0
789 263 1 0.5897 -4.737378206960355 -4.576914193410207 13.937856028234176 0 0 0
727 243 2 -1.1794 -8.211048756168328 -7.294423230063103 11.10204074951399 1 0 0
720 240 1 0.5897 -0.6966401317646227 -6.350779725784761 14.310576268763977 0 0 0
767 256 1 0.5897 -10.905135520947791 -2.983619273739998 14.893768516363933 0 0 0
774 258 1 0.5897 -5.046897704939685 -2.3269411995001557 12.977350388271516 0 0 0
678 226 1 0.5897 -3.9443894271734985 -6.0326070264452145 12.309767050466979 0 0 0
718 240 2 -1.1794 0.0030946241605356306 -6.798150972929324 13.834758600081715 0 0 0
698 233 1 0.5897 -1.030883414240801 -4.07614011950061 13.190582997831097 0 0 0
668 223 1 0.5897 -2.944520896301179 -3.3153518517825544 12.089907722875235 0 0 0
802 268 2 -1.1794 -2.699673321909434 -2.1995761209718765 14.869932893450649 0 0 0
787 263 2 -1.1794 -4.331574777959776 -4.450191106510037 14.79549375050526 0 0 0
657 219 1 0.5897 -0.3182308934200879 -7.179946956394073 12.119708072600725 0 0 0
677 226 1 0.5897 -2.462719730025867 -5.723027602414307 12.278328843499805 0 0 0
697 233 2 -1.1794 -1.4464044442920851 -4.257898650179152 12.347623775935121 0 0 0
699 233 1 0.5897 -0.7270430877634553 -4.238609427322174 11.716448300622531 0 0 0
816 272 1 0.5897 0.26007942347468216 -3.84715269512529 15.256896034947053 0 0 0
814 272 2 -1.1794 -0.17683943081701337 -3.3286488823739155 14.581250244626789 0 0 0
804 268 1 0.5897 -1.8191334757049749 -2.559727271065615 14.764093791669799 0 0 0
803 268 1 0.5897 -3.270414107761744 -2.967149456211895 14.905223809680752 0 0 0
676 226 2 -1.1794 -3.083370125294289 -6.450811713740981 12.314432014630805 0 0 0
795 265 1 0.5897 -2.8424449584395646 -5.399519428805924 15.153647623953091 0 0 0
758 253 1 0.5897 -9.400762987522416 -5.245736864891236 16.133240030126657 0 0 0
757 253 2 -1.1794 -9.662584077425846 -5.836536725249845 15.427152344671526 0 0 0
794 265 1 0.5897 -1.7347388013239353 -5.208523581825854 16.167885552097033 0 0 0
669 223 1 0.5897 -4.020104874465182 -3.546886999201045 11.0498747857938 0 0 0
1151 384 1 0.5897 -6.019880611089688 -5.241397709607702 19.473397828587032 0 0 0
1152 384 1 0.5897 -6.794145124315503 -3.9544274904025833 19.662424438518514 0 0 0
1225 409 2 -1.1794 -8.101096648877038 -3.371995127341921 20.811546835500636 0 0 0
1227 409 1 0.5897 -8.923146770608344 -3.025735485294363 20.464181813691646 0 0 0
1109 370 1 0.5897 -8.603981117818556 -3.4047282422531 17.75241585642197 0 0 0
1108 370 2 -1.1794 -9.25203653712426 -4.084836474389755 17.568894481300177 0 0 0
1089 363 1 0.5897 -6.336521375667866 -4.5363516865754985 17.36599518617013 0 0 0
1150 384 2 -1.1794 -6.080238706413152 -4.34074974071245 19.15519719179502 0 0 0
1219 407 2 -1.1794 -10.375260978692113 -2.013721999961568 20.186623675806757 0 0 0
1129 377 2 -1.1794 -7.52531560330575 -1.9592195563635695 17.792963735857214 0 0 0
1248 416 1 0.5897 -5.760216566296524 -1.4907599709991448 20.52270259899234 0 0 0
1097 366 1 0.5897 -8.983392333777282 -5.662146410277032 18.409308864283204 0 0 0
1142 381 1 0.5897 -8.51353472299132 -6.353924128648247 20.52876225357994 0 0 0
1179 393 1 0.5897 -0.5448116049921925 -4.964097227292449 21.31010802242028 0 0 0
1131 377 1 0.5897 -6.886158939773667 -1.7377448954130585 17.11572454463431 0 0 0
1088 363 1 0.5897 -6.616414586793912 -5.714480845836876 16.45757978556935 0 0 0
1087 363 2 -1.1794 -6.458813455782993 -4.770518075954509 16.44598549738459 0 0 0
1130 377 1 0.5897 -7.127146580323761 -1.6533070172476911 18.607903582108626 0 0 0
1121 374 1 0.5897 -4.753417668849529 -3.3491637514712576 18.476305066932206 0 0 0
1177 393 2 -1.1794 -0.8485682896818538 -5.862395598332197 21.43997341167026 0 0 0
1096 366 2 -1.1794 -8.765159525844606 -6.521306981607379 18.77028898567842 0 0 0
1141 381 2 -1.1794 -8.410539677004305 -6.048069685390143 21.42989218935533 0 0 0
1143 381 1 0.5897 -8.237634460865134 -5.11040310498703 21.34670338854415 0 0 0
1125 375 1 0.5897 1.3390524443917968 -4.585849841635422 17.34865327604748 0 0 0
1124 375 1 0.5897 1.0698890065910422 -5.818499006859055 16.51220201213622 0 0 0
1187 396 1 0.5897 1.803764429334299 -5.244652671923709 19.387578093937528 0 0 0
1123 375 2 -1.1794 1.3085204117824762 -4.894202904916998 16.443021429410756 0 0 0
1120 374 2 -1.1794 -4.061888579620368 -2.937931494794663 17.95774192087555 0 0 0
1145 382 1 0.5897 -1.0388351534091331 -3.495984517441105 17.600822604300532 0 0 0
1165 389 2 -1.1794 -0.012034210361438369 -1.9866175628720955 17.665159449489593 0 0 0
1256 419 1 0.5897 -3.236567743071344 -2.0171907987287216 20.82917466471921 0 0 0
1255 419 2 -1.1794 -2.599204218857638 -1.8927407075727878 20.12596641416205 0 0 0
1144 382 2 -1.1794 -1.6525336393392873 -4.230024686578318 17.6279529290276 0 0 0
1261 421 2 -1.1794 -0.2928419138070506 -3.304269086714978 20.73210715691723 0 0 0
1188 396 1 0.5897 1.0660023373855747 -3.9422825941209236 19.61348561815771 0 0 0
1263 421 1 0.5897 -1.0892793834184857 -2.9261264103604088 20.359264240645544 0 0 0
1257 419 1 0.5897 -3.0821430691032443 -2.0978881087742955 19.325359647746915 0 0 0
1133 378 1 0.5897 -1.4217759805184098 -5.795911297388807 18.4293572434538 0 0 0
1122 374 1 0.5897 -4.524674655099869 -2.3349902620238563 17.375934458609777 0 0 0
1146 382 1 0.5897 -2.514162037089477 -3.82000016517126 17.703723693831364 0 0 0
1178 393 1 0.5897 -0.9427160744154737 -6.214175879240363 20.55477818071669 0 0 0
1110 370 1 0.5897 -10.091879648524271 -3.625718624068554 17.580546940890244 0 0 0
1262 421 1 0.5897 -0.01311447768893359 -2.6711235688614536 21.393185633990605 0 0 0
1166 389 1 0.5897 0.3959020959111701 -1.6912521658112318 18.479163714828715 0 0 0
1226 409 1 0.5897 -7.851975662366614 -2.754526178078118 21.499162267590698 0 0 0
165 55 1 0.5897 -5.478258929809723 -5.6355698449545315 21.562027764322735 1 1 -1
302 101 1 0.5897 -7.392604363054877 -1.9647663194887377 2.4656897901605963 1 1 0
99 33 1 0.5897 -11.472470438515767 1.526137597228347 5.362697666218582 1 0 0
27 9 1 0.5897 -4.044299533835611 1.6485019526429667 5.40347568365863 0 0 0
44 15 1 0.5897 -9.841961019097718 0.8219700019359042 0.41600428849123294 1 0 0
54 18 1 0.5897 -11.390570442720376 -0.30119211238158883 2.262757310499042 1 0 0
107 36 1 0.5897 -9.289992317940778 1.479978436326812 3.336659410373652 1 0 0
68 23 1 0.5897 -11.192569587993775 -2.535209124705874 4.797721303550114 1 0 0
256 86 2 -1.1794 -11.934297770455592 -3.293905589456206 1.988789422251772 1 1 0
69 23 1 0.5897 -10.861836687596695 -2.612015205612458 3.322420515975208 1 0 0
67 23 2 -1.1794 -10.48817816556706 -2.372196070450653 4.170431973259788 1 0 0
271 91 2 -1.1794 -10.169773766910586 -0.9008388010606385 1.0711351278268286 1 1 0
82 28 2 -1.1794 -8.920915867096577 -0.10946804368619034 4.077145032354613 1 0 0
258 86 1 0.5897 -12.450176557246452 -2.7651173325274927 1.3801055454347366 1 1 0
83 28 1 0.5897 -9.5121945164827 -0.8559992820237792 4.173280270358397 1 0 0
272 91 1 0.5897 -9.355195343433207 -1.2775364758163388 1.4041198238068724 1 1 0
52 18 2 -1.1794 -12.104766020690631 0.07253619441453552 2.778938778977362 1 0 0
98 33 1 0.5897 -11.72330783611772 0.2552720016960226 4.579449456830656 1 0 0
301 101 2 -1.1794 -7.86993322622742 -2.131517995810011 1.652892801306736 1 1 0
53 18 1 0.5897 -12.171379309083454 0.978010886624844 2.4760543763434977 1 0 0
84 28 1 0.5897 -8.044705291473296 -0.48367259638897586 4.169465174850865 1 0 0
59 20 1 0.5897 -13.426094588565341 -0.8470373765412713 3.537086058468175 1 0 0
90 30 1 0.5897 -3.815790975416971 -0.2512138946955922 2.178216020372452 1 0 0
25 9 2 -1.1794 -4.1313507381717365 0.6963944198893905 5.447572662680658 0 0 0
103 35 2 -1.1794 -2.8561949169983913 -2.2229973784548704 4.115967296684321 1 0 0
94 32 2 -1.1794 -6.504121365748426 -1.380600857794799 3.9954244565967296 1 0 0
89 30 1 0.5897 -4.606683290056555 1.0105360190648813 2.450239109984339 1 0 0
104 35 1 0.5897 -3.519301361161398 -2.453480005602434 4.766657448218643 1 0 0
88 30 2 -1.1794 -4.51821072311245 0.09842466822305873 2.72643418899297 1 0 0
105 35 1 0.5897 -3.2477911328496667 -2.4673534231279515 3.277397055407234 1 0 0
292 98 2 -1.1794 -4.261932148548821 -3.239517396929715 1.9257414291375554 1 1 0
26 9 1 0.5897 -4.144374425213897 0.4140463564808581 4.53308221826575 0 0 0
95 32 1 0.5897 -5.80179123498347 -0.8941301028128876 3.563790481700793 1 0 0
294 98 1 0.5897 -4.7156496898380205 -2.6707506264773473 1.3037543220166843 1 1 0
303 101 1 0.5897 -7.24048339260211 -1.9323512173120871 0.9598208086783268 1 1 0
96 32 1 0.5897 -6.051239987292177 -2.039586472024369 4.521573317795302 1 0 0
97 33 2 -1.1794 -11.638151699106661 0.5898641725501115 5.472187568578667 1 0 0
273 91 1 0.5897 -10.393129057199832 -1.4426497478247953 0.31436026116253574 1 1 0
307 103 2 -1.1794 -2.4687853192343923 -0.7959304150864384 0.9625693518005226 1 1 0
417 139 1 0.5897 -8.80904324061714 0.9784778138244139 5.56011728788321 1 0 0
1010 337 1 0.5897 -12.729602542177423 1.3627858222531888 0.284530968469724 0 -1 1
401 134 1 0.5897 -10.9074962611167 -1.246954031357058 7.815652690941094 1 0 0
402 134 1 0.5897 -10.660454821511586 -0.2615412208192289 6.693319803721542 1 0 0
400 134 2 -1.1794 -10.205982819174611 -0.8101621303152893 7.332617051680653 1 0 0
411 137 1 0.5897 -13.244829148879795 0.2987062115711847 6.356722793582184 1 0 0
536 179 1 0.5897 -9.458567005625738 0.061478294512738785 10.118263523914129 1 0 0
535 179 2 -1.1794 -8.851336495510962 0.22794015604497986 9.397303597463479 1 0 0
537 179 1 0.5897 -9.309138980559034 -0.0910183705047043 8.619524173125646 1 0 0
528 176 1 0.5897 -12.010671229758557 0.46849319545945 9.81182089907496 1 0 0
424 142 2 -1.1794 -7.817392234131094 -2.04461854435918 6.848890424561985 1 0 0
527 176 1 0.5897 -11.650024419324218 1.5395369391112297 8.804610620233149 1 0 0
526 176 2 -1.1794 -12.393853632860083 1.0487698134299333 9.154046189148424 1 0 0
522 174 1 0.5897 -9.789544772420504 2.162955374602358 7.43907132907039 1 0 0
426 142 1 0.5897 -8.707662965310277 -1.7069667802983295 6.947307281208181 1 0 0
435 145 1 0.5897 -7.423782691356801 -0.8398235876351752 9.79679460376632 0 0 0
464 155 1 0.5897 -1.9676744086207325 0.02838295681070946 10.18709662781149 0 0 0
443 148 1 0.5897 -7.909598505471088 1.717288920301291 9.348249494457926 0 0 0
433 145 2 -1.1794 -6.652971642540773 -1.258745612187668 10.179755612823497 0 0 0
415 139 2 -1.1794 -8.540929008764166 1.6076549786292738 6.229742816928522 1 0 0
425 142 1 0.5897 -7.2659886361999995 -1.2628136445992908 6.819109791194821 1 0 0
403 135 2 -1.1794 -4.917382647267331 -2.916125570561567 5.7186991698154035 1 0 0
339 113 1 0.5897 -5.581165523103297 0.43383047889535753 6.452883469147179 0 0 0
405 135 1 0.5897 -4.987737303293285 -2.5133122510434216 6.584113520861232 1 0 0
416 139 1 0.5897 -7.755942232839786 1.223158944685105 6.6199553449417206 1 0 0
442 148 2 -1.1794 -7.312823066964196 2.457954343469453 9.45524406611928 0 0 0
444 148 1 0.5897 -6.439123443248611 2.067502447241008 9.43336342074581 0 0 0
330 110 1 0.5897 -3.154511009322735 -0.3097863481098937 6.622149962191039 0 0 0
337 113 2 -1.1794 -6.281600094410545 0.2518271956967908 7.079383235371502 0 0 0
338 113 1 0.5897 -5.907831605044417 0.4807890538999935 7.930343051918561 0 0 0
456 152 1 0.5897 -4.494058691994218 0.5939555510583627 9.88086439647843 0 0 0
329 110 1 0.5897 -3.3888730533254288 -1.267946144535058 7.770502634437644 0 0 0
328 110 2 -1.1794 -2.700789491777755 -0.7718419746674474 7.327055313490748 0 0 0
360 120 1 0.5897 -5.429725941685834 -1.8340289335885274 8.961197339631486 0 0 0
358 120 2 -1.1794 -4.755434851518422 -2.224340698475885 8.405171177389372 0 0 0
455 152 1 0.5897 -4.256292049582532 1.6736206967080012 8.846716518978393 0 0 0
454 152 2 -1.1794 -4.9527452667470655 1.1753375925487966 9.274378099188208 0 0 0
434 145 1 0.5897 -6.386517118876155 -0.670948689511885 10.886617616253947 0 0 0
430 144 2 -1.1794 -12.202895940928695 -2.158337106301248 8.493484756404147 1 0 0
410 137 1 0.5897 -13.433230371158588 0.5650791160271211 7.835010256687917 1 0 0
465 155 1 0.5897 -1.7866580618597308 0.0063103117891945 8.684244762137507 0 0 0
516 172 1 0.5897 -13.904517498433169 1.94562348510682 9.394048209131608 1 0 0
836 279 1 0.5897 -11.146666812154773 -1.229526842910805 11.206958546138326 1 0 0
901 301 2 -1.1794 -4.985575760287152 1.229346584286878 15.548809441176504 0 0 0
835 279 2 -1.1794 -10.876331769835613 -0.31216632121346244 11.169189697073612 1 0 0
761 254 1 0.5897 -9.340858484213003 1.3019518856967363 13.114329297767357 0 0 0
837 279 1 0.5897 -10.927137144659513 -0.009536430863111178 12.075834890180749 1 0 0
791 264 1 0.5897 -10.626203488708253 -0.5647624240781219 14.217071633774681 0 0 0
792 264 1 0.5897 -11.366984820963218 0.7546338339990228 14.261208182105815 0 0 0
760 254 2 -1.1794 -8.638628820886215 1.7867308487034759 12.68063324717287 0 0 0
790 264 2 -1.1794 -10.662299580278503 0.29719372050669435 13.802577576601509 0 0 0
769 257 2 -1.1794 -12.275615248010247 2.8805673935300984 12.385613200843533 0 0 0
896 299 1 0.5897 -7.901761263524124 2.571649377952225 15.448452170243415 0 0 0
762 254 1 0.5897 -9.083684006126866 2.3057341644038267 12.010706274772422 0 0 0
888 296 1 0.5897 -10.412286996043456 3.146253760789886 15.30194092247924 0 0 0
770 257 1 0.5897 -11.847895300455646 3.0796871015016496 13.218488967374647 0 0 0
806 269 1 0.5897 -4.232261256668986 2.7971563272901054 13.253537703766913 0 0 0
807 269 1 0.5897 -4.047707802660045 2.800155395072668 11.750955761476098 0 0 0
903 301 1 0.5897 -5.80368061764502 1.5832408396831728 15.199830214529156 0 0 0
902 301 1 0.5897 -4.714435549855143 1.8622869562689406 16.21365120281682 0 0 0
763 255 2 -1.1794 -3.4880969466351566 -0.35761479281633335 11.154944899792886 0 0 0
866 289 1 0.5897 -12.373566681088416 1.8781003204050695 16.250724375775683 0 0 0
924 308 1 0.5897 -2.716636947042285 3.070600786115186 15.23007514157405 0 0 0
817 273 2 -1.1794 -5.401332322377983 -1.3892542952581737 16.187058961278233 0 0 0
897 299 1 0.5897 -7.6338468778071125 2.402724897442802 13.968090055732992 0 0 0
828 276 1 0.5897 -3.8232543991321064 0.6562488398177813 14.312952554436915 0 0 0
786 262 1 0.5897 -7.169629235152361 0.8277685391360983 12.419115861368848 0 0 0
819 273 1 0.5897 -5.2490019772597805 -0.44850333938538434 16.098597281285116 0 0 0
785 262 1 0.5897 -5.682879482503878 1.1118605312340648 12.38673933667374 0 0 0
764 255 1 0.5897 -3.5763671632181904 -1.3018649308681782 11.283926622712396 0 0 0
826 276 2 -1.1794 -3.1118572094738486 0.26763149325266333 13.803958671585553 0 0 0
805 269 2 -1.1794 -4.702497145822023 2.650119821202342 12.432842026819436 0 0 0
773 258 1 0.5897 -5.921657892275563 -1.1145139195064466 13.214814603307143 0 0 0
895 299 2 -1.1794 -7.225861808766741 2.697183363830094 14.78239848190072 0 0 0
765 255 1 0.5897 -3.3964864846363874 -0.0022433217199129274 12.038970444554902 0 0 0
827 276 1 0.5897 -2.9833398338725683 -0.5974171138968263 14.192877744147637 0 0 0
784 262 2 -1.1794 -6.316679373481474 0.39458550163181805 12.386032886280201 0 0 0
771 257 1 0.5897 -11.57959488014844 2.960365705735539 11.733370735538989 0 0 0
818 273 1 0.5897 -5.547333852444667 -1.6939301362265633 15.291483071296755 0 0 0
797 266 1 0.5897 -1.6893850182473624 1.0784244264054674 13.123210022487289 0 0 0
865 289 2 -1.1794 -12.624658177366156 1.302437918540754 15.528419783841843 0 0 0
772 258 2 -1.1794 -5.726214510988319 -1.985924824126723 13.559093768222782 0 0 0
857 286 1 0.5897 -13.20513500039922 1.2268710619758156 12.30056306712282 1 0 0
1251 417 1 0.5897 -11.392333060638784 1.9310337109502473 21.429481815390027 0 0 0
1196 399 1 0.5897 -9.509040431697088 1.2890583778807834 16.56367578040311 0 0 0
1101 367 1 0.5897 -10.07217154749633 -0.9941347118479431 16.307996853345564 0 0 0
1272 424 1 0.5897 -0.07539466228292291 -0.03529962245298357 20.025065166715684 0 0 0
1197 399 1 0.5897 -9.287842935701848 2.5175136713516206 17.42010982721851 0 0 0
1231 411 2 -1.1794 -1.6817712879796805 2.2806961671544155 16.513660589485156 0 0 0
1137 379 1 0.5897 -2.5035466112499662 -1.03181690587577 16.266505018488132 0 0 0
1258 420 2 -1.1794 -9.032483606733201 2.7388826081960733 19.159420782211164 0 0 0
1229 410 1 0.5897 -7.67044211420558 3.784612145956265 18.501518138812287 0 0 0
1235 412 1 0.5897 -9.336017901168521 -0.503810661987524 20.240237571784945 0 0 0
1236 412 1 0.5897 -7.868640572944257 -0.1310545834788588 20.244877717580806 0 0 0
1246 416 2 -1.1794 -6.201727996454826 -0.9278678052594582 19.886745710335475 0 0 0
1099 367 2 -1.1794 -9.745635714512991 -0.41073877305815465 16.992972741671764 0 0 0
1250 417 1 0.5897 -11.586946990395582 0.6809667002536788 20.598246888875593 0 0 0
1205 402 1 0.5897 -11.989268219320603 1.3541044948876504 18.488108047247394 0 0 0
1216 406 2 -1.1794 -12.232353900231304 2.933867305792143 17.722748853533012 0 0 0
1206 402 1 0.5897 -11.127415371204073 0.134051152357344 18.242653136835962 0 0 0
1100 367 1 0.5897 -8.980016736870606 -0.86233725204937 17.34818979357489 0 0 0
1234 412 2 -1.1794 -8.746570853172333 0.24996573857873372 20.263442882915896 0 0 0
1009 337 2 -1.1794 -11.061125137025236 3.5906619172183216 20.861110355852517 0 -1 0
1260 420 1 0.5897 -9.744920058097952 3.1232717407345376 19.670161797639018 0 0 0
1259 420 1 0.5897 -8.967296174677367 1.838770851814017 19.47818716308462 0 0 0
1249 417 2 -1.1794 -11.649202836082194 1.0113282049467731 21.4944339133597 0 0 0
1287 429 1 0.5897 -3.611675976847595 2.0146005476077367 21.34483486255087 0 0 0
1270 424 2 -1.1794 -0.9478178633765939 0.34459942285563905 20.129084309000987 0 0 0
1232 411 1 0.5897 -1.880840482302217 1.3447359319806296 16.53349183303289 0 0 0
1253 418 1 0.5897 -3.961829786834895 3.7212075679893815 17.686271342952416 0 0 0
1252 418 2 -1.1794 -4.582104110981501 2.9930935173531736 17.650390910788495 0 0 0
1045 349 2 -1.1794 -3.3663884018844445 3.78624105051256 20.849847666409737 0 -1 0
1241 414 1 0.5897 -4.335905210078056 1.4162821852281748 18.412409431720583 0 0 0
1204 402 2 -1.1794 -11.864165284069301 0.4472287014976768 18.767354760326263 0 0 0
1295 432 1 0.5897 -1.239754498338943 1.893521565733712 19.518485064303363 0 0 0
1247 416 1 0.5897 -5.490477830941062 -0.4850844634138003 19.42381966839018 0 0 0
1271 424 1 0.5897 -1.5430267148701446 -0.40325643829718416 20.07805437392352 0 0 0
1296 432 1 0.5897 -2.0774498730833866 3.14402378244567 19.67995028199271 0 0 0
1195 399 2 -1.1794 -9.327047734773867 2.2270991963227313 16.50889669177515 0 0 0
1285 429 2 -1.1794 -3.7961841739301274 1.0757473968628286 21.368342702077243 0 0 0
1286 429 1 0.5897 -3.829609334201593 0.814669952273853 20.44806438518011 0 0 0
1254 418 1 0.5897 -5.443224408057146 3.408836343348119 17.693898371247926 0 0 0
1135 379 2 -1.1794 -2.200379644283119 -0.42056429609062285 16.937783178525002 0 0 0
1242 414 1 0.5897 -3.4660278988670337 0.20162265797053713 18.168526904131383 0 0 0
1240 414 2 -1.1794 -4.177642355703293 0.5243420065491193 18.721385201834643 0 0 0
1136 379 1 0.5897 -1.3722880721164774 -0.7909174014893186 17.24343331661575 0 0 0
1011 337 1 0.5897 -11.864350255911395 3.9276403569669753 20.4641225076644 0 -1 0
1233 411 1 0.5897 -1.6195351827754418 2.532344694114693 17.435069753009557 0 0 0
1218 406 1 0.5897 -13.084523366024747 3.368117438529362 17.76140518421662 0 0 0
1217 406 1 0.5897 -11.597080969220379 3.6496290450221824 17.740171824299203 0 0 0
309 103 1 0.5897 -0.8377967694376967 1.4035854232835572 21.573569425212078 1 1 -1
40 14 2 -1.1794 -14.954887619020333 3.731691479089532 1.9252445301526453 1 0 0
177 59 1 0.5897 -13.872133191610207 4.438503644777203 3.282844402232686 1 0 0
42 14 1 0.5897 -15.414159623335987 4.325828924186791 1.3317069767668286 1 0 0
55 19 2 -1.1794 -13.164590310455102 6.117634314839949 1.0342089517948723 1 0 0
56 19 1 0.5897 -12.31838552437534 5.7543904094124 1.2955641382370766 1 0 0
66 22 1 0.5897 -13.358110382858152 2.89946571886078 1.7697368376064846 1 0 0
65 22 1 0.5897 -11.910049229923093 3.3349925382749266 1.6950609643611576 1 0 0
64 22 2 -1.1794 -12.465804231162442 2.556186515801409 1.7224590771915729 1 0 0
191 64 1 0.5897 -12.534290641854415 6.217964910860079 4.214934227830859 1 0 0
183 61 1 0.5897 -12.121142194943985 3.652337061121706 4.618136838439073 1 0 0
181 61 2 -1.1794 -11.271443583888498 3.2900800449711607 4.86933176022294 1 0 0
176 59 1 0.5897 -14.25127476256835 4.604753456502607 4.73899983991235 1 0 0
175 59 2 -1.1794 -13.512696270586549 4.6841614119791615 4.135315823853938 1 0 0
108 36 1 0.5897 -10.07892070708126 2.748687227259147 3.5805714470177086 1 0 0
85 29 2 -1.1794 -10.856228864689333 4.794184522025374 1.6252848579969346 1 0 0
190 64 2 -1.1794 -11.960248178769032 6.983152046539692 4.248419522540351 1 0 0
192 64 1 0.5897 -11.077216401192484 6.62508160687757 4.157223228463616 1 0 0
162 54 1 0.5897 -14.422611207600795 6.849732084927556 2.270081953018469 1 0 0
167 56 1 0.5897 -16.465930685576005 6.288655249591681 3.5635899653783927 1 0 0
43 15 2 -1.1794 -9.631615646356103 1.7506907631089952 0.31965125981322406 1 0 0
45 15 1 0.5897 -9.640052784515916 2.0926060453435387 1.2136275172612958 1 0 0
109 37 2 -1.1794 -3.7876822456391617 3.375762182590668 4.81888145453588 0 0 0
76 26 2 -1.1794 -7.336319362424244 3.7885543843111975 1.9757149375015477 1 0 0
77 26 1 0.5897 -8.07030880138435 3.3098652163684132 2.360884312013438 1 0 0
204 68 1 0.5897 -9.084907580105773 5.349360192482642 4.568086831719416 1 0 0
203 68 1 0.5897 -8.834074824260902 6.274680582767871 3.3965151723460187 1 0 0
198 66 1 0.5897 -6.907105743174398 6.835622598784578 2.123049243471103 1 0 0
78 26 1 0.5897 -7.739872187531795 4.364555307146032 1.3264181602419653 1 0 0
102 34 1 0.5897 -5.726057924175733 2.9446055301769967 1.8149198369291157 1 0 0
100 34 2 -1.1794 -4.850503273305503 2.5718318433376925 1.71139588321307 1 0 0
213 71 1 0.5897 -6.415866003431841 4.585643609189297 3.3360705948577123 1 0 0
202 68 2 -1.1794 -9.528643970989869 5.791933418812857 3.844563056854812 1 0 0
212 71 1 0.5897 -6.643820340214625 4.6617238319039025 4.830747726202405 1 0 0
211 71 2 -1.1794 -5.992914273615396 4.847353981253216 4.153924097715979 1 0 0