LAMMPS data file via write_data, version 30 Jul 2021, timestep = 34250000

972 atoms
2 atom types
648 bonds
1 bond types
324 angles
1 angle types

0.19760503277908192 19.802395967207943 xlo xhi
0.08242245620699862 19.917578543780994 ylo yhi
0.13502248114948756 20.564975518853625 zlo zhi

Masses

1 1.008
2 15.999

Pair Coeffs # lj/cut/tip4p/long/omp

1 0 0
2 0.21084 3.1668

Bond Coeffs # harmonic/omp

1 450 0.9572

Angle Coeffs # harmonic/omp

1 55 104.52

Atoms # full

10 4 2 -1.1794 1.4525910015020547 4.2099990734430115 3.8394206437243907 0 0 0
11 4 1 0.5897 1.1797048703432065 3.4372202194406998 3.3448842573445576 0 0 0
31 11 2 -1.1794 0.7386982869243377 2.0738948213077912 2.23771218090466 0 0 0
33 11 1 0.5897 1.430593963869469 2.1421413648798304 1.5798051948474876 0 0 0
23 8 1 0.5897 2.812240698416658 0.9759411770355969 4.478650026856591 0 0 0
12 4 1 0.5897 2.3978139337350024 4.104377240276738 3.9474137156321274 0 0 0
16 6 2 -1.1794 4.171721599940649 3.964504453337292 3.785143661818003 0 0 0
18 6 1 0.5897 4.247011793482518 3.0601749611514704 3.4806021041704795 0 0 0
4 2 2 -1.1794 4.253221470335754 1.259253484411378 3.461392215177994 0 0 0
5 2 1 0.5897 4.366458399480537 0.6071254610691622 2.7699642051110196 0 0 0
1 1 2 -1.1794 2.461602166099039 2.6542145718706074 0.19137482941269834 0 0 0
236 79 1 0.5897 0.9823106700967417 0.24537570793129512 2.3612125426591972 0 1 0
53 18 1 0.5897 9.84730254896988 4.039941705233353 4.19564198184926 0 0 0
47 16 1 0.5897 7.727472188815019 3.527878458413531 3.5975701397289255 0 0 0
6 2 1 0.5897 4.893427128419724 1.0143097375727226 4.129484572578836 0 0 0
273 91 1 0.5897 7.4288154894838865 0.2719387639348878 2.1606097648136053 0 1 0
67 23 2 -1.1794 7.22489904895988 2.202517958854583 2.37901490030787 0 0 0
37 13 2 -1.1794 9.085657789960036 2.592895556397288 0.41674020124806627 0 0 0
46 16 2 -1.1794 7.910830588167278 4.33643207384249 4.07593708723318 0 0 0
34 12 2 -1.1794 5.183004092319446 2.5204646933936736 0.6205865480017045 0 0 0
48 16 1 0.5897 7.279846141751153 4.337772167209284 4.795701946422197 0 0 0
69 23 1 0.5897 6.425192887075088 2.2790089371318607 1.8585917327694876 0 0 0
68 23 1 0.5897 7.933715567703447 2.3505567750312006 1.7530310958789874 0 0 0
17 6 1 0.5897 4.348033377294483 4.494891214690435 3.008102833780093 0 0 0
3 1 1 0.5897 3.373233623272426 2.5751961593000257 0.47234030057450577 0 0 0
41 14 1 0.5897 9.809183375596048 1.1936342225177663 3.956065137190375 0 0 0
22 8 2 -1.1794 2.12909367164642 0.8564281882794209 5.138382947943037 0 0 0
9 3 1 0.5897 5.27860986405406 4.42392743961479 5.172173883633366 0 0 0
102 34 1 0.5897 0.21549131847009367 0.6088327450596105 5.058601969856894 1 0 0
58 20 2 -1.1794 8.595984372047763 1.0782801736547505 5.155606988538343 0 0 0
710 237 1 0.5897 8.922623808835356 4.4148223907510635 0.1409563307602788 0 0 1
36 12 1 0.5897 5.4296276035059305 3.312396328025886 0.14283745285836602 0 0 0
325 109 2 -1.1794 2.714693162155425 2.666317157002601 7.011062638119583 0 0 0
326 109 1 0.5897 2.461087091384111 2.0186592251791504 6.353468919043661 0 0 0
327 109 1 0.5897 3.632319350579444 2.4699461333302177 7.199909392853216 0 0 0
355 119 2 -1.1794 0.859862379493531 1.8561874406235002 9.09505474517227 0 0 0
356 119 1 0.5897 1.5952346706884144 2.0951484330614623 8.530830170397493 0 0 0
27 9 1 0.5897 2.9008604239800966 4.3520311020409554 6.356405450185414 0 0 0
342 114 1 0.5897 4.115454488667698 4.801411587107813 9.712490721572747 0 0 0
29 10 1 0.5897 6.784609591892908 0.7357004211507541 5.404584111641178 0 0 0
330 110 1 0.5897 4.386296574076352 0.8001191852818188 9.532478889244445 0 0 0
59 20 1 0.5897 8.770909644600497 1.8685923766777914 5.666514956999392 0 0 0
362 121 1 0.5897 9.041012226252459 3.8904838813727487 6.866487544805929 0 0 0
393 131 1 0.5897 7.577468272265461 1.5261683422620531 9.245225538896129 0 0 0
391 131 2 -1.1794 7.5174367072278585 2.481214291551406 9.22269627827381 0 0 0
361 121 2 -1.1794 9.129489797451908 2.9651847436731487 7.095017266563879 0 0 0
7 3 2 -1.1794 5.932119586764033 4.622566458899974 5.84275856650963 0 0 0
360 120 1 0.5897 5.6218841653511955 1.7995630786256027 6.881810115107558 0 0 0
8 3 1 0.5897 5.737030779587225 4.0142712318291185 6.5555831585444375 0 0 0
358 120 2 -1.1794 5.392643805393815 2.5228821110183453 7.46530891103586 0 0 0
359 120 1 0.5897 6.063148073276812 2.5021194536158453 8.148096125858507 0 0 0
392 131 1 0.5897 8.143948580426724 2.745228588296465 8.54890081013498 0 0 0
335 112 1 0.5897 0.9286327492930175 3.360247241543133 10.07651485135658 0 0 0
341 114 1 0.5897 4.0282464267405516 3.3820362635632764 10.231777612695275 0 0 0
328 110 2 -1.1794 4.166474375198816 1.5358121553013915 10.104013276185226 0 0 0
28 10 2 -1.1794 5.862979076948 0.5258297093869004 5.5556095362730025 0 0 0
60 20 1 0.5897 8.923378587548019 0.3627736781358245 5.700660701410355 0 0 0
81 27 1 0.5897 0.3482840835035077 4.350481230369343 5.253312809698697 1 0 0
649 217 2 -1.1794 2.705303466111894 2.717483380500072 13.683913345546618 0 0 0
650 217 1 0.5897 2.5218996038912214 1.9873239151789799 13.092775181484058 0 0 0
348 116 1 0.5897 2.810122075477013 1.011536239597231 11.257525511601308 0 0 0
651 217 1 0.5897 2.1561060680885618 2.549966545579785 14.449760660123902 0 0 0
346 116 2 -1.1794 2.2181462855580105 0.7135345790727183 11.948157093244738 0 0 0
683 228 1 0.5897 4.359938472490054 2.818560383757352 14.222181508497908 0 0 0
350 117 1 0.5897 2.7812332193403675 4.437725589485843 13.49375487108817 0 0 0
347 116 1 0.5897 1.3451818612973858 0.9496852328651684 11.634456776093678 0 0 0
329 110 1 0.5897 4.792148903936182 1.4742481500429712 10.825781487556544 0 0 0
334 112 2 -1.1794 1.110298639554118 4.205134461322382 10.4880804971394 0 0 0
336 112 1 0.5897 2.0568620841796603 4.204124691331546 10.630491469522868 0 0 0
382 128 2 -1.1794 8.466565373523293 0.9612785529615264 11.95832242293167 0 0 0
370 124 2 -1.1794 8.080169411864762 4.430650031568074 10.995125737498137 0 0 0
332 111 1 0.5897 5.081541652509368 4.849332268459425 11.752328018378284 0 0 0
371 124 1 0.5897 7.808713133065689 3.6764728530233954 10.471926317217882 0 0 0
682 228 2 -1.1794 5.305137502237287 2.961933156945956 14.270149451370994 0 0 0
386 129 1 0.5897 8.922380914144297 4.77022598669359 13.65654644373365 0 0 0
383 128 1 0.5897 8.665666974009897 1.6502403346395127 12.592274602826217 0 0 0
685 229 2 -1.1794 8.910663773326114 2.8010118513688105 13.9230549247434 0 0 0
384 128 1 0.5897 9.092385320508432 1.1009770770057614 11.247653543432197 0 0 0
353 118 1 0.5897 6.809654436801242 1.0356292355140184 12.1902721160357 0 0 0
372 124 1 0.5897 7.339330705401025 4.5976358617252995 11.57778922885966 0 0 0
684 228 1 0.5897 5.436946627761896 3.8258876729075837 13.879724957326095 0 0 0
352 118 2 -1.1794 5.86685393193495 1.016641739375008 12.354683210378912 0 0 0
354 118 1 0.5897 5.734342756593907 1.6449216852408195 13.064546834037793 0 0 0
686 229 1 0.5897 8.362967117604764 2.5900226151424657 14.679177967733489 0 0 0
687 229 1 0.5897 9.807900258705875 2.700940894786227 14.24119077149469 0 0 0
340 114 2 -1.1794 3.8976192607980376 4.293332810850282 10.493900804494816 0 0 0
377 126 1 0.5897 9.911011476539175 4.265565148858173 10.565227692998695 0 0 0
658 220 2 -1.1794 1.5271917007156401 4.1513247337390675 17.630944517704506 0 0 0
664 222 2 -1.1794 4.179813465772771 4.0962033483316045 17.155810000465806 0 0 0
671 224 1 0.5897 2.1645467381372745 1.53461310925899 19.156851444075933 0 0 0
653 218 1 0.5897 3.398548303591659 1.1490078873814822 17.139436873768904 0 0 0
670 224 2 -1.1794 1.975733439065201 0.953685160204981 18.419915728067657 0 0 0
652 218 2 -1.1794 4.278506626194707 1.2852152500734078 16.78820030905623 0 0 0
672 224 1 0.5897 1.0231803751232313 0.8595346799089839 18.426466399902527 0 0 0
665 222 1 0.5897 3.24690249057692 4.146291860628892 17.36420700646831 0 0 0
666 222 1 0.5897 4.300151190026594 3.2140907683811215 16.804212189567387 0 0 0
681 227 1 0.5897 1.1480749853762473 2.832374564680397 16.544415229545226 0 0 0
659 220 1 0.5897 0.8458154170323985 4.251882942885854 18.295653505026493 0 0 0
654 218 1 0.5897 4.384108693991265 0.5966643125847495 16.131738099637616 0 0 0
702 234 1 0.5897 9.929525300514552 4.180736534698479 17.543890424383722 0 0 0
2 1 1 0.5897 2.3351012995017313 3.5921233850160452 20.477967789115425 0 0 -1
696 232 1 0.5897 7.887818484583213 4.802547430113771 17.231030792590083 0 0 0
656 219 1 0.5897 5.283079997856883 4.325526150929098 18.593654192973375 0 0 0
657 219 1 0.5897 6.734373300069125 4.359608798302328 19.02321133856362 0 0 0
694 232 2 -1.1794 8.19577216209587 4.097279541832369 17.800212643775726 0 0 0
677 226 1 0.5897 5.374090869744003 1.0221186007914662 18.17016975992034 0 0 0
676 226 2 -1.1794 5.879275191755737 0.8260056744123933 18.959171643867588 0 0 0
708 236 1 0.5897 7.690431402794473 1.0201537207032199 18.642166911562462 0 0 0
715 239 2 -1.1794 7.330090764156395 2.1903160362458127 16.0337041299468 0 0 0
716 239 1 0.5897 7.4635781985918985 1.2424885765545182 16.03999399071612 0 0 0
35 12 1 0.5897 5.405182060556626 1.803124805374645 20.457012006802017 0 0 -1
695 232 1 0.5897 7.906454146517922 3.2947977760832807 17.366010298809357 0 0 0
38 13 1 0.5897 8.866837490381211 2.049595374250903 20.089634696268305 0 0 -1
706 236 2 -1.1794 8.646170620424561 1.0097484041241962 18.589992801335388 0 0 0
679 227 2 -1.1794 0.9894655612801951 2.2553629796370576 15.797353435482973 0 0 0
655 219 2 -1.1794 5.845903818850431 4.512296284514294 19.345013496039197 0 0 0
717 239 1 0.5897 6.564462031131842 2.321137302856765 15.474309204538756 0 0 0
884 295 1 0.5897 0.582474992033204 0.4537777013799274 15.85533638976378 0 1 0
707 236 1 0.5897 8.899735588426049 0.18133076416756397 18.99700327537928 0 0 0
660 220 1 0.5897 1.2942565359672853 4.7834788375339645 16.95099716616239 0 0 0
126 42 1 0.5897 4.69093567645397 9.387121752944115 3.465009436118625 0 0 0
20 7 1 0.5897 1.032582714646074 5.651350348885226 2.7054758081733588 0 0 0
142 48 2 -1.1794 5.588978861641842 9.097841149896553 0.4151819628657815 0 0 0
113 38 1 0.5897 4.960247624690478 7.442843871015693 4.141792813980252 0 0 0
57 19 1 0.5897 7.644390422435733 5.569954498895909 2.827006722188315 0 0 0
112 38 2 -1.1794 4.262569624445453 7.637106497844396 3.5159188156730523 0 0 0
130 44 2 -1.1794 2.0676350621023505 7.538604119870824 5.04429284358207 0 0 0
674 225 1 0.5897 2.0415457833620776 5.738208198648001 0.7338890786925095 0 0 1
15 5 1 0.5897 4.5614283619125 6.55594245411604 2.2076267509472967 0 0 0
139 47 2 -1.1794 1.25632469176212 8.894214219887532 2.2436567890384986 0 0 0
19 7 2 -1.1794 0.7848679274136723 6.1974388401799105 1.9594011686924893 0 0 0
141 47 1 0.5897 1.1032882910797137 7.978863843017355 2.47806354257781 0 0 0
114 38 1 0.5897 3.454968004881095 7.552006112057674 4.02265178946636 0 0 0
14 5 1 0.5897 4.21854300810069 5.679084100075403 1.0221447621209747 0 0 0
110 37 1 0.5897 2.3746100391427927 9.261396994134174 0.8997965994590353 0 0 0
140 47 1 0.5897 1.4193483635618769 9.331891063382557 3.0791522972673353 0 0 0
55 19 2 -1.1794 7.4844746545479985 6.1888710913131995 2.1145692221024057 0 0 0
143 48 1 0.5897 6.157402894565473 8.926211140875496 1.165919265135928 0 0 0
13 5 2 -1.1794 4.869735214411433 5.796093918537179 1.7138652009747766 0 0 0
177 59 1 0.5897 8.24627484835987 9.120841291342892 1.6279400546547595 0 0 0
111 37 1 0.5897 3.7608059948847514 9.228453072670005 0.2920894399040703 0 0 0
175 59 2 -1.1794 7.569646371463943 8.958837857885195 2.2853228254729294 0 0 0
711 237 1 0.5897 8.589478537263718 5.720234676636473 0.8314416308860078 0 0 1
56 19 1 0.5897 6.568378389500846 6.048031221812188 1.8754206823542945 0 0 0
176 59 1 0.5897 7.518866326272025 8.005004168385756 2.3474385162464206 0 0 0
166 56 2 -1.1794 8.955145965011601 7.809581826114877 5.072079933891398 0 0 0
132 44 1 0.5897 1.1122914209694255 7.4833882879495555 5.02111625344759 0 0 0
469 157 2 -1.1794 9.345604526548758 9.622111976147856 7.1681840817275235 0 0 0
468 156 1 0.5897 4.696985322010106 9.231437134731472 7.401556632012188 0 0 0
337 113 2 -1.1794 4.565431053484508 5.987960400547777 8.507367983625066 0 0 0
168 56 1 0.5897 9.17391011303132 8.52608365026829 5.66787752636501 0 0 0
338 113 1 0.5897 5.4754136215329 5.768354170624645 8.307482719365476 0 0 0
344 115 1 0.5897 1.1618662061555378 5.492160225426336 9.051114761359292 0 0 0
343 115 2 -1.1794 1.0730590935389892 6.0637638455172755 8.288500875312636 0 0 0
437 146 1 0.5897 4.278493510383062 7.575025094666759 9.374088130939018 0 0 0
339 113 1 0.5897 4.10008208706917 5.8579056595396946 7.681099100003173 0 0 0
464 155 1 0.5897 1.7851895282269126 8.819161713876404 8.43516786286313 0 0 0
345 115 1 0.5897 1.1028465887835317 6.950282642055108 8.648258863421141 0 0 0
463 155 2 -1.1794 1.0596601006541873 8.586298441348447 9.01448667204413 0 0 0
435 145 1 0.5897 2.7192650818395814 8.79490550295316 6.434273590333403 0 0 0
433 145 2 -1.1794 2.969988476162236 9.264256347369653 7.229912118477825 0 0 0
26 9 1 0.5897 2.2134153967591392 5.553706751140517 6.969015567086476 0 0 0
131 44 1 0.5897 2.3515478780984007 6.668808164819841 5.325505179395447 0 0 0
499 167 2 -1.1794 7.696164371629552 8.66950793705715 9.181287702681486 0 0 0
436 146 2 -1.1794 4.116545111036578 8.079182363428881 10.171451100845147 0 0 0
379 127 2 -1.1794 7.416602310141135 6.009085539124856 8.713713438876102 0 0 0
61 21 2 -1.1794 9.176264054180088 5.7319642786054406 6.754192993156863 0 0 0
500 167 1 0.5897 7.740946164264088 9.37106227646338 9.83091448405971 0 0 0
62 21 1 0.5897 8.518085241553608 5.759942984886355 7.448596453130975 0 0 0
25 9 2 -1.1794 2.869796982723004 5.307921280032409 6.317113313700352 0 0 0
380 127 1 0.5897 7.551330886992952 6.920369304739131 8.973784491297238 0 0 0
501 167 1 0.5897 6.9073405749111 8.861871092001952 8.67434380633795 0 0 0
470 157 1 0.5897 8.862988545474083 9.378780862620864 7.95816268979727 0 0 0
438 146 1 0.5897 4.095467589694868 8.990408218155165 9.879132306238837 0 0 0
467 156 1 0.5897 5.7841265915698505 8.364938577448703 6.802203009804729 0 0 0
466 156 2 -1.1794 5.647422981442494 9.121509610640391 7.372401164644727 0 0 0
167 56 1 0.5897 9.026595116685352 7.020506859829536 5.6091748589183315 0 0 0
137 46 1 0.5897 6.020845187327342 6.437356300107531 5.723667796939519 0 0 0
136 46 2 -1.1794 6.156666194410375 7.3500882269109535 5.469297871335266 0 0 0
381 127 1 0.5897 7.672466829869706 5.499709826567986 9.482648207509808 0 0 0
138 46 1 0.5897 7.100842723485167 7.422279058758584 5.329392737029654 0 0 0
465 155 1 0.5897 0.27492194503046363 8.851971851496177 8.535077078777988 0 0 0
443 148 1 0.5897 1.1697440990890313 9.86949596315734 10.29949332876033 0 0 0
792 264 1 0.5897 4.600749480705484 9.183546444245948 14.41616424891218 0 0 0
456 152 1 0.5897 2.450124858697205 6.694521902683277 12.390989906906201 0 0 0
705 235 1 0.5897 8.009235777832458 5.834888400610043 15.351266650462907 0 0 0
455 152 1 0.5897 2.812485821577978 7.629042992380462 11.25644937833006 0 0 0
461 154 1 0.5897 5.836243285347604 8.268235576807218 12.730359105729814 0 0 0
454 152 2 -1.1794 2.172700470510378 7.501230556567169 11.95684519798988 0 0 0
351 117 1 0.5897 3.50040721870083 5.647716590559851 14.05106179300066 0 0 0
759 253 1 0.5897 2.4697002185159165 8.788572166777769 13.25926741201715 0 0 0
668 223 1 0.5897 1.46654383098836 5.694888556896192 14.8367370144668 0 0 0
757 253 2 -1.1794 2.75544203426546 9.329383472325134 13.995527516974684 0 0 0
462 154 1 0.5897 5.486012147558548 7.920020316991189 11.299323728332448 0 0 0
385 129 2 -1.1794 9.169082863149287 5.6438908910489705 13.959979996506664 0 0 0
790 264 2 -1.1794 5.52936135333308 9.241907632674007 14.191362338358935 0 0 0
349 117 2 -1.1794 2.7255908959060235 5.3916025364436155 13.550759069727635 0 0 0
793 265 2 -1.1794 9.171811401347073 9.479407539718094 14.041537533056028 0 0 0
387 129 1 0.5897 9.085576948961192 6.199549874408289 13.185082023608913 0 0 0
794 265 1 0.5897 9.031455177978986 8.909154229156364 13.285686951201201 0 0 0
791 264 1 0.5897 5.986872920377429 9.064028173653726 15.013092362637824 0 0 0
460 154 2 -1.1794 6.13327932193991 7.748672894511225 11.983354624220814 0 0 0
491 164 1 0.5897 9.277176889587341 7.681272378380196 11.080083513720776 0 0 0
490 164 2 -1.1794 8.880102572834291 7.614303620808807 11.948432730019999 0 0 0
492 164 1 0.5897 7.937409929726567 7.622445904498452 11.782578582386881 0 0 0
333 111 1 0.5897 5.83424972689203 6.0116377025671275 12.364178979376012 0 0 0
533 178 1 0.5897 0.43297171943435475 7.356465605591574 12.096993209256594 1 0 0
789 263 1 0.5897 1.6249298758050472 8.916077564914595 15.258790954251625 0 0 0
661 221 2 -1.1794 4.81762963959969 5.8638975640297115 15.210904754700021 0 0 0
824 275 1 0.5897 8.142984326499395 9.003431934963498 15.447089483408803 0 0 0
331 111 2 -1.1794 5.761873465108112 5.057602919256264 12.392635930888558 0 0 0
669 223 1 0.5897 1.009494351164101 6.855676723704774 15.694374321963483 0 0 0
816 272 1 0.5897 8.782318033320948 8.088925861747374 19.418948966093016 0 0 0
784 262 2 -1.1794 5.984395246244803 7.2648640181216315 18.79166025650045 0 0 0
780 260 1 0.5897 3.0617284038914536 7.707445205880455 17.958040857829893 0 0 0
779 260 1 0.5897 2.513387400387334 8.204131873070233 19.27880803595787 0 0 0
787 263 2 -1.1794 1.0300048270174669 8.704424470412091 15.978149298197856 0 0 0
761 254 1 0.5897 4.170256855775502 9.011073151619934 16.751242097128028 0 0 0
675 225 1 0.5897 2.615584601032902 6.029710064363841 19.793696542599438 0 0 0
788 263 1 0.5897 1.2101045278820426 9.369888944060339 16.64217294073589 0 0 0
760 254 2 -1.1794 4.181350734548846 8.0543275835972 16.723895851116573 0 0 0
778 260 2 -1.1794 2.4391151185613102 7.485871641191871 18.650483552133057 0 0 0
673 225 2 -1.1794 2.6765800883503044 5.414885647920398 20.524767642972215 0 0 0
762 254 1 0.5897 4.866401982860554 7.804444352338112 17.343966988898707 0 0 0
786 262 1 0.5897 6.935018317400035 7.296863178881319 18.684186573722606 0 0 0
785 262 1 0.5897 5.791002780751126 6.3397121563665655 18.943081184971202 0 0 0
709 237 2 -1.1794 9.099737478672907 5.354937901183932 20.53862389838271 0 0 0
703 235 2 -1.1794 7.414235331227288 5.999750243590539 16.082709897309464 0 0 0
823 275 2 -1.1794 7.478567880137082 8.861948392860764 16.121441798803957 0 0 0
814 272 2 -1.1794 8.74056525961919 7.367208587672696 18.79158474464159 0 0 0
825 275 1 0.5897 7.603609347878335 7.953116500516058 16.39459768270492 0 0 0
663 221 1 0.5897 4.5331190641454375 6.678499313363511 15.62527719404879 0 0 0
815 272 1 0.5897 8.889438901203999 6.582153569915608 19.318596946547004 0 0 0
144 48 1 0.5897 5.828487871050975 8.428000211898011 20.204700910307867 0 0 -1
858 286 1 0.5897 0.665409169387021 7.445821736614359 18.39871534704317 1 0 0
704 235 1 0.5897 6.540504375449655 5.860164745145227 15.717533682486373 0 0 0
667 223 2 -1.1794 0.8649481153923303 5.921152102367747 15.546030317255784 0 0 0
109 37 2 -1.1794 2.8499307571785875 9.44096053605226 20.518563967529875 0 0 -1
662 221 1 0.5897 4.652093344630059 5.189140369293407 15.869316479521167 0 0 0
145 49 2 -1.1794 9.206703467010161 9.31121867614262 20.541277760439385 0 0 -1
240 80 1 0.5897 2.513519095880617 14.01511103424754 4.3811452009505425 0 0 0
129 43 1 0.5897 1.3799197925285074 13.674242093230646 2.2423771623091744 0 0 0
120 40 1 0.5897 1.8122409923160632 11.565224282762964 3.360678373291585 0 0 0
118 40 2 -1.1794 2.013288971092412 10.849521830338688 3.963628995775724 0 0 0
119 40 1 0.5897 2.9593833274534274 10.727546724962833 3.884363705550827 0 0 0
127 43 2 -1.1794 1.349973581456902 12.72586042075117 2.116259768872697 0 0 0
124 42 2 -1.1794 4.738799722363866 10.33854036225029 3.5584695193184075 0 0 0
222 74 1 0.5897 4.499795264764467 13.804542939781296 2.3710337160318398 0 0 0
285 95 1 0.5897 7.8891632010735 14.421229254870159 2.167633609017661 0 0 0
220 74 2 -1.1794 4.045813822657786 14.282743626622164 3.0648887564271066 0 0 0
123 41 1 0.5897 4.305794769680384 12.141739506264477 1.0635317615074475 0 0 0
125 42 1 0.5897 5.284810025641425 10.476488229345124 4.332445006111195 0 0 0
122 41 1 0.5897 4.980552497904005 11.566542939539696 2.290581309970239 0 0 0
276 92 1 0.5897 8.972510379738138 14.330635144438968 4.447322989854079 0 0 0
246 82 1 0.5897 5.13833461032989 14.065499994179142 4.419945306316939 0 0 0
121 41 2 -1.1794 5.090744242049445 12.225278181761317 1.6049234718247247 0 0 0
154 52 2 -1.1794 8.38155606509024 10.812508398245717 4.06052667268343 0 0 0
163 55 2 -1.1794 7.844855806410784 12.575453113475373 2.0239814738787594 0 0 0
275 92 1 0.5897 7.559329908719102 14.183191610983508 4.969938749411841 0 0 0
165 55 1 0.5897 8.005071573972678 11.986271934500115 2.761134647478922 0 0 0
819 273 1 0.5897 8.7648554248275 12.241316747740504 0.6213876921748704 0 0 1
164 55 1 0.5897 6.916179150493392 12.460619622857637 1.8224261197964011 0 0 0
156 52 1 0.5897 9.335028706011357 10.86374775386217 3.993251507172933 0 0 0
783 261 1 0.5897 2.207559252604766 12.364721368259813 0.6870703254255833 0 0 1
155 52 1 0.5897 8.139506128658773 10.083603143031672 3.4893238300458567 0 0 0
128 43 1 0.5897 0.4600770621875055 12.552579341794626 1.8091513815997264 0 0 0
238 80 2 -1.1794 1.960082493655602 13.915417430230004 5.155723712954802 0 0 0
188 63 1 0.5897 0.4027057943691594 10.984689768767206 4.845293619289776 1 0 0
244 82 2 -1.1794 5.743796165715178 13.942407950709875 5.151026235044953 0 0 0
116 39 1 0.5897 7.039371030695935 11.028147500727012 5.20538506227034 0 0 0
133 45 2 -1.1794 2.6278003732128323 11.88765902614161 7.013838098558062 0 0 0
134 45 1 0.5897 2.0377046379903017 12.18710141114346 7.705458064904472 0 0 0
135 45 1 0.5897 3.501812212416559 12.122282275794742 7.325777294816989 0 0 0
453 151 1 0.5897 1.1358780375389341 12.001719931855153 9.699516542715921 0 0 0
451 151 2 -1.1794 1.0489201840150542 12.68361736235666 9.033436440529094 0 0 0
450 150 1 0.5897 4.381902145361403 11.491654076713282 9.636665493415048 0 0 0
446 149 1 0.5897 4.675592744106081 13.530146025466847 8.802773008933165 0 0 0
434 145 1 0.5897 2.7369178699335928 10.17588808836972 7.054310357048429 0 0 0
573 191 1 0.5897 1.0491346338556111 14.52320625925824 9.326185965728456 0 0 0
445 149 2 -1.1794 4.872561829504451 12.688850680626391 8.390885326516495 0 0 0
239 80 1 0.5897 2.3121713424766406 13.146991845541784 5.604921412628281 0 0 0
489 163 1 0.5897 7.421110571492966 13.671902241215621 9.10326953126292 0 0 0
170 57 1 0.5897 9.212883522581624 12.923707542886392 6.291901078866641 0 0 0
487 163 2 -1.1794 7.530538425507047 12.747478513888462 8.880335516485324 0 0 0
488 163 1 0.5897 8.1636895824465 12.747061272686311 8.16246722291052 0 0 0
117 39 1 0.5897 6.113395965261377 10.61951594552208 6.331191294638547 0 0 0
447 149 1 0.5897 5.824945061052316 12.611134162532778 8.447335781629729 0 0 0
171 57 1 0.5897 9.468899764657193 11.546783861525231 6.866720292294924 0 0 0
169 57 2 -1.1794 9.606665227718732 12.477711186309808 7.041714456800418 0 0 0
115 39 2 -1.1794 6.198564068873039 11.242530739044424 5.609524852572347 0 0 0
480 160 1 0.5897 7.955352145522128 11.623387863015566 10.215531696785602 0 0 0
245 82 1 0.5897 5.664717240057901 13.01504417689058 5.37457687088941 0 0 0
274 92 2 -1.1794 8.46889849447064 14.259642312233387 5.258198464628194 0 0 0
544 182 2 -1.1794 4.193984601025501 14.627867540956172 10.160661282828595 0 0 0
448 150 2 -1.1794 4.067419529312432 10.811506254114155 10.23224469809495 0 0 0
457 153 2 -1.1794 2.753086634041575 11.998437368139534 13.310039707265028 0 0 0
458 153 1 0.5897 2.014991824710928 12.242830209814171 13.868347272253484 0 0 0
459 153 1 0.5897 3.5270374783004375 12.275567483602993 13.800376861767104 0 0 0
562 188 2 -1.1794 2.1246676660806223 14.12209866052513 11.859868917835664 0 0 0
563 188 1 0.5897 2.418968167568905 13.334713348972853 12.31772629117008 0 0 0
479 160 1 0.5897 8.959466356960725 10.812692907159883 11.007003951352244 0 0 0
546 182 1 0.5897 4.81470539452849 14.436972842790341 10.863852794351036 0 0 0
449 150 1 0.5897 4.600515172351769 10.917282471075646 11.020165724053637 0 0 0
444 148 1 0.5897 2.294616760474533 10.69459289052768 10.887518408527365 0 0 0
642 214 1 0.5897 0.40424715652194343 14.100697829719326 11.928437198834603 1 0 0
600 200 1 0.5897 8.814790409454746 14.912830219815497 12.405396179068344 0 0 0
439 147 2 -1.1794 5.84029142055563 11.2920407258502 12.352319259443398 0 0 0
493 165 2 -1.1794 9.31688701831719 12.134759858273783 13.432553641334778 0 0 0
545 182 1 0.5897 3.3360054484194883 14.435944019443284 10.539185753893731 0 0 0
441 147 1 0.5897 5.845233194829022 10.669631753442339 13.079492946663692 0 0 0
569 190 1 0.5897 5.957662725785524 13.100821522313282 12.270681955763326 0 0 0
442 148 2 -1.1794 1.3400738065350757 10.639116998417295 10.842523108285041 0 0 0
478 160 2 -1.1794 8.019622898726503 10.917406345988248 10.85869998313627 0 0 0
769 257 2 -1.1794 4.734494035346644 12.639865509832163 15.05924102065319 0 0 0
598 200 2 -1.1794 8.617165186389206 14.20725955366138 11.789505211024302 0 0 0
568 190 2 -1.1794 5.977629810141588 14.054267292755604 12.188488829997377 0 0 0
494 165 1 0.5897 8.578959977990635 12.271584614270566 14.026669113739981 0 0 0
770 257 1 0.5897 5.691521782677039 12.658182158546564 15.053713529327098 0 0 0
599 200 1 0.5897 8.810924263676347 13.4046665374478 12.27377954235083 0 0 0
440 147 1 0.5897 6.666800845634056 11.13443738168331 11.895930913108145 0 0 0
570 190 1 0.5897 6.84633952856446 14.246577643290172 11.835491827826669 0 0 0
758 253 1 0.5897 2.72339818869713 10.22583894954876 13.661509345622193 0 0 0
795 265 1 0.5897 9.103172382830675 10.36661104936684 13.688866655062002 0 0 0
564 188 1 0.5897 2.3393453865284024 14.840261942142012 12.455148526115641 0 0 0
811 271 2 -1.1794 7.450663120219921 12.62743364534297 15.308938537595226 0 0 0
581 194 1 0.5897 9.896979983214548 14.3348674236465 10.533486005859036 0 0 0
812 271 1 0.5897 7.590489214415934 13.567947793887278 15.419018330428715 0 0 0
888 296 1 0.5897 2.5462866278104648 13.242559713356059 18.942209076218653 0 0 0
768 256 1 0.5897 1.415133710275481 11.57367387978786 16.85772772773381 0 0 0
773 258 1 0.5897 3.406817097879445 10.890491667523634 17.275074325939435 0 0 0
766 256 2 -1.1794 1.7329204304326593 10.942185653766304 17.503049811150905 0 0 0
886 296 2 -1.1794 2.1926593442460534 13.964135962109937 18.4221395691937 0 0 0
772 258 2 -1.1794 4.316180882063441 10.718942529613084 17.030355723828045 0 0 0
774 258 1 0.5897 4.48096480531813 11.30597584291376 16.292496765238678 0 0 0
767 256 1 0.5897 1.1005225120454742 10.992675782132993 18.219803644187248 0 0 0
869 290 1 0.5897 3.3690136722905524 14.44312996764816 17.23242461828256 0 0 0
868 290 2 -1.1794 4.17467714429082 14.61336670705338 16.744402230908552 0 0 0
870 290 1 0.5897 4.877039424043057 14.405004112333083 17.360434925183725 0 0 0
804 268 1 0.5897 7.78597894957236 10.323130440322785 17.04202800951015 0 0 0
965 322 1 0.5897 0.4019842643905345 13.882082637641764 18.607607194252733 1 0 0
782 261 1 0.5897 2.7683263529776014 11.198383057698258 20.331490585560882 0 0 0
777 259 1 0.5897 1.0330089492491585 13.56536983468666 15.806800943117148 0 0 0
764 255 1 0.5897 5.218532606693198 11.111662680368255 18.505918457002853 0 0 0
818 273 1 0.5897 9.062210181118443 12.620364038856417 19.616186158984796 0 0 0
892 298 2 -1.1794 6.045871562855528 14.12914353544861 18.69978413307081 0 0 0
802 268 2 -1.1794 8.054213982385566 11.081987953418874 17.560108545163967 0 0 0
922 308 2 -1.1794 8.793918968237687 14.096325724941114 18.611074018388155 0 0 0
894 298 1 0.5897 5.978382111627533 13.190347919874917 18.873973871330463 0 0 0
813 271 1 0.5897 7.681389528886605 12.249558554124901 16.15756176841062 0 0 0
763 255 2 -1.1794 5.906498842239707 11.41110959136676 19.10027413222642 0 0 0
924 308 1 0.5897 9.487777458344468 14.168916835714038 17.95570420628717 0 0 0
803 268 1 0.5897 7.347144455827847 11.201769170714405 18.194088362453112 0 0 0
765 255 1 0.5897 5.869628746814117 10.800931973058091 19.836822073747722 0 0 0
893 298 1 0.5897 6.975756993131879 14.274634606920623 18.525414501052246 0 0 0
923 308 1 0.5897 9.042893852480823 14.718978144256097 19.294099476386496 0 0 0
146 49 1 0.5897 9.157262484866825 10.232077891395262 20.284749258872285 0 0 -1
887 296 1 0.5897 2.2442065265956965 14.724859937175493 19.000804431874897 0 0 0
817 273 2 -1.1794 9.357686643129119 12.04885746504099 20.32490371122496 0 0 0
810 270 1 0.5897 9.838029222239209 10.749275456069222 17.671580326081017 0 0 0
781 261 2 -1.1794 2.8301347693402787 12.149223584958023 20.42263406376642 0 0 0
775 259 2 -1.1794 0.96509917344976 12.648491922895628 15.540439177184943 0 0 0
771 257 1 0.5897 4.484577621327328 13.338396258057081 15.664063439194019 0 0 0
229 77 2 -1.1794 4.667390580769115 19.026410520343124 1.6701313103906266 0 0 0
221 74 1 0.5897 4.299640204772519 15.196139594591518 2.932534732629376 0 0 0
250 84 2 -1.1794 5.25954077557063 15.531903365891191 0.4620751377275105 0 0 0
249 83 1 0.5897 1.7224945830266953 15.554081551019262 1.3359020642049526 0 0 0
248 83 1 0.5897 1.5034141368369138 16.03376219996488 2.754939367826295 0 0 0
227 76 1 0.5897 1.6366451909637332 17.987405366694908 3.2994128091464754 0 0 0
247 83 2 -1.1794 1.1373519248168487 15.454281316747396 2.086805377794472 0 0 0
232 78 2 -1.1794 4.510898099010034 17.00232369041952 3.50191795130661 0 0 0
228 76 1 0.5897 1.0956998591452662 17.378883414336862 4.575692071960736 0 0 0
226 76 2 -1.1794 1.8044661781541427 17.294347397407062 3.9379373920145295 0 0 0
233 78 1 0.5897 4.550073608549541 17.634945538935966 2.7846608547291605 0 0 0
235 79 2 -1.1794 1.0060913053531668 19.18299692923022 2.029427650474951 0 0 0
230 77 1 0.5897 4.258662671449122 18.93231536907818 0.8097366004351573 0 0 0
234 78 1 0.5897 3.6411790268535946 17.124641575130727 3.8825483795153546 0 0 0
927 309 1 0.5897 8.67723407629731 19.0075598457955 0.4184952653393764 0 0 1
262 88 2 -1.1794 8.279509707503577 17.34190764228556 3.6035076871664264 0 0 0
231 77 1 0.5897 5.60743977641273 18.980458695055397 1.4956051266224464 0 0 0