LAMMPS data file via write_data, version 30 Jul 2021, timestep = 5000000

864 atoms
2 atom types
576 bonds
1 bond types
288 angles
1 angle types

0.6327252053539514 17.574847194645475 xlo xhi
1.8367979857579897 21.792379814246573 ylo yhi
0.7719232726559042 21.441272527342296 zlo zhi

Masses

1 1.00794
2 15.9994

Pair Coeffs # lj/cut/tip4p/long/omp

1 0 0
2 0.21084 3.1668

Bond Coeffs # harmonic/omp

1 450 0.9572

Angle Coeffs # harmonic/omp

1 55 104.52

Atoms # full

305 1 1 0.5897 3.8881090075656703 2.880432787566628 4.593399508443671 3 -2 -8
81 1 1 0.5897 4.3293835055536345 4.023792448379108 1.5532953142524724 0 0 -5
304 1 2 -1.1794 3.3968838508926513 2.432171328023916 3.9048253605949395 3 -2 -8
235 1 2 -1.1794 0.7958844596067725 3.5595900260416213 4.160545818445658 1 -2 -2
306 1 1 0.5897 2.5380399804242044 2.854991217525164 3.908541851243379 3 -2 -8
799 1 2 -1.1794 2.856592992182397 5.460437348829287 4.563819168038696 4 -1 4
801 1 1 0.5897 3.56820799902202 5.357951221912551 3.9318143330848163 4 -1 4
236 1 1 0.5897 1.4583051095003012 4.247250773137511 4.228683557636289 1 -2 -2
800 1 1 0.5897 2.5191302823118984 6.3419413931367234 4.404411832645993 4 -1 4
80 1 1 0.5897 3.5106561991705267 2.9834426612188367 0.8188210846693713 0 0 -5
576 1 1 0.5897 3.2328663957980095 4.164585159981163 10.068154650564454 2 -1 -1
3 1 1 0.5897 2.635034742518691 5.404698499053454 7.438477384806755 0 -7 4
761 1 1 0.5897 1.9807160438815958 3.5694614476402178 7.800064804690447 1 -3 -2
418 1 2 -1.1794 3.034381701885258 2.223904233625408 7.951520145121545 -8 -3 6
118 1 2 -1.1794 1.1644134205874535 6.511431618399505 9.577362764796128 4 -5 -1
120 1 1 0.5897 1.6034482332402147 5.67715243782693 9.743378392974497 4 -5 -1
574 1 2 -1.1794 2.3588637158052217 4.2556484308732445 10.447949001073736 2 -1 -1
1 1 2 -1.1794 3.512664459774687 5.7775867407064805 7.522384122340832 0 -7 4
2 1 1 0.5897 3.8869454044522116 5.710453403004108 6.643907329194784 0 -7 4
419 1 1 0.5897 3.786204124604951 2.6151155526502174 7.506503402060843 -8 -3 6
760 1 2 -1.1794 1.3326437995032747 4.235190028714681 7.569473285405956 1 -3 -2
797 1 1 0.5897 1.7344926853447014 2.3081019201140824 10.47109674447196 0 -6 -4
282 1 1 0.5897 0.8509247248301717 5.625771161411068 6.040196555106247 0 -1 0
83 1 1 0.5897 1.8324995997032323 6.28279122985576 12.552290269147704 -2 -3 -8
580 1 2 -1.1794 1.394779846102689 3.6402185427460405 13.977513019170805 0 -4 -3
808 1 2 -1.1794 4.51049773845161 2.920569903898022 13.979832219624235 1 1 -2
581 1 1 0.5897 2.0998840825645315 4.2873096096104195 13.95709603637463 0 -4 -3
82 1 2 -1.1794 2.6657850956887152 5.811797658878543 12.538812606176595 -2 -3 -8
84 1 1 0.5897 3.30670221913378 6.4659768061152105 12.260238742116762 -2 -3 -8
525 1 1 0.5897 3.9785957572807313 4.620368396010918 15.015503242608748 3 -1 3
582 1 1 0.5897 1.8120053257433668 2.8407069559787796 14.29853206223341 0 -4 -3
523 1 2 -1.1794 3.575267177392567 5.083038205504692 15.750066809138575 3 -1 3
524 1 1 0.5897 3.5552682237078135 5.999559725123063 15.474549201336655 3 -1 3
575 1 1 0.5897 2.4847600139350616 4.827211355148533 11.205485619679358 2 -1 -1
88 1 2 -1.1794 1.6408808066274225 5.564734172450326 17.74491991063538 10 -2 4
259 1 2 -1.1794 3.354401200319397 6.080140306403918 20.14673678407341 1 -1 5
226 1 2 -1.1794 1.176958543428035 2.853873374814323 19.1566685938981 0 -2 0
89 1 1 0.5897 1.1111164773237414 6.241097087981273 17.322759591695252 10 -2 4
261 1 1 0.5897 2.933278374619591 6.023900670200069 19.28894233663081 1 -1 5
79 1 2 -1.1794 4.0797008288146115 3.7394439817279785 21.34337095132211 0 0 -6
285 1 1 0.5897 3.896348162749713 2.3884722660288205 17.957706611779958 3 0 -3
90 1 1 0.5897 2.2306805164822103 5.257350109803543 17.056461302619425 10 -2 4
227 1 1 0.5897 1.6036422978432672 3.697025386665171 19.30954484091571 0 -2 0
858 1 1 0.5897 4.365687149469142 4.377242387960496 17.40467099505139 1 -1 -5
228 1 1 0.5897 1.2157757868402137 2.408315324655503 20.003014499683715 0 -2 0
260 1 1 0.5897 3.633972937712119 5.184411291551234 20.336028472741226 1 -1 5
856 1 2 -1.1794 4.818597793569733 3.9029642049853637 18.101998125597955 1 -1 -5
319 1 2 -1.1794 0.8639789757680818 5.312134634969295 20.992289432285315 3 -3 0
321 1 1 0.5897 1.778003332803989 5.3574341032801405 20.711401279572847 3 -3 0
284 1 1 0.5897 2.4561309713376924 1.9539002915649288 18.12829980956012 3 0 -3
334 1 2 -1.1794 4.137361795023052 7.956727412758396 1.5240793585427515 6 0 3
703 1 2 -1.1794 2.691578030578767 8.206410434745578 4.0589048613081395 5 0 -1
267 1 1 0.5897 2.33329104695838 9.814311223196572 2.0200807382426267 -4 0 0
662 1 1 0.5897 4.548781557352562 10.372651716166805 2.633530661287996 -4 -5 0
829 1 2 -1.1794 0.9075259557107972 8.5681247290686 1.7556308942316112 6 4 6
704 1 1 0.5897 3.211504850828943 8.534406961725557 4.792685179614584 5 0 -1
265 1 2 -1.1794 2.8577133746063064 10.605842579390034 1.8985472024068342 -4 0 0
705 1 1 0.5897 3.2824316077010907 8.25128275089817 3.307096013586666 5 0 -1
266 1 1 0.5897 3.1524856937993047 10.561118962068988 0.9889150567490045 -4 0 0
53 1 1 0.5897 1.0889806666873574 9.083699418297075 4.2968569196991915 -3 -1 2
159 1 1 0.5897 3.383014338634439 10.871378354036663 5.676810431376842 3 1 -1
336 1 1 0.5897 4.828328690627762 8.516681054254066 1.1700620845554295 6 0 3
429 1 1 0.5897 0.9614177227196097 11.41452053616487 1.6988108990159585 2 0 -1
335 1 1 0.5897 4.143700020208941 7.1826245419641905 0.9609834449338095 6 0 3
229 1 2 -1.1794 1.5721602892255526 8.322830115202109 7.610263147522183 5 4 2
127 1 2 -1.1794 4.055751844943973 9.11595557743318 6.061126350168723 -1 2 -5
198 1 1 0.5897 3.9115301876952633 9.423362379467477 9.441182198411836 -1 -3 1
230 1 1 0.5897 1.2747237238269893 7.916408154863748 6.796212704904412 5 4 2
196 1 2 -1.1794 3.506925992004626 10.20102656170456 9.825762736113576 -1 -3 1
129 1 1 0.5897 3.470040720171442 8.753050543763365 6.72562432535381 -1 2 -5
231 1 1 0.5897 1.138562645678653 9.176117178001428 7.624891676166754 5 4 2
197 1 1 0.5897 2.696407747754614 9.87944908488677 10.220679526978207 -1 -3 1
107 1 1 0.5897 1.124358232008499 8.39943763495675 9.853966706639751 0 1 3
434 1 1 0.5897 1.6230681091061827 11.649876377437595 7.964148402960194 1 2 -1
279 1 1 0.5897 4.170322664724266 7.123464158191332 8.525265320018336 -1 -4 1
106 1 2 -1.1794 1.0097067279582586 9.140225947946917 10.449312810690264 0 1 3
128 1 1 0.5897 4.843233172724488 9.364539070684934 6.54526933743257 -1 2 -5
277 1 2 -1.1794 4.5403269683147425 7.852493683323547 9.023185099216168 -1 -4 1
119 1 1 0.5897 1.609973752538505 6.868399801804867 8.80893936437948 4 -5 -1
590 1 1 0.5897 4.507978135409095 7.850362727940796 10.966987159345933 4 6 3
435 1 1 0.5897 2.8897925118185137 11.561676757243996 8.78861203339014 1 2 -1
602 1 1 0.5897 4.152709196399645 8.282449921726847 14.952617447654058 2 4 0
603 1 1 0.5897 3.0102607564798247 7.695870487919833 14.150832818796474 2 4 1
143 1 1 0.5897 1.9658164163701695 9.299697618908105 13.563915769473432 -2 6 3
839 1 1 0.5897 1.0341931632651242 11.469908652461108 13.480175945103037 -3 -1 -4
142 1 2 -1.1794 1.8291532051973636 8.55295347752461 12.980801018967423 -2 6 3
144 1 1 0.5897 1.5790273764502492 8.944600660322342 12.143914315746354 -2 6 3
130 1 2 -1.1794 4.478709297651111 10.065940085749528 15.331300077955424 -5 1 -2
601 1 2 -1.1794 3.6068232211427436 7.500113016537821 14.873417360052565 2 4 1
589 1 2 -1.1794 4.807402949866117 7.793337383890269 11.874436860307416 4 6 3
132 1 1 0.5897 4.002557713593228 10.838034024336382 15.025551613299292 -5 1 -2
733 1 2 -1.1794 1.2162970253749292 10.485126495496466 15.416146332043056 -1 -1 -5
734 1 1 0.5897 1.2183814033725884 9.676959135919368 15.929166202309982 -1 -1 -5
350 1 1 0.5897 4.687667392837232 10.818846639595405 11.107443479975753 -9 1 -3
536 1 1 0.5897 2.893566953999844 8.159656718908936 16.843598027353057 6 5 1
537 1 1 0.5897 2.6890120891985654 8.047359794709354 18.3394835921501 6 5 1
391 1 2 -1.1794 3.698645028830203 10.418485781541014 19.958995690399792 4 -2 2
535 1 2 -1.1794 3.2209721017794477 8.492032619106526 17.67944804467559 6 5 1
614 1 1 0.5897 0.8581222754379932 8.98588086181055 19.630854565269285 -3 4 2
392 1 1 0.5897 3.753362284374546 9.837431007153276 19.200221119716534 4 -2 2
613 1 2 -1.1794 1.0205585314421637 8.042529432221547 19.625788145485615 -3 4 3
791 1 1 0.5897 2.060018004444923 11.769730733805794 16.442503695654857 4 5 -1
393 1 1 0.5897 3.403785516066793 11.255311056710118 19.599692051854884 4 -2 2
615 1 1 0.5897 1.5198328143465778 7.880656479597648 20.426321444962806 -3 4 3
677 1 1 0.5897 1.640559312322958 11.529836093190983 18.88390419252561 2 1 -3
676 1 2 -1.1794 0.8347589883341354 11.06095664655283 19.101077772473577 2 1 -3
514 1 2 -1.1794 0.7710229219192414 12.267145829729351 4.1166412048652 -1 -4 0
724 1 2 -1.1794 1.4015609312195447 15.610868393322846 2.445397312120433 3 -3 4
818 1 1 0.5897 2.8155713328025898 12.587969005166181 1.872064406832159 4 0 3
819 1 1 0.5897 3.8250264506142497 13.715953620223377 1.8994849371177527 4 -1 3
817 1 2 -1.1794 2.904988341523218 13.527807526504507 1.7138791862975185 4 0 3
628 1 2 -1.1794 1.904652383055632 15.956719966670343 5.24390812216674 -1 -3 1
725 1 1 0.5897 1.5614362224362694 15.738383860543786 3.3805507413963265 3 -3 4
726 1 1 0.5897 1.9566779791727535 14.868638170832051 2.2060554368530534 3 -3 4
515 1 1 0.5897 1.611336901586112 12.273910846943886 4.575050194064415 -1 -4 0
168 1 1 0.5897 4.3612125187335575 13.51261856617799 5.707255002739749 -4 -3 6
157 1 2 -1.1794 3.286579781417708 11.822361698122785 5.728276575015769 3 1 -1
206 1 1 0.5897 4.795353949423921 14.021592483110771 9.896262275625022 -5 2 0
549 1 1 0.5897 0.7362638018223153 16.26177458709593 9.473864138743227 5 2 4
445 1 2 -1.1794 2.7110765585720826 14.853803267801519 7.797215847458653 4 0 -1
447 1 1 0.5897 2.7713404944315627 13.955512120061073 8.122449002861565 5 0 -1
433 1 2 -1.1794 2.3592196510937224 12.17436577817678 8.279276263951301 1 2 -1
446 1 1 0.5897 2.411587229008874 15.362318429573369 8.550959130035281 4 0 -1
205 1 2 -1.1794 4.370755223386946 14.678830412596252 10.447708067021834 -5 2 0
158 1 1 0.5897 3.160571869471475 12.000721348845886 6.66028029519603 3 1 -1
738 1 1 0.5897 1.059628179887628 12.695832872426745 9.460978625325016 0 -2 1
737 1 1 0.5897 0.6941607541233813 13.04482438711373 10.888121411676126 0 -2 1
547 1 2 -1.1794 1.5719796197258038 16.726828962584158 9.514129555854334 5 2 4
630 1 1 0.5897 2.1419036087166163 15.398228426518049 5.984253229847503 -1 -3 1
315 1 1 0.5897 3.2460258830932736 15.80165277882723 14.701912777778803 0 -3 2
371 1 1 0.5897 1.9464542032746603 14.82867397215936 12.58857570041779 3 7 -1
370 1 2 -1.1794 1.833189780977648 14.165085817686881 11.908027182050565 3 7 -1
750 1 1 0.5897 2.4399327067728387 12.430066318761387 12.702622995520624 2 2 -1
748 1 2 -1.1794 3.046788471889015 11.852877871453401 13.166189408460848 2 2 -1
313 1 2 -1.1794 2.3601455614196523 15.629938337446891 14.382466057418165 0 -3 2
314 1 1 0.5897 2.0089792540315132 14.977059548071216 14.988068495232957 0 -3 2
372 1 1 0.5897 2.413722930065828 14.445478528827467 11.200439264619344 3 7 -1
58 1 2 -1.1794 4.811844681881083 15.942127020334652 15.495999782468354 2 -2 0
363 1 1 0.5897 4.846983758730642 14.025558570010354 15.412020249824572 5 -3 -1
749 1 1 0.5897 3.8740877214464504 11.945074572771516 12.693550645023635 2 2 -1
741 1 1 0.5897 4.0103971514125085 15.892392217631333 21.20942494143381 0 -3 0
527 1 1 0.5897 1.5419980751703442 15.518505569428315 19.989799108645908 -1 -3 -1
432 1 1 0.5897 1.667402387094962 16.04458234697958 17.336485434686175 -9 -3 -2
790 1 2 -1.1794 2.460522888393412 12.526471630526952 16.87059498819552 4 5 -1
187 1 2 -1.1794 2.9441584259474136 13.152060055287947 19.648507674987997 -1 5 0
727 1 2 -1.1794 4.622793515942352 16.15170166455827 18.177492290895024 -3 2 -2
739 1 2 -1.1794 3.238046423841577 16.060048312315768 20.669344807422757 0 -3 0
690 1 1 0.5897 4.663091456155617 13.561881962796448 19.66821583392563 2 -2 1
188 1 1 0.5897 2.480678857605156 13.733394160483535 19.045551402526154 -1 5 0
189 1 1 0.5897 2.795137326869673 13.534844601531166 20.513141061578594 -1 5 0
792 1 1 0.5897 3.370799043526561 12.515755704050488 16.57458453462781 4 5 -1
60 1 1 0.5897 4.571781727679408 16.239682789275612 16.373579470070133 2 -2 0
740 1 1 0.5897 3.563753934910422 16.032448754520846 19.769632462997997 0 -3 0
526 1 2 -1.1794 0.8059030866336867 15.232238848600408 19.448909879110182 -1 -3 -1
293 1 1 0.5897 1.1840199799684554 13.729880843185935 16.78906165997984 -1 1 4
292 1 2 -1.1794 0.6771890633668757 14.468713531668426 16.45206957251715 -1 1 4
767 1 1 0.5897 1.7806038307299605 17.35770493105491 2.0436817473652997 -2 0 -2
635 1 1 0.5897 1.7944969727596514 20.721163493072382 3.6523117592189696 -7 1 3
74 1 1 0.5897 4.368351866157639 17.135628975997424 3.7409091995046553 1 -1 2
636 1 1 0.5897 1.3806032179100836 19.524738125158247 2.8220200620670806 -7 1 3
766 1 2 -1.1794 1.8443573334361727 18.217416370751582 1.6275511561718168 -2 0 -2
634 1 2 -1.1794 1.0538118243672903 20.354852015915732 3.16906746812205 -7 1 3
644 1 1 0.5897 4.551045116055128 20.829722848221216 4.402009717628462 3 -3 0
73 1 2 -1.1794 4.425493862283988 17.998139325142457 3.3296363873565222 1 -1 2
257 1 1 0.5897 1.8085214548471296 21.236461876255866 1.6114000896287364 -1 -2 2
645 1 1 0.5897 4.766548575441272 19.35983142820784 4.110306728404595 3 -3 0
629 1 1 0.5897 1.7680937243845898 16.82191847862152 5.630036926637005 -1 -3 1
404 1 1 0.5897 0.9155392300520295 19.082858371963585 5.8851439033802135 7 -5 1
256 1 2 -1.1794 2.1647203038388314 21.547414424429114 0.7790764698168609 -1 -2 2
755 1 1 0.5897 2.382332468311934 19.868333067671056 6.378374402501603 -4 -3 -6
756 1 1 0.5897 1.1277165275796874 20.646320884710814 6.7143756833959 -4 -3 -6
480 1 1 0.5897 3.686336834414249 17.89879288115876 7.03139165364988 -4 4 -2
368 1 1 0.5897 4.7849598804619236 17.94933756041543 10.95085052054387 3 2 -3
358 1 2 -1.1794 4.389102370902952 21.08488316801983 10.184280283302126 5 -2 -5
478 1 2 -1.1794 3.2469328606522616 18.58760778511541 7.530163438031733 -4 4 -2
360 1 1 0.5897 3.9349320636497622 21.57974078845955 9.50222462208066 5 -2 -5
754 1 2 -1.1794 1.8274919195144776 20.582448315453004 6.064339842708403 -4 -3 -6
479 1 1 0.5897 2.7626079087917867 18.11961248048783 8.21040301411456 -4 4 -2
548 1 1 0.5897 1.6628104449709062 16.9780383716774 10.433360551517534 5 2 4
796 1 2 -1.1794 1.3825945395650052 21.395523588589295 10.668017674107663 0 -7 -4
359 1 1 0.5897 4.8531276435850135 21.749080405562044 10.694032752714268 5 -2 -5
420 1 1 0.5897 2.626869837283526 21.62164061998749 7.288906786298942 -8 -4 6
271 1 2 -1.1794 1.4483683957579023 19.869729549919207 15.390796923465336 1 4 2
165 1 1 0.5897 3.436168022777576 21.305924543023515 13.582907989886628 -2 2 0
272 1 1 0.5897 1.0323852444824593 19.017153694651004 15.26270585679888 1 4 2
164 1 1 0.5897 2.2627971189871836 20.39699642673661 13.881482053683747 -2 2 0
273 1 1 0.5897 2.2660521826958275 19.671639993997644 15.847385821318975 1 4 2
546 1 1 0.5897 1.864944917760601 16.98362087058505 13.133339827763763 -2 2 4
544 1 2 -1.1794 1.8741300192903156 17.42793116613454 12.285504518975289 -2 2 4
545 1 1 0.5897 2.7761118786826495 17.731875543146494 12.183609579066184 -2 2 4
163 1 2 -1.1794 2.7187172140922833 20.83275746043982 13.161369071120536 -2 2 0
369 1 1 0.5897 4.256057421735578 19.344084568766185 11.209794541342406 3 2 -4
367 1 2 -1.1794 4.342766201936164 18.480353390662597 11.613271008030324 3 2 -3
798 1 1 0.5897 1.9558069600269181 21.054277530114668 11.35452940577344 0 -7 -4
716 1 1 0.5897 2.850065178398119 19.029749600560624 19.285439370168767 5 -10 -4
715 1 2 -1.1794 3.7016826219197285 19.44864348890972 19.410331637716833 5 -10 -4
717 1 1 0.5897 3.6389252813677424 20.270016141905895 18.922760471405883 5 -10 -4
431 1 1 0.5897 1.076478285218605 17.161311954725228 16.502298737316764 -9 -3 -2
414 1 1 0.5897 4.366338225886581 18.573489717606435 17.04801578547659 2 -4 3
430 1 2 -1.1794 1.6140091681326285 16.998513815335848 17.27747659538376 -9 -3 -2
9 1 1 0.5897 1.023613706673107 17.74838498605682 18.932916700860712 1 -4 0
413 1 1 0.5897 3.0332843126465363 17.965972994440683 16.66592315135037 2 -4 3
258 1 1 0.5897 2.4942566877961347 20.75813979811663 21.018558413994395 -1 -2 1
283 1 2 -1.1794 3.3147391139046443 21.591564911623752 17.848927067044762 3 -1 -3
7 1 2 -1.1794 1.0790788175582033 18.34667687117494 19.67809410464769 1 -4 0
412 1 2 -1.1794 3.7486777134465274 18.49995912409883 16.3203907498351 2 -4 3
788 1 1 0.5897 4.780049423223814 18.159623820548273 20.714142469792442 1 -1 6
102 1 1 0.5897 4.633934115502334 21.21007596460518 16.515595898709005 9 -5 -1
768 1 1 0.5897 2.0186140605195924 18.025668977748186 21.375373188598726 -2 0 -3
673 1 2 -1.1794 7.675756701228963 4.616798637156284 3.8747304975764107 -1 -1 -3
221 1 1 0.5897 5.205587040541043 4.327999379279333 5.582691071016384 5 -3 5
25 1 2 -1.1794 5.9679227165907776 2.503075527073075 2.809720512277475 -2 8 5
682 1 2 -1.1794 8.81504153319837 2.1031888796887293 3.6060045367843423 3 -1 -4
502 1 2 -1.1794 5.85505656570702 6.170458922601811 5.660139033861535 -3 1 2
27 1 1 0.5897 6.549075236494898 3.1117634527550435 3.2658984055460514 -2 8 5
692 1 1 0.5897 8.424165183164842 6.199094789684886 3.004961202415927 2 0 1
274 1 2 -1.1794 5.064737452612487 5.54771668303742 2.9039342251432227 -2 4 -2
674 1 1 0.5897 8.21190879636934 3.835234664740999 3.740482439647735 -1 -1 -3
276 1 1 0.5897 5.900262643034947 5.519107540403105 3.370193395660626 -2 4 -2
26 1 1 0.5897 5.139360981978131 2.5599397935628283 3.285788557820047 -2 8 5
675 1 1 0.5897 7.669104347224142 4.743198779104474 4.82356699479225 -1 -1 -3
275 1 1 0.5897 5.260868413534332 6.00826242246256 2.087999819598897 -2 4 -2
220 1 2 -1.1794 5.211006775340612 3.3716577014179268 5.623840859009259 5 -3 5
503 1 1 0.5897 6.2408318105746545 6.398491684707043 6.506007511134205 -3 1 2
719 1 1 0.5897 6.070997084956277 5.018054774945195 11.005101383932859 4 4 0
385 1 2 -1.1794 6.861707678571902 6.25398416605797 8.201496010407745 -5 2 2
222 1 1 0.5897 5.815814239111286 3.165530366961546 6.336604416456213 5 -3 5
252 1 1 0.5897 7.53435160065425 2.5821843921303467 8.120460843178584 5 0 5
795 1 1 0.5897 5.712745453507026 3.7349894111546416 9.292203794755592 -6 2 6
387 1 1 0.5897 7.38413208289803 5.506367075265924 7.910841578575823 -5 2 2
250 1 2 -1.1794 6.601021189393368 2.5740059170144405 7.907991962290596 5 0 5
487 1 2 -1.1794 8.73370026744972 2.1420916604095908 9.66198612002517 0 -5 2
386 1 1 0.5897 7.483659157944316 6.816373378032157 8.66324187743098 -5 2 2
641 1 1 0.5897 8.966644978625748 3.3034134046753643 6.702770515525747 4 1 -3
793 1 2 -1.1794 5.018903404030978 4.275033640826388 9.67068795743783 -6 2 6
720 1 1 0.5897 7.21995142650827 6.003573300733383 10.976867379991551 4 4 0
640 1 2 -1.1794 8.815066981287357 4.123211885444924 7.173160978944687 4 1 -3
46 1 2 -1.1794 8.88890327213198 5.609947688618238 10.131703722482815 4 0 0
47 1 1 0.5897 9.077498736769488 4.890913142587839 10.734810185346356 4 0 0
794 1 1 0.5897 4.990058439188492 5.0534172357042415 9.114188693921268 -6 2 6
664 1 2 -1.1794 6.17829536439251 6.474253155724025 14.399882984508178 1 2 2
718 1 2 -1.1794 6.503695687914409 5.691549714833338 11.529999218701745 4 4 0
592 1 2 -1.1794 6.215317180068022 2.6338251757494024 11.773861046689637 2 0 -3
45 1 1 0.5897 7.890239903005036 3.9421307069157967 14.68896315499984 2 6 -1
176 1 1 0.5897 6.918710025913754 6.165455591720547 16.080620941120593 -1 -3 7
666 1 1 0.5897 6.406270648520153 5.822576956702054 13.736804489297747 1 2 2
43 1 2 -1.1794 7.942728469723209 4.286816634616066 13.797471856662387 2 6 -1
594 1 1 0.5897 6.5881535411657595 3.396294426575711 12.216518999210221 2 0 -3
44 1 1 0.5897 8.661678910521667 3.8003111199875548 13.394012744642954 2 6 -1
665 1 1 0.5897 5.262698815310443 6.688615072829555 14.220875036189524 1 2 2
810 1 1 0.5897 4.964229261551468 2.8589858457255346 13.13920963951844 1 1 -2
809 1 1 0.5897 4.990741377516785 2.325750468744285 14.555915445033033 1 1 -2
593 1 1 0.5897 6.573226222204689 1.882709764057659 12.247201271840177 2 0 -3
171 1 1 0.5897 9.007981596611332 5.849900344919443 14.066561440257814 -5 4 -1
238 1 2 -1.1794 7.80827871406882 2.2162203299171983 16.25040199197717 -6 -5 -1
134 1 1 0.5897 5.574181790022202 3.067751727128771 20.64068530624646 2 -4 -5
175 1 2 -1.1794 7.1454261908759324 5.975229666910537 16.990970313007214 -1 -3 7
239 1 1 0.5897 8.239351288769235 2.9817746392617916 16.630423206767897 -6 -5 -1
530 1 1 0.5897 8.889329556730406 4.9646107048014105 20.51701244875216 -2 0 -5
531 1 1 0.5897 7.71890582440981 4.074606288085478 20.87783110207776 -2 0 -5
133 1 2 -1.1794 6.470032413944483 2.8496198902330385 20.383359616972562 2 -4 -5
529 1 2 -1.1794 8.335469154435652 4.703539694545286 21.252828000030412 -2 0 -5
177 1 1 0.5897 8.07919688978658 6.176612853184407 17.05286477767073 -1 -3 7
857 1 1 0.5897 5.624514252488324 4.399175508130849 18.245515520617698 1 -1 -5
807 1 1 0.5897 7.104901134984391 5.922737115419577 21.03477116442166 3 -1 -2
135 1 1 0.5897 6.718491513950233 2.1309561154838836 20.964845406025926 2 -4 -5
805 1 2 -1.1794 6.523974711276254 6.671452795392663 21.169936035889744 3 -1 -2
806 1 1 0.5897 6.025025283324473 6.738134344901674 20.355735240952754 3 -1 -2
663 1 1 0.5897 5.6603325035070355 11.34567945937465 2.9648740621695118 -4 -5 0
661 1 2 -1.1794 5.496476974742325 10.490321406963721 2.5675837862526234 -4 -5 0
772 1 2 -1.1794 6.541455079158585 8.368787949102598 4.059841358275185 2 -5 4
773 1 1 0.5897 7.284537278078052 8.121215071566045 3.5095229669820696 2 -5 4
849 1 1 0.5897 8.398749299309205 10.050006624560135 5.790667244962513 6 -3 3
774 1 1 0.5897 6.104158062952539 9.067163560560791 3.5726497730314946 2 -5 4
693 1 1 0.5897 7.6226389200426565 7.030840375981083 2.0262512086774 2 0 1
848 1 1 0.5897 7.2553778776231095 9.974474248267132 4.801150652176876 6 -3 3
691 1 2 -1.1794 8.362903702412721 7.078268905482477 2.631299835048103 2 0 1
847 1 2 -1.1794 7.712236257299101 10.579801857211402 5.385250152346614 6 -3 3
504 1 1 0.5897 5.989650198333825 6.947581430084426 5.117658411271269 -3 1 2
67 1 2 -1.1794 6.0267333893003165 10.146471936144904 7.613687209846851 2 -2 -2
323 1 1 0.5897 7.5257727604818125 9.187891193453293 10.314738337512058 5 1 -2
324 1 1 0.5897 8.439027740617092 8.607660431183481 9.255732895470736 5 1 -2
69 1 1 0.5897 6.50702292398826 10.35170045255024 6.811490093817735 2 -2 -2
68 1 1 0.5897 6.674930477824103 9.729656870330437 8.181517247104988 2 -2 -2
322 1 2 -1.1794 7.533943797693261 8.590308889543781 9.566962384378195 5 1 -2
278 1 1 0.5897 5.461820426710288 7.8762113425427485 8.765083854061572 -1 -4 1
618 1 1 0.5897 8.434924302998581 11.773107764748085 9.913862986406771 0 3 1
131 1 1 0.5897 4.967866611938284 10.372451002185409 16.094903197502607 -5 1 -2
553 1 2 -1.1794 7.301197406537046 9.612870114673107 12.175216324881845 -5 -7 3
785 1 1 0.5897 6.95250567577105 8.22216343644737 14.830359425272123 5 7 1
554 1 1 0.5897 7.456477231593862 10.468402335345983 11.774863659901792 -5 -7 3
591 1 1 0.5897 5.4394834674939725 7.074412482982241 11.8738955474635 4 6 3
555 1 1 0.5897 6.362136756019993 9.463265458419277 12.065144522874787 -5 -7 3
468 1 1 0.5897 8.834724953921606 8.437424839546217 11.895663441133792 5 -2 7
784 1 2 -1.1794 7.394089637872321 9.070799897067804 14.796549143267685 5 7 1
786 1 1 0.5897 7.21865935925053 9.397638616189475 13.914098796854637 5 7 1
349 1 2 -1.1794 5.203811872095541 11.465475971329122 11.588888669050881 -9 1 -3
617 1 1 0.5897 8.92794210003133 11.674441212209848 11.341911975101148 0 3 1
340 1 2 -1.1794 8.765472133378736 11.716073869023552 15.963951816103917 2 6 0
342 1 1 0.5897 7.821044089090891 11.607762178126427 15.851295275457176 2 6 0
364 1 2 -1.1794 8.690922678405482 8.603238479374221 19.64416153607242 1 4 2
611 1 1 0.5897 4.879082402704199 8.004347586880549 18.163595613002688 4 0 -1
66 1 1 0.5897 6.991918593051431 9.608548626553091 16.464775878057775 2 1 -2
64 1 2 -1.1794 6.71250819960037 10.13386939714484 17.214652096850198 2 1 -2
610 1 2 -1.1794 5.787611624561005 7.840241348779017 18.416660960099666 4 0 -1
377 1 1 0.5897 5.556751281372084 10.021813935837246 20.165917839167392 1 4 1
612 1 1 0.5897 6.108358507560794 7.214406737695292 17.767175073348355 4 0 -1
65 1 1 0.5897 6.467072260007118 9.490913906860527 17.88001558480292 2 1 -2
366 1 1 0.5897 7.824388079147575 8.981877933673475 19.792712201183566 1 4 2
376 1 2 -1.1794 6.454146922276343 9.944448361820008 20.49001437492663 1 4 1
365 1 1 0.5897 9.030534903622417 9.072651147669514 18.882168878572216 1 4 2
744 1 1 0.5897 7.890230713962088 11.167723587535932 20.678138137394942 -2 0 -1
742 1 2 -1.1794 8.549831607786299 11.811049307136653 20.937754121253477 -2 0 -1
378 1 1 0.5897 6.387793552096984 10.129853030340115 21.42679002667694 1 4 1
166 1 2 -1.1794 5.1694628845594846 14.025385847689869 5.7183839732540465 -4 -3 6
706 1 2 -1.1794 6.420773414829453 12.97863157373837 3.4997517929654203 -1 -5 -6
507 1 1 0.5897 6.044848670968682 15.32301947594393 2.20007196428472 3 -2 -4
707 1 1 0.5897 6.094023768114466 13.283406741883152 4.346322016320651 -1 -5 -6
533 1 1 0.5897 8.901198532018222 14.492710620582795 1.6571087549432026 -6 -3 -1
190 1 2 -1.1794 8.446101016789207 15.049355150431794 4.649869463051777 2 5 -7
708 1 1 0.5897 6.092317869651985 13.62080205810552 2.870426332907415 -1 -5 -6
85 1 2 -1.1794 7.143582741050176 16.672081979534774 2.833589145091848 2 4 3
505 1 2 -1.1794 5.3222237205496885 14.748063978381623 1.9479671559033485 3 -2 -4
87 1 1 0.5897 7.614962330009624 16.029921577376022 3.3643930854235973 2 4 3
30 1 1 0.5897 8.095890887340374 12.494993321767048 3.202572737005845 -9 -1 5
28 1 2 -1.1794 8.981202896440406 12.205809014481643 2.9814171787450543 -9 -1 5
192 1 1 0.5897 8.332920138283974 14.29470711459598 5.227839389349201 2 5 -7
506 1 1 0.5897 5.502837774830261 14.521534566444908 1.0356152756330377 3 -2 -4
29 1 1 0.5897 8.925660814190111 11.94426738281343 2.062271282849813 -9 -1 5
698 1 1 0.5897 8.090559278831268 16.489185100906482 5.8625879564048144 -2 3 -3
532 1 2 -1.1794 8.252193353791304 14.410864996746263 0.9582488240438546 -6 -3 -1
701 1 1 0.5897 7.639856049600894 12.384465498910082 5.868518903330845 3 1 3
702 1 1 0.5897 6.730597514186151 13.53657219265503 6.2399989237333315 3 1 3
116 1 1 0.5897 7.770846601188949 15.929342839470545 8.874837725147248 -4 -2 4
862 1 2 -1.1794 5.7372240117187365 12.600004832447683 8.970052314120878 -3 -2 2
863 1 1 0.5897 6.383423909514858 13.189336187313266 8.580913609243677 -3 -2 2
700 1 2 -1.1794 7.624766958167025 13.212534568367396 6.3485041114644005 3 1 3
167 1 1 0.5897 4.942795312491273 14.820217796637621 6.201278026854685 -4 -3 6
351 1 1 0.5897 5.747407211295153 11.883937183751707 10.921257433256768 -9 1 -3
300 1 1 0.5897 8.979874536828174 12.349621422803585 7.580741842436069 -3 -1 2
115 1 2 -1.1794 7.813424167326245 14.97404087593782 8.918605080237645 -4 -2 4
117 1 1 0.5897 8.481624499814565 14.733925698153659 8.276594248321974 -4 -2 4
96 1 1 0.5897 4.909897865502547 16.278608943564016 9.733183015592017 -4 0 -2
491 1 1 0.5897 8.516402119328577 14.698347086643755 10.509230372253322 3 2 4
136 1 2 -1.1794 5.030561518758358 16.548156828884572 6.689874604561956 5 -8 -1
137 1 1 0.5897 5.896952537681889 16.69079621799432 6.308639775551283 5 -8 -1
616 1 2 -1.1794 8.141989956514422 11.843988097810856 10.822432266602497 0 3 1
864 1 1 0.5897 5.6222773679549505 11.906903569092268 8.319881364342235 -3 -2 2
207 1 1 0.5897 4.959313001255233 14.78102667940924 11.195700421991063 -5 2 0
262 1 2 -1.1794 6.368895552385112 14.836134594595684 12.511990563288355 2 -2 5
492 1 1 0.5897 8.67592484441783 13.489075010761177 11.406069990456702 3 2 4
490 1 2 -1.1794 8.914902644400891 14.413010068229447 11.331484755106025 3 2 4
263 1 1 0.5897 6.681401897622227 14.02894565712466 12.920774721803456 2 -2 5
563 1 1 0.5897 7.9631117574341115 16.377036419820257 13.856460599201395 0 2 1
264 1 1 0.5897 7.094161608034856 15.119583389168094 11.955216456172268 2 -2 5
316 1 2 -1.1794 8.821150127749025 14.552793040264172 14.995197835140962 -5 -5 3
631 1 2 -1.1794 6.797444329010412 12.5256630201849 13.825050019839964 1 5 5
318 1 1 0.5897 8.98264693931258 13.629445577141922 15.189275264776938 -5 -5 3
633 1 1 0.5897 6.025002247447372 12.801789514760415 14.318407748621393 1 5 5
361 1 2 -1.1794 5.0139936820224635 13.153711416838517 15.770215093669345 5 -3 -1
632 1 1 0.5897 6.445191560052261 12.034335091227751 13.08287113334134 1 5 5
59 1 1 0.5897 5.051167048893713 16.742344516761968 15.028359120930432 2 -2 0
852 1 1 0.5897 7.724507356088585 15.303621732615857 16.097380835678027 -6 1 -1
850 1 2 -1.1794 7.386212191061789 15.79997337078027 16.842726471813748 -6 1 -1
729 1 1 0.5897 4.980306219872011 15.410490141151055 18.666482611929293 -3 2 -2
416 1 1 0.5897 7.516863657356746 16.31410459453157 18.710034405495147 3 -2 -1
812 1 1 0.5897 7.880563364900191 13.09694302714936 18.13813215934318 -5 5 -5
811 1 2 -1.1794 6.989268462142621 12.816300464295663 17.930354792719008 -5 5 -5
534 1 1 0.5897 8.347423575307966 13.510837692171489 21.31583730536184 -6 -3 -2
417 1 1 0.5897 7.86623207643484 15.707530421284892 20.05246654721784 3 -2 -1
851 1 1 0.5897 6.442246527150271 15.847338957116737 16.6909792295368 -6 1 -1
362 1 1 0.5897 5.605346468659663 13.306319535003157 16.507328989489878 5 -3 -1
415 1 2 -1.1794 7.389123229223935 16.43390224564925 19.6511288078372 3 -2 -1
689 1 1 0.5897 6.166400322033902 13.589703468782018 19.490972978127846 2 -2 1
688 1 2 -1.1794 5.440595406490736 14.079414272152766 19.87789808009408 2 -2 1
813 1 1 0.5897 7.046915892990521 11.863028278902398 17.864899952444368 -5 5 -5
389 1 1 0.5897 7.468071709220511 18.35525714556721 3.4886458164093064 3 5 3
390 1 1 0.5897 7.123909479392994 19.680247025803737 4.135216173679779 3 5 4
699 1 1 0.5897 7.525701774482947 17.82856498740894 5.439393475265634 -2 3 -3