LAMMPS data file via write_data, version 30 Jul 2021, timestep = 5750000

1008 atoms
2 atom types
672 bonds
1 bond types
336 angles
1 angle types

-3.1411150190215142 14.751114018578198 xlo xhi
0.04233632696942813 22.53766267303873 ylo yhi
0.07677207706823985 19.153225922928485 zlo zhi
-0.04642580760488282 -6.753263230818654 0.08680670064343328 xy xz yz

Masses

1 1.008
2 15.999

Pair Coeffs # lj/cut/tip4p/long/omp

1 0 0
2 0.21084 3.1668

Bond Coeffs # harmonic/omp

1 450 0.9572

Angle Coeffs # harmonic/omp

1 55 104.52

Atoms # full

21 7 1 0.5897 1.1889110483665073 2.433434531925531 0.7979227726797582 0 0 0
31 11 2 -1.1794 1.250386933310561 1.4627530636014534 2.2947984926919474 0 0 0
32 11 1 0.5897 1.116854154123068 1.7403579669209306 3.2010783959309888 0 0 0
33 11 1 0.5897 0.6200384685474631 0.754153856614666 2.165621164739236 0 0 0
46 16 2 -1.1794 1.5920102566673515 4.806430948360179 2.413243956723098 0 0 0
55 19 2 -1.1794 -0.754218302420667 4.197032058454647 3.6186353907851134 0 0 0
56 19 1 0.5897 -1.3576668483359724 3.6473609095443247 3.1187337767807937 0 0 0
57 19 1 0.5897 -0.019665783297770467 4.349420132722688 3.024007460812362 0 0 0
86 29 1 0.5897 -2.463164475297311 1.506849481032764 4.0476252971975875 1 0 0
78 26 1 0.5897 0.06543153416031178 2.9440551509813115 4.434280440096877 0 0 0
121 41 2 -1.1794 -2.5999311956376676 2.427820220193413 2.509180973265518 1 0 0
122 41 1 0.5897 -2.5108984595981214 2.1210193349827913 1.606866171547369 1 0 0
123 41 1 0.5897 -3.51449606695642 2.701610124884804 2.5804616004190204 1 0 0
6 2 1 0.5897 3.562262081155378 1.8208905604813261 4.491364335538645 0 0 0
158 53 1 0.5897 -4.267565396271543 4.4235398506622605 4.364668891326701 1 0 0
47 16 1 0.5897 1.7400452817066663 5.249508477500221 1.5777720367428223 0 0 0
48 16 1 0.5897 1.6624338861159167 5.500293651547222 3.068754024467858 0 0 0
101 34 1 0.5897 -2.690632627285807 4.690513088925934 0.10574175581508267 1 0 0
71 24 1 0.5897 3.0416194214945094 0.8257040003317639 2.047258644956479 0 0 0
54 18 1 0.5897 2.9510693936874297 3.6840593443298713 2.9635130870116475 0 0 0
527 176 1 0.5897 3.990860388393078 1.8413966843621843 0.36560365263621125 0 0 1
53 18 1 0.5897 4.356346497584975 3.1262979494961707 2.882543295562933 0 0 0
52 18 2 -1.1794 3.6290678824425004 3.260768527214607 3.4903123846095876 0 0 0
70 24 2 -1.1794 3.756307018979604 0.5157362229414431 1.490910729015027 0 0 0
602 201 1 0.5897 -0.6472583759281649 5.3379871918831086 0.3840204459345297 1 0 1
16 6 2 -1.1794 5.143757733406357 4.9058558590474775 0.3421393395241767 0 0 0
482 161 1 0.5897 -1.0847642662343686 0.20538023608303668 0.8058541544763242 1 1 0
5 2 1 0.5897 3.1024807806063155 0.42115579603060666 4.838923335118254 0 0 0
157 53 2 -1.1794 -3.7216092247254493 5.05187740393916 4.837186910391237 1 0 0
76 26 2 -1.1794 0.6970479121317057 2.318155753849036 4.788730890550228 0 0 0
18 6 1 0.5897 4.620685067747439 4.130861115878321 0.1375304436907557 0 0 0
402 134 1 0.5897 1.194087752764851 0.21024119542484762 7.807960305336038 0 1 0
126 42 1 0.5897 -4.076210606396135 2.853536540312557 7.287099851406042 1 0 0
522 174 1 0.5897 1.975982783830176 5.551955307680481 9.367222883011472 0 0 0
34 12 2 -1.1794 -0.131171256832181 1.3940868296795819 7.215069928779315 0 0 0
35 12 1 0.5897 0.04636291923541824 1.994494138669662 7.939029902535739 0 0 0
36 12 1 0.5897 -0.9821631302394227 1.0095173594645837 7.425490252237837 0 0 0
43 15 2 -1.1794 -0.4332863163792018 4.830483941861875 7.26016751949046 0 0 0
44 15 1 0.5897 -0.4711563791903841 5.2189210762368194 8.134170992417275 0 0 0
45 15 1 0.5897 0.500535370662806 4.696750813099266 7.097195936725143 0 0 0
58 20 2 -1.1794 2.0515856447904444 4.238040490876355 6.244798416905015 0 0 0
59 20 1 0.5897 1.7148217111041415 3.5428651037504633 5.67963737774723 0 0 0
60 20 1 0.5897 2.804957246211311 3.845153872216026 6.685789688726683 0 0 0
67 23 2 -1.1794 -2.457776730430723 0.5508022245561948 8.42536594470386 0 0 0
159 53 1 0.5897 -3.1831275694114423 4.5135509997504295 5.417323570373434 1 0 0
69 23 1 0.5897 -2.661073084728388 1.3346145805065728 8.93567799190589 0 0 0
134 45 1 0.5897 -2.308192029669817 2.6359491193425666 6.054654470968293 1 0 0
77 26 1 0.5897 0.3077983136507578 2.0250459054620515 5.612655996943578 0 0 0
135 45 1 0.5897 -1.7787474046267233 3.829979356118246 6.819821043429847 1 0 0
98 33 1 0.5897 -4.076654890829392 5.215467380769407 8.607770851602833 1 0 0
669 223 1 0.5897 -5.11685983833771 1.692300702605426 9.150933998361499 1 0 0
4 2 2 -1.1794 3.7731339866230957 1.0712930900301516 5.047984114515083 0 0 0
124 42 2 -1.1794 -4.932316456398896 2.4540696708340337 7.441566298833593 1 0 0
133 45 2 -1.1794 -2.5924324677576336 3.406742125608275 6.545794596671748 1 0 0
85 29 2 -1.1794 -2.6549890612473495 1.1992394157136306 4.933542849954375 1 0 0
401 134 1 0.5897 2.3030899319008302 0.39261718926749295 8.822367502240878 0 1 0
68 23 1 0.5897 -3.2695543784524204 0.3509386773402537 7.9590731997412325 0 0 0
125 42 1 0.5897 -5.561099993426403 3.143711247647726 7.228672366304482 1 0 0
97 33 2 -1.1794 -4.107030275024245 4.832043252429825 9.484308641381006 1 0 0
87 29 1 0.5897 -3.604273740958136 1.0760286566065695 4.944553277061704 1 0 0
606 202 1 0.5897 -5.93944930868332 4.7399847092181835 9.526511544615584 1 0 0
520 174 2 -1.1794 2.2165022154697827 4.784800512584356 9.886650649398632 0 0 0
523 175 2 -1.1794 -2.5237463092128074 2.7380334923238974 10.145695506222044 0 0 0
668 223 1 0.5897 -5.603415401605441 1.7678727924000628 10.58257466219894 1 0 0
23 8 1 0.5897 0.4234058084714376 2.0671966637513486 10.231257209864818 0 0 0
627 209 1 0.5897 -6.824324349054166 3.0257988911364206 12.211187562560838 1 0 0
662 221 1 0.5897 -7.529159336165277 4.618261537094803 13.952255598619898 1 0 0
625 209 2 -1.1794 -5.974167193676601 2.641064303158195 11.997526215455984 1 0 0
525 175 1 0.5897 -1.6377671046510378 3.0467935006859848 9.955705877634244 0 0 0
535 179 2 -1.1794 -1.8758799853085595 1.2622316105219422 12.297551838114645 0 0 0
536 179 1 0.5897 -2.123093650037707 1.7273007783443304 13.096808378147783 0 0 0
537 179 1 0.5897 -2.198486732386999 1.8171210068433918 11.58742609148215 0 0 0
550 184 2 -1.1794 -1.5375877582580681 5.136360762161956 12.030687492720533 0 0 0
626 209 1 0.5897 -5.81825090884324 2.002206536305006 12.693060939459217 1 0 0
552 184 1 0.5897 -2.4207228015670115 4.81083148309954 12.205243048394493 0 0 0
556 186 2 -1.1794 0.4976911897444136 3.644553151235981 13.196817586052463 0 0 0
557 186 1 0.5897 0.26700096407817586 2.849066536565203 13.676505277573302 0 0 0
558 186 1 0.5897 -0.3323654477752571 3.956447866345398 12.8360398575335 0 0 0
559 187 2 -1.1794 -4.148772184969831 4.5311602853644875 13.004723253985485 0 0 0
560 187 1 0.5897 -4.765635822264018 3.934371698326327 12.581049166103998 0 0 0
561 187 1 0.5897 -3.704947037307716 3.9924953623040036 13.659811738307242 0 0 0
574 192 2 -1.1794 0.5664696379053726 0.4658355736828087 11.1339009784081 0 0 0
576 192 1 0.5897 -0.1693763444046157 0.714593898415329 11.693408236976225 0 0 0
667 223 2 -1.1794 -5.376017851983455 1.1450395910655566 9.892262552386981 1 0 0
589 197 2 -1.1794 -5.764866590652309 1.0084970314666686 14.178019639620555 1 0 0
99 33 1 0.5897 -3.9560581334604796 5.570191082082213 10.074579339696582 1 0 0
986 329 1 0.5897 -4.274557983934141 0.19030774181509896 10.853267657668598 1 1 0
591 197 1 0.5897 -5.156399462518663 0.29259191379068106 14.361156012822223 1 0 0
524 175 1 0.5897 -3.0910547456952258 3.4673088460398396 9.895504802329965 0 0 0
593 198 1 0.5897 -7.567123079503551 0.7731461239031329 14.338960119199843 1 0 0
551 184 1 0.5897 -1.3287462552963918 5.68186513990772 12.788941555199727 0 0 0
661 221 2 -1.1794 -6.946689815286215 5.289401807461043 14.307830964440141 1 0 0
22 8 2 -1.1794 0.1619436541339203 2.7844686135309016 9.653897450523093 0 0 0
24 8 1 0.5897 0.8608065340305622 3.4322086778440095 9.744528374507096 0 0 0
20 7 1 0.5897 -5.883430959272319 2.119590698984468 18.449756888886917 0 0 -1
628 210 2 -1.1794 -8.129244187946306 2.5966879744797784 16.761376278920196 1 0 0
164 55 1 0.5897 -8.570163488536682 1.9300606067121582 18.325640317819 1 0 -1
580 194 2 -1.1794 -2.562793877320793 2.813972419230287 14.593121297739332 0 0 0
638 213 1 0.5897 -6.4878416031131305 3.059615874927281 16.203174467545317 1 0 0
639 213 1 0.5897 -5.936960997406475 4.024248557284476 15.1746610313654 1 0 0
548 183 1 0.5897 -3.8930059431503183 5.638194778396862 16.23944873473536 0 0 0
637 213 2 -1.1794 -5.690976271204809 3.2763322678522173 15.719004225023241 1 0 0
538 180 2 -1.1794 -3.372777870685602 1.1354169817082012 16.653690310766585 0 0 0
539 180 1 0.5897 -3.1251874686565184 1.676883642185983 17.403123197152112 0 0 0
540 180 1 0.5897 -4.27528564351379 0.8728037283856922 16.83512116075788 0 0 0
547 183 2 -1.1794 -3.8203425984274837 4.956589944166546 16.907522537527612 0 0 0
630 210 1 0.5897 -8.386138894657979 1.9774212285257908 16.078271261381232 1 0 0
549 183 1 0.5897 -4.473825078185058 4.303878585270448 16.656326853617898 0 0 0
562 188 2 -1.1794 -1.1674391118135583 4.225004782465057 16.37136221082379 0 0 0
563 188 1 0.5897 -1.0035729894052512 5.040563925132585 15.89793832849097 0 0 0
564 188 1 0.5897 -2.0337639913887733 4.343583809370794 16.76107112161268 0 0 0
571 191 2 -1.1794 -5.7822125998848595 0.4625327123398598 17.602429079986855 0 0 0
528 176 1 0.5897 -3.853433862072035 2.784204549090623 18.83449049951929 0 0 0
581 194 1 0.5897 -2.891348398053495 2.2055167183528224 15.254966556498836 0 0 0
582 194 1 0.5897 -1.9280775360596225 3.357036369709654 15.060466488821247 0 0 0
590 197 1 0.5897 -5.599390033274852 1.647216227658374 14.871389667157164 1 0 0
629 210 1 0.5897 -8.669807626742521 3.369938601558828 16.599743948376506 1 0 0
84 28 1 0.5897 -4.103993515215248 5.747337505769411 18.416769135938168 0 0 -1
508 170 2 -1.1794 0.4928660895532655 1.298417535619049 14.686123488576497 0 0 0
165 55 1 0.5897 -9.633218745907564 0.9137682850717607 18.68469328548646 1 0 -1
526 176 2 -1.1794 -2.9066204230327726 2.6432228011314955 18.82226780415739 0 0 0
601 201 2 -1.1794 -7.581401556103144 4.800051524728423 18.758266108918193 1 0 0
19 7 2 -1.1794 -5.567010898016596 2.8531171490879923 18.976908737318503 0 0 -1
603 201 1 0.5897 -6.890366388922711 4.142487179926701 18.838316484167656 1 0 0
163 55 2 -1.1794 -8.958208301600902 1.4717224038331969 19.071028620908514 1 0 -1
112 38 2 -1.1794 -3.076207346119319 6.4644024750091384 2.6181329132799425 1 0 0
145 49 2 -1.1794 -0.6723592118661248 6.8123135540443975 1.4050135967650768 1 0 0
146 49 1 0.5897 -1.4282850631785144 6.595772289678947 1.950969612470407 1 0 0
147 49 1 0.5897 -0.9933078858042617 7.488323002798242 0.8081628803166234 1 0 0
255 85 1 0.5897 -2.0615366225407543 9.106727842963767 3.7057204245383253 1 0 0
289 97 2 -1.1794 -2.6579112670295153 10.230312561237913 2.2576476547749054 1 0 0
290 97 1 0.5897 -2.0921163936205067 10.923895303186328 2.5966844760709282 1 0 0
291 97 1 0.5897 -3.530263213216002 10.450758266580623 2.584542066786362 1 0 0
332 111 1 0.5897 -2.1749058740831027 9.410961002591144 0.8401646212010454 1 0 0
188 63 1 0.5897 0.5934381892065344 9.891457524584975 1.22262232459449 0 0 0
200 67 1 0.5897 0.3652543684161915 7.926829065487802 2.20302214731126 0 0 0
240 80 1 0.5897 3.1283857308614325 7.3916623726840225 1.1627356255971109 0 0 0
199 67 2 -1.1794 0.909590473552119 8.644221086057188 2.5272907411735956 0 0 0
221 74 1 0.5897 4.425939883040899 10.631166160145126 3.148764745395264 0 0 0
245 82 1 0.5897 0.9276917330162782 9.484396512308667 4.08897608167987 0 0 0
174 58 1 0.5897 3.617458279204958 9.236357282304763 4.735384471807194 0 0 0
238 80 2 -1.1794 3.4694717469413394 8.007041670989533 1.811651908007191 0 0 0
113 38 1 0.5897 -3.2263826883763222 5.911756051548105 3.385107267853943 1 0 0
694 232 2 -1.1794 3.581905867833841 10.402662762061603 0.3674850484848708 0 0 1
220 74 2 -1.1794 3.711090184311238 10.86422060520418 3.741275307130461 0 0 0
189 63 1 0.5897 1.7717032512750235 10.556250402049955 0.5430168245549455 0 0 0
187 63 2 -1.1794 0.8355279449971369 10.385294415834737 0.4392009039140357 0 0 0
201 67 1 0.5897 1.8084101452363344 8.345103075194764 2.3890502222010723 0 0 0
696 232 1 0.5897 4.282789823949339 11.052852908119329 0.41450163075343355 0 0 1
239 80 1 0.5897 3.6262922211084465 8.812591671816058 1.319088419241339 0 0 0
114 38 1 0.5897 -3.288465933744032 5.903091210051477 1.8724794878556186 1 0 0
10 4 2 -1.1794 2.020559290640601 6.477549122118722 4.562196764474767 0 0 0
9 3 1 0.5897 -0.89405827072303 5.808557250106528 4.526071058158391 0 0 0
331 111 2 -1.1794 -1.8594751698117773 8.851897571829323 0.13012218878020054 1 0 0
224 75 1 0.5897 -0.27959399960705866 11.115665467411512 3.9532853439392506 0 0 0
29 10 1 0.5897 4.933871424278323 7.079384568178895 2.425974275333682 0 0 0
257 86 1 0.5897 -4.057505184602599 8.510622493660925 4.795622281537722 1 0 0
244 82 2 -1.1794 0.8290070709883466 10.108454959430238 4.807970061926267 0 0 0
12 4 1 0.5897 1.102315693715207 6.643540487776923 4.776082119383456 0 0 0
254 85 1 0.5897 -1.683492799268988 8.022672278088281 4.692511939256132 1 0 0
253 85 2 -1.1794 -2.1919300755738726 8.82972888654523 4.612658631805167 1 0 0
7 3 2 -1.1794 -0.7307331141475784 6.5832358941728035 5.063900531907733 0 0 0
228 76 1 0.5897 1.8344656077217056 11.307032378821528 5.6838920890897295 0 0 0
302 101 1 0.5897 -2.05509568958925 10.112306092911236 5.977523169574662 1 0 0
64 22 2 -1.1794 2.0986716135037646 6.883424118863621 8.095890098101268 0 0 0
588 196 1 0.5897 -1.3586180162994128 6.807025612756455 9.248080355065753 0 0 0
293 98 1 0.5897 -3.865908760194107 10.436117720540928 7.204337870241693 1 0 0
109 37 2 -1.1794 -4.145703270091691 6.373538100137428 7.234078936115347 1 0 0
173 58 1 0.5897 3.2080265184589285 7.797662770942383 4.967677428708972 0 0 0
111 37 1 0.5897 -5.018092839393865 6.7668034962052985 7.26098644223812 1 0 0
301 101 2 -1.1794 -2.31021570703802 10.851234508686204 6.5298255295969305 1 0 0
294 98 1 0.5897 -4.851496924396029 9.858252697653164 8.197712844914811 1 0 0
191 64 1 0.5897 0.3291709624333796 9.718831077104227 8.659292235760653 0 0 0
837 279 1 0.5897 -6.044766382119009 8.283117723036147 9.141826702065051 1 0 0
202 68 2 -1.1794 0.390583599746698 8.803013378113633 7.097559831156941 0 0 0
203 68 1 0.5897 -0.48310369258583963 8.429949746152102 7.215188144588452 0 0 0
204 68 1 0.5897 0.9882002792906999 8.100768958390837 7.354460154664276 0 0 0
65 22 1 0.5897 2.4356538442793045 7.525520581776712 8.72060658325965 0 0 0
235 79 2 -1.1794 -2.134544343210688 7.906055031265135 8.059435883983149 0 0 0
236 79 1 0.5897 -2.924806634176036 7.423720447404433 7.816310165617828 0 0 0
237 79 1 0.5897 -2.4505657727607413 8.621706759425944 8.610923467145312 0 0 0
292 98 2 -1.1794 -4.786074797714833 10.191096059689293 7.302619353430426 1 0 0
246 82 1 0.5897 0.5839550969235612 9.570558036970777 5.56084982849786 0 0 0
8 3 1 0.5897 -0.7130896523758277 6.252583960176162 5.9620225660845705 0 0 0
110 37 1 0.5897 -4.052109130790365 6.058500687194979 6.335071359901279 1 0 0
172 58 2 -1.1794 3.8028958225901874 8.47623762527164 5.286755427026587 0 0 0
258 86 1 0.5897 -4.990223376145529 9.10422139742519 5.829944125006621 1 0 0
66 22 1 0.5897 2.8689180031157706 6.6021865813923455 7.601890888305957 0 0 0
303 101 1 0.5897 -1.4811588997602527 11.222081861646197 6.832242780318405 1 0 0
11 4 1 0.5897 2.2943737806509574 5.804702441796952 5.185517346796419 0 0 0
835 279 2 -1.1794 -5.455214022716807 8.877151159948992 9.606286126595373 1 0 0
192 64 1 0.5897 0.8919719240405986 10.769970998671026 9.591978285105014 0 0 0
190 64 2 -1.1794 0.24618749982921706 10.064871233681089 9.547874192261748 0 0 0
726 242 1 0.5897 -0.25547875885221316 11.078483045912842 12.441825686152207 0 0 0
513 171 1 0.5897 -4.1532617293880545 6.05734418788531 14.064364423968449 0 0 0
836 279 1 0.5897 -4.842592724341643 8.29980545848722 10.062027971665396 1 0 0
750 250 1 0.5897 -3.210267012540519 10.532338633737664 14.155224565558893 0 0 0
586 196 2 -1.1794 -0.6889900575616652 6.234757095641399 9.622855748305486 0 0 0
616 206 2 -1.1794 -6.413182866898033 6.5747092558925795 11.969193570034989 1 0 0
795 265 1 0.5897 -5.794495562553051 9.667716471229003 11.197007914519727 1 0 0
793 265 2 -1.1794 -6.00271495138435 9.940462130593762 12.090594361261193 1 0 0
649 217 2 -1.1794 -3.916553611734317 7.134310719500331 10.982640120973516 1 0 0
650 217 1 0.5897 -3.278955432461472 7.497554686673704 11.59727042345493 1 0 0
651 217 1 0.5897 -4.692476528850566 6.96131977600117 11.51593657721549 1 0 0
759 253 1 0.5897 -6.0240349660665125 8.878601311433208 13.633927964978978 1 0 0
678 226 1 0.5897 0.23040822975699626 9.316052272125331 14.174769088958502 0 0 0
744 248 1 0.5897 0.29268914248864286 7.280976679837169 10.689100801298947 0 0 0
794 265 1 0.5897 -5.330686084009686 10.586828581609446 12.306845633383654 1 0 0
693 231 1 0.5897 -2.4782793388816433 9.645877980284583 10.731927491641741 0 0 0
703 235 2 -1.1794 -1.9252548623909078 8.537761736190514 12.281240444739755 0 0 0
704 235 1 0.5897 -0.9944665202933871 8.391689248509824 12.111629247312905 0 0 0
705 235 1 0.5897 -1.9466553913454003 9.003747854969113 13.117049988936838 0 0 0
724 242 2 -1.1794 0.4711915249865193 10.691085827405464 12.929951352981718 0 0 0
742 248 2 -1.1794 0.5986201026335349 7.949072656659337 11.302401990728052 0 0 0
743 248 1 0.5897 0.5540485699980677 8.76723632989565 10.8076729802672 0 0 0
692 231 1 0.5897 -1.4844136192715696 10.192181166427329 9.728982677449112 0 0 0
691 231 2 -1.1794 -2.4184933145982925 10.024597913672523 9.854858673551771 0 0 0
618 206 1 0.5897 -6.518917070104817 5.920478921884906 11.278609428234835 1 0 0
617 206 1 0.5897 -7.094339451772319 7.223380098001839 11.79146428277028 1 0 0
663 221 1 0.5897 -6.625448441880485 5.76021721579015 13.538824394552858 1 0 0
587 196 1 0.5897 -1.109904789473366 5.841719067413591 10.387467052531806 0 0 0
516 172 1 0.5897 -0.49286677555402747 7.066772183882315 14.70173946417184 0 0 0
333 111 1 0.5897 -8.31835630486478 9.55054518809573 18.531910403368727 1 0 -1
749 250 1 0.5897 -2.83693889055158 9.751281686239764 15.397217417618936 0 0 0
762 254 1 0.5897 -7.848966706583184 8.498781722631904 14.570416185515196 1 0 0
570 190 1 0.5897 -0.8492760072498546 7.1878846149721705 17.480335331817052 0 0 0
796 266 2 -1.1794 -8.075943408953378 10.281909072391816 16.852379974666114 1 0 0
568 190 2 -1.1794 -1.562600125027493 7.432311454646318 18.070095442484124 0 0 0
569 190 1 0.5897 -1.7349326728644545 6.640486789404795 18.57944993864885 0 0 0
511 171 2 -1.1794 -3.928313027804087 6.65538225338503 14.777010070299943 0 0 0
613 205 2 -1.1794 -7.538614586066869 6.632884968657075 16.725513314815004 1 0 0
83 28 1 0.5897 -5.004837564809692 6.9337466574261875 18.68663562825489 0 0 -1
805 269 2 -1.1794 -5.586592763831246 10.835267262367298 15.932207446850187 1 0 0
797 266 1 0.5897 -7.175873149230332 10.533388424438561 16.64492547396572 1 0 0
695 232 1 0.5897 -3.223307469400437 10.259366541468777 18.51627103093538 0 0 0
758 253 1 0.5897 -5.771263611490564 9.103938860619806 15.109474092031197 1 0 0
706 236 2 -1.1794 -3.2478335276673764 9.274783156324565 17.01700089655771 0 0 0
707 236 1 0.5897 -4.144070741530125 8.967872219052728 17.154679345779364 0 0 0
708 236 1 0.5897 -2.6975229666925244 8.549287922673956 17.312102841784593 0 0 0
798 266 1 0.5897 -8.314665344449441 9.65774079974057 16.16714737724847 1 0 0
741 247 1 0.5897 -5.984183283269102 9.026114219891745 18.27489740128415 0 0 0
739 247 2 -1.1794 -5.65475898458926 8.309677625118505 17.732341317984698 0 0 0
740 247 1 0.5897 -6.438460044893409 7.824480401853673 17.474158839269478 0 0 0
615 205 1 0.5897 -7.394984870059976 6.249513051126999 15.8602879201088 1 0 0
515 172 1 0.5897 -1.9487659910567077 6.652811370492674 14.665389661201527 0 0 0
512 171 1 0.5897 -4.652884978379822 7.2804020311703095 14.803406541027003 0 0 0
676 226 2 -1.1794 0.3782261430951799 8.68447115194227 14.878661949312715 0 0 0
731 244 1 0.5897 -1.6511053218552592 11.357116386174654 15.452712366375922 0 0 0
614 205 1 0.5897 -7.395864092200189 5.909171012670758 17.335468643695904 1 0 0
82 28 2 -1.1794 -4.471765193014435 6.27224904019311 19.127702424492142 0 0 -1
514 172 2 -1.1794 -1.0615542425744664 6.311647427551512 14.551736300701693 0 0 0
748 250 2 -1.1794 -2.4963357927146177 10.029038906169117 14.546849513949079 0 0 0
757 253 2 -1.1794 -6.065149267295555 8.441334405892773 14.48442686051245 1 0 0
280 94 2 -1.1794 -3.6099204705508203 13.974552990898145 2.5258106728638907 1 0 0
281 94 1 0.5897 -3.558933106643772 13.548509281690944 3.381462820174582 1 0 0
282 94 1 0.5897 -2.7035718414458687 14.199776163128258 2.3155108079068727 1 0 0
500 167 1 0.5897 -1.6883418089067128 15.910271570513538 0.6610628677928416 1 0 0
313 105 2 -1.1794 -1.0098623827999855 14.760553978256315 1.9072296014318677 1 0 0
369 123 1 0.5897 1.0086956314761064 16.64295283985839 3.448536681484831 0 0 0
315 105 1 0.5897 -0.6609526077514771 14.072282796312937 1.3409011272333682 1 0 0
223 75 2 -1.1794 -0.7434304835599272 11.703851137973617 3.357321234229301 0 0 0
225 75 1 0.5897 -0.7809548192485964 12.538248192210949 3.824688257012837 0 0 0
314 105 1 0.5897 -0.23768689769375717 15.244623978620117 2.1999474975123876 1 0 0
222 74 1 0.5897 3.101072545099659 11.3624410979336 3.1972160755191736 0 0 0
215 72 1 0.5897 1.9712187468467883 12.965816868657152 1.8490491976972658 0 0 0
216 72 1 0.5897 0.9586486198795141 12.198350824226372 2.6722697649373495 0 0 0
367 123 2 -1.1794 1.1304006022206634 16.247299155188074 2.585490204275084 0 0 0
423 141 1 0.5897 -2.5404390231188314 16.54138230782339 3.935527239862631 1 0 0
180 60 1 0.5897 2.0444160785351313 13.703292668908288 4.0454348104562055 0 0 0
214 72 2 -1.1794 1.8563277921777779 12.530140098232573 2.693575061810543 0 0 0
406 136 2 -1.1794 3.673950923460513 15.564028441973045 1.9538712256523991 0 0 0
368 123 1 0.5897 2.0418349181307383 15.954496444034357 2.582051391533893 0 0 0
408 136 1 0.5897 3.930906671618305 16.305263184797 1.4055149393652777 0 0 0
252 84 1 0.5897 2.980381817369019 14.486352876516978 0.7163215141636112 0 0 0
407 136 1 0.5897 4.500826020793547 15.147194432345511 2.1966831174537242 0 0 0
250 84 2 -1.1794 2.413618462593889 13.843452011750097 0.29016615053637596 0 0 0
184 62 2 -1.1794 5.509355176828292 12.360583544871245 0.5782033483918947 0 0 0
770 257 1 0.5897 -1.5411592657332045 12.42014233396067 0.14775857499851092 1 0 1
499 167 2 -1.1794 -2.275553176105985 16.48768069606657 0.1731069587851129 1 0 0
421 141 2 -1.1794 -2.411345665190172 16.16928574477189 4.807963884484796 1 0 0
771 257 1 0.5897 -0.15906256985914524 11.81545699478849 0.2766253789099673 1 0 1
233 78 1 0.5897 2.5219560280770565 14.40710785037903 7.729847879411637 0 0 0
325 109 2 -1.1794 -3.8418389755076965 12.63800767826613 4.951149032325442 1 0 0
372 124 1 0.5897 0.14123643228016958 16.695399670386067 6.366010937793055 0 0 0
176 59 1 0.5897 -1.2521680732575733 14.706163421870976 5.03558378927714 0 0 0
179 60 1 0.5897 2.277936670110855 13.4469425363865 5.519124718800285 0 0 0
211 71 2 -1.1794 -0.3667311154797481 12.437092174122153 7.441952499189995 0 0 0
212 71 1 0.5897 -0.5479609919803914 12.880106784112415 8.270866650204196 0 0 0
213 71 1 0.5897 -0.5325856688095278 13.10163460381547 6.773306610524223 0 0 0
226 76 2 -1.1794 2.1778288314461367 11.827875394910944 6.4098237866948695 0 0 0
227 76 1 0.5897 1.4263167081083523 11.957852135166009 6.988392223360958 0 0 0
232 78 2 -1.1794 1.7489342811272888 14.503031668011928 8.286310201262749 0 0 0
279 93 1 0.5897 -5.371660597628907 14.08649624391996 7.623246821105852 1 0 0
234 78 1 0.5897 1.173309620865818 15.091860106704758 7.798194693622519 0 0 0
756 252 1 0.5897 -1.6258511655848658 14.410154154180017 9.332322043646325 0 0 0
267 89 1 0.5897 -3.7830864447269943 12.53092146450175 8.537783296541386 1 0 0
277 93 2 -1.1794 -4.506764361836045 13.852811485150111 7.285920683800766 1 0 0
278 93 1 0.5897 -3.9430979857346937 14.581763090077294 7.54479912991796 1 0 0
175 59 2 -1.1794 -0.7430463260854463 13.900824491547116 5.127502473841513 0 0 0
177 59 1 0.5897 0.16938944213058704 14.187395361921302 5.08589319917143 0 0 0
326 109 1 0.5897 -3.1890148654694253 12.02806240008775 5.2948413823123275 1 0 0
327 109 1 0.5897 -4.044663511573453 13.213196392583766 5.688843908207146 1 0 0
690 230 1 0.5897 1.6681292082176569 12.979495494039714 9.37440799754765 0 0 0
403 135 2 -1.1794 -2.6023984230166755 15.661375103926645 8.278020220988681 0 0 0
370 124 2 -1.1794 -0.11358983034043257 16.260703157755394 7.179859691562162 0 0 0
404 135 1 0.5897 -1.7890549195822523 15.844680866354233 7.807625742019879 0 0 0
405 135 1 0.5897 -2.673327056066965 16.36828017851184 8.919397226893793 0 0 0
341 114 1 0.5897 3.0920765605610807 15.48019874929663 5.248021177867333 0 0 0
1004 335 1 0.5897 -5.2118719485126235 16.69591472846607 9.107915471360384 1 0 0
371 124 1 0.5897 -0.02526045092997231 16.93716825498079 7.851197369463548 0 0 0
340 114 2 -1.1794 3.5887181417088074 16.289872880593023 5.365738139099529 0 0 0
178 60 2 -1.1794 2.0208914702117173 14.131326465927758 4.901253549689611 0 0 0
462 154 1 0.5897 -4.983558166270665 16.8975206147945 6.7764603239259875 1 0 0
425 142 1 0.5897 -4.082567452342383 16.087201482822636 5.033285841110315 1 0 0
422 141 1 0.5897 -2.3174652569429854 16.929590324896047 5.381710935685012 1 0 0
266 89 1 0.5897 -3.2389384669909878 11.554059371686764 9.558366350155234 1 0 0
265 89 2 -1.1794 -3.7694699976088213 12.346618907115516 9.476994470751382 1 0 0
688 230 2 -1.1794 1.9040421459410215 12.21716479479168 9.902971874442667 0 0 0
1003 335 2 -1.1794 -5.561305970243838 16.245642298567475 9.876945488023678 1 0 0
725 242 1 0.5897 0.7669813238107901 11.389026833184921 13.514311550108019 0 0 0
718 240 2 -1.1794 -1.4870686824147636 12.275470043449824 11.894700885125827 0 0 0
719 240 1 0.5897 -1.3155475031525778 12.729022469440824 11.069404497048232 0 0 0
720 240 1 0.5897 -1.340301060294121 12.93926865942587 12.56844799466506 0 0 0
831 277 1 0.5897 -7.661414382692288 11.991784296758444 13.7545018012267 1 0 0
1005 335 1 0.5897 -4.829295528195791 15.720577746617977 10.20073454438372 1 0 0
912 304 1 0.5897 1.0999418347339622 15.151342923426625 11.630941205913981 0 0 0
728 243 1 0.5897 -3.272227257663179 11.869466883705872 12.404947093232375 0 0 0
729 243 1 0.5897 -4.177192380692896 12.447063655041228 13.472447826799156 0 0 0
755 252 1 0.5897 -0.26044486836394043 14.426412786163548 9.986348864473054 0 0 0
727 243 2 -1.1794 -4.0210992722938865 11.653419143328213 12.96072533413191 0 0 0
873 291 1 0.5897 -2.4833988761449017 15.662199255308668 11.976016244985608 0 0 0
784 262 2 -1.1794 -6.29561831097589 13.88536604245071 11.995068787821642 1 0 0
911 304 1 0.5897 -0.24815454699633666 15.840331375421282 11.612473806058347 0 0 0
786 262 1 0.5897 -6.466907045492498 13.453935805346335 12.832192854102125 1 0 0
817 273 2 -1.1794 -3.757156447676433 14.560374468770895 11.179837427449126 1 0 0
818 273 1 0.5897 -4.563939297381236 14.393449083585075 11.667322339987193 1 0 0
819 273 1 0.5897 -3.650201054700574 13.790219948420273 10.62170278230688 1 0 0
754 252 2 -1.1794 -0.9446328484521986 13.832738321855725 9.677123197397895 0 0 0
910 304 2 -1.1794 0.5235449456846353 15.672096505378057 11.071553326341471 0 0 0
871 291 2 -1.1794 -1.9068893535437486 16.399724384833696 12.175538077441983 0 0 0
684 228 1 0.5897 -0.5444887717164049 14.723694237328752 14.297924742350542 0 0 0
774 258 1 0.5897 -5.548889851324459 12.02758627086867 9.681248401513978 1 0 0
682 228 2 -1.1794 -1.1512436039575338 14.012684455037006 14.091897026304922 0 0 0
773 258 1 0.5897 -6.468940461190188 12.655632072649482 10.706528795051938 1 0 0
772 258 2 -1.1794 -6.474277364916418 12.154875189769552 9.890822175623429 1 0 0
846 282 1 0.5897 0.3995359757989645 16.848173594976437 14.17562335578677 0 0 0
785 262 1 0.5897 -7.034638562537161 14.482279646140013 11.877145026054377 1 0 0
829 277 2 -1.1794 -6.953764133159774 12.448951786317702 14.208881923718632 1 0 0
680 227 1 0.5897 -2.950186902785716 14.068765261833489 14.325776470016594 0 0 0
930 310 1 0.5897 -7.459569071684563 15.894890878905363 14.34840611757783 1 0 0
925 309 2 -1.1794 -5.578817593448754 16.034608014518504 14.181687821664262 1 0 0
926 309 1 0.5897 -4.984518290311934 15.32073942831588 14.412939338822511 1 0 0
874 292 2 -1.1794 -3.3712761938954436 16.070585506039755 16.99540436411101 0 0 0
806 269 1 0.5897 -5.990952134141056 11.429079315023616 15.29962977565212 1 0 0
876 292 1 0.5897 -2.6749168649411796 15.455437155914934 17.2256483212902 0 0 0
907 303 2 -1.1794 -5.995283240800933 15.5160945565887 17.864486022110214 0 0 0
681 227 1 0.5897 -3.836371978241913 13.537886026651261 15.432543499173924 0 0 0
737 246 1 0.5897 -0.9546909824878371 15.188516569692267 18.51110898487091 0 0 0
830 277 1 0.5897 -7.392340769744262 12.937865608359031 14.905211693025196 1 0 0
715 239 2 -1.1794 -3.794837765902951 12.587143308814396 17.059359184483114 0 0 0
716 239 1 0.5897 -3.886024717010578 13.050125352752774 17.892139646602693 0 0 0
717 239 1 0.5897 -2.852387588044695 12.44907315089179 16.963410642975347 0 0 0
730 244 2 -1.1794 -1.2516602909150247 12.0605177270754 15.964346149940143 0 0 0
736 246 2 -1.1794 -1.2634707222418413 14.529147230266549 17.889831904189933 0 0 0
909 303 1 0.5897 -5.198163312140167 15.638431443577664 17.348695075956144 0 0 0
683 228 1 0.5897 -1.0345143127631138 13.383807630621485 14.804009842597248 0 0 0
875 292 1 0.5897 -3.1048475505241546 16.428553100071333 16.148573136910393 0 0 0
781 261 2 -1.1794 -7.661315458630616 13.813609099995134 16.579182674664906 1 0 0
782 261 1 0.5897 -7.420933536186476 13.322444706155999 17.364825967910697 1 0 0
783 261 1 0.5897 -8.563961670205206 14.091076323194748 16.736368727833266 1 0 0
185 62 1 0.5897 -1.3288737349118112 13.157451623612262 19.01843925897147 0 0 -1
908 303 1 0.5897 -6.587618151396718 15.04081562436451 17.281850846813512 0 0 0
251 84 1 0.5897 -5.042131152855873 14.450558951965004 18.976532439093162 0 0 -1