LAMMPS data file via write_data, version 30 Jul 2021, timestep = 12750000

864 atoms
2 atom types
576 bonds
1 bond types
288 angles
1 angle types

0.6081390092629686 17.599433390742995 xlo xhi
1.8078386943405285 21.821339105663377 ylo yhi
0.7419281708555161 21.47126762914408 zlo zhi

Masses

1 1.00794
2 15.9994

Pair Coeffs # lj/cut/tip4p/long/omp

1 0 0
2 0.21084 3.1668

Bond Coeffs # harmonic/omp

1 450 0.9572

Angle Coeffs # harmonic/omp

1 55 104.52

Atoms # full

366 1 1 0.5897 1.3845514817811269 5.562865267435263 1.3028058850055138 -1 5 6
384 1 1 0.5897 3.869399377298815 3.8758635547266107 2.8723186277530415 -6 -1 -1
364 1 2 -1.1794 2.1290064367746067 6.1541875351606725 1.1913626356777225 -1 5 6
699 1 1 0.5897 1.881975313284767 6.54110371347143 4.702755616198074 3 -1 -7
697 1 2 -1.1794 2.4243566132465757 5.984781039572612 5.261869151400053 3 -1 -7
617 1 1 0.5897 3.6775696419595705 2.5338194342385387 1.2410263039172225 2 0 1
383 1 1 0.5897 4.818946859586839 5.032277095466031 3.1026986663243843 -6 -1 -1
483 1 1 0.5897 3.929645525175761 3.804310485037623 5.505863429384448 0 3 -5
616 1 2 -1.1794 2.9569394989239237 3.1497723844254626 1.3735907391486761 2 0 1
382 1 2 -1.1794 4.668231335154183 4.117545048883533 3.3410835080809287 -6 -1 -1
28 1 2 -1.1794 4.5060006685705964 6.7041762347224925 2.574842291907074 -9 4 6
30 1 1 0.5897 3.7212546062055005 6.417787763465511 2.1074225828759046 -9 4 6
106 1 2 -1.1794 3.6725872994215027 2.8252740872594484 9.616809209035038 1 1 5
216 1 1 0.5897 4.0570902703735605 4.562237668868157 9.052425645644327 -3 3 3
662 1 1 0.5897 1.9908667477265949 6.49182615413012 10.316722270775282 -3 1 -1
408 1 1 0.5897 1.7643612769264398 4.92417469819725 6.415892367375518 -3 -2 5
107 1 1 0.5897 3.739335109551474 2.2244509646594635 8.874580431440306 1 1 5
108 1 1 0.5897 2.7618416336730807 2.753411145006784 9.902574871758063 1 1 5
407 1 1 0.5897 0.9083747389299552 3.717350053819396 6.736657018208788 -3 -2 5
406 1 2 -1.1794 1.6013079100958714 4.271099664039953 7.096492698943545 -3 -2 5
482 1 1 0.5897 3.2985222400290404 3.458208593283811 6.837753659152716 0 3 -5
214 1 2 -1.1794 4.601199389881845 5.3446600123340975 8.962772094234207 -3 3 3
247 1 2 -1.1794 1.2095094707057603 2.4437069993802045 10.710328085498325 -5 4 -4
387 1 1 0.5897 3.871754455348919 6.685519319134228 7.99455576168277 -6 1 0
497 1 1 0.5897 0.8571573349507349 5.228616850775132 8.606397729179424 0 4 3
496 1 2 -1.1794 0.6680372397761176 5.812081161724857 9.34130062946235 0 4 3
481 1 2 -1.1794 3.983269736207861 3.1799822691803907 6.229481740315728 0 3 -5
698 1 1 0.5897 2.6360063463452157 6.535650394694863 6.015576433150684 3 -1 -7
173 1 1 0.5897 2.4954573436189387 4.6337700007453035 13.728860631058486 1 0 1
622 1 2 -1.1794 2.5198369343469587 3.9267610586515707 15.523406478767532 7 3 2
623 1 1 0.5897 3.3687563793780333 3.5349608867726774 15.318128440385447 7 3 2
174 1 1 0.5897 1.609404143377686 5.005270759758552 12.558856642368324 1 0 1
815 1 1 0.5897 0.8150601994318878 3.135624346852037 15.4507076803704 -5 8 -3
318 1 1 0.5897 4.456956203365489 5.316795826047867 12.626406648217763 -6 -8 -1
361 1 2 -1.1794 4.736922307823155 2.725480714730218 14.813979829921372 -3 -3 -2
172 1 2 -1.1794 2.5194017129402644 5.02422005030683 12.855217809113935 1 0 1
112 1 2 -1.1794 4.739393428135539 6.027648802457075 15.473447605577825 -3 -4 0
249 1 1 0.5897 1.5799717850194628 2.0145780759654945 11.481642369399104 -5 4 -4
624 1 1 0.5897 2.730200234525244 4.679077761771527 16.076626108450036 7 3 2
434 1 1 0.5897 4.5195482684551855 2.878977694643772 11.317332886581244 1 7 1
90 1 1 0.5897 2.413143578388463 6.531571528693187 17.139098582018136 7 -2 7
365 1 1 0.5897 1.8737341303909685 6.727915128917111 21.19821746342804 -1 5 5
376 1 2 -1.1794 3.8155399105891075 4.057659228911053 19.56849396990371 2 4 3
378 1 1 0.5897 3.299738019446054 4.558659678714434 18.936612913290663 2 4 3
89 1 1 0.5897 1.8409908889446387 5.433538676695616 18.01029153996095 7 -2 7
531 1 1 0.5897 3.580015296045872 2.251487829892987 19.039562913046705 -4 -2 -4
88 1 2 -1.1794 2.6586345176903383 5.740004910492018 17.61810082702569 7 -2 7
377 1 1 0.5897 4.292785811836802 4.720374258686521 20.067855787152418 2 4 3
618 1 1 0.5897 2.811560879462654 3.5383137098734156 21.240271471245492 2 0 0
673 1 2 -1.1794 3.5492652052305433 8.95449970961705 4.203885255635892 -4 -8 -2
674 1 1 0.5897 2.653736433703716 9.282643210704101 4.122410154645934 -4 -8 -2
848 1 1 0.5897 0.9433080971770176 10.936380404534134 5.181282188066345 3 0 0
675 1 1 0.5897 3.829493823280407 9.235506713919115 5.074979311086284 -4 -8 -2
29 1 1 0.5897 4.178508435546796 7.291077047943309 3.256483854220229 -9 4 6
704 1 1 0.5897 2.6148704379538916 9.891834546209271 1.2764998714951732 8 -3 0
705 1 1 0.5897 1.4624394725598897 10.870249865930765 1.3579152004404396 8 -3 0
703 1 2 -1.1794 1.6693026796995398 9.960382488601718 1.1442674592829216 8 -3 0
274 1 2 -1.1794 4.421038621635235 9.441851398689117 1.0052199799810264 -4 -3 -3
225 1 1 0.5897 1.3908036608782748 6.931667785456592 2.406656062220834 2 0 -10
223 1 2 -1.1794 0.8066205464388351 7.159560000851183 3.129902489823786 2 0 -10
570 1 1 0.5897 4.171627118823941 11.77300782243825 5.604360956566658 6 -3 2
385 1 2 -1.1794 3.673958697135431 7.2781392767257715 7.269322265417379 -6 1 0
553 1 2 -1.1794 1.8198189737842398 8.866601729052075 8.532579763345616 -5 -1 2
714 1 1 0.5897 4.179692253554675 7.513387327415174 11.00214549598244 -6 -2 4
639 1 1 0.5897 3.460499410813557 9.538371277633871 8.975249001618272 -6 4 7
165 1 1 0.5897 1.2369040908739222 10.82821813102986 8.103907699400885 -2 1 5
637 1 2 -1.1794 4.400300494201962 9.714822993186102 9.019105531668094 -6 4 7
386 1 1 0.5897 3.1409389579147695 7.969154949162155 7.662599043163822 -6 1 0
661 1 2 -1.1794 2.5426031549222063 7.188512483902629 10.672440741920003 -3 1 -1
555 1 1 0.5897 0.9342723241823083 8.711950746135416 8.203687439633192 -5 -1 2
163 1 2 -1.1794 0.9367682330243474 11.667535043474626 8.452845258851221 -2 1 5
554 1 1 0.5897 1.890887365227114 8.304410141689013 9.304074905998483 -5 -1 2
327 1 1 0.5897 4.797339788961931 10.178472714509663 7.287438822337696 2 -4 -3
638 1 1 0.5897 4.769409845744668 8.94378993438141 9.449857052443843 -6 4 7
549 1 1 0.5897 4.059603711744465 11.747888691358623 9.912641868252976 7 1 4
371 1 1 0.5897 4.581836805987671 9.783335723850364 14.868240342780798 4 11 -2
470 1 1 0.5897 3.390848517604901 10.088881138332328 12.0983861645699 2 0 2
125 1 1 0.5897 3.316525887178535 8.243977216343009 13.924289124303073 2 3 0
22 1 2 -1.1794 1.6117755960329592 10.574996382957444 11.867915666901956 -4 1 3
469 1 2 -1.1794 4.326152484399522 10.104261706908863 12.30148988678391 2 0 2
415 1 2 -1.1794 1.8129620801398996 11.15742149245177 14.570606074923703 -2 0 -1
24 1 1 0.5897 1.7379165423563832 10.909332021208984 12.755941618222776 -4 1 3
372 1 1 0.5897 3.0979214201084417 9.836701946372024 15.163539184661369 4 11 -2
370 1 2 -1.1794 3.8684016518169915 9.276220200571679 15.255729883203271 4 11 -2
471 1 1 0.5897 4.673823365562389 9.312217209699444 11.891519150999072 2 0 2
23 1 1 0.5897 1.0477784571838014 11.222840234855914 11.445421034255421 -4 1 3
417 1 1 0.5897 0.9590358459329873 11.582331529058136 14.651596500585221 -2 0 -1
392 1 1 0.5897 0.6561061116180014 8.742928546436701 11.716421489630577 3 -3 -2
663 1 1 0.5897 2.2755137041491067 7.261882202692216 11.588730437229467 -3 1 -1
124 1 2 -1.1794 2.609644969482199 7.726344328446744 13.538693509221462 2 3 0
56 1 1 0.5897 1.4511071775204607 7.673202279974443 14.915185311029518 -3 -3 1
55 1 2 -1.1794 0.7965757843805035 7.522376749624511 15.597189100331457 -3 -3 1
126 1 1 0.5897 2.815318858316035 6.8228365473707635 13.778814016787903 2 3 0
688 1 2 -1.1794 2.350595205828323 10.850617241506017 19.21624968341698 4 0 3
659 1 1 0.5897 2.7235657359478385 7.565865880138672 19.69046300442978 0 0 3
690 1 1 0.5897 2.9712678104069608 10.426909244804103 18.62336316751492 4 0 3
142 1 2 -1.1794 4.397263345004814 7.645801464553691 19.6894055526476 3 5 5
313 1 2 -1.1794 4.419004676328292 9.907782820905107 17.821764909663596 -2 0 -2
689 1 1 0.5897 1.4998200169274454 10.484186914741285 18.97494673918853 4 0 3
315 1 1 0.5897 4.490705211166826 9.08390975817265 18.30384184286664 -2 0 -2
658 1 2 -1.1794 1.7820296697914646 7.685309368539163 19.815054445732123 0 0 3
660 1 1 0.5897 1.6973124391070626 8.570018766633915 20.17058828929593 0 0 3
314 1 1 0.5897 4.073490814299127 9.65551640274147 16.965423070950543 -2 0 -2
144 1 1 0.5897 4.443360348818173 8.35311392116556 20.33274779554906 3 5 5
276 1 1 0.5897 4.8199458007480125 10.24445246940422 21.39843344626199 -4 -3 -4
454 1 2 -1.1794 0.6226748302672437 12.462654445388782 2.0485166805941892 -2 1 1
288 1 1 0.5897 2.9685060128933984 14.40228919264745 2.4843603838758526 5 -2 5
367 1 2 -1.1794 3.9581105410562873 16.639281213986514 5.47680313988837 4 5 3
569 1 1 0.5897 2.858685923067309 12.497558905190907 5.3964364326235845 6 -3 2
863 1 1 0.5897 4.1173694685969355 13.113042128598977 3.649826297981781 4 -5 5
862 1 2 -1.1794 4.576897047839221 13.200727782368924 2.8147029062020796 4 -5 5
286 1 2 -1.1794 2.1524553895678142 14.778206898715103 2.8145664995310575 5 -2 5
287 1 1 0.5897 1.7846222039098067 15.24817818005425 2.06615395746268 5 -2 5
369 1 1 0.5897 4.5868889955625445 15.942051403910193 5.290163649220415 4 5 2
368 1 1 0.5897 3.1085356286601153 16.198478809137118 5.492469760458504 4 5 3
568 1 2 -1.1794 3.8068738583073785 12.6232999404007 5.358876923750433 6 -3 2
456 1 1 0.5897 1.2670744349396266 13.143118475862288 2.243450307745648 -2 1 1
517 1 2 -1.1794 1.5600844401685445 15.444676698969339 5.6948430349372785 0 1 -1
518 1 1 0.5897 1.5614916540924921 15.310712386113927 4.74703846867024 0 1 -1
519 1 1 0.5897 0.691928051423383 15.7998581150941 5.8857315809934505 0 1 -1
847 1 2 -1.1794 1.1315205145869762 11.864392643785632 5.321540893937515 3 0 0
548 1 1 0.5897 2.6571249795416207 12.16711432574969 9.526173015346275 7 1 4
547 1 2 -1.1794 3.5162187523896633 12.52046992427927 9.757246498372341 7 1 4
448 1 2 -1.1794 4.488209303696369 14.0012733685798 7.669399309777948 8 3 -7
449 1 1 0.5897 4.107757417667429 13.372432948571037 8.28266989311834 8 3 -7
123 1 1 0.5897 2.6299152407486983 15.03154911378852 8.873360523710144 2 -2 1
122 1 1 0.5897 1.7077576288477954 14.836397277281367 7.688645389450883 2 -2 1
450 1 1 0.5897 4.408224501701324 13.580220504337042 6.813461061958993 8 3 -7
121 1 2 -1.1794 1.7141080720398187 15.109657869486474 8.606013549109068 2 -2 1
571 1 2 -1.1794 4.051362622979288 16.140216347789917 10.408257467692387 6 -1 -6
572 1 1 0.5897 4.790394892546368 15.556546549459599 10.236612251722313 6 -1 -6
573 1 1 0.5897 4.390405746792387 16.778501244030736 11.035910314173714 6 -1 -6
709 1 2 -1.1794 0.848190669874336 15.118275601917944 12.770899180688417 -6 -5 -5
15 1 1 0.5897 3.903667828558507 12.813628676301176 14.038080814830385 -2 -7 -3
13 1 2 -1.1794 4.198456972096229 12.555806317879478 14.911525459435236 -2 -7 -3
737 1 1 0.5897 4.588229681818401 15.518131459969258 14.768096428241632 -1 -1 -1
581 1 1 0.5897 3.407069372410633 13.195683138373354 11.599273577175685 -2 -5 -3
738 1 1 0.5897 3.3646949131613177 16.39183757269812 14.59030098960205 -1 -1 -1
736 1 2 -1.1794 3.9935646909058113 16.094666482822003 15.247949416132387 -1 -1 -1
582 1 1 0.5897 2.5905173947884705 14.185751249239226 12.402414428576272 -2 -5 -3
580 1 2 -1.1794 3.286467855110615 13.533941558207069 12.486584832563771 -2 -5 -3
416 1 1 0.5897 2.4424678591040223 11.834546767827712 14.81863226198254 -2 0 -1
397 1 2 -1.1794 3.0873186449563605 12.973242641958937 20.749478707262128 10 1 -5
104 1 1 0.5897 1.5541926983148275 14.188012997060701 17.528784197357414 -4 -3 5
266 1 1 0.5897 3.310124741933729 14.605498312594332 19.392783351201633 -4 2 -1
204 1 1 0.5897 1.8791659351190553 15.492477767736435 20.592852394638218 -5 6 7
399 1 1 0.5897 3.9090587943085913 12.633753043437423 21.1041341341076 10 1 -5
265 1 2 -1.1794 3.5332066317258053 15.513163647842187 19.599353304769114 -4 2 -1
822 1 1 0.5897 3.0391480346527158 12.364114541449489 18.037388808149245 2 -3 4
267 1 1 0.5897 3.2284069694522386 16.01345376393725 18.842298348110983 -4 2 -1
821 1 1 0.5897 3.5056360670473277 12.922547177241464 16.709768300350788 2 -3 4
398 1 1 0.5897 2.6172092595001404 12.196145180778759 20.447122919505272 10 1 -5
103 1 2 -1.1794 0.8458424102930812 14.804996269868692 17.712785450897755 -4 -3 5
820 1 2 -1.1794 2.9787835960297215 13.139275840579826 17.47902791424689 2 -3 4
202 1 2 -1.1794 1.1121788426560606 15.8615827182662 21.03077625802632 -5 6 7
105 1 1 0.5897 0.8678663987434698 15.421021002460469 16.980455829285102 -4 -3 5
227 1 1 0.5897 3.808764367008623 16.568011600850525 21.13932591457619 0 -2 -3
260 1 1 0.5897 3.6631688336522896 17.928055507806963 2.5766869448885004 6 -2 4
261 1 1 0.5897 3.6317451242397856 17.765395736485896 4.08158325552822 6 -2 4
259 1 2 -1.1794 3.4188171126737696 18.383535240619874 3.3823970321745978 6 -2 4
310 1 2 -1.1794 1.9573949949427503 20.751400350055135 2.9135561820745166 -1 1 3
311 1 1 0.5897 2.363676713121032 19.88526716240469 2.9457466900808646 -1 1 3
312 1 1 0.5897 2.504655577699253 21.250826335739674 2.3074474235325586 -1 1 3
627 1 1 0.5897 3.2872549931337622 20.820081450276405 4.557953882533825 -8 -3 2
707 1 1 0.5897 1.7884373546898464 17.886707797636706 3.233298281663436 -3 -5 -5
626 1 1 0.5897 4.249551752858592 21.74290199504685 5.275166215613249 -8 -3 2
226 1 2 -1.1794 4.2693771275956 16.902088587275394 1.1797313265815668 0 -2 -2
625 1 2 -1.1794 4.220272927735356 21.003618265079997 4.667812365292927 -8 -3 2
706 1 2 -1.1794 0.8433922489821345 17.81809157101725 3.097417757616739 -3 -5 -5
594 1 1 0.5897 4.6260000896697875 20.580989327801333 1.2966713569958341 4 -5 -7
593 1 1 0.5897 4.810699920721041 21.122193105860784 2.6984784981666907 4 -5 -7
516 1 1 0.5897 0.6538943792112164 19.69220336286336 5.7795293308096785 -6 -4 0
453 1 1 0.5897 4.1361196599121826 16.915573717320555 8.624607911565269 -2 4 6
452 1 1 0.5897 4.0066742558764235 17.429728441634452 7.206546656935945 -2 4 6
510 1 1 0.5897 1.2556663563174553 21.332464444072087 6.277928381650652 6 -4 8
451 1 2 -1.1794 4.153322899225213 17.720405389539316 8.106702569155221 -2 4 6
508 1 2 -1.1794 1.7085941071508648 20.574252065838493 6.647049504139478 6 -4 8
534 1 1 0.5897 4.266330913279582 19.579608150557274 8.079193484248947 -5 0 -4
533 1 1 0.5897 3.5695531393269326 20.54554904938305 7.144593403421241 -5 0 -4
151 1 2 -1.1794 1.2099789756737684 17.651177943179945 10.323628890299101 3 -4 -1
509 1 1 0.5897 1.3127032260286817 20.455070519299916 7.51039227054453 6 -4 8
696 1 1 0.5897 2.672741546800882 19.086278925170927 10.546599787239257 4 0 -3
532 1 2 -1.1794 4.240059167791673 20.50247282793329 7.8263896967080875 -5 0 -4
248 1 1 0.5897 1.0307731859630658 21.741616707270765 10.100186976962739 -5 3 -4
152 1 1 0.5897 0.7626577708735667 17.621097793841066 9.47785002870971 3 -4 -2
694 1 2 -1.1794 3.374882913202672 19.47825152418217 11.06590812090512 4 0 -3
153 1 1 0.5897 1.9957947839168206 17.11907536962183 10.198525171061643 3 -4 -1
53 1 1 0.5897 1.869598916847075 17.032194546386684 12.762853789442596 -3 -1 2
201 1 1 0.5897 0.7012204775767327 19.782723896770616 15.223840409212302 5 -3 -1
219 1 1 0.5897 2.6881257773138687 20.297643727419054 16.046897578665337 8 -1 -4
218 1 1 0.5897 2.1998326780750133 21.72404160159013 15.90906202330582 8 -1 -4
695 1 1 0.5897 3.008611201381311 20.305234471115124 11.379351506275185 4 0 -3
217 1 2 -1.1794 1.9616028776220662 20.81942926185421 15.70603095435554 8 -1 -4
52 1 2 -1.1794 2.3484483681849055 17.70162526921844 13.251574126511517 -3 -1 2
221 1 1 0.5897 2.3020386025697706 21.074801722070347 13.888363832333038 1 -2 4
54 1 1 0.5897 2.8276419553323726 18.190485073552438 12.582496122822684 -3 -1 2
220 1 2 -1.1794 2.3966453076233476 21.617019404118786 13.105198940892732 1 -2 4
198 1 1 0.5897 4.720380106521099 19.988273866622468 15.990935764163583 -5 -1 -3
222 1 1 0.5897 3.3373717259877336 21.781202107802304 13.039189665007713 1 -2 4
700 1 2 -1.1794 0.8314816421873263 18.65495391458245 17.934404256980304 5 1 2
418 1 2 -1.1794 1.468888597768617 18.626432944359486 20.569048635524435 -7 0 4
505 1 2 -1.1794 3.879570350911952 19.775559839845762 20.584435227816805 1 4 -2
588 1 1 0.5897 2.4149046341969833 17.788388936066898 17.486351802807814 -2 -3 6
11 1 1 0.5897 1.355444273671182 21.480015025578087 18.292579350326516 -2 4 6
506 1 1 0.5897 3.080285568977112 19.269045016685247 20.729027465174166 1 4 -2
586 1 2 -1.1794 3.3038030325493937 17.43328028480009 17.479932333759464 -2 -3 6
419 1 1 0.5897 1.1319532223273585 18.55279100722146 19.676114561468207 -7 0 4
507 1 1 0.5897 3.6377397489083996 20.42113382077334 19.920335811812222 1 4 -2
530 1 1 0.5897 3.4598077805953436 21.129604927172526 18.04531749728902 -4 -3 -4
587 1 1 0.5897 3.3462765848953815 16.907108124912604 16.681422349593113 -2 -3 6
420 1 1 0.5897 1.3631093027114476 17.749749399426467 20.93853202379709 -7 0 4
529 1 2 -1.1794 2.995305276697269 21.55906540924646 18.763706125526163 -4 -3 -4
197 1 1 0.5897 4.375965595386006 19.006417660414296 17.090650929089414 -5 -1 -3
196 1 2 -1.1794 4.47929023740685 19.941919473171676 16.916141737066777 -5 -1 -3
851 1 1 0.5897 6.074077400871262 2.6962050696405813 1.4586281161832209 -9 -7 -1
857 1 1 0.5897 7.331781131502931 2.682428620046453 4.168364315541779 -1 -5 -4
858 1 1 0.5897 6.328168525350357 3.7829480527575963 3.8969847550765104 -1 -5 -4
852 1 1 0.5897 7.22343720760173 3.494422529838962 2.0364123231123803 -9 -7 -1
44 1 1 0.5897 7.426795343449509 5.460762351672953 3.556656556612614 -2 6 1
856 1 2 -1.1794 7.266634643271134 3.621480544353327 3.994403793332618 -1 -5 -4
850 1 2 -1.1794 6.859125185848519 3.183094278019279 1.2077824997569497 -9 -7 -1
230 1 1 0.5897 5.269766303152384 5.716796261677968 1.2351636898924674 1 5 6
43 1 2 -1.1794 7.4367490514223125 6.4086481878355634 3.4236455155843197 -2 6 1
45 1 1 0.5897 6.7650234107814144 6.74157874680855 4.018823715992611 -2 6 1
682 1 2 -1.1794 5.851922629073979 6.732196213132073 5.809136704933921 6 -1 -3
281 1 1 0.5897 8.548460518997121 4.008977761937619 5.3753829637165955 1 -1 5
278 1 1 0.5897 5.547389999209357 4.060385388663965 6.75386183683216 -1 2 1
279 1 1 0.5897 6.4009297571441595 4.793576357156297 7.766732960809138 -1 2 1
285 1 1 0.5897 8.023686306995076 4.363356302991551 9.96826228411663 7 -1 0
283 1 2 -1.1794 7.108709171151304 4.640739196483452 9.921791727122336 7 -1 0
277 1 2 -1.1794 6.4513589662615995 4.314771225514197 6.939387221395471 -1 2 1
412 1 2 -1.1794 7.401450046552283 1.8645401775442683 11.011857366371908 -3 -2 2
299 1 1 0.5897 6.7631996679409605 2.703931661429341 7.412016707296131 0 -2 4
284 1 1 0.5897 6.705564372112835 4.270701255353268 10.707175231793252 7 -1 0
684 1 1 0.5897 6.037447200583656 5.884095336837224 6.212356825842942 6 -1 -3
215 1 1 0.5897 5.448793608685061 5.090680686006351 9.327955403500086 -3 3 3
282 1 1 0.5897 8.948722082940584 4.908903465662929 6.525136456651167 1 -1 5
301 1 2 -1.1794 7.310345278432804 3.827153531895064 13.669149865134495 2 3 9
303 1 1 0.5897 7.693576693664315 4.021614986439838 14.524491162164791 2 3 9
433 1 2 -1.1794 5.013179531187248 2.746665272024167 12.126714341812358 1 7 1
435 1 1 0.5897 5.917949814838233 2.6250061342929327 11.83884902842124 1 7 1
317 1 1 0.5897 5.095073477971664 5.910243382009409 13.864424567452566 -6 -8 -2
302 1 1 0.5897 6.654848174446587 4.5123784580048 13.538473996324633 2 3 9
185 1 1 0.5897 8.830232251583297 6.168127519151577 14.66981588989765 -5 9 2
316 1 2 -1.1794 5.29616118258165 5.616834617773987 12.975743044391916 -6 -8 -1
583 1 2 -1.1794 8.866628984090003 3.6155824205251657 16.03907088514466 2 -6 6
362 1 1 0.5897 5.055362808188936 2.999471316633337 13.953853707142661 -3 -3 -2
363 1 1 0.5897 5.5242327925160035 2.4543217305384735 15.286183362730569 -3 -3 -2
26 1 1 0.5897 7.73337201644508 2.252976245690029 15.963127452094488 -4 7 7
513 1 1 0.5897 8.84656511409838 4.1455159145950295 12.975390191643394 -2 3 -4
800 1 1 0.5897 7.771227136532226 6.171637245029843 11.266751570683299 2 -5 3
114 1 1 0.5897 5.290254297218 6.717126143249917 15.84422442717582 -3 -4 0
113 1 1 0.5897 5.040754022846172 5.224870520012345 15.898922857948747 -3 -4 0
229 1 2 -1.1794 5.566740031664904 5.5324177396994685 21.073338980905596 1 5 5
320 1 1 0.5897 6.7809827709690165 5.630826218793683 18.041479398924686 2 2 -1
289 1 2 -1.1794 8.62379341962211 3.472246580819178 18.725411626258666 -10 -5 -7
390 1 1 0.5897 5.057021922503269 4.005675783522251 18.078967187941483 -2 7 4
388 1 2 -1.1794 5.761654156667161 4.06583580215283 17.43386140907305 -2 7 4
319 1 2 -1.1794 7.204475592412771 6.45235452678591 18.290551651351848 2 2 -1
291 1 1 0.5897 7.92237343398634 2.884943879684317 19.007189829881913 -10 -5 -7
290 1 1 0.5897 8.594578818090959 4.197688732065425 19.34928435253884 -10 -5 -7
584 1 1 0.5897 8.906886556465158 3.8076700443903633 16.97600258314269 2 -6 6
389 1 1 0.5897 5.985100108380222 3.156114077473844 17.236984178434017 -2 7 3
826 1 2 -1.1794 8.759416752546516 5.387140753159036 20.714218154233084 3 -1 3
109 1 2 -1.1794 6.474565208303992 1.8863183734487088 19.496532760545417 0 2 -11
110 1 1 0.5897 6.614761529106498 2.454551015539404 20.25398616928991 0 2 -11
828 1 1 0.5897 8.781391082568888 4.61539611880656 21.280101730411864 3 -1 3
231 1 1 0.5897 6.418488250949425 5.110503898012105 21.1866222436837 1 5 5
652 1 2 -1.1794 6.93976872552905 8.688493474880243 2.129668603837292 3 -1 -2
654 1 1 0.5897 6.929755672759266 7.752533334379186 2.330089444479075 3 -1 -2
545 1 1 0.5897 8.579385040266349 9.508264497907367 2.1342739703987386 -5 6 4
2 1 1 0.5897 6.224738232121458 10.045510309926783 2.935276652802901 0 -7 4
653 1 1 0.5897 7.024425499636942 8.72905194569391 1.1770544603230624 3 -1 -2
3 1 1 0.5897 5.0000380142709835 10.146594308295931 3.8195363640242146 0 -7 4
63 1 1 0.5897 8.16770282337419 8.900887409313844 5.739621352500081 0 -3 9
101 1 1 0.5897 8.822891389245937 7.380402786404377 4.347321665055308 2 -5 -3
1 1 2 -1.1794 5.696614781061057 10.67365016890993 3.4280317114459065 0 -7 4
275 1 1 0.5897 5.090239113661369 9.061255990438394 1.5740882527393363 -4 -3 -3
62 1 1 0.5897 8.429740535814707 10.154869435270385 6.546386854849496 0 -3 9
632 1 1 0.5897 7.499016994886668 11.003254369739812 8.750253379607017 5 9 5
326 1 1 0.5897 5.92078988525872 10.073031644163716 6.278101255126469 2 -4 -3
446 1 1 0.5897 8.383826708918917 7.17068117418873 7.83902244493307 1 0 -2
183 1 1 0.5897 6.276327019598073 8.075778138420265 7.928983900209221 -6 3 -2
181 1 2 -1.1794 6.895630953669414 7.9511546381048595 8.648160974925363 -6 3 -2
633 1 1 0.5897 7.4413767590749575 9.54756935617883 9.162237354564878 5 9 5
631 1 2 -1.1794 7.79968802362402 10.39522620554622 9.42567042458574 5 9 5
182 1 1 0.5897 6.389251850011592 7.5036505936171505 9.326107500790602 -5 3 -2
521 1 1 0.5897 6.318169898768217 11.1904251101358 10.412902262481577 1 2 -5
61 1 2 -1.1794 7.728124800594739 9.659501096328668 6.12374916801395 0 -3 9
325 1 2 -1.1794 4.966503442001704 10.098209853697009 6.348704148819547 2 -4 -3
683 1 1 0.5897 4.991292288970316 6.976631960537296 6.149504273837157 6 -1 -3
520 1 2 -1.1794 6.009710621210886 11.814351334088576 11.070089863779081 1 2 -5
334 1 2 -1.1794 6.286845747197747 10.7161504442159 14.731106253594264 4 4 2
189 1 1 0.5897 7.1539632732255685 7.689645637519201 15.488443003944221 -3 3 3
472 1 2 -1.1794 7.5865005264487415 9.634536365524916 12.517634108706543 -4 1 1
335 1 1 0.5897 6.637894201851839 10.321786906519774 13.932644058307764 4 4 2
473 1 1 0.5897 7.232427541602663 8.775430385201448 12.287729190368118 -4 1 1
522 1 1 0.5897 5.467854825139448 11.291841057558353 11.661405438384575 1 2 -5
336 1 1 0.5897 6.740941783719485 10.263647405926266 15.441965033352417 4 4 2
187 1 2 -1.1794 6.5185065001207825 7.907018646119353 16.170514305544344 -3 3 3
474 1 1 0.5897 8.320741955604607 9.760215712213688 11.916467172616734 -4 1 1
186 1 1 0.5897 8.78770283151399 7.644823384136221 14.338805964747815 -5 9 2
713 1 1 0.5897 5.26736828436368 7.205230551890935 12.009129812128384 -6 -2 4
799 1 2 -1.1794 8.321687677191115 6.886540561104459 11.586469755109459 2 -5 3
712 1 2 -1.1794 5.073751550118336 7.751664454610742 11.24741814941456 -6 -2 4
184 1 2 -1.1794 8.298825231524054 6.829537957661241 14.226623578343341 -5 9 2
801 1 1 0.5897 8.28104617959653 6.812758291633546 12.539983776330505 2 -5 3
666 1 1 0.5897 6.928026085583316 10.026396496159029 20.279072497115568 4 -3 2
188 1 1 0.5897 6.845325800343238 7.463329962520797 16.953205629217596 -3 3 3
380 1 1 0.5897 5.769440243561576 11.053040830567145 18.061482629467683 8 6 -3
664 1 2 -1.1794 7.293259482238804 9.143365774622481 20.223004452241568 4 -3 2
528 1 1 0.5897 8.852710713277254 9.992947663184019 17.414151115643342 -6 -6 0
381 1 1 0.5897 7.236112541174839 11.230543785532001 17.730763429897262 8 6 -3
379 1 2 -1.1794 6.502947493626147 11.657716576222366 18.173787121894616 8 6 -3
665 1 1 0.5897 8.213914258808641 9.278269642362352 19.998326854655357 4 -3 2
143 1 1 0.5897 4.935000278168426 6.947019917883752 20.06201842150911 3 5 5
331 1 2 -1.1794 5.906854011068802 11.68508232690577 20.90243332750711 1 -7 -2
526 1 2 -1.1794 8.501821826712114 10.58031765592795 16.74469850463906 -6 -6 0
321 1 1 0.5897 6.601871798739886 6.852567055861418 18.91744005696363 2 2 -1
615 1 1 0.5897 6.742426657323465 14.537945627529295 1.232813322458942 -4 6 4
346 1 2 -1.1794 7.099670443178448 12.52374802283295 5.1639417914675505 -3 3 -3
192 1 1 0.5897 8.439093095568875 12.470858864994344 2.1512999191968802 5 5 -3
228 1 1 0.5897 5.009538374768603 16.305943252620075 1.2939980939359317 0 -2 -2
476 1 1 0.5897 6.2616601888987535 15.59264318391163 4.122738779424086 -1 -2 0
190 1 2 -1.1794 8.078051042651559 12.869220643648717 1.3593043143887786 5 5 -3
347 1 1 0.5897 6.820259569592982 13.437610590889072 5.108238119463503 -3 3 -3
475 1 2 -1.1794 5.763408310708424 14.886564260630662 4.534437416697342 -1 -2 0
348 1 1 0.5897 6.417201735117063 12.03563262703628 4.703212044323486 -3 3 -3
641 1 1 0.5897 8.538061654051404 12.250605380495337 4.213805243680941 2 1 -1
536 1 1 0.5897 8.773426381862349 15.57047227077669 5.246839446356206 6 6 0
613 1 2 -1.1794 6.542176248118883 15.473817111052734 1.2143677100017505 -4 6 4
477 1 1 0.5897 5.369464482338971 14.412253738803704 3.8022251102499935 -1 -2 0
864 1 1 0.5897 4.9408933767015455 12.3311157928214 2.6485826464336633 4 -5 5
5 1 1 0.5897 9.041325997020389 14.506965185410074 2.1473128210944057 1 1 -1
537 1 1 0.5897 8.177738812051587 15.679767971146727 6.634389869282053 6 6 0
809 1 1 0.5897 5.878159607315305 15.896151120082534 7.6162347097890875 0 1 -3
212 1 1 0.5897 6.195577785391609 13.121565765651528 7.853389477969971 7 1 4
338 1 1 0.5897 8.63579272430478 12.855303792598331 8.379299134845441 1 5 0
211 1 2 -1.1794 6.832758786041197 12.411954257176287 7.7712493938069445 7 1 4
808 1 2 -1.1794 6.751677547580063 16.054183533947565 7.974391813675761 0 1 -3
233 1 1 0.5897 6.357234593569089 13.747235052109037 10.511761634169153 -2 4 -2
232 1 2 -1.1794 6.5115058457676245 14.678276603156549 10.351635989469068 -2 4 -2
213 1 1 0.5897 6.988883268333337 12.337368736148767 6.8297891476671815 7 1 4
810 1 1 0.5897 6.754037526318415 15.593372344148468 8.81339671111728 0 1 -3
535 1 2 -1.1794 8.928178730910695 15.323645372045759 6.158664131309915 6 6 0
339 1 1 0.5897 9.0600341648052 12.770992512967025 9.830143468601145 1 5 0
234 1 1 0.5897 7.191442612343443 14.920488230964482 10.980362667465945 -2 4 -2
605 1 1 0.5897 7.693364552241055 12.376066229995105 11.868321462980488 -3 0 -2
31 1 2 -1.1794 8.785021150088198 15.445906278208078 11.896330078011603 1 11 -2
403 1 2 -1.1794 5.76434762509714 14.847661718265625 13.35681231468166 4 0 -1
255 1 1 0.5897 5.9786663196363845 16.647059496956977 12.784001498601187 6 6 -5
405 1 1 0.5897 6.2059197198341485 14.19573220249673 13.901133650744187 4 0 -1
32 1 1 0.5897 8.278223610222913 15.739939437655892 12.65328687993502 1 11 -2
68 1 1 0.5897 7.4560990535124185 13.448411118456098 15.731273682475683 3 2 -6
67 1 2 -1.1794 7.563684647710452 13.118645443701107 14.839107607030268 3 2 -6
271 1 2 -1.1794 8.181764234445463 16.25128137768517 14.524036172237865 -1 3 3
404 1 1 0.5897 4.971355115489002 14.407432673056137 13.050809794372281 4 0 -1
272 1 1 0.5897 8.798695033863652 15.698556754691154 15.003803102993974 -1 3 3
606 1 1 0.5897 8.743083739264248 13.46539577414778 11.808706422182366 -3 0 -2
69 1 1 0.5897 7.17113482001713 12.245795905958012 14.856899800959829 3 2 -6
604 1 2 -1.1794 8.631085351743124 12.517388504454805 11.737754407100686 -3 0 -2
273 1 1 0.5897 7.464954627006409 16.401768167625537 15.140327878938553 -1 3 3
14 1 1 0.5897 4.879582471118423 11.902480027387941 14.751807142869477 -2 -7 -3
563 1 1 0.5897 5.569083233000868 16.708601888881855 16.036046323651505 -1 1 8
523 1 2 -1.1794 7.0464416437184525 14.286777932781638 17.464787588682928 4 -1 3
614 1 1 0.5897 6.578990312819329 15.70890000786227 21.01652318127504 -4 6 2
191 1 1 0.5897 8.490256541587701 12.390120065494626 21.369718441307462 5 5 -4
524 1 1 0.5897 6.702605721004183 14.79215956826195 18.201431776928285 4 -1 3
525 1 1 0.5897 6.634998047714268 13.42678071568077 17.550899524442134 4 -1 3
430 1 2 -1.1794 6.109830548083712 16.15809833636641 19.238795209073857 -9 -2 -1
431 1 1 0.5897 5.204974061294108 15.903471615990188 19.419619375436717 -9 -2 -1
158 1 1 0.5897 8.847849578384013 14.114132652982786 17.96420746258711 3 3 -3
332 1 1 0.5897 5.986076737943559 11.905931514221885 19.974403159672107 1 -7 -2
333 1 1 0.5897 6.677755767355811 12.080116931324596 21.30980171448579 1 -7 -2
752 1 1 0.5897 5.873843532274169 18.790937837745656 2.9286645016845587 2 1 3
807 1 1 0.5897 7.970236520493958 21.477977709566858 5.828611559207664 -4 -3 -3
835 1 2 -1.1794 6.2355737984426645 19.227632672392442 5.036614869057641 4 4 1
166 1 2 -1.1794 7.70647660703446 16.99466432614389 4.108475233427908 -2 -2 0
443 1 1 0.5897 7.56190800390346 21.391641917320133 1.6140281989747534 2 2 1