LAMMPS data file via write_data, version 30 Jul 2021, timestep = 13500000

972 atoms
2 atom types
648 bonds
1 bond types
324 angles
1 angle types

-0.14342766144078745 20.143428661443355 xlo xhi
0.23463919102987774 19.76536180897715 ylo yhi
-0.18437412563823408 20.884372125630243 zlo zhi

Masses

1 1.008
2 15.999

Pair Coeffs # lj/cut/tip4p/long/omp

1 0 0
2 0.21084 3.1668

Bond Coeffs # harmonic/omp

1 450 0.9572

Angle Coeffs # harmonic/omp

1 55 104.52

Atoms # full

33 11 1 0.5897 1.1776190358030967 2.334223765330962 0.7524361148960587 0 0 0
11 4 1 0.5897 1.0494670389541265 3.0464694927322835 3.3145083752764077 0 0 0
14 5 1 0.5897 3.7978307468345283 5.775017604831283 1.1977199886026144 0 0 0
10 4 2 -1.1794 1.0840777280699114 3.925013364900292 3.692843723261196 0 0 0
111 37 1 0.5897 1.872867744455323 9.075251046959925 0.973996472621979 0 0 0
12 4 1 0.5897 2.0163967754832126 4.088970546784953 3.834052395609154 0 0 0
81 27 1 0.5897 -0.052148417113442286 4.3227918390829805 5.071577045610007 1 0 0
102 34 1 0.5897 0.22884939718629765 0.6677195186681202 4.813660616851671 1 0 0
114 38 1 0.5897 4.861964196299244 8.014622017696013 3.9139985137161037 0 0 0
13 5 2 -1.1794 4.523821600717969 6.044674270503625 1.7601305856161682 0 0 0
4 2 2 -1.1794 4.344184627411997 1.37639343704382 3.4182149040605703 0 0 0
5 2 1 0.5897 4.601787858704251 0.8107455641121698 2.6903367253942805 0 0 0
139 47 2 -1.1794 0.5767000530722753 8.810150019187876 2.0288329792098225 0 0 0
20 7 1 0.5897 0.7976971289121875 5.333139258506232 2.6551838643774763 0 0 0
130 44 2 -1.1794 1.6468338402366245 7.336075535465878 4.971174664541809 0 0 0
15 5 1 0.5897 4.243914663418877 6.882795621142816 2.128065194887662 0 0 0
19 7 2 -1.1794 0.5856522127440138 6.080646384088587 2.096217843017899 0 0 0
16 6 2 -1.1794 4.127390727646281 4.075307939758529 3.6395356243723924 0 0 0
24 8 1 0.5897 2.654234733706082 1.1183002246299072 3.9280685920863334 0 0 0
113 38 1 0.5897 3.3559140626984254 8.086107369898627 3.7794809172333053 0 0 0
112 38 2 -1.1794 4.167669505009944 8.275176485640202 3.3089506660797103 0 0 0
17 6 1 0.5897 4.480285936638372 4.534971464032244 2.8777568691042714 0 0 0
109 37 2 -1.1794 2.4849658803805537 9.373417819085228 0.30128456091739103 0 0 0
18 6 1 0.5897 4.090245249902814 3.1575730234401234 3.3701284970966983 0 0 0
31 11 2 -1.1794 0.6760036470488329 2.060094309862726 1.5201249262546792 0 0 0
141 47 1 0.5897 0.6335133487152553 7.889224885424276 2.2835474312096835 0 0 0
140 47 1 0.5897 0.5007717873021633 9.283978391662345 2.8569784600606227 0 0 0
674 225 1 0.5897 1.5807346451588686 5.67576494801382 0.5022807296183927 0 0 1
110 37 1 0.5897 3.35070197204171 9.216058699722264 0.6778824560689435 0 0 0
673 225 2 -1.1794 2.3436110272434845 5.46745709107079 -0.03691264318665885 0 0 1
22 8 2 -1.1794 1.7857904234175817 0.9005911263015922 4.2664384962436115 0 0 0
132 44 1 0.5897 0.6927174511170986 7.33785328858143 5.046884817390165 0 0 0
3 1 1 0.5897 3.3365673767786057 2.4857343790912374 -0.05458051937452604 0 0 0
325 109 2 -1.1794 2.500048715856241 2.217809884099097 7.082036245704441 0 0 0
326 109 1 0.5897 2.2282718388103024 1.7252316331063038 6.307675305298392 0 0 0
327 109 1 0.5897 3.448518232446026 2.30662526819066 6.989268795978567 0 0 0
356 119 1 0.5897 1.5449062237373725 2.0844254833155365 8.712287258703261 0 0 0
434 145 1 0.5897 2.667747637010726 9.561520674536178 6.758521356070367 0 0 0
27 9 1 0.5897 2.438023469202782 3.9968214233204944 6.732484748811649 0 0 0
344 115 1 0.5897 0.8865372739162891 5.312527718543807 9.34447860975421 0 0 0
337 113 2 -1.1794 4.485531302539024 6.082077190367495 7.946136512203715 0 0 0
560 187 1 0.5897 0.6062157275312093 0.3012701573474706 8.999939981222768 0 1 0
554 185 1 0.5897 4.626820790492424 0.5829678241491982 8.671562723155388 0 1 0
435 145 1 0.5897 2.465477625859286 8.080188243995416 6.521080513058797 0 0 0
468 156 1 0.5897 4.508368316277937 8.983441633955016 7.278578028181676 0 0 0
345 115 1 0.5897 0.644744910830153 6.750743209124102 8.938416806830515 0 0 0
25 9 2 -1.1794 2.370277806390284 4.910191758893687 6.454505093371504 0 0 0
26 9 1 0.5897 1.704322076938077 5.287209163320717 7.029302989661094 0 0 0
339 113 1 0.5897 4.0367296429890756 5.5736341564622185 7.270706427808887 0 0 0
355 119 2 -1.1794 0.8128035540232231 2.124834844250223 9.327494361329574 0 0 0
328 110 2 -1.1794 4.299783816802488 1.995598687366355 9.996459423109194 0 0 0
464 155 1 0.5897 1.0684461696955447 8.600523843983302 8.314500236587035 0 0 0
463 155 2 -1.1794 0.45720399660148436 8.483820071802167 9.041720361128686 0 0 0
433 145 2 -1.1794 2.601424397919689 8.723673713312474 7.216481098307023 0 0 0
343 115 2 -1.1794 0.77261396263241 5.873536039379785 8.577376970280461 0 0 0
437 146 1 0.5897 4.393764157891604 7.633308619070386 9.13805645115859 0 0 0
131 44 1 0.5897 1.8968270169747083 6.422514206688248 5.109433503193094 0 0 0
342 114 1 0.5897 3.8679610124429455 5.126527156747735 9.603899054923394 0 0 0
357 119 1 0.5897 0.04082284454384458 2.2437872820874927 8.77433059015944 0 0 0
341 114 1 0.5897 3.8733112493816284 3.665988865357768 10.00214874018709 0 0 0
438 146 1 0.5897 3.943622256129413 8.848961394208567 9.91989761402673 0 0 0
443 148 1 0.5897 0.9012744837493745 9.598634694830649 10.22788678544443 0 0 0
436 146 2 -1.1794 4.136305151612746 7.916257113511603 10.01540882822223 0 0 0
649 217 2 -1.1794 2.8087587207856743 2.7466132181530054 13.38009802979649 0 0 0
650 217 1 0.5897 2.5827202091017 2.237133165969861 12.60196883186948 0 0 0
651 217 1 0.5897 2.2889103168387193 2.3556417726209276 14.08225761236155 0 0 0
336 112 1 0.5897 1.9249207591549555 4.2883035656516535 10.896127474785578 0 0 0
334 112 2 -1.1794 0.9694717737454774 4.322429182365089 10.941141370336139 0 0 0
347 116 1 0.5897 1.320359277783974 0.8908138919508484 11.446290162337291 0 0 0
346 116 2 -1.1794 2.26939316700042 0.7931273540155659 11.522959262760487 0 0 0
533 178 1 0.5897 0.4567363555017401 8.059865801800235 12.127745635089212 1 0 0
351 117 1 0.5897 2.1532728932576393 4.5895505483063 13.243816026428417 0 0 0
455 152 1 0.5897 2.8880991635737 7.561632316879369 11.244881204190685 0 0 0
668 223 1 0.5897 1.0336535522882275 5.98431983759029 14.85474922838218 0 0 0
759 253 1 0.5897 2.665614021846898 8.802214514550347 13.44573182526758 0 0 0
329 110 1 0.5897 3.6621480241235487 1.5863588827114663 10.581307531441377 0 0 0
456 152 1 0.5897 2.282257261529925 6.789175678095643 12.397237120828846 0 0 0
350 117 1 0.5897 3.1278508212912373 5.443553504693683 14.0264353558303 0 0 0
454 152 2 -1.1794 2.279095283780238 7.649658159673148 11.978002561969964 0 0 0
349 117 2 -1.1794 2.26645712851202 5.466688139248183 13.609884146324612 0 0 0
792 264 1 0.5897 4.7949729801168814 9.109956531473598 14.115904372868085 0 0 0
683 228 1 0.5897 4.410941580222408 2.7103908364391245 14.092965287069935 0 0 0
757 253 2 -1.1794 2.941721670339258 9.220345459188893 14.261234183265843 0 0 0
680 227 1 0.5897 0.15305542631719793 2.2139292954235668 15.111050629282788 0 0 0
661 221 2 -1.1794 4.4088240777211025 6.070648120890356 15.46852239958091 0 0 0
405 135 1 0.5897 -0.06677437249069577 4.881157022262676 12.447602942117479 1 0 0
335 112 1 0.5897 0.6819559343381618 3.4864069554194193 10.57429395965033 0 0 0
332 111 1 0.5897 4.747085068833263 4.785343007117823 11.791211531276877 0 0 0
667 223 2 -1.1794 0.4268551993618218 6.199468112742159 15.562997469517127 0 0 0
679 227 2 -1.1794 1.073857013366178 2.178148933457039 15.369751235773286 0 0 0
340 114 2 -1.1794 3.7616352914331137 4.547300068067642 10.358429828905065 0 0 0
664 222 2 -1.1794 3.5769560990638776 4.645131681286052 17.76218927272855 0 0 0
671 224 1 0.5897 1.9922540563543785 1.728926120705611 19.243927182812783 0 0 0
858 286 1 0.5897 0.598249052431565 7.469824392838164 19.141159652343127 1 0 0
653 218 1 0.5897 2.9368802191356598 1.591492227326638 17.654969988234917 0 0 0
670 224 2 -1.1794 1.6063961191635323 1.0948516694052608 18.63959292836205 0 0 0
665 222 1 0.5897 2.6775789539148662 4.932146617739496 17.919774589880284 0 0 0
658 220 2 -1.1794 0.8389563351423568 4.3281932243426855 17.599639552127293 0 0 0
675 225 1 0.5897 2.4029315910244917 6.19243237248372 20.409734389776084 0 0 0
666 222 1 0.5897 3.513727400892896 3.6939232347292785 17.676084262636103 0 0 0
760 254 2 -1.1794 4.371376922544742 8.270206060823165 17.452041312172312 0 0 0
659 220 1 0.5897 0.31373347409052554 4.320750950292628 18.399758719898024 0 0 0
660 220 1 0.5897 0.5087379401477062 5.076673668005018 17.102765170003693 0 0 0
761 254 1 0.5897 4.388311908910737 9.227239952356463 17.455012764055553 0 0 0
1 1 2 -1.1794 2.4595025198775393 2.747676166991044 20.7344465415203 0 0 -1
2 1 1 0.5897 2.473180529405994 3.704224496136968 20.766098864185743 0 0 -1
652 218 2 -1.1794 3.759437837956595 1.7636597553685112 17.196912843818815 0 0 0
672 224 1 0.5897 0.6656924839884234 1.1434653329211586 18.809177755792916 0 0 0
681 227 1 0.5897 1.1668670649611235 2.8720327368237766 16.022468376534334 0 0 0
779 260 1 0.5897 2.4529642203396795 8.23731790137108 20.085516705256182 0 0 0
656 219 1 0.5897 4.740966611802161 4.526813462450262 19.2490606799173 0 0 0
780 260 1 0.5897 2.938367501472004 7.974060966351951 18.67604175189426 0 0 0
778 260 2 -1.1794 2.4203388541001427 7.588565987814627 19.38253381690722 0 0 0
654 218 1 0.5897 3.7939670559946834 1.099974080498271 16.508085243908056 0 0 0
788 263 1 0.5897 1.246473519051033 9.619514892854362 17.092105456428328 0 0 0
787 263 2 -1.1794 0.9618716637725371 8.87698749902023 16.559347720074086 0 0 0
789 263 1 0.5897 1.6481725477620748 8.77794325761488 15.899607438192438 0 0 0
662 221 1 0.5897 4.096474734836536 5.315826141200851 15.967334078838187 0 0 0
669 223 1 0.5897 0.7052335779952883 7.064731143533404 15.863011116307243 0 0 0
885 295 1 0.5897 0.6419118170740393 0.27530985931843477 15.901129485058759 0 1 0
663 221 1 0.5897 4.203273049927996 6.824962359690304 16.020693191322827 0 0 0
120 40 1 0.5897 0.8599530704262144 11.40872173653166 3.215456189592721 0 0 0
221 74 1 0.5897 3.6667842430328075 15.208207990408638 3.235317306399253 0 0 0
229 77 2 -1.1794 4.401191810824922 19.104153448010166 1.2952474166527463 0 0 0
220 74 2 -1.1794 3.5819307516847174 14.289877947075805 3.4915822847174143 0 0 0
783 261 1 0.5897 1.8878759066497461 12.569840809265168 0.47569667823201645 0 0 1
123 41 1 0.5897 4.135134965526281 12.135048708774633 2.0798258210390403 0 0 0
235 79 2 -1.1794 0.7482759623811396 18.789128298740472 1.703440613779897 0 0 0
232 78 2 -1.1794 4.115502508521701 17.226267253824332 3.221161307802257 0 0 0
118 40 2 -1.1794 1.0200990041775777 10.821641038153654 3.9542692627939724 0 0 0
228 76 1 0.5897 0.5169021372311954 17.119559531275637 4.346844814308806 0 0 0
222 74 1 0.5897 4.019759077625897 13.80421856758266 2.792616474856296 0 0 0
129 43 1 0.5897 0.9698522345452047 13.459488268171796 2.1268644362151328 0 0 0
124 42 2 -1.1794 3.8698730575028097 11.020302709926488 3.8756755885091767 0 0 0
890 297 1 0.5897 1.8117677483514836 18.711133684241595 -0.1174389545712473 0 0 1
126 42 1 0.5897 4.038358937143971 10.11060211114032 3.6303208230678976 0 0 0
240 80 1 0.5897 2.12036363945471 14.115651452333514 4.431367333036777 0 0 0
230 77 1 0.5897 3.9674076793966497 19.11652856708407 0.44216202074807265 0 0 0
127 43 2 -1.1794 0.7804169922012257 12.539018173584484 1.9451072015575535 0 0 0
233 78 1 0.5897 3.268340105618197 17.409475603565483 3.6271506826944657 0 0 0
227 76 1 0.5897 1.1141790033573211 17.761618617969468 3.1129069674583554 0 0 0
226 76 2 -1.1794 1.3218165065261571 17.16365422889527 3.830860805733817 0 0 0
249 83 1 0.5897 1.7606231203394396 15.733634481180868 1.290191137225525 0 0 0
119 40 1 0.5897 1.814472370032651 11.16338548411213 4.364493837277314 0 0 0
248 83 1 0.5897 1.2765019470622079 15.692451648014227 2.723906327313754 0 0 0
247 83 2 -1.1794 1.2732545679062446 15.190079945277311 1.9091948905277438 0 0 0
234 78 1 0.5897 4.152196050975913 17.814156849714465 2.4667132393806903 0 0 0
125 42 1 0.5897 4.635418930472302 11.275870556959054 4.3901365108082055 0 0 0
122 41 1 0.5897 4.247531304854848 12.651400286788713 0.6612537118469658 0 0 0
121 41 2 -1.1794 4.6386921645986385 12.735909753195378 1.5307091508977 0 0 0
128 43 1 0.5897 -0.09037947806663599 12.547125742667033 1.5479408612410903 0 0 0
219 73 1 0.5897 3.389592140160658 15.773637216681282 -0.12099497203086032 0 0 0
236 79 1 0.5897 1.0015649400373654 19.711749488431973 1.675145993627159 0 0 0
238 80 2 -1.1794 1.4192994576379294 13.945128073926432 5.0602772631789685 0 0 0
23 8 1 0.5897 1.917346051433146 19.623982452461117 4.763520086484457 0 -1 0
782 261 1 0.5897 2.5086282259006905 11.319992512722722 -0.11099768260544483 0 0 1
133 45 2 -1.1794 2.1977051108763583 11.452934726240617 6.565600520192194 0 0 0
134 45 1 0.5897 1.625038935194257 11.53017633981425 7.328616001924137 0 0 0
135 45 1 0.5897 3.0697126320810333 11.666294929463325 6.897469612732991 0 0 0
558 186 1 0.5897 4.093052115678098 17.980819947753805 9.404784864766244 0 0 0
448 150 2 -1.1794 4.04302812144402 10.514245072026862 10.056710379977922 0 0 0
573 191 1 0.5897 0.5719870112818235 14.118558552988864 9.43820006948518 0 0 0
541 181 2 -1.1794 2.1653879119751016 15.54164150942493 7.176360396779045 0 0 0
559 187 2 -1.1794 0.49863565894040507 18.977597400100798 8.582050721771433 0 0 0
239 80 1 0.5897 1.7427531154344413 13.2151603651688 5.588186824810756 0 0 0
451 151 2 -1.1794 0.7037910312207809 12.279465923697131 8.885824798570013 0 0 0
572 191 1 0.5897 0.8713135146923643 15.438246463563505 8.759512935370118 0 0 0
571 191 2 -1.1794 0.29737947024058325 15.035098119408723 9.410804226545046 0 0 0
446 149 1 0.5897 4.089906343679055 13.219857110878038 8.543576507361752 0 0 0
445 149 2 -1.1794 4.360695395427062 12.554587782753817 7.910925023877892 0 0 0
543 181 1 0.5897 1.8843115608306547 15.079767877984674 6.386551037973565 0 0 0
542 181 1 0.5897 2.240593493079511 16.45658929115287 6.905405788384774 0 0 0
453 151 1 0.5897 0.6877036804072798 11.654086775401405 9.610250457047444 0 0 0
243 81 1 0.5897 3.316100473701967 18.48007644698988 7.011364577201394 0 0 0
242 81 1 0.5897 1.8039432162975158 18.438074750096686 7.067361680948001 0 0 0
241 81 2 -1.1794 2.5503438095849678 18.146817086287836 6.543770153604947 0 0 0
561 187 1 0.5897 0.8185522078142543 18.35099777035392 9.231031909517093 0 0 0
576 192 1 0.5897 4.2562738549594075 15.59518264873796 7.37886772596465 0 0 0
450 150 1 0.5897 3.9824094980773097 11.23836230610213 9.433686862675298 0 0 0
553 185 2 -1.1794 4.5706078137241635 19.277464011869647 8.209282204438342 0 0 0
556 186 2 -1.1794 3.8483250053735576 17.33776991817276 10.070179291608222 0 0 0
557 186 1 0.5897 4.1052128929330545 16.495192906002146 9.695663473524924 0 0 0
544 182 2 -1.1794 3.723104333587127 14.55009573677175 9.855977410770794 0 0 0
457 153 2 -1.1794 2.7661175261164774 11.867678380073562 13.482372137186672 0 0 0
458 153 1 0.5897 1.9720339729685112 11.979559603518531 14.004855464456709 0 0 0
459 153 1 0.5897 3.481628886464302 11.94908349599443 14.112843643303298 0 0 0
563 188 1 0.5897 2.129859843034148 13.40000671649745 12.400830539755884 0 0 0
562 188 2 -1.1794 1.8656651020861692 14.172521676344491 11.901244028046797 0 0 0
866 289 1 0.5897 3.6304713644865525 15.650126268572258 14.533988359468035 0 0 0
566 189 1 0.5897 2.1203323295218626 17.35905580744773 13.657885120383467 0 0 0
449 150 1 0.5897 4.805987567276874 10.724205462067276 10.595147706656226 0 0 0
551 184 1 0.5897 2.063344773621456 17.479152230243447 10.756055733564773 0 0 0
444 148 1 0.5897 2.148947059791434 10.263283319758017 10.769280673605705 0 0 0
564 188 1 0.5897 1.9084577906256834 14.891914262610912 12.531163251857482 0 0 0
879 293 1 0.5897 3.7752241679006184 18.721449193358154 14.549579838888997 0 0 0
442 148 2 -1.1794 1.1935150226246334 10.316178446275416 10.789923049000079 0 0 0
865 289 2 -1.1794 2.7169933390068266 15.582223121834135 14.256473204167683 0 0 0
567 189 1 0.5897 1.434075812452258 18.396076028506965 14.521156949037945 0 0 0
565 189 2 -1.1794 1.9182041319824275 18.293607628312294 13.701883795381988 0 0 0
867 289 1 0.5897 2.2424858512879555 15.337071554946625 15.050741332158768 0 0 0
641 214 1 0.5897 0.18430982585451483 14.06598137265436 11.751999079785884 1 0 0
550 184 2 -1.1794 1.1150412838859185 17.352280687267665 10.729377287593572 0 0 0
769 257 2 -1.1794 4.760636163888948 12.531328646820059 15.189197791985452 0 0 0
545 182 1 0.5897 3.0230885367656537 14.421743908355149 10.49598614160923 0 0 0
348 116 1 0.5897 2.387212555451426 19.55595045919245 12.082061245018641 0 -1 0
512 171 1 0.5897 0.1349626893970985 10.90078825830383 12.044522712310304 1 0 0
758 253 1 0.5897 2.7491249882035036 10.148992532820344 14.131971443716475 0 0 0
546 182 1 0.5897 4.522977913532654 14.590360203606151 10.380071569258298 0 0 0
775 259 2 -1.1794 0.6309349615475014 12.332960294300591 15.197438954439304 0 0 0
877 293 2 -1.1794 4.293561323770862 18.846302650573346 15.344466426302697 0 0 0
548 183 1 0.5897 4.749924647666568 17.94403414203629 11.74668006278822 0 0 0
777 259 1 0.5897 0.9062509899812192 13.225097069269284 15.408212823315875 0 0 0
552 184 1 0.5897 1.001486698950108 16.458821724833633 10.40538296975519 0 0 0
888 296 1 0.5897 2.182791247415244 13.299179776652462 19.11135357851498 0 0 0
886 296 2 -1.1794 1.978871835371935 14.161253549029441 18.748848213494796 0 0 0
897 299 1 0.5897 0.47022187444925345 15.595113629860919 16.845034406318817 0 0 0
217 73 2 -1.1794 2.5151701464693286 16.075906115200134 20.702553229638248 0 0 -1
869 290 1 0.5897 3.4267581702223304 14.30330900843574 17.57851288139787 0 0 0
880 294 2 -1.1794 3.573035115088683 17.278486044885675 17.412039952029644 0 0 0
891 297 1 0.5897 2.2517475972153385 19.332431443233137 19.642862419228187 0 0 0
875 292 1 0.5897 0.6339302444350944 17.25691356695607 18.962420978561276 0 0 0
768 256 1 0.5897 1.3477332421652015 11.676702435702069 16.862688899264924 0 0 0
774 258 1 0.5897 4.513916973252458 11.462448776067264 16.806471998189814 0 0 0
766 256 2 -1.1794 1.5346892441013438 11.217533481675094 17.681442691171632 0 0 0
874 292 2 -1.1794 0.9565229996436091 17.04634210507519 18.086231554806645 0 0 0
771 257 1 0.5897 4.531513585184563 13.320185964809658 15.68049088302202 0 0 0
868 290 2 -1.1794 4.180500733282095 14.608454394234982 17.073687080294327 0 0 0
767 256 1 0.5897 0.6900811439370462 11.172161626970649 18.12940416798194 0 0 0
773 258 1 0.5897 3.4148913232935754 11.291087599108593 17.833283170522286 0 0 0
878 293 1 0.5897 3.8392032009832406 18.330710765325357 16.010694463158927 0 0 0
887 296 1 0.5897 2.0069442975542007 14.751146844330579 19.50210576870864 0 0 0
882 294 1 0.5897 3.9590135113808147 16.434981725254417 17.176028624937928 0 0 0
876 292 1 0.5897 0.7468496100394425 17.81876559049743 17.561282889163408 0 0 0
895 299 2 -1.1794 0.5159733775180141 15.041478962565623 16.065591267550317 0 0 0
881 294 1 0.5897 2.7363258256177088 17.054016907414564 17.81900568946567 0 0 0
772 258 2 -1.1794 4.342379609999181 11.11110474312688 17.680123201761653 0 0 0
889 297 2 -1.1794 2.555347560698073 18.764587974028032 20.351041886934716 0 0 0
965 322 1 0.5897 0.19745582747842327 13.9797601058704 19.127464527288332 1 0 0
883 295 2 -1.1794 0.26009151589165724 18.943776735764008 16.065187622547136 0 0 0
873 291 1 0.5897 4.84754125525508 17.589287970903182 18.651200265733912 0 0 0
218 73 1 0.5897 2.598286703267897 17.027585394735056 20.642459129234062 0 0 -1
781 261 2 -1.1794 2.507233633486244 12.273793655849243 20.877487391178512 0 0 0
6 2 1 0.5897 4.9994579858633506 1.2092775974685517 4.0955390198753525 0 0 0
68 23 1 0.5897 8.049908747051001 2.1672996789210743 1.1349731554429547 0 0 0
47 16 1 0.5897 7.701844716107718 3.1051777221110415 3.1844997390277223 0 0 0
711 237 1 0.5897 8.584526938567413 5.622955854169647 0.4947276854928947 0 0 1
48 16 1 0.5897 7.6445391144678965 4.0318401256229075 4.3802067105203735 0 0 0
46 16 2 -1.1794 8.147749714993576 3.8506737523648424 3.5864524472515926 0 0 0
67 23 2 -1.1794 7.330361621302807 1.8936514231865635 1.7037245202176388 0 0 0
69 23 1 0.5897 6.5392630689531 2.1506294949704894 1.2303099500453272 0 0 0
176 59 1 0.5897 7.902945983414295 7.7968324957515955 1.7445172498735795 0 0 0
175 59 2 -1.1794 7.8149471041116305 8.749950245734551 1.7500070261108225 0 0 0
56 19 1 0.5897 6.487682894372184 5.809186856976509 1.4670285833895007 0 0 0
55 19 2 -1.1794 7.4155126106671325 5.876747589405662 1.6920228853577142 0 0 0
177 59 1 0.5897 8.234214594124856 9.034340614266878 0.9379475738935663 0 0 0
34 12 2 -1.1794 5.313406193046482 2.492176685569569 0.03787410255623963 0 0 0
143 48 1 0.5897 5.8017498531450835 9.354946270694851 1.218029728612493 0 0 0
57 19 1 0.5897 7.494978195431236 5.411632626649474 2.5247636650862115 0 0 0
142 48 2 -1.1794 5.1543525636866105 9.273387110168336 0.5177963067857042 0 0 0
138 46 1 0.5897 6.825184061793416 7.740976805850937 4.998058992559625 0 0 0
53 18 1 0.5897 9.92600719686329 4.344313227225963 3.5953911722702165 0 0 0
166 56 2 -1.1794 8.623387123761335 7.945734409285318 4.957815029632136 0 0 0
9 3 1 0.5897 5.427516615084384 4.597055903669878 4.712332345509088 0 0 0
58 20 2 -1.1794 9.089274992976364 1.296384727233946 4.988442582395077 0 0 0
29 10 1 0.5897 7.192756124115701 1.1720811073566888 4.916196834086648 0 0 0
144 48 1 0.5897 5.492136910934207 8.573537105763075 -0.0410257392964449 0 0 0
136 46 2 -1.1794 5.90175474810343 7.502681069147498 5.079217838219715 0 0 0
466 156 2 -1.1794 5.247386031315086 9.380101756960038 6.8174682261598525 0 0 0
392 131 1 0.5897 7.857644862381507 2.799475761656463 8.270469145848738 0 0 0
393 131 1 0.5897 7.654524130701802 1.6553912506303965 9.240802524214425 0 0 0
358 120 2 -1.1794 5.294618717347373 2.779539026243858 7.14316696601442 0 0 0
501 167 1 0.5897 6.567881572379863 9.012651275886844 7.823069004333615 0 0 0
381 127 1 0.5897 7.433749164376248 5.37983495827884 9.026156845684183 0 0 0
499 167 2 -1.1794 7.120920460363986 8.618783128344196 8.497713113978483 0 0 0
469 157 2 -1.1794 9.196358014930908 9.524883845252491 6.958172070568898 0 0 0
371 124 1 0.5897 7.458747469874375 3.8182033049396424 10.04359186436989 0 0 0
391 131 2 -1.1794 7.305928540881663 2.5132241625653684 8.998331673318358 0 0 0
61 21 2 -1.1794 9.173790335789052 5.805088659938948 6.156530905092417 0 0 0
500 167 1 0.5897 7.039019062773978 9.206749569168368 9.248542440796031 0 0 0
359 120 1 0.5897 5.511226444684961 2.121725120481949 6.482463795708764 0 0 0
338 113 1 0.5897 5.4106308272662496 5.862181505744909 7.836996858195688 0 0 0
62 21 1 0.5897 8.401500263864047 5.850523091942388 6.720092418064782 0 0 0
467 156 1 0.5897 5.515549781774941 8.718393293575271 6.179976931808089 0 0 0
8 3 1 0.5897 5.920782289384219 4.20861654926724 6.089795405565491 0 0 0
470 157 1 0.5897 8.550158772210736 9.12515057876012 7.540202662783113 0 0 0
379 127 2 -1.1794 7.267544564492958 5.793559584843368 8.179203154589377 0 0 0
361 121 2 -1.1794 9.366131375635016 3.1957119233685174 6.9802864509482525 0 0 0
380 127 1 0.5897 7.215737002515079 6.728999893069794 8.375021310124795 0 0 0
362 121 1 0.5897 9.371072131167622 4.069827382122558 6.590301274227771 0 0 0
360 120 1 0.5897 5.901166790691763 2.6056170343682155 7.862828816742914 0 0 0
168 56 1 0.5897 8.650521087230773 8.692382866099589 5.556080309902541 0 0 0
59 20 1 0.5897 9.218904702750605 1.9273655529674556 5.696414228601963 0 0 0
63 21 1 0.5897 9.911068108184546 5.960029374845635 6.746865080732847 0 0 0
60 20 1 0.5897 9.259016501465217 0.445022143187133 5.391631888442231 0 0 0
137 46 1 0.5897 5.908572761122636 6.553020048171692 5.198838003960065 0 0 0
28 10 2 -1.1794 6.295073123041794 1.0220831013365361 5.212440747421758 0 0 0
167 56 1 0.5897 8.84552940368611 7.192003512513965 5.50434175043433 0 0 0
7 3 2 -1.1794 6.149138912109416 4.737281658558188 5.32525768818164 0 0 0
377 126 1 0.5897 9.424615654128123 4.337126728686493 10.180619175746344 0 0 0
385 129 2 -1.1794 8.456863611373905 5.012712674125423 14.011079108007175 0 0 0
462 154 1 0.5897 5.412453824584979 7.64238833788134 11.252104658554718 0 0 0
460 154 2 -1.1794 6.228464477413665 7.530990741653835 11.739746552796621 0 0 0
372 124 1 0.5897 6.856630576786103 4.768840006628297 11.056235431618761 0 0 0
790 264 2 -1.1794 5.721088434619207 9.232233656434573 13.907596165356217 0 0 0
331 111 2 -1.1794 5.561232128711791 4.961112397203336 12.262772548565705 0 0 0
686 229 1 0.5897 8.485431475253842 2.0524265026486535 14.839418093170721 0 0 0
793 265 2 -1.1794 9.147524065455542 9.13343057679851 14.14279737419632 0 0 0
383 128 1 0.5897 8.737309032396533 1.1292031092221815 12.555748997497934 0 0 0
685 229 2 -1.1794 8.920708074756769 2.183953312842494 13.997192466733583 0 0 0
684 228 1 0.5897 5.432121469964833 3.7443410618263533 13.668921516734478 0 0 0
353 118 1 0.5897 6.738351325327129 1.29003217969326 11.78435893568287 0 0 0
330 110 1 0.5897 5.143424689814676 1.8575078059803052 10.42689827623334 0 0 0
352 118 2 -1.1794 5.838482780848651 1.2311204406917744 12.10499050685295 0 0 0
461 154 1 0.5897 6.165575848216758 8.158911381971674 12.459396749191402 0 0 0
791 264 1 0.5897 6.176186253949293 9.072347562632466 14.734272062539693 0 0 0
387 129 1 0.5897 8.544748458222054 5.426381522778323 13.152440411605347 0 0 0
384 128 1 0.5897 9.329081859163454 0.9608809057587526 11.172602940262443 0 0 0
386 129 1 0.5897 8.560277330649315 4.0769304086407665 13.838386390080135 0 0 0
333 111 1 0.5897 5.755680616885128 5.878743925392878 12.07212224492198 0 0 0
794 265 1 0.5897 8.853352683815974 8.504542557910698 13.483953719723642 0 0 0
490 164 2 -1.1794 8.883869294412591 7.083627693602845 12.366073750975211 0 0 0
370 124 2 -1.1794 7.648151032409969 4.613809621741833 10.540907997881247 0 0 0
492 164 1 0.5897 8.020668915926302 7.173040122118776 11.962360120762343 0 0 0
382 128 2 -1.1794 8.529063317836663 0.8128847240681678 11.676728334199751 0 0 0
491 164 1 0.5897 9.499704098252085 7.300941217211838 11.666333348070065 0 0 0
354 118 1 0.5897 5.842944984477236 1.725399999634897 12.924630581877013 0 0 0
705 235 1 0.5897 7.636224196391652 5.673220106124677 15.552578767763515 0 0 0
717 239 1 0.5897 6.500348647941684 2.399257548821721 15.417765189624811 0 0 0
682 228 2 -1.1794 5.331328512293986 2.951893482728232 14.196196923116313 0 0 0
687 229 1 0.5897 9.836484672169766 2.3463360945352756 14.223143799655906 0 0 0
795 265 1 0.5897 8.97850963008887 9.989634597091051 13.74967821035007 0 0 0
657 219 1 0.5897 6.251800925355786 4.573944739293441 19.167704621337712 0 0 0
706 236 2 -1.1794 8.797180799392196 1.2418103400609004 18.481909101215017 0 0 0
823 275 2 -1.1794 7.233690846498823 8.75471545186142 16.253317698624556 0 0 0
815 272 1 0.5897 9.333782287253745 6.506562601740216 19.597543201076604 0 0 0
677 226 1 0.5897 5.347521980602128 1.4472421944483813 17.943145038258173 0 0 0
786 262 1 0.5897 7.2778471356117285 7.329346952839537 19.166087454720632 0 0 0
785 262 1 0.5897 6.015161755201779 6.6452609279678505 19.64484244450459 0 0 0
710 237 1 0.5897 9.132350481573823 4.401370490359706 20.85684684522581 0 0 0
36 12 1 0.5897 5.527505602671841 3.345204726419225 20.728865658039176 0 0 -1
702 234 1 0.5897 9.536921529612389 4.277799903661892 17.699279369024453 0 0 0
695 232 1 0.5897 7.604209882491675 3.513111456285944 17.42997067496441 0 0 0
694 232 2 -1.1794 7.906016686303783 4.132491006419739 18.094376237672165 0 0 0
696 232 1 0.5897 7.643275843161456 4.990045137485926 17.760074022099218 0 0 0
38 13 1 0.5897 9.244343224175244 2.3014955777177843 19.90417685710556 0 0 -1
708 236 1 0.5897 7.862204523857425 1.339094047927603 18.301796047451177 0 0 0
825 275 1 0.5897 7.024163417968978 7.875738703546757 16.569054036741363 0 0 0
784 262 2 -1.1794 6.33870457994048 7.470908805307132 19.284552912368362 0 0 0
655 219 2 -1.1794 5.5154284221805625 4.828742248375695 19.723527036605766 0 0 0
816 272 1 0.5897 9.36011557891071 8.016536284487795 19.703053267418483 0 0 0
678 226 1 0.5897 5.875683566834009 0.2955380981659172 18.771617274183598 0 0 0
715 239 2 -1.1794 7.147380249239246 2.2151526943852184 16.09861895937766 0 0 0
814 272 2 -1.1794 9.230276270366279 7.303596889221936 19.07772790400894 0 0 0
676 226 2 -1.1794 5.943834721022697 1.2441883941104799 18.66376458614225 0 0 0
35 12 1 0.5897 5.394369585131544 1.8790285797541357 20.376102267349673 0 0 -1
703 235 2 -1.1794 7.167633117109392 5.980480172216564 16.328549268928533 0 0 0
762 254 1 0.5897 5.132009090910131 8.01509683378692 17.974007994397233 0 0 0
707 236 1 0.5897 8.842555908085249 0.5626878054204034 19.154874905475317 0 0 0
704 235 1 0.5897 6.244609617193996 5.9568786609839215 16.076464233922884 0 0 0
716 239 1 0.5897 7.12794694693106 1.263240021109918 16.197077584580747 0 0 0
145 49 2 -1.1794 9.38743724285734 9.539638146418039 20.70879387807581 0 0 -1
709 237 2 -1.1794 9.178255051915945 5.357436824481211 20.861278717915347 0 0 0
37 13 2 -1.1794 9.358663356044636 2.654503532265542 20.786473698629933 0 0 -1
824 275 1 0.5897 7.978728718016333 8.627466076489364 15.666151310185413 0 0 0
285 95 1 0.5897 7.62073622536898 14.509379706648867 1.731036657694804 0 0 0
250 84 2 -1.1794 5.314950137575611 15.732463234981143 0.1293948091251314 0 0 0
271 91 2 -1.1794 7.146717793777862 18.632281205849118 1.658896012953797 0 0 0
154 52 2 -1.1794 8.079999876165788 10.808509863561472 3.6828453019656733 0 0 0
927 309 1 0.5897 8.003985669390868 18.715145441218354 -0.06007561694073739 0 0 1
165 55 1 0.5897 7.562254983553575 12.420496923123096 2.834819850302024 0 0 0
163 55 2 -1.1794 7.280610616793573 12.89289148251469 2.051453637171973 0 0 0
164 55 1 0.5897 6.406108001651867 12.550728205324372 1.8663628535984307 0 0 0
262 88 2 -1.1794 7.807193152005606 16.89218996338696 3.6865432963211036 0 0 0
224 75 1 0.5897 5.315833867480293 17.584297694192667 4.6057432576365835 0 0 0
245 82 1 0.5897 5.099090740476629 14.320474133905929 4.329878260159559 0 0 0
156 52 1 0.5897 9.036040751304256 10.780839344094101 3.71865219729033 0 0 0
263 88 1 0.5897 7.132555740082128 17.083396696841177 4.337998215309283 0 0 0