LAMMPS data file via write_data, version 30 Jul 2021, timestep = 40250000

864 atoms
2 atom types
576 bonds
1 bond types
288 angles
1 angle types

0.045537697215563 18.162034702768743 xlo xhi
0.26691501057656275 23.362262789438994 ylo yhi
0.20069918110042906 22.01249661889208 zlo zhi

Masses

1 1.00794
2 15.9994

Atoms # full

707 1 1 0.5897 2.901951388608013 2.03017309192873 4.140935921626275 0 0 0
706 1 2 -1.1794 2.9607079361001003 1.9076735094017396 3.193487660685682 0 0 0
30 1 1 0.5897 5.18646414223423 4.02852694192005 2.3748177202872047 0 0 0
708 1 1 0.5897 2.2707442048873814 2.466596968173206 2.836023127059085 0 0 0
29 1 1 0.5897 4.477311871348827 2.7007967238325055 2.5368361934970074 0 0 0
28 1 2 -1.1794 5.247448484222725 3.103619746275539 2.1358098327719346 0 0 0
3 1 1 0.5897 0.6922101035770887 4.246831292552652 2.3329516176114833 0 0 0
668 1 1 0.5897 5.162488035521259 3.289707518132606 0.2234008705939402 0 0 0
495 1 1 0.5897 8.23527583410746 2.4988524913113688 2.981669308121392 0 0 0
494 1 1 0.5897 6.721694996906244 2.473677603730822 2.9663140787569895 0 0 0
493 1 2 -1.1794 7.481413129451146 2.0631346342525125 3.3792152427086988 0 0 0
1 1 2 -1.1794 0.8431011747691376 3.308547288201684 2.2182181759007147 0 0 0
846 1 1 0.5897 7.5047923974622215 1.9446332613444317 5.211583516399199 0 0 0
597 1 1 0.5897 0.6619747693227372 5.808812100533842 3.8928521543860226 0 0 0
137 1 1 0.5897 5.163021613392333 5.796761871206198 3.9218880444188096 0 0 0
136 1 2 -1.1794 5.1793929332777795 5.724466509284218 2.9676248233282068 0 0 0
20 1 1 0.5897 0.6244473379359626 3.1936025829607235 0.4465188459040661 0 0 0
595 1 2 -1.1794 0.6539411444191561 5.943835869334788 2.9453202798016864 0 0 0
819 1 1 0.5897 7.277524497441187 0.4501745467920711 2.4958027555162703 0 0 0
2 1 1 0.5897 0.04786149204375789 2.8947622233459427 2.553745408696198 0 0 0
83 1 1 0.5897 4.518444252367975 2.9681599428750616 6.544431268582328 0 0 0
183 1 1 0.5897 0.6792421765293293 4.863393663100324 6.070519024620863 0 0 0
82 1 2 -1.1794 5.246281519498685 3.4453596826905684 6.942855249219767 0 0 0
785 1 1 0.5897 0.6950779778538145 3.2446468642897535 7.7117081777576635 0 0 0
674 1 1 0.5897 3.765202937635356 2.4436872121199795 10.220463591937612 0 0 0
356 1 1 0.5897 7.510088448241867 1.2351957741282464 9.909559535351116 0 0 0
676 1 2 -1.1794 5.128953413435918 5.948908757689924 10.44805120016067 0 0 0
845 1 1 0.5897 7.450057314942513 1.0480090857303455 6.4301198725618 0 0 0
844 1 2 -1.1794 7.49810759253862 1.9675193182716604 6.168420600952126 0 0 0
673 1 2 -1.1794 2.95585069343392 2.006228128103249 10.484640100835374 0 0 0
34 1 2 -1.1794 0.749586155250197 3.356970675398586 9.425707334974637 0 0 0
274 1 2 -1.1794 5.155651552763217 3.327253360875453 9.696552759257507 0 0 0
678 1 1 0.5897 5.1909573993249145 5.045773589924393 10.136939546102486 0 0 0
35 1 1 0.5897 0.7947612012736629 4.273940840386938 9.696664266012197 0 0 0
36 1 1 0.5897 1.531633459541003 2.955855907919699 9.804796163996375 0 0 0
355 1 2 -1.1794 7.586558276602262 2.137077014768049 10.221087105391153 0 0 0
419 1 1 0.5897 8.987288421790844 2.861062855732517 6.6172253976985544 0 0 0
84 1 1 0.5897 6.023613478230141 2.940428684075593 6.704069415148604 0 0 0
276 1 1 0.5897 5.949489956770246 2.8329865189106105 9.900855225491494 0 0 0
675 1 1 0.5897 3.029707134585085 1.1242172637797059 10.120108458477485 0 0 0
275 1 1 0.5897 5.13080033105941 3.3567388365914503 8.740194513929833 0 0 0
686 1 1 0.5897 5.309339595630152 4.987281194154374 6.091768684447111 0 0 0
784 1 2 -1.1794 0.726820035316937 3.212682411638269 6.755634942767472 0 0 0
489 1 1 0.5897 3.0490152775410486 1.183084328270182 6.194277451906319 0 0 0
488 1 1 0.5897 2.2993406423016896 2.4983694844279456 6.189029915458349 0 0 0
176 1 1 0.5897 9.084082983900641 3.04562327924482 9.79847428995369 0 0 0
685 1 2 -1.1794 5.2885684496384355 5.857941152637633 5.694535191573413 0 0 0
181 1 2 -1.1794 0.7166522471866847 5.757364304858877 5.730363303987319 0 0 0
112 1 2 -1.1794 0.7156007184701154 5.909802162549883 10.150382830390887 0 0 0
487 1 2 -1.1794 3.0871654346192567 2.074778648973644 5.848288973794362 0 0 0
166 1 2 -1.1794 2.949479989572692 1.8097103449461196 13.22532390225523 0 0 0
167 1 1 0.5897 3.0204443628159567 1.8304251374973597 12.271048334868054 0 0 0
457 1 2 -1.1794 5.3321126728585595 3.0076055871994054 13.981846986403406 0 0 0
458 1 1 0.5897 6.082656348848889 2.596376314549205 13.553162152612373 0 0 0
459 1 1 0.5897 4.568912420467638 2.6150954563497484 13.557990465149455 0 0 0
762 1 1 0.5897 5.360453283940005 4.831076940404717 13.375468903335753 0 0 0
594 1 1 0.5897 8.278989199493907 2.2959760822339548 13.301552469157585 0 0 0
168 1 1 0.5897 2.2176834255966336 2.3937684157702543 13.424272425220195 0 0 0
468 1 1 0.5897 0.6435116076551916 3.2815173295833513 14.676617516295021 0 0 0
466 1 2 -1.1794 0.6882148130488722 3.31733252083916 13.721198497463638 0 0 0
593 1 1 0.5897 7.607668780043305 0.9395002075346791 13.265013635217226 0 0 0
592 1 2 -1.1794 7.558631662631168 1.81875458019202 12.88978904233383 0 0 0
365 1 1 0.5897 0.7683991940405785 4.995448524793092 13.140110049266132 0 0 0
71 1 1 0.5897 5.27939074941601 3.0494890652839763 15.740438401859832 0 0 0
113 1 1 0.5897 0.6925673932538309 5.933645084058991 11.10694270853002 0 0 0
761 1 1 0.5897 5.2405021766779605 5.8309871796773205 12.24516203151495 0 0 0
760 1 2 -1.1794 5.318719106796692 5.770637970311305 13.197186437021509 0 0 0
364 1 2 -1.1794 0.759403313367924 5.899429673640859 12.825424594774805 0 0 0
133 1 2 -1.1794 0.8575793419234317 3.3358006474816433 16.437570049189123 0 0 0
357 1 1 0.5897 7.616545836766442 2.059817965575218 11.174627209305939 0 0 0
754 1 2 -1.1794 7.693238401253421 2.2748896082418364 17.566816728005847 0 0 0
21 1 1 0.5897 0.5245623367403596 4.094867240752655 21.04608579902222 0 0 0
277 1 2 -1.1794 5.200757251654808 5.964784119916972 17.56438493150208 0 0 0
755 1 1 0.5897 7.6322170109066 2.264371359070992 18.521946139304934 0 0 0
290 1 1 0.5897 2.8839733897642055 1.1901580444737978 17.39775324014395 0 0 0
42 1 1 0.5897 7.4646078002455 1.1342932591686086 20.614635543656718 0 0 0
289 1 2 -1.1794 2.9044535577218817 2.1006474046413217 17.69252143434382 0 0 0
41 1 1 0.5897 6.659484870656016 2.4160646855959755 20.585517293097567 0 0 0
143 1 1 0.5897 5.344788567268893 5.0451706447836955 20.508309475959848 0 0 0
569 1 1 0.5897 2.0971203966669987 2.434286746685947 20.645974259647254 0 0 0
291 1 1 0.5897 2.1463616624554454 2.5062561933061778 17.271823147564433 0 0 0
570 1 1 0.5897 2.884381847279047 2.006773397123961 19.425671271231778 0 0 0
40 1 2 -1.1794 7.48767252616665 2.035586641998405 20.293025732349935 0 0 0
571 1 2 -1.1794 0.7556730931932004 5.804854034214641 17.692296001860225 0 0 0
667 1 2 -1.1794 5.165424272152728 3.3119649015423023 21.078327587236636 0 0 0
134 1 1 0.5897 0.8371029104456358 4.188471438879248 16.8720892247633 0 0 0
568 1 2 -1.1794 2.883957762094122 1.9576389811554706 20.381543250763393 0 0 0
756 1 1 0.5897 6.856917271530635 2.6392142099804943 17.27692966217789 0 0 0
669 1 1 0.5897 4.362796078351665 2.8559629447483292 20.825222947788056 0 0 0
278 1 1 0.5897 5.215878191045893 5.063649770937422 17.241868706658465 0 0 0
19 1 2 -1.1794 0.5451615802735229 3.1734574939092273 21.304683641043958 0 0 0
648 1 1 0.5897 0.5945048422672627 5.8200565343865485 19.569122151113334 0 0 0
72 1 1 0.5897 4.437896406028674 2.8221545928798673 16.978122506902228 0 0 0
646 1 2 -1.1794 0.5881171560122445 5.834068572782828 20.526133968848505 0 0 0
70 1 2 -1.1794 5.228905071996383 3.2654514584430903 16.67152810715318 0 0 0
144 1 1 0.5897 5.382252000500636 5.964731604443286 19.3063241734594 0 0 0
142 1 2 -1.1794 5.3980062440074565 5.968989902228987 20.263319330235767 0 0 0
323 1 1 0.5897 7.667744162525204 0.4433240322507689 17.20004111449128 0 1 0
135 1 1 0.5897 0.1762273794903919 2.8263909083382592 16.876279204033196 0 0 0
360 1 1 0.5897 8.970318106384992 2.651557886283484 20.920237581129044 0 0 0
253 1 2 -1.1794 2.9964849244894767 7.0897146743393336 2.099680492046282 0 0 0
123 1 1 0.5897 3.01012378736083 8.776771251468647 2.664132134602177 0 0 0
121 1 2 -1.1794 2.90431791868862 9.66444255768911 3.0063709816717354 0 0 0
122 1 1 0.5897 2.7673830506177484 9.54455655117479 3.9460442612670326 0 0 0
44 1 1 0.5897 1.3571890960617479 10.389848240878747 2.5572612240653516 0 0 0
218 1 1 0.5897 5.928094495089207 10.638129840211933 2.6173699156120596 0 0 0
255 1 1 0.5897 2.147925120304658 6.7683291850701055 2.4044035469435787 0 0 0
219 1 1 0.5897 4.415396487511382 10.663076054459466 2.671330027693055 0 0 0
43 1 2 -1.1794 0.5114970657848035 10.77042185613801 2.320232366522641 0 0 0
415 1 2 -1.1794 7.342432062267267 7.171552868855573 2.238491576292414 0 0 0
417 1 1 0.5897 8.114175263563576 6.644213943398483 2.44477727622967 0 0 0
254 1 1 0.5897 2.9367047227834164 7.056993397496475 1.1449755517197044 0 0 0
217 1 2 -1.1794 5.16643748607571 11.111408630153177 2.2825665284168624 0 0 0
66 1 1 0.5897 7.168211164497221 9.712266708465853 4.066155665442334 0 0 0
65 1 1 0.5897 7.360264940479664 8.86944696373314 2.8233670854777912 0 0 0
64 1 2 -1.1794 7.321484058193907 9.777538497520913 3.1236236404089897 0 0 0
416 1 1 0.5897 6.604308202993513 6.6505226005184515 2.5545860687147663 0 0 0
162 1 1 0.5897 7.469576102926221 7.1743575183307895 0.4108958289565075 0 0 1
773 1 1 0.5897 8.825379252111516 10.601237751927368 2.547653693177368 0 0 0
363 1 1 0.5897 5.091004966686326 11.053746297069043 0.46640984768257243 0 0 1
396 1 1 0.5897 0.7510319173783058 10.73682571250976 0.4444200485020642 0 0 0
138 1 1 0.5897 4.443297703425229 6.2611117247035475 2.673658349787269 0 0 0
45 1 1 0.5897 0.6012540576677547 11.701170487429694 2.5250627242091888 0 0 0
256 1 2 -1.1794 2.982147350244522 9.76627350070906 10.47370243361719 0 0 0
12 1 1 0.5897 2.844337403843306 7.883147852354664 6.440186399908866 0 0 0
10 1 2 -1.1794 2.9323406172463233 6.965571655431786 6.6982619537555 0 0 0
794 1 1 0.5897 1.8324575307452273 10.009711607457964 6.087860868321869 0 0 0
526 1 2 -1.1794 7.429955730899328 7.076752259762862 9.515816732065208 0 0 0
577 1 2 -1.1794 4.918783057246921 10.826951263604386 6.687285186757152 0 0 0
145 1 2 -1.1794 7.502862103215261 7.084887587190141 6.772319210040124 0 0 0
551 1 1 0.5897 0.5183477127685456 10.968896201047428 7.585740474427502 0 0 0
713 1 1 0.5897 8.126821578746542 10.22115214704931 6.102051037023025 0 0 0
580 1 2 -1.1794 5.20260259208169 11.019428427943058 9.453554179807231 0 0 0
650 1 1 0.5897 2.945778785697335 7.221792776467067 8.489937483325068 0 0 0
822 1 1 0.5897 8.35403721290485 10.18963689643762 9.98144897612178 0 0 0
527 1 1 0.5897 7.5135814493061295 7.99997470582491 9.754485443239421 0 0 0
15 1 1 0.5897 1.5836630017026638 10.591517082541666 9.714431508484621 0 0 0
582 1 1 0.5897 5.125782326812873 10.943633984991477 8.502511383656026 0 0 0
820 1 2 -1.1794 7.548879922959402 9.74249993977142 10.242218177651804 0 0 0
581 1 1 0.5897 6.058374486457628 10.641470234000167 9.656054770484472 0 0 0
147 1 1 0.5897 7.400185674382425 7.061488967402509 7.723645105328736 0 0 0
649 1 2 -1.1794 2.979445563886802 7.285378032499147 9.444367782532769 0 0 0
528 1 1 0.5897 8.227707560435668 6.668631740742805 9.852313336974941 0 0 0
13 1 2 -1.1794 0.819569319684204 11.03932339078913 9.351341762689495 0 0 0
258 1 1 0.5897 3.7393086994474984 10.22036617178419 10.10395907013307 0 0 0
714 1 1 0.5897 7.435117190647687 8.879559325921692 6.219116768999752 0 0 0
257 1 1 0.5897 3.045594831761855 8.874972692715591 10.130426136794993 0 0 0
146 1 1 0.5897 6.709738209556497 6.668467203754647 6.4350471506754925 0 0 0
578 1 1 0.5897 5.673701203918784 10.377235810306 6.307727448246139 0 0 0
550 1 2 -1.1794 0.4721218957031292 10.889145449110206 6.633049191846982 0 0 0
114 1 1 0.5897 1.5258472071831506 6.363594210746164 9.918468721588308 0 0 0
651 1 1 0.5897 3.700217310715224 6.708846905545144 9.6979943374575 0 0 0
11 1 1 0.5897 2.1323710956857016 6.548490315820413 6.37842792440179 0 0 0
795 1 1 0.5897 3.3437380174024174 10.092939391362131 6.117872781739516 0 0 0
165 1 1 0.5897 9.032392123133121 6.310411491347173 6.169041833661324 0 0 0
677 1 1 0.5897 5.95805213281012 6.350007896127446 10.187423550311332 0 0 0
793 1 2 -1.1794 2.6212324759919308 9.568766708269552 5.772252422240555 0 0 0
687 1 1 0.5897 4.478025859588268 6.250448023714797 6.018816919284318 0 0 0
712 1 2 -1.1794 7.320225683477024 9.762343081672952 5.867294248903064 0 0 0
579 1 1 0.5897 5.0452277250044 11.746750548104718 6.454309796514705 0 0 0
552 1 1 0.5897 0.47897651823785 11.792336204887354 6.316046023312403 0 0 0
826 1 2 -1.1794 7.505841007640906 7.175843500734495 13.996980791383262 0 0 0
827 1 1 0.5897 6.703006995586891 6.692823943159146 13.801102371548637 0 0 0
332 1 1 0.5897 3.1285827664351964 7.940580489612113 13.576035027588405 0 0 0
797 1 1 0.5897 3.0910023597384937 9.729372721162246 12.287949927358769 0 0 0
796 1 2 -1.1794 3.130797320464278 9.74224470379475 13.244171608336671 0 0 0
798 1 1 0.5897 2.3061663189636326 10.146961717117396 13.513236050582316 0 0 0
722 1 1 0.5897 4.553430551492524 10.640383661976317 13.705865086761941 0 0 0
261 1 1 0.5897 0.7103284092349885 10.909857836496064 15.011154845560426 0 0 0
723 1 1 0.5897 5.42066919126389 11.006615391884377 14.891389573061424 0 0 0
828 1 1 0.5897 7.555178849003366 7.181737577458493 14.952824371597494 0 0 0
259 1 2 -1.1794 0.7723764423235537 10.89109999017259 14.056217336788404 0 0 0
331 1 2 -1.1794 2.971904314097941 7.0409333504087295 13.86305193033952 0 0 0
225 1 1 0.5897 2.989430035592535 7.131173515601019 15.678076227251015 0 0 0
721 1 2 -1.1794 5.353183095336388 11.110202418310365 13.942270173982726 0 0 0
475 1 2 -1.1794 7.584514147496606 9.76836472500787 12.959387782596725 0 0 0
476 1 1 0.5897 6.827421728990118 10.216781123201688 13.336133800783232 0 0 0
477 1 1 0.5897 7.528010979477996 8.875206032362176 13.299030738961727 0 0 0
333 1 1 0.5897 3.775383372533973 6.573052377852321 13.635629297629787 0 0 0
366 1 1 0.5897 1.5696336117793928 6.279747738501299 13.164663887847983 0 0 0
821 1 1 0.5897 7.560381684326334 9.766108787764745 11.198991598755567 0 0 0
851 1 1 0.5897 9.060207470829244 6.243491493806146 13.427826533135839 0 0 0
520 1 2 -1.1794 7.66396303225175 7.138854240953144 16.782915691496765 0 0 0
141 1 1 0.5897 7.423360288301102 8.890939592626003 20.783644734142054 0 0 0
361 1 2 -1.1794 5.10767806783963 10.984684349417034 21.323712546242717 0 0 0
9 1 1 0.5897 6.919040842515831 10.163207697123351 17.494965144075685 0 0 0
4 1 2 -1.1794 3.013366286540159 6.977096133280598 21.165644960725587 0 0 0
627 1 1 0.5897 2.2864093328668242 10.204823105004984 17.14541577657447 0 0 0
394 1 2 -1.1794 0.7767104580313426 10.875445540497042 21.309519424427293 0 0 0
223 1 2 -1.1794 2.9502266988906882 7.160729514188256 16.633950036664597 0 0 0
140 1 1 0.5897 6.722670030669617 10.232816110881881 20.804268916683508 0 0 0
161 1 1 0.5897 6.757495031308292 6.833684201511052 20.93097328606583 0 0 0
690 1 1 0.5897 2.2007720072753525 10.066815051322445 20.592673127825915 0 0 0
625 1 2 -1.1794 3.0638737619813288 9.726487855613266 17.433437418548216 0 0 0
688 1 2 -1.1794 2.951272266974875 9.600656938119782 20.224360162094566 0 0 0
572 1 1 0.5897 1.4973443996156621 6.277430386178545 17.31440622189848 0 0 0
224 1 1 0.5897 2.891043296153551 8.092983471397924 16.842990041578098 0 0 0
689 1 1 0.5897 3.713386809608452 10.016160707280715 20.627774640365573 0 0 0
647 1 1 0.5897 1.4199655590877354 6.2425284460649095 20.765706298426412 0 0 0
626 1 1 0.5897 3.019829846767947 9.75027332075287 18.389261808438086 0 0 0
139 1 2 -1.1794 7.533654186974544 9.806544546461264 20.527134001669864 0 0 0
6 1 1 0.5897 2.990591964292355 7.853553015797442 20.78148163432979 0 0 0
521 1 1 0.5897 6.83656129134089 6.750420083229321 17.067049262906124 0 0 0
8 1 1 0.5897 7.706894935841005 9.769177514750401 18.726101233507297 0 0 0
7 1 2 -1.1794 7.702128917546738 9.68782284245658 17.77244151691681 0 0 0
160 1 2 -1.1794 7.568215338839598 7.211908412042127 21.271395989257996 0 0 0
5 1 1 0.5897 3.835897315192928 6.599670477576521 20.853881499363695 0 0 0
522 1 1 0.5897 7.646399953017066 8.027579221563734 17.13808304565455 0 0 0
445 1 2 -1.1794 0.7165611129127205 10.97028005891509 16.78199794857933 0 0 0
680 1 1 0.5897 4.694226091526414 10.51533149551575 16.903039896464268 0 0 0
279 1 1 0.5897 4.408111844008745 6.342760591662964 17.183538292799437 0 0 0
462 1 1 0.5897 8.98660930919912 6.18447365781079 20.814213353589622 0 0 0
287 1 1 0.5897 8.988053042831448 10.624606798380706 21.083693947672852 0 0 0
679 1 2 -1.1794 5.498718745334085 10.9555017443825 16.628721927798306 0 0 0
246 1 1 0.5897 9.056701834436613 10.526956358107812 17.032387481833812 0 0 0
200 1 1 0.5897 5.065792557298522 13.570398376784263 5.09398879826055 0 0 0
173 1 1 0.5897 4.406098790580326 14.04806551713266 2.9594940605704965 0 0 0
172 1 2 -1.1794 5.165980511274258 13.61640753683813 3.3499461282571255 0 0 0
374 1 1 0.5897 0.6984966186867848 13.414113338007004 3.9949910722186535 0 0 0
558 1 1 0.5897 2.9256142408004426 14.949167499893859 1.4508916425175324 0 0 0
556 1 2 -1.1794 2.901755384386943 14.959951777728865 2.4076678093075667 0 0 0
557 1 1 0.5897 2.168299206428074 14.388816196474522 2.6358730462773305 0 0 0
478 1 2 -1.1794 7.377324364046357 14.864841857405322 2.218815280599707 0 0 0
174 1 1 0.5897 5.155005390081045 12.7325358882962 2.9826198956960446 0 0 0
293 1 1 0.5897 2.867926076215323 16.63680235158811 2.9016021158639282 0 0 0
479 1 1 0.5897 8.115915239164721 14.429653094425587 2.644601298223983 0 0 0
449 1 1 0.5897 7.435827443918196 16.59989325655659 2.8189775898949967 0 0 0
480 1 1 0.5897 6.603280992229134 14.43615673495182 2.583901418171413 0 0 0
373 1 2 -1.1794 0.743670737811633 13.367737236059455 3.0400454740069085 0 0 0
448 1 2 -1.1794 7.433278861309876 17.49530698375024 3.15738620482758 0 0 0
292 1 2 -1.1794 2.922590529344661 17.57195351672886 3.0986189824746493 0 0 0
308 1 1 0.5897 7.229429698217675 17.3783102942624 4.8574753566971705 0 0 0
317 1 1 0.5897 7.4560284215590755 14.808978246167117 0.45344750680642476 0 0 0
384 1 1 0.5897 3.032006556897942 16.65157507850016 10.088800212411552 0 0 0
656 1 1 0.5897 1.5015181451668012 13.927972287041287 6.140895753915643 0 0 0
454 1 2 -1.1794 5.397047741354492 13.613137406903352 10.36185452187327 0 0 0
184 1 2 -1.1794 7.405927375106521 17.393100378989033 10.548070494736004 0 0 0
811 1 2 -1.1794 3.1305983893613205 14.937997034604665 9.54795741727925 0 0 0
456 1 1 0.5897 5.310696691131724 12.727697139055019 10.008558177555331 0 0 0
813 1 1 0.5897 2.388421974810286 14.459008571860892 9.916675082016031 0 0 0
17 1 1 0.5897 2.948999358697946 14.92918913796308 7.806431285387682 0 0 0
766 1 2 -1.1794 0.80282843488672 13.553078724501598 10.404282823544825 0 0 0
239 1 1 0.5897 2.8705554662178088 16.522454440800203 6.228479172853701 0 0 0
377 1 1 0.5897 6.89156375530346 14.415777499753249 9.758096462007192 0 0 0
238 1 2 -1.1794 2.905878122370696 17.4223627873506 5.9041245860393605 0 0 0
519 1 1 0.5897 8.251714225895801 14.34508552465739 6.385916788398706 0 0 0
812 1 1 0.5897 3.9015400681124963 14.471471252687197 9.870772859845296 0 0 0
18 1 1 0.5897 3.571909716385339 14.35061375536928 6.553865350389858 0 0 0
376 1 2 -1.1794 7.70090215569084 14.834378970708991 9.464927585101586 0 0 0
16 1 2 -1.1794 2.818376878555788 14.854550007403802 6.861193268551667 0 0 0
517 1 2 -1.1794 7.418770426464289 14.639955381649234 6.753948965054626 0 0 0
186 1 1 0.5897 7.442752341857264 16.504713624860692 10.193523258958956 0 0 0
378 1 1 0.5897 7.679532030901012 14.756431685287334 8.511210920512353 0 0 0
518 1 1 0.5897 7.298230059193244 15.520950436820497 6.399545588064148 0 0 0
201 1 1 0.5897 5.893866387668415 13.891660983271628 6.319858300301195 0 0 0
199 1 2 -1.1794 5.049742783190299 13.52985677574063 6.050132834124113 0 0 0
382 1 2 -1.1794 2.9401028127500934 17.534999329952356 10.44573679435811 0 0 0
307 1 2 -1.1794 7.125962555919057 17.287520471360722 5.804662482353337 0 0 0
14 1 1 0.5897 0.8886886918665369 11.936055373738922 9.679028219339148 0 0 0
655 1 2 -1.1794 0.7337744762787943 13.5082765153206 5.7527897087509645 0 0 0
296 1 1 0.5897 7.510231557827828 14.764759345243041 14.865876570263753 0 0 0
232 1 2 -1.1794 2.76540676433144 14.917264007064022 13.920155758505393 0 0 0
234 1 1 0.5897 2.85184466529087 14.892392912394303 14.873057580507353 0 0 0
606 1 1 0.5897 2.861735698434685 16.690991097121085 13.424013326280297 0 0 0
427 1 2 -1.1794 5.084527272230886 13.672512589246827 13.057726587132038 0 0 0
233 1 1 0.5897 3.531110987689681 14.442225139680486 13.597278006516346 0 0 0
639 1 1 0.5897 1.2924544923695085 13.977536164689987 13.54621655846877 0 0 0
429 1 1 0.5897 5.862413503965966 14.144642928661073 13.354703747539368 0 0 0
428 1 1 0.5897 5.206174296403912 12.780619276105487 13.383320754864982 0 0 0
637 1 2 -1.1794 0.49867012251496756 13.520283026457768 13.268654899395408 0 0 0
638 1 1 0.5897 0.6063340549527584 12.629108806461057 13.601068998534613 0 0 0
295 1 2 -1.1794 7.435254093825922 14.855887476213871 13.91604271469438 0 0 0
270 1 1 0.5897 7.501541050935711 16.538595262817836 13.392863271065073 0 0 0
297 1 1 0.5897 8.192627920831775 14.384393293095364 13.56922044833138 0 0 0
269 1 1 0.5897 7.564233721436439 17.538516514004314 12.257950010024693 0 0 0
605 1 1 0.5897 2.8868580505579398 17.580644319709407 12.199401278142208 0 0 0
767 1 1 0.5897 0.6541476463728042 13.523841592617371 11.349347933819434 0 0 0
455 1 1 0.5897 5.260449013512362 13.51008356441453 11.303577825890322 0 0 0
268 1 2 -1.1794 7.514169239982007 17.478483138116147 13.211886941989363 0 0 0
824 1 1 0.5897 3.7143839530062124 14.299380486489714 16.982662611349244 0 0 0
664 1 2 -1.1794 3.053995837428824 14.963084064745495 21.514955724104542 0 0 0
50 1 1 0.5897 7.458842937401283 15.683002981184805 16.986965039275578 0 0 0
159 1 1 0.5897 7.422637497139933 17.28382490181761 19.29848098090983 0 0 0
51 1 1 0.5897 8.204276233788928 14.365360141898261 16.973967623512404 0 0 0
452 1 1 0.5897 0.917818915014438 12.649537613880604 20.818534549839253 0 0 0
125 1 1 0.5897 5.234651115443391 13.611630132083109 18.48812736243538 0 0 0
124 1 2 -1.1794 5.237615337201709 13.489416221510385 17.53882568377294 0 0 0
684 1 1 0.5897 4.543905022071449 14.146427543729283 20.72992999933878 0 0 0
157 1 2 -1.1794 7.351284594443393 17.284952743635614 20.252951176344087 0 0 0
666 1 1 0.5897 2.9983435145277855 15.767650627755788 20.999364259604764 0 0 0
316 1 2 -1.1794 7.507688400346111 14.77290931142192 21.310185380847194 0 0 0
52 1 2 -1.1794 0.7116039348525396 13.46586655472083 17.73435083518988 0 0 0
318 1 1 0.5897 7.419809521103534 15.684152175856841 21.030535998361483 0 0 0
665 1 1 0.5897 2.3316610484157927 14.422566122030554 21.195122483514158 0 0 0
584 1 1 0.5897 2.909134847794387 16.490117723658905 17.096170005515464 0 0 0
683 1 1 0.5897 6.04729454381217 14.036383554225406 20.590294992764488 0 0 0
126 1 1 0.5897 6.0120372752420606 13.964856838938672 17.23809798205956 0 0 0
682 1 2 -1.1794 5.229937809104645 13.610258021128809 20.33231998938643 0 0 0
583 1 2 -1.1794 2.8694784196252665 17.422450480739435 17.30943948168021 0 0 0
53 1 1 0.5897 0.7396723426936825 13.464388917358303 18.69107187508768 0 0 0
451 1 2 -1.1794 0.8978000546929296 13.539386843884353 20.46631479337686 0 0 0
825 1 1 0.5897 2.2031054819194438 14.253333232878385 17.058246038796764 0 0 0
716 1 1 0.5897 2.8422993232781195 17.384483476592415 19.17753723831539 0 0 0
715 1 2 -1.1794 2.8547115285874365 17.26588418607883 20.12721771978156 0 0 0
610 1 2 -1.1794 7.604201004259076 17.309577906956733 17.589545300900564 0 0 0
49 1 2 -1.1794 7.415608268508926 14.792195983749878 16.63927899524772 0 0 0
117 1 1 0.5897 8.97686605249801 14.032370319502288 20.668279576653926 0 0 0
823 1 2 -1.1794 2.9285287740038313 14.780431962528949 16.723362301889317 0 0 0
453 1 1 0.5897 0.0904515897373841 13.917390281551071 20.814893082507574 0 0 0
446 1 1 0.5897 0.6674992657583239 11.871484537776201 17.10091993211073 0 0 0
681 1 1 0.5897 5.416760260557829 11.8437266162255 16.976027510462917 0 0 0
362 1 1 0.5897 5.1065383717572645 11.891603161530696 21.01745509802673 0 0 0
267 1 1 0.5897 5.890970927021167 21.61946064479948 2.7754012880991237 0 0 0
696 1 1 0.5897 1.3603348828878998 21.542467900878677 2.796988193693452 0 0 0
266 1 1 0.5897 4.388574617351031 21.635173230631473 2.9607235566625016 0 0 0
265 1 2 -1.1794 5.17426637528529 21.138443204351034 3.189117344634428 0 0 0
344 1 1 0.5897 1.4195956032608692 18.19542369463654 2.2386393797245105 0 0 0
228 1 1 0.5897 5.196343773832308 19.536203369928394 2.4191072626052152 0 0 0
343 1 2 -1.1794 0.6107784745542584 18.611473305736837 1.9404437332054567 0 0 0
817 1 2 -1.1794 7.255236932912803 22.65056234017584 2.15693004566766 0 0 0
249 1 1 0.5897 5.126491678630664 21.04532489118761 4.93594780543482 0 0 0
226 1 2 -1.1794 5.160805046665236 18.653622789002213 2.050233601597103 0 0 0
187 1 2 -1.1794 2.9194235279025733 22.409388870621164 2.3403194946592114 0 0 0
695 1 1 0.5897 0.6144554917140208 20.225822840157512 2.7507643830212447 0 0 0
694 1 2 -1.1794 0.5753243506219893 21.105220115595785 3.1268129820355863 0 0 0
818 1 1 0.5897 8.063930836753592 22.25196908141644 2.4784045108275263 0 0 0
450 1 1 0.5897 6.667711121045295 17.902807720394748 2.752354209408294 0 0 0
189 1 1 0.5897 2.924203285363789 22.46370610126062 1.384740010032638 0 0 0
413 1 1 0.5897 0.5776069966810569 21.108364020728715 4.899538778945017 0 0 0
227 1 1 0.5897 4.389391376828007 18.255722005950965 2.4537058770199427 0 0 0
345 1 1 0.5897 0.6846439373792413 18.62320901345452 0.9862359837874197 0 0 0
498 1 1 0.5897 7.4010174721223905 22.551986163674535 0.39006858969921177 0 0 0
321 1 1 0.5897 8.933329634773598 18.29257746184338 2.456037349720203 0 0 0
188 1 1 0.5897 2.981394920818369 23.318775894662075 2.6326706868072263 0 0 0
294 1 1 0.5897 2.946494197208049 17.614792976828234 4.054495937444436 0 0 0
602 1 1 0.5897 5.056095749242621 18.553431298524828 0.23772962685050214 0 0 0
555 1 1 0.5897 5.135111328484933 20.53789212608072 10.112510846055578 0 0 0
342 1 1 0.5897 0.5723314783583138 18.593340357557437 7.686258614863479 0 0 0
87 1 1 0.5897 8.121229180947447 22.02685252776557 9.823410853455783 0 0 0
37 1 2 -1.1794 2.9436034069241215 22.57973481484421 9.354049878511091 0 0 0
86 1 1 0.5897 7.426799980423199 22.449779241822156 8.546473855568342 0 0 0
248 1 1 0.5897 4.28584142833715 21.561053628394582 6.084446708609235 0 0 0
32 1 1 0.5897 8.092071660002933 21.845196464454098 6.310433387354595 0 0 0
404 1 1 0.5897 1.3439183165954594 18.13051075758775 9.84635810187129 0 0 0
39 1 1 0.5897 3.679593349282233 22.093158334910243 9.725231893161252 0 0 0
553 1 2 -1.1794 5.154626436634695 21.427317279655526 10.465834064874336 0 0 0
701 1 1 0.5897 2.9209475974494614 22.5596413427943 7.622736730562905 0 0 0
414 1 1 0.5897 0.547754107957725 20.354156210842447 6.211784364742752 0 0 0
387 1 1 0.5897 5.019839401305026 19.382020870272683 6.677442040981276 0 0 0
102 1 1 0.5897 5.142411160035124 18.666255607452165 8.745480725073563 0 0 0
700 1 2 -1.1794 2.928908829324852 22.569704315674137 6.665689016429287 0 0 0
385 1 2 -1.1794 5.050107513601114 18.493710065907408 7.032783585576916 0 0 0
702 1 1 0.5897 2.1275939125678676 22.110507887151492 6.414204591095504 0 0 0
38 1 1 0.5897 2.1671901964776374 22.111695680760477 9.661189110316007 0 0 0
101 1 1 0.5897 5.966907802422291 18.371056017376524 9.980277877356603 0 0 0
341 1 1 0.5897 1.3931021100309837 18.195292584148895 6.47813036245288 0 0 0
33 1 1 0.5897 6.592274171190149 22.0068684412488 6.437973558159822 0 0 0
383 1 1 0.5897 3.769110996630109 17.965614204950228 10.237096075550543 0 0 0
85 1 2 -1.1794 7.391561614614937 22.553602845145065 9.497317582681193 0 0 0
554 1 1 0.5897 5.908299099600827 21.837582238843652 10.041742236610686 0 0 0
340 1 2 -1.1794 0.6080339373511884 18.679619678944434 6.733688124420084 0 0 0
386 1 1 0.5897 5.817251095344064 18.096359580512036 6.620708611041359 0 0 0
31 1 2 -1.1794 7.421797931969173 22.396144156043874 6.714668059591426 0 0 0
100 1 2 -1.1794 5.1799327033415725 18.830671791255234 9.687643844581462 0 0 0
240 1 1 0.5897 3.663613030675789 17.80679692929263 6.344854760536664 0 0 0
403 1 2 -1.1794 0.5211950646305419 18.484729356901198 9.508926821527536 0 0 0
94 1 2 -1.1794 0.6624098596657496 21.267497103852286 10.120565627193729 0 0 0
405 1 1 0.5897 0.5713656668865457 19.423178065692966 9.690869654852216 0 0 0
412 1 2 -1.1794 0.5532291403406072 21.239283107007232 5.847365482373699 0 0 0
247 1 2 -1.1794 5.059184405571181 21.03134345449937 5.890614323852497 0 0 0
185 1 1 0.5897 8.17114979943492 17.831805407197436 10.176346534653645 0 0 0
309 1 1 0.5897 7.918979548950876 17.678596200155567 6.171254572118182 0 0 0
96 1 1 0.5897 0.6086107009728653 21.323502756828944 11.07454965231686 0 0 0
380 1 1 0.5897 0.4295123203329153 20.365768838832736 13.22014260022848 0 0 0
88 1 2 -1.1794 5.348763154182241 21.316677183120746 13.216967460637381 0 0 0
381 1 1 0.5897 1.3561622301016087 21.56208467511491 13.266355496749307 0 0 0
90 1 1 0.5897 5.275751751638739 20.379714785558214 13.398828739966373 0 0 0
763 1 2 -1.1794 5.207288155508415 18.742236745224673 13.885214836258248 0 0 0
738 1 1 0.5897 3.7272358795048377 21.953807112274305 13.754553104275569 0 0 0
89 1 1 0.5897 5.259986454897765 21.38423146893662 12.26635457874047 0 0 0
764 1 1 0.5897 4.450898677497211 18.29143763526541 13.509895247482909 0 0 0
474 1 1 0.5897 5.318133128748093 18.784276787323627 15.707615181238532 0 0 0
765 1 1 0.5897 5.963616371241727 18.25595540217354 13.557015031887317 0 0 0
350 1 1 0.5897 2.9065799458279127 22.381902521518818 15.840234216033684 0 0 0
736 1 2 -1.1794 2.8500957989783164 22.261550229188472 13.982852468252823 0 0 0
787 1 2 -1.1794 7.718954926644972 22.43239706988819 14.088983547224359 0 0 0
503 1 1 0.5897 1.3215348339834279 18.348314531946833 13.612286267094532 0 0 0
504 1 1 0.5897 0.33393166228999716 18.701826574443942 14.703792665373243 0 0 0