LAMMPS (30 Jul 2021)
Processor partition = 0
  using 4 OpenMP thread(s) per MPI task
using multi-threaded neighbor list subroutines
variable        pid world 0 1
variable        phase world IceIh Liquid

shell cd ${phase}
shell cd IceIh
include Restart.lmp
echo both
log log.lammps
#include		in.partitions
include		in.temp
variable        temperature equal 277.93
variable	tempDamp equal 100.0
include		in.pressure
variable        pressure equal -1500.0
variable        pressureDamp equal 1000.0 # This is 1 ps
include		in.seed
variable        seed equal 745823

units		real
atom_style	full
#include		in.box
read_restart	restart.lmp.${pid}
read_restart	restart.lmp.0
Reading restart file ...
  restart file = 30 Jul 2021, LAMMPS = 30 Jul 2021
  restoring atom style full from restart
  orthogonal box = (0.075018050 -0.23325697 -0.031839534) to (18.132554 23.862435 22.245035)
  2 by 4 by 2 MPI processor grid
  restoring pair style lj/cut/tip4p/long/omp from restart
  restoring bond style harmonic/omp from restart
  restoring angle style harmonic/omp from restart
  864 atoms
  576 bonds
  288 angles
Finding 1-2 1-3 1-4 neighbors ...
  special bond factors lj:    0        0        0       
  special bond factors coul:  0        0        0       
     2 = max # of 1-2 neighbors
     1 = max # of 1-3 neighbors
     1 = max # of 1-4 neighbors
     2 = max # of special neighbors
  special bonds CPU = 0.001 seconds
  read_restart CPU = 0.005 seconds
include 	in.setup
variable	out_freq equal 1000
variable	out_freq2 equal 10000
variable	out_freq3 equal 1000

timestep	2.0

neigh_modify    delay 7 every 1

include		in.tip4p
# This is TIP4P/Ice

# create groups ###
group ox type 2
288 atoms in group ox
group hy type 1
576 atoms in group hy

# set charges - beside manually ###
set group ox charge -1.1794
Setting atom values ...
  288 settings made for charge
set group hy charge 0.5897
Setting atom values ...
  576 settings made for charge

# ### TIP3P Potential Parameters ###
pair_style lj/cut/tip4p/long/omp 2 1 1 1 0.1577 8.5
pair_coeff 1 1*2 0.000 0.000
pair_coeff 2 2 0.21084 3.1668
bond_style  harmonic
bond_coeff  1 450 0.9572
angle_style harmonic
angle_coeff 1 55 104.52
kspace_style pppm/tip4p/omp 1.0e-5
pair_modify tail yes

thermo          ${out_freq}
thermo          1000
thermo_style    custom step temp pe etotal epair emol press lx ly lz vol pxx pyy pzz pxy pxz pyz enthalpy

restart 	${out_freq3} restart.lmp.${pid} restart2.lmp.${pid}
restart 	1000 restart.lmp.${pid} restart2.lmp.${pid}
restart 	1000 restart.lmp.0 restart2.lmp.${pid}
restart 	1000 restart.lmp.0 restart2.lmp.0


include         in.dump
dump            myDump all atom ${out_freq2} dump.water.${pid}
dump            myDump all atom 10000 dump.water.${pid}
dump            myDump all atom 10000 dump.water.0
dump            myDump2 all dcd ${out_freq2} dump.dcd
dump            myDump2 all dcd 10000 dump.dcd
dump_modify     myDump append yes
dump_modify     myDump2 append yes


variable natoms 	equal  "count(all)"                        # NUMBER ATOMS
variable H      	equal  "enthalpy/v_natoms"                 # ENTHALPY-per-atom
variable Vol      	equal  "vol/v_natoms"                 # volume-per-atom
fix AVG all 		ave/time ${out_freq} 1 ${out_freq} v_Vol v_H file vol_enthalpy.dat
fix AVG all 		ave/time 1000 1 ${out_freq} v_Vol v_H file vol_enthalpy.dat
fix AVG all 		ave/time 1000 1 1000 v_Vol v_H file vol_enthalpy.dat


timer           timeout 23:50:00 every 1000
New timer settings: style=normal  mode=nosync  timeout=23:50:00

fix 		1 all shake 1e-6 200 0 b 1 a 1
Finding SHAKE clusters ...
       0 = # of size 2 clusters
       0 = # of size 3 clusters
       0 = # of size 4 clusters
     288 = # of frozen angles
  find clusters CPU = 0.000 seconds
fix             2 all nph aniso ${pressure} ${pressure} ${pressureDamp}
fix             2 all nph aniso -1500 ${pressure} ${pressureDamp}
fix             2 all nph aniso -1500 -1500 ${pressureDamp}
fix             2 all nph aniso -1500 -1500 1000
fix             3 all temp/csvr ${temperature} ${temperature} ${tempDamp} ${seed}
fix             3 all temp/csvr 277.93 ${temperature} ${tempDamp} ${seed}
fix             3 all temp/csvr 277.93 277.93 ${tempDamp} ${seed}
fix             3 all temp/csvr 277.93 277.93 100 ${seed}
fix             3 all temp/csvr 277.93 277.93 100 745823


run             250000
PPPM initialization ...
  extracting TIP4P info from pair style
  using 12-bit tables for long-range coulomb (../kspace.cpp:340)
  G vector (1/distance) = 0.37032125
  grid = 24 27 25
  stencil order = 5
  estimated absolute RMS force accuracy = 0.0033280805
  estimated relative force accuracy = 1.0022416e-05
  using double precision FFTW3
  3d grid and FFT values/proc = 6300 1296
Last active /omp style is kspace_style pppm/tip4p/omp
Neighbor list info ...
  update every 1 steps, delay 7 steps, check yes
  max neighbors/atom: 2000, page size: 100000
  master list distance cutoff = 10.8154
  ghost atom cutoff = 10.8154
  binsize = 5.4077, bins = 4 5 5
  1 neighbor lists, perpetual/occasional/extra = 1 0 0
  (1) pair lj/cut/tip4p/long/omp, perpetual
      attributes: half, newton on, omp
      pair build: half/bin/newton/omp
      stencil: half/bin/3d
      bin: standard
Setting up Verlet run ...
  Unit style    : real
  Current step  : 6000000
  Time step     : 2
  Walltime left : 23:49:59.96
Per MPI rank memory allocation (min/avg/max) = 12.24 | 12.28 | 12.30 Mbytes
Step Temp PotEng TotEng E_pair E_mol Press Lx Ly Lz Volume Pxx Pyy Pzz Pxy Pxz Pyz Enthalpy 
 6000000    286.17424    -4142.748   -3652.2551    -4142.748            0   -1332.0759    18.057536    24.095692    22.276875    9692.8649   -108.03315   -3102.0559   -786.13877    -90.31375   -216.56295    356.32145    -3840.558 
 6001000    279.73759   -4170.9263   -3691.4656   -4170.9263            0   -1142.3666     18.19362    23.773081    22.335182    9660.3772   -557.86343     -2007.29   -861.94641   -838.45965   -229.18068    441.79565   -3852.4099 
 6002000    289.47903   -4190.4739   -3694.3168   -4190.4739            0   -1099.3744    18.421383    23.551266    22.196977    9630.0891   -2535.2785   -1395.4201    632.57539    79.102425    297.77651    837.09647   -3848.7184 
 6003000       281.67   -4181.2617    -3698.489   -4181.2617            0   -2894.2853    18.422125     23.62301    22.395728    9746.3083   -3316.0634   -2841.1834    -2525.609   -215.99127    556.79581    66.997967   -4109.8824 
 6004000    249.60613   -4172.3354   -3744.5191   -4172.3354            0   -2187.0542    18.034224    23.851415     22.37691    9625.2433   -2618.1876   -763.31694   -3179.6579   -301.66828   -634.25704    185.76459   -4051.5253 
 6005000    288.30684   -4177.5317   -3683.3836   -4177.5317            0   -1583.7987    18.147101    23.935938    22.100259    9599.6428   -1133.9397   -3297.5955   -319.86087   -12.587881   -109.78201    214.50108   -3905.1169 
 6006000    293.29462   -4178.1003   -3675.4033   -4178.1003            0   -1541.2069    18.331304    23.565109    22.343824    9652.0666   -316.97365   -1908.3683   -2398.2789    1428.7012    113.71339    463.73756   -3892.3521 
 6007000    275.43791    -4164.288   -3692.1968    -4164.288            0   -2326.1237    18.436076    23.653858    22.296647    9723.2182   -1700.0319    -1710.084   -3568.2552    -39.49678   -171.40263    542.40938   -4022.0485 
 6008000    288.45858   -4175.7143   -3681.3061   -4175.7143            0   -1952.5673    18.176196    23.703566    22.566954    9722.7617   -1517.0763   -2090.1436   -2250.4821    51.147026   -65.535449    435.48899   -3958.1734 
 6009000    277.20771   -4136.5876   -3661.4631   -4136.5876            0    -1225.833     18.28842    23.783657    22.311315    9704.6526   -1402.0145   -1812.5912   -462.89341    651.97018    383.78708   -547.42198   -3834.9582 
 6010000    285.64764   -4174.5399   -3684.9496   -4174.5399            0   -665.15217    18.255226    23.751288    22.119588    9590.7243    367.11091   -2297.7413   -64.826172   -646.56908    282.90646    264.94847    -3777.985 
 6011000    276.35044   -4175.8618   -3702.2066   -4175.8618            0   -346.32199    18.209276    23.564719    22.317925    9576.5432    55.664002   -625.19383   -469.43614    -445.6982   -225.22855   -193.77756   -3750.5753 
 6012000    295.24102   -4153.4305   -3647.3975   -4153.4305            0   -1147.2422    18.352565    23.576704    22.245715    9625.5649   -1809.0174   -740.91612    -891.7931    1360.5021    65.658857    -392.4899   -3808.4462 
 6013000    275.83866   -4136.2042   -3663.4262   -4136.2042            0   -1470.9626    18.079084    23.710063    22.526135    9655.9681   -1014.8273   -1013.9824   -2384.0782   -592.72288    45.745855    48.910167   -3870.5707 
 6014000    277.45831   -4193.8088   -3718.2547   -4193.8088            0   -1236.3508    18.242284    23.734604    22.281394    9647.2508   -514.38875   -1656.7164   -1537.9474   -815.44024     794.6896   -543.23651   -3892.2034 
 6015000    275.28736   -4165.0057   -3693.1726   -4165.0057            0   -2023.7063    18.360618    23.881021    22.105026    9692.3975   -1819.1787    -2637.417   -1614.5233   -247.75438    450.03731    98.577716    -3979.231 
 6016000    288.18716   -4186.7884   -3692.8455   -4186.7884            0   -1577.0671    18.202905    23.580227    22.504079    9659.3952   -2435.9734   -1354.0851   -941.14277    1072.6512    51.219433   -131.30539   -3915.0107 
 6017000    279.42447   -4164.3079   -3685.3839   -4164.3079            0   -1281.5313    18.414975     23.91441    21.992798    9685.2602   -1625.9494   -2265.9933    47.348921    287.57526   -481.32415    169.55866   -3866.3997 
 6018000    267.52317   -4183.0204   -3724.4948   -4183.0204            0   -1437.0346    18.161911    23.690909    22.515036    9687.5937   -2058.4777   -374.61473   -1878.0114    651.49097   -836.39938    108.30462   -3927.5243 
 6019000     289.4278   -4184.9154    -3688.846   -4184.9154            0   -1087.5447    18.314731      23.7214    22.166508    9630.2628    -1174.826    -2806.376    718.56795    -282.1545   -434.17386    94.994968    -3841.589 
 6020000    271.78356   -4182.4333   -3716.6056   -4182.4333            0   -1152.8616    18.305116    23.730378     22.10446    9601.8974   -1901.9426   -886.20256   -670.43956    94.174519   -261.61434    885.75348   -3878.0452 
 6021000    277.05708   -4192.9484   -3718.0821   -4192.9484            0   -233.87551    18.091227    23.532016    22.523107    9588.6055   -174.08837    152.89588   -680.43404    343.70807    142.68601   -1003.1118   -3750.7872 
 6022000    292.78511   -4181.0589   -3679.2353   -4181.0589            0   -1149.1093    18.306629    23.928306    21.946261    9613.4855    -1787.874   -2450.1118    790.65787   -1557.5337      29.7161    353.02378   -3840.3437 
 6023000     266.3821   -4181.6743   -3725.1045   -4181.6743            0   -1062.5708    18.179012    23.585757    22.410888    9609.0216   -297.70371   -644.10759   -2245.9011    79.033051   -539.67129   -849.19447   -3874.0107 
 6024000    308.15351   -4163.7435    -3635.579   -4163.7435            0     -832.479     18.34795    23.576916    22.225565    9614.5145   -245.28678   -426.83108   -1825.3191    23.492259   -674.29818    353.76991   -3752.3074 
 6025000    280.60536   -4163.9337   -3682.9857   -4163.9337            0   -1037.2637    18.283601    23.707217    22.259397    9648.4094   -655.17343   -777.10662    -1679.511     404.4027    -1629.138    200.02846   -3828.9413 
 6026000    293.57081   -4168.1629   -3664.9926   -4168.1629            0   -914.39282    18.140075    23.685742    22.436594    9640.1327   -498.18296   -1277.2263   -967.76917    -728.0228   -9.9368616    313.36007   -3793.5484 
 6027000    284.09211    -4161.453   -3674.5288    -4161.453            0   -1527.2448    18.146972    24.069628    22.143053    9671.8831   -778.99491   -846.29601   -2956.4436   -292.64686   -327.13488   -20.186617   -3889.9536 
 6028000    292.48052   -4214.2853   -3712.9837   -4214.2853            0   -1470.1212    18.212223    23.684766    22.445542    9681.9348   -2241.2266   -1508.9747   -660.16216   -185.19035   -311.03511    366.11967   -3920.5664 
 6029000    268.45468   -4189.5997   -3729.4776   -4189.5997            0    -400.3501    18.233492    23.517888     22.31821    9570.3438   -1992.3541    1664.8634   -873.55963   -468.75445    740.80671    614.35478   -3785.3559 
 6030000    283.10543   -4156.0363   -3670.8033   -4156.0363            0   -1148.3571    18.358844    23.716655    22.188839    9661.2507    -1043.847   -2868.7263    467.50203    298.31206    37.222094    261.07358   -3832.6062 
 6031000    285.40568   -4152.5616    -3663.386   -4152.5616            0   -1781.0273    18.303758    23.772489    22.467487     9776.185   -1535.4929   -479.67242   -3327.9168    133.12438    506.21281   -56.145046   -3917.3171 
 6032000    265.63784   -4124.2512    -3668.957   -4124.2512            0    -3188.492    18.347746    23.931695    22.327396    9803.7956   -3730.1264   -3327.0681   -2508.2815    1097.9136    520.19034   -141.81813   -4124.8422 
 6033000    287.98938   -4178.2219    -3684.618   -4178.2219            0   -2676.0815    18.288196    23.794304    22.367714    9733.4205   -2454.9581   -3823.0695   -1750.2167   -1203.0906    113.64985   -591.20407    -4064.493 
 6034000    267.75535    -4188.726   -3729.8025    -4188.726            0   -1054.0531    18.215632    23.481061    22.295285    9536.1923   -654.98493   -51.478838   -2455.6954    911.26203    666.09218    154.77329   -3876.3955 
 6035000    270.72004   -4208.1667   -3744.1618   -4208.1667            0   -672.67191    18.290307    23.696671    22.154918    9602.3712   -1726.7654   -1132.9232    841.67283   -370.51397   -135.34216   -287.48184   -3838.3632 
 6036000    264.96732   -4179.9177   -3725.7728   -4179.9177            0    -228.2288    17.948355     23.60139    22.497419    9530.0445   -85.805572    141.41718   -740.29801    466.67424   -569.07175     152.2849   -3757.4934 
 6037000    271.22777   -4158.3515   -3693.4764   -4158.3515            0   -1181.9674    18.419763    23.784158     22.17606    9715.2996   -1243.7433   -1823.2701   -478.88866   -681.84285    1290.2665   -561.15366   -3860.9466 
 6038000    278.19464   -4172.4425   -3695.6264   -4172.4425            0    -2093.548    18.341551     23.61909    22.344238    9679.7642   -3285.0021   -1496.7157   -1498.9262    566.46074   -934.49713    287.61007   -3991.1714 
 6039000    284.11325    -4184.015   -3697.0546    -4184.015            0   -1999.0286     18.27185    23.857222    22.330697    9734.2986    -1943.717   -2363.9941   -1689.3748   -922.60783    217.91609   -55.439415   -3980.8462 
 6040000    276.27466   -4174.0944   -3700.5691   -4174.0944            0   -2440.7166    18.377443    23.634598     22.39479    9727.0309   -3100.4507   -1359.4671   -2862.2321    432.82547   -1117.9202   -539.72334   -4046.8061 
 6041000    283.93839   -4179.4013   -3692.7406   -4179.4013            0    -2241.157    18.450806    23.446028    22.501979    9734.3136   -4277.8361   -120.04025   -2325.5947    1129.8815    -43.80524    301.33183   -4010.9064 
 6042000     276.8072   -4180.1059   -3705.6678   -4180.1059            0   -1126.1438     18.23287     23.84093    22.126652    9618.2032    633.34042   -2002.8584   -2008.9135   -923.32911    655.72944   -353.86267   -3863.6339 
 6043000    283.44413   -4168.1273   -3682.3138   -4168.1273            0   -1945.5958    18.111824    23.794621    22.345374    9630.0514    -1486.783   -1422.3897   -2927.6147   -618.54914   -595.43423    10.718736   -3955.5619 
 6044000    286.79878   -4180.9738   -3689.4105   -4180.9738            0    -487.0445    18.157848    23.628562    22.294781    9565.4384    209.67323   -439.51274    -1231.294   -563.15464    665.71262    84.784736   -3757.3542 
 6045000     261.4729   -4202.1719   -3754.0163   -4202.1719            0   -785.07817    18.342795    23.569564    22.129188    9567.1486   -1257.0101   -92.523818   -1005.7006   -717.02142   -3.6944918    442.39254   -3863.5559 
 6046000    288.41836   -4171.1551   -3676.8159   -4171.1551            0   -1058.1808    18.389038    23.373622    22.409596    9632.0572   -1653.3434   -469.41054   -1051.7884    512.84761   -87.222631    1013.2517   -3825.4624 
 6047000    260.52522   -4158.1045   -3711.5732   -4158.1045            0   -2459.0243    18.142502    23.773206    22.437299    9677.3289   -1771.9236   -2570.9705   -3034.1786   -439.10653    167.67762    93.954953   -4058.6249 
 6048000    271.67464   -4157.2333   -3691.5923   -4157.2333            0   -999.04846    18.288783    23.947829    22.110071    9683.6949   -273.39179   -2301.6161    -422.1375   -133.98325   -892.79039    151.63265   -3832.6847 
 6049000    277.02457   -4145.5557    -3670.745   -4145.5557            0   -1508.8705     18.29321    23.546376    22.439075    9665.3804   -2329.8166   -297.56214   -1899.2327   -202.50719   -18.243767    273.36058   -3883.4349 
 6050000    277.24909   -4190.5292   -3715.3338   -4190.5292            0   -628.30366    18.330752    23.673177    22.121767    9599.6776   -962.68715   -382.17591   -540.04792    538.97038   -6.3022551   -117.23901   -3803.2972 
 6051000     282.4297   -4154.5788   -3670.5039   -4154.5788            0   -1627.3419    18.217894    23.841039    22.332578    9699.7878   -1827.5037   -490.92992   -2563.5922    284.64185     250.3974    489.16542   -3900.7101 
 6052000    269.18409   -4167.5106   -3706.1383   -4167.5106            0   -1867.2127    18.250615    23.708914    22.350848    9671.2623   -2184.0285    -2295.029   -1122.5807   -514.77725   -452.84551    -716.0986   -3969.5002 
 6053000    261.45675   -4156.6138   -3708.4859   -4156.6138            0   -1505.1103    18.305217     23.89275    22.159613    9691.7717   -3315.8733   -1332.9717    133.51398   -396.97467   -833.30164   -223.55773    -3921.225 
 6054000    279.29927   -4142.6627   -3663.9533   -4142.6627            0   -1916.0055    18.199584    23.511983    22.676095    9703.2898   -2624.3619    387.88123   -3511.5356   -46.622502   -466.83203    152.70574   -3935.0921 
 6055000    268.74107   -4158.8923   -3698.2793   -4158.8923            0    -1458.175    18.322705    23.703261    22.244998    9661.1772   -2358.8697   -131.18134   -1884.4738    1024.3553    256.92968   -17.380837   -3903.7337 
 6056000    267.04648   -4123.1076    -3665.399   -4123.1076            0   -639.60452    18.328616    23.587532    22.230722     9610.937   -927.56662   -1741.9847    750.73778     2.657335   -296.45663   -274.36549   -3755.0496 
 6057000    292.43319   -4195.1139   -3693.8935   -4195.1139            0   -609.12734    18.306923     23.45384    22.321245    9584.0205   -1804.3762    1131.3007   -1154.3065   -407.87441    143.44511   -172.60398   -3779.0331 
 6058000    267.86844   -4153.9998   -3694.8825   -4153.9998            0   -437.39365    18.349658    23.714084    22.145689    9636.5935   -870.02451    707.61698   -1149.7734    976.87519    147.75557    290.48689   -3756.3537 
 6059000     269.7017   -4152.2224   -3689.9629   -4152.2224            0    -2454.418    18.039652    23.921188    22.620933    9761.6092   -1336.1025   -2292.0553   -3735.0962    -232.3529   -731.95235    302.96562   -4039.3813 
 6060000     264.6735   -4192.8072   -3739.1659   -4192.8072            0   -1916.2293    18.259087    23.788012    22.167691    9628.4785   -1181.5941   -2109.5696   -2457.5243    320.16569   -155.33389     167.3256   -4008.2456 
 6061000    277.54315    -4173.703   -3698.0035    -4173.703            0   -1565.4082    18.363478    23.438861    22.380147    9632.8411   -1706.9459   -865.03046   -2124.2482   -66.334702   -692.79517   -294.51041   -3917.9201 
 6062000    270.58225   -4128.4379   -3664.6692   -4128.4379            0     -1154.89     18.33424    23.549678     22.44655     9691.645   -881.69778    2122.5398    -4705.512    938.41287   -496.23239   -1378.0327   -3827.9045 
 6063000    284.84456   -4129.0516   -3640.8378   -4129.0516            0   -1938.1369    18.364399    23.750046    22.377201    9759.9356   -3209.4046   -513.55265   -2091.4535   -344.98444    134.01826   -285.41481   -3916.7096 
 6064000    290.94405   -4181.8118   -3683.1436   -4181.8118            0   -2597.6148    18.076023    24.010103     22.39316    9718.7922   -3145.1207   -3441.8169   -1205.9067   -15.731229   -353.89426    299.13061   -4051.3259 
 6065000    266.17221   -4185.4741   -3729.2641   -4185.4741            0   -1615.6862    18.096441    23.895996    22.323008    9653.1938   -1460.3985   -2423.3261   -963.33405    35.600297    179.86884    961.25235   -3956.7235 
 6066000    289.57108   -4151.0433   -3654.7284   -4151.0433            0   -715.82333    18.285653     23.33832    22.626242    9655.8938   -257.11552    567.26227   -2457.6167    536.38837   -546.47593   -404.45366   -3755.5316 
 6067000    276.16712    -4203.295    -3729.954    -4203.295            0   -1786.4672    18.367359    23.524351    22.317467    9642.9355   -1057.2867   -1962.4883   -2339.6267   -1024.4271   -368.87359   -366.27895    -3981.189 
 6068000    283.96817   -4179.8693   -3693.1576   -4179.8693            0   -2688.6828     18.42689    23.830711    22.228584     9761.147   -3235.3958   -3736.9973   -1093.6554   -928.42591    661.89047    317.45646   -4075.9086 
 6069000    261.46874   -4192.1067   -3743.9582   -4192.1067            0   -1840.1735    18.076516    23.750709    22.384408       9610.3   -2446.3633   -1776.7824   -1297.3748   -493.23893    207.49681    356.87449   -4001.8703 
 6070000    280.48441   -4174.0326   -3693.2919   -4174.0326            0   -1225.0615    18.177327    23.823133    22.196971    9612.1957   -563.79723   -1790.1989   -1321.1883    600.77076    464.05904    32.573065   -3865.0259 
 6071000    277.18368   -4178.5237   -3703.4404   -4178.5237            0   -293.18385    18.265735    23.431963    22.316884    9551.6716   -307.72498    106.82858   -678.65514   -641.42056   -79.959548    4.2696476   -3744.2813 
 6072000    305.28021   -4152.9076   -3629.6678   -4152.9076            0   -851.95415    18.411284     23.57896    22.322422    9690.5855   -782.34546   -1079.4239   -694.09304    475.99753   -654.04831   -975.06607   -3750.0721 
 6073000    268.57264   -4190.4313    -3730.107   -4190.4313            0   -1701.6692     18.20245    23.852599    22.320865    9691.1778    -792.3239   -1626.8124   -2685.8714   -1023.5549   -324.54662    834.73468   -3970.6139 
 6074000    286.73367   -4202.6537    -3711.202   -4202.6537            0   -1873.1577    18.188638    23.835865    22.321443    9677.2811   -1622.9332   -1119.5947   -2876.9451    160.46741    1293.9805   -159.25823   -3975.5668 
 6075000    281.74952   -4180.6786   -3697.7696   -4180.6786            0   -1789.8809    18.304278    23.683857    22.354964    9691.2322   -3110.4284    874.31114   -3133.5254   -349.67096   -626.58703   -349.90344   -3950.7454 
 6076000    271.02201   -4172.1723   -3707.6498   -4172.1723            0   -1159.6048    18.393043    23.487274    22.304496    9635.5969   -2471.6107   -16.886023   -990.31773     170.9644    -609.0481   -59.472113   -3870.6037 
 6077000    274.83606   -4192.4474   -3721.3878   -4192.4474            0   -1685.7706    18.399683    23.529685    22.256881    9635.8663   -3030.7823   -976.49961   -1050.0299   -203.19956   -584.65997   -682.89911   -3958.2878 
 6078000    302.63124   -4164.7636   -3646.0641   -4164.7636            0   -1939.4194    18.022446    23.979345    22.431984    9694.3508   -467.90743   -2831.6783   -2518.6724   -1540.6951    195.45762    546.36901   -3920.2634 
 6079000    279.74658   -4192.6622   -3713.1861   -4192.6622            0    -1112.642    18.126556    23.845051    22.275836    9628.2549    -304.5016   -1059.6227   -1973.8019    593.70496   -1099.3494     370.4315   -3869.4213 
 6080000    289.09861   -4151.3599   -3655.8547   -4151.3599            0   -1275.3894     18.41522    23.596927    22.266909    9675.9212   -3517.8279    1488.6644   -1797.0045    544.67485    970.66986     300.8318   -3835.8292 
 6081000    288.95762   -4188.9921   -3693.7286   -4188.9921            0   -2146.8818    18.388381    23.511557    22.442193    9702.6459    -3839.285     -283.098   -2318.2625    67.014289   -239.29396   -510.56839   -3997.5192 
 6082000    277.78692   -4192.8911   -3716.7739   -4192.8911            0   -1868.7291    18.077881    23.977063    22.309675    9670.2291   -841.43537   -1562.3717   -3202.3802   -307.07554   -450.02757     373.0114   -3980.3214 
 6083000    269.07992   -4179.2883   -3718.0945   -4179.2883            0   -2002.3638    18.263887    23.830019    22.279244     9696.568   -902.76425   -3143.5344   -1960.7929    35.830141    494.71561     375.3161   -4001.2578 
 6084000    273.26387   -4116.6213   -3648.2564   -4116.6213            0   -711.99943    18.272776    23.444307    22.416326    9602.9872   -287.05611   -897.23536   -951.70682    44.323092    304.30391   -481.90424   -3747.9717 
 6085000    274.66126   -4184.5182   -3713.7582   -4184.5182            0   -48.804069    18.328065    23.603289    22.153187    9583.5264   -1123.0198    -633.8958    1610.5034    1367.0373   -807.95761    377.71893   -3720.5793 
 6086000    270.54833   -4160.2559   -3696.5453   -4160.2559            0   -911.51121    18.113303    23.819329     22.25274    9600.8717   -332.81314   -1853.4112   -548.30929    -725.9443    -879.0789    511.90978    -3824.174 
 6087000    267.92691   -4170.5871   -3711.3696   -4170.5871            0   -1870.9297    18.064579    23.922787    22.415298    9686.8846   -1478.3203   -1282.7677   -2851.7012   -680.47036   -277.22558    550.00848    -3975.682 
 6088000     273.6771    -4131.853   -3662.7798    -4131.853            0   -1287.3728    18.537073    23.737835     22.10235    9725.6968   -969.33855   -1928.6865   -964.09337    1346.4577   -100.20836   -531.95899   -3845.3799 
 6089000    254.80663   -4173.1072   -3736.3773   -4173.1072            0   -1646.1233    18.365399    23.549424    22.368525    9674.2655   -2617.0436   -1564.0357    -757.2905    -452.2006   -402.83949    167.06323   -3968.6276 
 6090000    275.98249   -4173.6732   -3700.6486   -4173.6732            0   -290.57129    18.167284    23.733102    22.285419    9608.7148   -80.322728    62.897245   -854.28837   -301.98295   -7.1629818   -232.87507   -3741.3673 
 6091000     261.6094    -4179.202   -3730.8125    -4179.202            0    -966.6882    18.173612    23.850335    22.243563    9641.3999   -1286.7297   -1443.2517   -170.08315    757.32915   -1079.0933    68.566243   -3866.7384 
 6092000    292.07253   -4179.0099   -3678.4076   -4179.0099            0   -1558.0964    18.412466    23.623088    22.223406    9666.2773   -205.96946   -1490.5238   -2977.7959     380.8537    233.65985    716.87082   -3898.0567 
 6093000     269.9808   -4190.0069    -3727.269   -4190.0069            0   -2445.1743    18.362095    23.622067     22.32419    9683.1315   -2771.4168    -2407.463    -2156.643    -731.9591    610.13713    374.22523    -4072.573 
 6094000    285.57432   -4190.8693   -3701.4047   -4190.8693            0   -3044.8417    18.166918    23.818836     22.50018    9736.1616   -2656.6069    -3482.016   -2995.9023     -127.466   -68.893334    363.11875   -4133.7477 
 6095000    279.09172   -4198.9256    -3720.572   -4198.9256            0   -1012.8979     18.08389    23.972258    22.216791    9631.2387    92.522972    -1258.186   -1873.0307   -247.26067    -179.6856    191.45921   -3862.8454 
 6096000    288.72733   -4161.0671   -3666.1984   -4161.0671            0   -1052.1496    18.294921     23.67962    22.221355    9626.6635   -207.19509    -1472.679   -1476.5746   -450.11677    971.88685     1043.487   -3813.9149 
 6097000    279.52889   -4165.4598   -3686.3568   -4165.4598            0   -1786.8313    18.331906    23.353427    22.450329    9611.2742   -674.44602   -2686.1774   -1999.8705   -688.63394   -4.4360136   -103.31591    -3936.818 
 6098000    278.46453   -4212.6344   -3735.3558   -4212.6344            0   -1272.8805    18.297491    23.704044    22.192002    9625.2159    -1292.607   -1465.8462   -1060.1884   -279.36434    -97.39065     489.4912    -3914.035 
 6099000    284.57822   -4175.5176   -3687.7603   -4175.5176            0   -1537.7886    18.179367    23.971393    22.090388    9626.6538   -1499.7637   -3097.9432   -15.658817    4.2616715   -130.60363    355.93039   -3903.6579 
 6100000    260.12006   -4169.8657   -3724.0288   -4169.8657            0   -8.9144406    18.080646     23.66585    22.366028    9570.2857   -102.01854    558.93595   -483.66073    1118.8457    289.12289    1616.8142    -3725.273 
 6101000    279.71632   -4222.2687   -3742.8445   -4222.2687            0   -1074.6517    18.414369    23.549419    22.148634    9604.7039   -1425.8685   -1861.7383    63.651889   -748.62827    69.928958    410.19586    -3893.376 
 6102000    283.36232   -4153.3881   -3667.7147   -4153.3881            0   -2727.1201    18.476408    23.443949    22.598631    9788.8219   -2885.1672   -2651.7715   -2644.4218   -1064.5978   -302.85339    262.95859   -4057.0382 
 6103000    274.70635   -4156.4109   -3685.5736   -4156.4109            0    -1742.155    18.245026    23.778898    22.263045    9658.7463   -2141.2652    -2860.275   -224.92475    578.48898    612.65901   -868.31005   -3930.9786 
 6104000    275.08015    -4168.032    -3696.554    -4168.032            0   -1980.1278    18.155988      24.0272     22.23984    9701.8535   -744.42129   -3024.3394   -2171.6227   -146.73092    200.54066    919.27438   -3976.7254 
 6105000    280.62663   -4144.9336   -3663.9491   -4144.9336            0    -2308.293    18.242692    23.547693    22.631168    9721.7455   -263.27256   -3062.5423   -3599.0642    862.77949    248.85818   -313.81542   -3991.2228 
 6106000    274.56725   -4203.4535   -3732.8547   -4203.4535            0   -2180.8134    18.331025    23.646387    22.330374    9679.3802   -2105.4877   -3586.0707    -850.8818    937.06354    596.51566   -209.04747   -4040.7066 
 6107000    271.45863   -4185.5722   -3720.3014   -4185.5722            0   -1320.4459    18.263358    23.729191      22.2699    9651.2113   -739.80637   -967.48623    -2254.045   -785.00027   -423.38815   -556.00189   -3906.1582 
 6108000    291.06583   -4195.5486   -3696.6717   -4195.5486            0   -1386.5827    18.067374    23.836092    22.282735    9596.1846   -872.31078   -1803.5573   -1483.8801   -412.05683   -587.38301      45.4221   -3890.7247 
 6109000    275.12165   -4179.8468   -3708.2977   -4179.8468            0   -2714.2864    18.193648    23.795616    22.476565    9730.7586   -2901.6668   -3306.9805    -1934.212   -384.12407    -651.2231    172.44554   -4093.4905 
 6110000    278.61586   -4174.1187   -3696.5807   -4174.1187            0   -2663.1128    18.431025    23.639491    22.307793    9719.5064   -2780.5203   -3255.1734   -1953.6445    404.59675   -144.58276    181.18655   -4074.0743 
 6111000    272.42189   -4162.7625   -3695.8407   -4162.7625            0   -1450.6518    18.463064    23.451311    22.280772    9647.1967   -1538.3383   -1439.5283    -1374.089    17.853963    169.36441   -768.84697   -3899.9394 
 6112000     283.4144   -4186.2975   -3700.5349   -4186.2975            0   -1082.5944    18.009345    23.799114    22.412646    9606.2048   -527.01635   -1449.4477   -1271.3192   -902.05328     632.9404    502.43074   -3852.2027 
 6113000    272.92396   -4181.3527   -3713.5703   -4181.3527            0   -1575.6397    18.113866    23.961688    22.168046    9621.7923   -846.81445   -2600.0097   -1280.0949    -74.57031   -434.32612    757.94477   -3934.6704 
 6114000    293.83278   -4165.7807   -3662.1613   -4165.7807            0   -1802.0902    18.385539     23.70915     22.27798    9711.0939    -1930.126   -2736.8759   -739.26869     844.7418    588.28713   -332.06765   -3917.3848 
 6115000    287.18096   -4162.5547   -3670.3363   -4162.5547            0   -1531.3935    18.504191    23.527694    22.345644    9728.4207   -3112.4512   -677.81882   -803.91053   -1049.5545   -153.96128    1006.5088    -3887.609 
 6116000    265.05961   -4176.6613   -3722.3582   -4176.6613            0   -1250.7693    18.188131    23.637843    22.421236    9639.5212    73.964022   -2790.3056   -1035.9661    -906.1775   -361.57621    379.19103   -3898.1945 
 6117000    266.09873   -4186.7673   -3730.6832   -4186.7673            0   -1329.6612    18.151988    23.882265    22.302766    9668.4854   -513.05722   -2909.6321   -566.29414    370.25798    488.72598   -377.89044    -3918.172 
 6118000    274.29323   -4198.6585   -3728.5293   -4198.6585            0    -14.54647    18.101511    23.598705    22.212174    9488.4237    1269.8572   -327.40018   -986.09646    643.46327    39.894064   -392.35276   -3730.5423 
 6119000    280.15748   -4166.7802   -3686.5999   -4166.7802            0    308.09838    18.208696    23.632248    22.256612     9577.297    274.64106     577.3843    72.269787   -558.45209   -774.15928   -247.64918   -3643.5662 
 6120000    266.58645   -4163.1844   -3706.2643   -4163.1844            0   -1042.8986    18.446959    23.626421    22.151337    9654.3416   -2931.6684   -767.65893    570.63157   -1560.1646    193.52746   -458.03365   -3853.1031 
 6121000    269.62527   -4178.9733   -3716.8448   -4178.9733            0   -1376.7759    18.264794     23.50383    22.448124    9636.8139   -83.926413   -1630.2756   -2416.1257    227.72053    296.98659     60.50901    -3910.341 
 6122000    285.91844   -4159.3726   -3669.3182   -4159.3726            0   -2126.9356     18.16077    23.803295    22.399728    9683.0924   -2605.4192   -722.83154   -3052.5561    -33.73782   -505.07059     384.8691   -3969.6797 
 6123000    267.93806   -4193.8011   -3734.5645   -4193.8011            0    -1680.743    18.123951    24.078266     22.12358    9654.5827   -1734.5139   -1600.0257   -1707.6895   -358.04896    66.849198    211.00603   -3971.2168 
 6124000    287.44312   -4169.7603   -3677.0926   -4169.7603            0   -779.97485    18.237343    23.395112    22.527421    9611.6549     1054.299    720.37488   -4114.5984    583.64334    -1005.363   -111.51785   -3786.4265 
 6125000    300.48361   -4162.3357   -3647.3171   -4162.3357            0   -1792.2213      18.6044    23.538156    22.147116     9698.516   -2386.4975    -940.9753    -2049.191    423.91684   -591.81505   -198.28928   -3900.8141 
 6126000    279.53418   -4171.8892   -3692.7772   -4171.8892            0   -2034.9988    18.333427    23.826484    22.297208    9739.8909   -1731.7725   -1487.1912   -2886.0327    441.85539    298.33459    243.25696   -3981.8413 
 6127000    276.34466   -4161.2899   -3687.6446   -4161.2899            0   -793.50999    18.130845    23.838144    22.436475    9697.1722    976.45545   -1815.1489   -1541.8366   -804.73424   -588.58726   -1425.6737   -3799.8654 
 6128000    290.79071    -4185.271   -3686.8657    -4185.271            0    -1053.886     18.19678    23.802704    22.339392     9675.918   -526.66895   -1620.1017   -1014.8873   -223.13969    1010.6369   -377.28173   -3835.5831 
 6129000    283.05111    -4146.672   -3661.5321    -4146.672            0    -937.5144    18.495997    23.456143    22.313284    9680.5011   -2161.6192   -187.20569   -463.71828    290.60606   -278.59634    696.13286   -3793.8905 
 6130000    269.42611   -4196.0488   -3734.2617   -4196.0488            0   -854.46547    18.344016    23.528936     22.32316    9635.0146   -1982.0288   -243.60751   -337.76013   -395.08618   -769.85828    456.06679   -3854.3284 
 6131000    268.05839   -4201.1945   -3741.7516   -4201.1945            0   -132.95656    18.070586    23.860618    22.149398    9550.2741    140.28903   -604.57111    65.412397    1022.5668   -525.74799    440.51246   -3760.2699 
 6132000    278.03188   -4138.0262   -3661.4891   -4138.0262            0   -1658.9784    18.001732    23.902841     22.47894    9672.5202   -1934.8298   -2049.9498   -992.15548   -206.06366   -214.96177   -144.77996   -3895.5108 
 6133000    274.02037   -4187.3807   -3717.7192   -4187.3807            0   -1587.1488    18.365905    23.752156    22.245171    9704.0073   -2115.0106    -2474.671   -171.76477   -142.64098    84.202389   -507.85124   -3942.3372 
 6134000       270.98   -4192.5432   -3728.0927   -4192.5432            0   -1939.5168    18.494082    23.487948    22.384824    9723.6994   -2677.5541   -1449.0719   -1691.9243    1119.5506   -854.62059   -386.16201   -4003.1359 
 6135000    271.02045   -4215.7864   -3751.2666   -4215.7864            0   -1561.3945    18.243354    23.630204    22.395799    9654.6983   -1538.1581   -88.025399        -3058   -192.51574    163.84081   -614.99169    -3971.117 
 6136000    288.35621   -4191.2923   -3697.0596   -4191.2923            0   -1300.0841    18.032011    24.051462    22.280889    9663.1378   -1765.6572   -2091.3062   -43.288809    1009.9772    608.40955    197.63698   -3880.2765 
 6137000    270.16247   -4191.8317   -3728.7825   -4191.8317            0    -2373.649    18.148947    23.881583    22.433317    9723.1737   -1871.2866   -2812.9492   -2436.7112   -151.98694    927.67572    28.453531   -4065.3719 
 6138000    271.83147   -4167.9848    -3702.075   -4167.9848            0    -2078.516    18.509184    23.678424    22.220718    9738.6364   -2481.9553   -2737.7861   -1015.8064   -603.74253      173.261   -441.83662   -3997.2825 
 6139000    257.75546   -4199.8237   -3758.0397   -4199.8237            0   -1293.9681    18.275718    23.653693    22.296991    9638.7265   -492.10281   -1772.0359   -1617.7655   -519.48674   -136.81464   -203.88573    -3939.934 
 6140000    277.09448   -4168.6872   -3693.7568   -4168.6872            0   -1117.6913    18.136554     23.70569    22.443755     9649.458   -960.96178   -2181.1174   -210.99468   -1162.5439   -870.26672    193.24471   -3851.0466 
 6141000    262.95558   -4187.0858    -3736.389   -4187.0858            0   -1527.6021    18.233014    23.658323    22.291107    9615.5487   -1102.2351   -2215.6676   -1264.9035    300.27235    205.73735    270.07915   -3950.6091 
 6142000    278.05275   -4195.0931   -3718.5203   -4195.0931            0   -214.16021    18.388221    23.573846    21.969474    9523.3511   -1401.9642    219.58433    539.89924   -557.22251    488.29651    254.41331   -3748.2646 
 6143000    273.10367   -4180.9885   -3712.8982   -4180.9885            0   -2603.6703    18.274861    23.704086    22.493516    9743.9413   -3145.6909   -2524.9919   -2140.3282    -629.7308    61.487854   -107.46824   -4082.8937 
 6144000    277.35446   -4180.2062   -3704.8301   -4180.2062            0   -2591.1872    18.247347    23.824573    22.458158    9763.3533   -1616.4754   -3083.0647   -3074.0214   -543.07002   -19.393082   -170.94922   -4073.7854 
 6145000    288.62936   -4167.6985   -3672.9976   -4167.6985            0    -1737.776    18.269157    23.918396    22.214632    9707.1039   -2090.8255   -2343.3778   -779.12474   -598.91222   -37.700032    282.02642   -3919.0114 
 6146000    268.47684   -4176.5295   -3716.3694   -4176.5295            0   -2876.4134    18.365031    23.707422    22.326043    9720.4809    -2466.023   -1506.1913   -4657.0259    579.91074   -124.94525     64.41476   -4124.1391 
 6147000    286.07074    -4230.284   -3739.9685    -4230.284            0   -653.91229    18.337388    23.143526    22.562517    9575.3477   -1959.5283    964.51702   -966.72558   -41.814494   -265.74551     318.8765   -3831.2852 
 6148000    269.47094   -4199.5409   -3737.6769   -4199.5409            0   -41.477321    18.147742    23.801625    22.082221    9538.3215   -930.84436     265.7302    540.68219   -507.22791    179.02614   -509.27246   -3743.4467 
 6149000    275.12115   -4130.9136   -3659.3654   -4130.9136            0    -242.2997    18.097265    23.646924     22.39305    9582.9861    31.416523    334.83899   -1093.1546   -491.21496     322.7406    312.83018   -3693.2287 
 6150000    279.69401   -4192.4061   -3713.0202   -4192.4061            0   -658.14731    18.352923    23.579787    22.100789    9564.2937   -583.25696   -1061.0461   -330.13886   -389.29861   -27.235523    687.98291   -3804.8221 
 6151000     282.2134   -4160.7657   -3677.0615   -4160.7657            0   -752.38722      18.2959    23.542005    22.282447    9597.5436   -409.67433   -2542.2571    694.76971   -1547.2312    286.68385     161.7243   -3782.3734 
 6152000    270.03342   -4197.7594   -3734.9314   -4197.7594            0   -419.09999    18.088416    23.580119    22.507407     9600.017    128.66555    275.86298   -1661.8285    444.60918    577.60785   -303.17475   -3793.6081 
 6153000    276.76973   -4160.3994   -3686.0255   -4160.3994            0   -2231.5214    18.270621    24.018363    22.051811    9677.0051   -1724.4158   -3740.0825   -1230.0659    261.17664   -69.498743     421.2573   -4000.9583 
 6154000      262.515   -4176.8775   -3726.9358   -4176.8775            0    102.66385    18.061529    23.621987    22.347698    9534.6277    912.85696   -464.63979   -140.22564    825.33608    83.194267    353.72424   -3712.6601 
 6155000    271.12654   -4180.9069   -3716.2053   -4180.9069            0   -518.76024    18.343238    23.517657    22.268918    9606.5882   -173.85185    -505.6922   -876.73666    757.51494   -204.82737    333.03574   -3788.8848 
 6156000    262.91137    -4205.432   -3754.8109    -4205.432            0   -878.61164    18.375802    23.578813    22.239889      9636.09   -1046.7797   -735.70181   -853.35339    809.61959    467.11485   -605.22427   -3878.2844 
 6157000    255.02238   -4155.8385   -3718.7389   -4155.8385            0   -1680.0398    18.094216    23.722407    22.546026    9677.6189   -1449.0884   -1324.3214   -2266.7095   -6.3099438    231.94631   -158.70233   -3955.8566 
 6158000    276.97292   -4197.5429   -3722.8208   -4197.5429            0   -327.82911    18.158207    23.942512    22.096694     9606.606   -769.06406   -3249.0083     3034.585    340.36218    181.11086   -311.06321   -3768.7504 
 6159000    271.75251   -4175.5172   -3709.7427   -4175.5172            0   -1481.9177    18.337775    23.472982    22.356301    9623.0963   -1476.8498   -837.47025   -2131.4331   -209.67091   -149.46655   -228.46138   -3917.7195 
 6160000    281.70308   -4147.7139   -3664.8845   -4147.7139            0   -1219.8308    18.442721    23.463813    22.309099    9653.9627   -2036.3733   -177.17445   -1445.9447    498.21091    336.20385    -296.0953   -3836.6283 
 6161000     269.6615   -4204.6937   -3742.5031   -4204.6937            0   -1300.8941    18.171416    23.902745    22.181922    9634.6451   -928.91995   -1533.8309   -1439.9314   -21.276633    496.15077   -111.63905   -3925.2936 
 6162000    259.86745   -4158.8244   -3713.4205   -4158.8244            0   -851.67026    18.032329    23.695719    22.522503     9623.618    1108.1661   -971.39048   -2691.7864     528.5834    120.14207    414.09944   -3832.9529 
 6163000    276.08296   -4167.8986   -3694.7018   -4167.8986            0   -2013.0162    18.518251    23.763549    22.052382    9704.3572   -2970.9696   -1415.1706   -1652.9084    238.80549    267.94825    752.76623   -3979.6002 
 6164000    270.29138   -4182.3418   -3719.0717   -4182.3418            0   -1558.3069    18.338814     23.52303    22.390646    9658.9768   -608.78664   -753.47982   -3312.6543    502.95046    -514.5735    497.11435   -3938.5846 
 6165000    265.67886   -4155.6864    -3700.322   -4155.6864            0   -1504.2062    18.229582    23.817959    22.357882    9707.6007   -1516.6695   -1759.3463   -1236.6028    57.314292    73.635581    472.68912   -3913.2806 
 6166000    281.43287   -4166.3107   -3683.9444   -4166.3107            0    -959.1974    18.071611     23.93989    22.248415    9625.3848   -687.16639   -1439.2798   -751.14602    215.46756    460.93676    850.24761   -3818.5931 
 6167000    265.70384   -4192.5608   -3737.1535   -4192.5608            0   -878.02305    18.136897    23.653496    22.383163    9602.3999   -1871.9496   -514.15405    -247.9655   -662.14454   -471.20172   -949.16847   -3860.1129 
 6168000    279.57385   -4139.7013   -3660.5212   -4139.7013            0   -1001.6314    18.530242    23.547717    22.210486    9691.4321   -1219.8307    -168.9667   -1616.0967   -186.38131     136.4351    357.78682   -3802.0914 
 6169000    276.46829   -4133.3076   -3659.4504   -4133.3076            0   -2268.5027     18.35806    23.695241     22.42657    9755.5277   -1596.0448   -3043.9291    -2165.534   -878.82391    206.17568    150.80773   -3982.2002 
 6170000    290.39746   -4184.6741   -3686.9427   -4184.6741            0   -2746.3793    17.959263    24.155994    22.512337    9766.3886    150.37677   -5309.8857   -3079.6288   -754.81539   -512.33761    527.24338   -4078.1171 
 6171000     271.2834   -4164.1469   -3699.1764   -4164.1469            0   -2235.0379    18.321544    23.898642    22.240431    9738.1957   -1951.1556    -2642.526    -2111.432    65.723891    640.25812    94.323956      -4016.6 
 6172000    275.33982   -4173.9687   -3702.0457   -4173.9687            0   -2301.0488    18.376302    23.662814    22.368788    9726.7321   -1631.0354   -2919.7738   -2352.3373    1196.6946   -210.03295    15.690705   -4028.4596 
 6173000     262.7489   -4167.0214   -3716.6788   -4167.0214            0    -1074.762    18.329499     23.62393    22.260108    9638.9562   -829.77374   -363.50469   -2031.0075    597.63501    1203.0516    361.28655   -3867.7627 
 6174000    270.75536   -4197.6099   -3733.5445   -4197.6099            0    -411.5021    18.218734    23.678954    22.163496    9561.3447    225.28754   -1757.2473    297.45344    65.273138   -791.25857    393.49102   -3790.9254 
 6175000    283.94437   -4174.9757   -3688.3047   -4174.9757            0   -2055.9147    18.184055    23.825824    22.415732    9711.6183   -2287.6014   -727.05124   -3153.0916   -24.468739   -1079.6399    95.403582   -3979.4921 
 6176000    264.15858   -4166.3364   -3713.5777   -4166.3364            0   -2329.2222    18.505083    23.768844    22.074752    9709.4566    -2994.282   -2477.2917   -1516.0928   -1051.6653    -183.8634     1016.608   -4043.4013 
 6177000    292.52218   -4175.0218   -3673.6488   -4175.0218            0   -1359.3066    18.306189    23.422668    22.474446    9636.5884   -1952.2765   -341.85778   -1783.7854    627.78841    319.28736    411.45298   -3864.6854 
 6178000    281.16599   -4161.4244   -3679.5155   -4161.4244            0   -655.19367    18.315008    23.651109    22.161949    9599.8968    44.073952   -1658.6925   -350.96251    657.75785    374.42082    288.71716   -3771.2457 
 6179000    285.92462   -4189.6188   -3699.5537   -4189.6188            0   -2294.0346    18.208584    23.860717    22.325691    9699.8403   -2326.7437   -1777.0079   -2778.3521   -618.64605    940.11858   -944.05933    -4024.073 
 6180000    272.37342   -4177.4921   -3710.6534   -4177.4921            0   -2850.5267    17.919005    24.026262     22.58149    9721.9346   -1995.7295   -2986.5317   -3569.3188   -2103.1502    183.04733   -161.67209   -4114.8138 
 6181000     287.3645   -4185.2508   -3692.7179   -4185.2508            0   -666.26418    18.288206    23.684622    22.166335    9601.3317   -734.41691   0.84913399   -1265.2248   -348.91096   -284.84336   -499.76479   -3786.0119 
 6182000    276.09035   -4128.2977   -3655.0883   -4128.2977            0    -1437.793    18.416881    23.425642    22.419192    9672.2501   -2731.8856   -39.689709   -1541.8036   -1060.5133    145.93067   -381.34847   -3857.9032 
 6183000    277.01191   -4193.7507   -3718.9618   -4193.7507            0   -1649.1494    18.316922    23.632886    22.313974    9659.3113   -1986.2611   -818.72911    -2142.458   -400.45858   -280.01432    91.211535   -3951.2793 
 6184000    271.27262   -4200.4835   -3735.5315   -4200.4835            0   -1358.0211    18.164879    23.900738    22.147184    9615.2891   -1434.0437   -1930.7296   -709.29008   -1036.8553   -663.41397   -724.74119   -3925.9656 
 6185000    287.14906   -4164.8191   -3672.6555   -4164.8191            0   -1184.8534    18.036259    23.866105    22.456752    9666.6269   -131.57897   -1441.0795   -1981.9017   -521.86494   -426.05742     297.1923   -3839.6936 
 6186000    291.60071   -4178.1187    -3678.325   -4178.1187            0    -1239.395    18.351577    23.549638    22.319532    9645.8988   -628.39611   -1049.7167   -2040.0722   -632.32062   -73.324028   -62.959549   -3852.6776 
 6187000    276.58203   -4186.9484   -3712.8962   -4186.9484            0   -1786.4732    18.259034    23.680032    22.354032    9665.3137   -1956.8929   -1953.8313   -1448.6953   -1269.6994    370.85366   -551.72317   -3964.7151 
 6188000    294.03013   -4165.9361   -3661.9786   -4165.9361            0   -1775.3706    18.093882    23.896713     22.45058    9707.2784    -2117.408   -2727.0187   -481.68494    413.69013   -797.53819   -63.568619    -3913.319 
 6189000    272.14776   -4196.0418   -3729.5898   -4196.0418            0   -1563.9003    18.306302    23.921961    22.079456    9669.0937   -1134.9844   -2540.4526   -1016.2641    56.939658    333.54959    372.57854   -3950.1214 
 6190000    289.82059   -4139.7298   -3642.9872   -4139.7298            0   -337.55742     18.11206    23.649632     22.50477    9639.7731    1217.0524    -678.9731   -1550.7516   -600.26239    574.44385   -148.79282   -3690.4431 
 6191000    274.70627    -4161.769   -3690.9318    -4161.769            0   -1944.9753    18.246259    23.725407    22.382723    9689.4795   -2149.8299   -2066.8673   -1618.2286   -200.52164   -508.73277    700.86306   -3965.7785 
 6192000    278.57549   -4168.4277   -3690.9589   -4168.4277            0   -889.93649    18.181313    23.677237    22.524146    9696.2679   -785.02747   -1413.5828   -471.19919   -622.29011   -92.967224   -449.01517   -3816.8049 
 6193000    267.30114   -4144.6765   -3686.5315   -4144.6765            0    -2843.918    18.354106     23.88479    22.291716    9772.3308    -3612.638    -2818.237   -2100.8789    641.08433     253.2926    606.14177    -4091.845 
 6194000    282.61906   -4155.4998   -3671.1004   -4155.4998            0    -1361.211    18.300859    23.759375    22.214262    9659.1382   -1164.9323   -242.19458   -2676.5061    524.59053   -96.288742    66.455088   -3862.8523 
 6195000    272.94525   -4168.8755   -3701.0567   -4168.8755            0   -3046.8273    18.248313    23.619718    22.697602    9783.1205   -3036.8023   -2596.0571   -3507.6224    7.9374754   -376.24723   -597.95695   -4135.7682 
 6196000    277.77393   -4164.6038   -3688.5088   -4164.6038            0   -2080.5492    18.333122    24.024032    22.127024    9745.5269   -2819.8506   -3143.0082    -278.7889    895.43058    98.557886   -733.30333   -3984.2142 
 6197000    283.37793   -4186.7591    -3701.059   -4186.7591            0   -1154.1872     18.24158     23.59011    22.400415    9639.3663   -1276.0652    -1191.819   -994.67728   -452.24969    67.476213    383.52612    -3863.315 
 6198000    262.93085     -4139.02   -3688.3655     -4139.02            0   -559.40517    18.268526    23.712513    22.187537    9611.4779   -865.10017   -598.50457   -214.61078    532.43866    25.684872   -894.27502   -3766.7793 
 6199000    278.73057   -4156.3795   -3678.6449   -4156.3795            0   -598.10745    18.101832    23.935717    22.218298    9626.7512   -305.81174   -916.16309   -572.34752    150.51427   -204.79478   -263.29011    -3762.617 
 6200000    282.64448   -4193.5012   -3709.0582   -4193.5012            0   -1648.4854    18.195836    23.431972    22.519931    9601.6952   -1264.0413    -376.2114   -3305.2036    60.484479    -407.5523   -698.74084   -3939.8971 
 6201000    270.93515   -4160.4494   -3696.0759   -4160.4494            0   -1589.0059    18.480391    23.542351    22.150422     9637.025   -1804.0834   -899.98014   -2062.9541    307.17047   -258.60375     343.1828   -3919.4045 
 6202000    275.77647   -4156.5098   -3683.8384   -4156.5098            0   -520.76576    18.127612         23.6    22.466941    9611.6191    245.32584    258.33963   -2065.9628   -1025.1419   -310.58791    282.09708    -3756.837 
 6203000    280.55422   -4213.5363    -3732.676   -4213.5363            0   -1117.0985    18.145421    23.702993    22.307556    9594.4972   -1706.7105   -2278.4589    633.87376    784.14542   -203.63654   -135.05147    -3888.987 
 6204000    268.71081   -4184.2014   -3723.6403   -4184.2014            0   -2168.6622     18.29217    24.013594    22.010445    9668.3243   -2449.6065   -2177.1226   -1879.2576   -335.85432    25.690191    683.34656   -4029.4273 
 6205000    265.19986   -4189.3801   -3734.8366   -4189.3801            0   -2552.7948    18.231654    23.693964    22.486376    9713.6686   -1866.7999   -2729.1652   -3062.4194    580.46386    124.31793   -504.77697   -4096.4755 
 6206000     264.1466   -4176.6399   -3723.9017   -4176.6399            0   -415.00662    18.311606    23.503559    22.289168    9592.9886   -2505.0195     799.1284    460.87122    740.25824   -186.41347   -589.33918   -3781.9627 
 6207000    264.31807   -4166.6876   -3713.6554   -4166.6876            0   -969.32991    18.202695    23.638162    22.259271    9577.6804    518.28746   -1395.2066   -2031.0706   -747.13675    419.10987   -618.20079   -3849.0521 
 6208000    287.78654   -4183.5895   -3690.3332   -4183.5895            0   -231.70112    18.020069    23.763405    22.321349    9558.4082    301.01198    319.44725   -1315.5626    388.56154    159.46045   -851.87498   -3722.6323 
 6209000    277.55195   -4185.7599   -3710.0453   -4185.7599            0   -584.40781     18.18888    23.875008     22.04089     9571.469   -1502.6183   -655.92598    405.32086    452.36876   -778.35056   -378.55585   -3791.6228 
 6210000    296.88322   -4186.9631   -3678.1154   -4186.9631            0   -1655.9169    18.341286    23.606889    22.316305    9662.5295   -292.32063   -1801.2964   -2874.1336    507.20832   -248.78284    105.01045   -3911.4641 
 6211000    280.01232   -4194.7924   -3714.8608   -4194.7924            0   -1103.7499    18.290381     23.55407    22.231898    9577.7887   -2241.9037   -345.12086   -724.22523   -287.06539    910.76895   -178.80819   -3869.0351 
 6212000    282.04944   -4185.3128   -3701.8897   -4185.3128            0   -1221.2567    18.277389    23.815365    22.171891    9651.0403   -864.93588   -2297.0229    -501.8113    84.019752   -495.76729    950.58596   -3873.7822 
 6213000     275.5921   -4141.0892   -3668.7338   -4141.0892            0   -3153.3219     18.17939    23.826277    22.611865    9794.2656   -1804.0499   -4409.9517    -3245.964    325.19003   -372.69011   -621.84515   -4119.1522 
 6214000    271.08171   -4172.0162   -3707.3914   -4172.0162            0   -1939.4798    18.251359    23.733203    22.306439    9662.3288   -1718.0586   -1091.6492   -3008.7315    990.53562    -253.2361    52.383422   -3980.6935 
 6215000    264.56887   -4216.1768   -3762.7148   -4216.1768            0   -805.17684    18.491045    23.456794    22.007256    9545.4407   -1261.0652   -521.07698   -633.38832    98.192552    338.71073   -104.25706   -3874.8038 
 6216000    273.11839   -4187.1921   -3719.0765   -4187.1921            0   -1063.1169     18.23529    23.514151    22.437084    9620.7383   -958.19967   -577.46456   -1653.6866    161.59046   -46.696915   -284.64412    -3868.241 
 6217000    262.93493   -4185.8339   -3735.1724   -4185.8339            0    -1538.236    18.109355    23.993192    22.212937    9651.5484   -1974.7271   -2404.7793   -235.20176    480.93396    567.17465    196.88271   -3951.6913 
 6218000    285.68907   -4183.0206   -3693.3594   -4183.0206            0   -2246.8718    18.091526    23.991172    22.334622    9694.0505   -1424.1063   -2546.8738   -2769.6352   -934.13478   -136.37451   -90.020875   -4011.0171 
 6219000     270.6768   -4147.4717   -3683.5409   -4147.4717            0   -1304.3473    18.354053     23.59563    22.341373    9675.5001   -1628.8656   -1844.1495   -440.02667    293.65983   -76.143499   -675.38625   -3867.5938 
 6220000    276.05623   -4207.3123   -3734.1614   -4207.3123            0   -848.82125    18.351449    23.595533    22.242755    9631.3845   -1662.6748   -112.13089   -771.65812   -706.21551   -441.91743    210.75509   -3853.3901 
 6221000    282.70937   -4186.1836   -3701.6294   -4186.1836            0   -1810.0074     18.18241    23.615265    22.542409    9679.3142   -2670.7046   -1710.3866    -1048.931   -73.612865   -563.89236   -279.30954   -3957.1353 
 6222000    280.77923   -4206.7272   -3725.4812   -4206.7272            0   -1077.9401    18.079306    23.835548    22.253224    9589.5853   -997.47988   -1303.0238   -933.31648    287.99056   -418.72006    207.12353   -3876.2357 
 6223000    256.92869   -4155.3503   -3714.9834   -4155.3503            0   -2104.3787    18.179064    23.938875    22.252039    9683.7832   -2114.0086   -3362.5349    -836.5927     283.5521   -181.25609    322.99477   -4012.1806 
 6224000     286.9522   -4186.6657   -3694.8394   -4186.6657            0   -2028.2759    18.356825    23.558953    22.453192    9710.2775   -1433.8156   -1896.4521   -2754.5601   -861.66514    153.97213   -293.78553   -3982.0726 
 6225000    278.75296   -4199.5732   -3721.8001   -4199.5732            0   -1049.0862    18.246267    23.612574    22.252015    9587.0873   -2491.2654   -698.00908    42.016079   -496.30577   -390.58022   -295.50353   -3868.4811 
 6226000    261.33585   -4142.2342   -3694.3135   -4142.2342            0   -252.61717    17.983331    23.852477    22.382765    9601.0197    498.11615   -732.22463   -523.74304   -598.21362   -263.29964   -356.74157   -3729.6852 
 6227000    291.12273   -4128.8758   -3629.9014   -4128.8758            0   -989.21083    18.226117    23.682233    22.415476    9675.3076   -880.65774   -1150.2376    -936.7371   -828.63875    -186.0502   -80.072187   -3769.4834 
 6228000    287.20327   -4168.7515    -3676.495   -4168.7515            0   -468.64153    18.562315    23.432175    22.132677    9626.7272   -510.26015   -1769.8949    874.23049    401.32031    504.88756    509.09348   -3742.2903 
 6229000    293.74822    -4193.919   -3690.4446    -4193.919            0   -452.84092    18.288873    23.463418    22.334897    9584.3394   -33.885436   -892.66381   -431.97351    822.15764   -267.20247    180.34108   -3753.7417 
 6230000    285.29029   -4150.5091   -3661.5313   -4150.5091            0   -1714.8361    18.217503    23.976911    22.110116    9657.6867   -803.82029   -1601.4843   -2739.2039    277.27089    441.26226   -293.00927   -3903.0616 
 6231000    282.51741   -4164.8275   -3680.6024   -4164.8275            0   -1687.5062    18.031452    23.939781    22.496819    9711.1799   -262.74339   -2683.5319   -2116.2433   -782.87155   -167.21543    -116.5391   -3919.5998 
 6232000    283.26631   -4182.8716   -3697.3629   -4182.8716            0    -1658.812    18.408965    23.716831    22.298314    9735.4954    -2694.426   -2405.5412    123.53134   -294.56652   -354.68257    711.18319   -3932.8847 
 6233000    270.54452   -4171.0103   -3707.3062   -4171.0103            0   -1242.0135    18.496639    23.409347    22.264472    9640.3879   -2251.7246    100.49248   -1574.8084   -1674.3918    148.80913   -276.43579   -3881.9273 
 6234000    291.92869   -4185.8729   -3685.5171   -4185.8729            0   -1426.4669    18.189589    23.690175    22.294298    9606.9375   -1944.0047   -1841.8972   -493.49877   -590.71747    370.52877   -621.99658   -3885.3756 
 6235000    280.42652   -4212.8182   -3732.1767   -4212.8182            0   -1501.6567    18.026721    23.959446    22.213915    9594.4174    -1200.296    -2679.031   -625.64316   -559.45024   -211.62142   -351.42752   -3942.2957 
 6236000    285.67249   -4201.7129     -3712.08   -4201.7129            0   -1867.9435    18.265681    23.724082    22.391946    9703.2477   -1670.2763   -2571.2368   -1362.3174   -641.47071   -128.43172    18.383733   -3976.4163 
 6237000    265.60155   -4154.9113   -3699.6793   -4154.9113            0   -3440.1751    18.563072    23.760061     22.24646    9812.0174   -3937.0579   -3608.5918   -2774.8756   -361.34486    249.88093   -46.477784   -4191.9622 
 6238000    268.81257   -4145.8512   -3685.1156   -4145.8512            0   -1114.7431    18.321195    23.618993    22.462036    9719.9559   -1601.1303   -1392.4511   -350.64787   -418.98639   -268.43126    317.30296   -3843.1367 
 6239000    280.87883   -4177.7698   -3696.3531   -4177.7698            0   -1562.1124    18.156253    23.749751    22.415653     9665.775   -880.22595   -2341.1941   -1464.9171    12.149613    320.72668   -117.07325   -3916.5569 
 6240000    274.24644   -4162.2669   -3692.2179   -4162.2669            0   -1323.8283    18.221223     23.98432     22.18911    9697.1657   -747.04312   -2297.9747   -926.46698   -862.27386   -749.77213   -65.817204    -3879.438 
 6241000    258.08256   -4162.4366   -3720.0919   -4162.4366            0   -2542.8733    18.493363    23.760745    22.315686     9805.871     -4184.28   -2031.2693   -1413.0708   -502.42696    291.90668    413.97813   -4083.7446 
 6242000    280.78518   -4169.7495   -3688.4933   -4169.7495            0   -1823.0617    18.346999     23.61446    22.423318    9715.0027   -1734.7673   -1566.9646   -2167.4531    -384.6636   -613.09774    91.193166   -3946.7908 
 6243000    287.52203   -4162.4944   -3669.6915   -4162.4944            0   -1083.9798    18.343668    23.709192    22.299929    9698.5411   -1519.7623   -1823.7161    91.538949   -368.92519   -821.45645   -714.15561   -3823.0131 
 6244000    288.76573   -4179.1907   -3684.2561   -4179.1907            0   -659.70648    18.007279    23.965918     22.25459    9604.2125    873.00692   -1581.1742   -1270.9521    691.82018   -24.673059   -503.57306   -3776.6596 
 6245000    288.72155   -4157.1104   -3662.2516   -4157.1104            0   -883.55777    18.159151    23.807418    22.298417    9640.1073    -702.4715   -870.30716   -1077.8946    515.20724    372.20734  -0.94908831   -3786.4719 
 6246000    280.12415   -4181.2912    -3701.168   -4181.2912            0   -2060.5613    18.504622    23.579964    22.277857    9720.6829   -3898.2234   -911.84767   -1371.6129    768.01302    24.486306    751.41063    -3993.286 
 6247000    281.38057   -4178.6786    -3696.402   -4178.6786            0   -2480.0761    18.498063    23.473066    22.426921    9737.9096   -3611.3187   -1459.7992   -2369.1104    85.841884   -873.86449    154.58871    -4048.616 
 6248000    285.78419   -4145.1432   -3655.3189   -4145.1432            0   -680.32972    18.323282    23.529466    22.357377    9639.0935   -1292.2768    730.79378   -1479.5061   -1077.2763    70.398497    609.85067   -3750.9571 
 6249000    262.47436   -4168.7001    -3718.828   -4168.7001            0   -523.76611    18.195668    24.059283    21.922299    9597.0282   -1705.8011    -931.4011    1065.9038   -769.87558    1003.6551   -732.78809   -3792.1358 
 6250000    287.33028   -4142.5109   -3650.0366   -4142.5109            0   -1526.6993    18.162029    23.742061    22.495445     9700.126   -1912.6888   -739.24535   -1928.1636   -250.30091    46.839531     209.7825   -3866.0133 
Loop time of 365.353 on 64 procs for 250000 steps with 864 atoms

Performance: 118.242 ns/day, 0.203 hours/ns, 684.270 timesteps/s
378.2% CPU use with 16 MPI tasks x 4 OpenMP threads

MPI task timing breakdown:
Section |  min time  |  avg time  |  max time  |%varavg| %total
---------------------------------------------------------------
Pair    | 24.126     | 27.231     | 30.204     |  37.0 |  7.45
Bond    | 1.62       | 1.9302     | 2.5349     |  16.8 |  0.53
Kspace  | 190.11     | 194.71     | 200.93     |  22.8 | 53.29
Neigh   | 1.6789     | 1.8401     | 2.0816     |   8.6 |  0.50
Comm    | 50.198     | 54.863     | 58.655     |  29.5 | 15.02
Output  | 0.68454    | 0.68489    | 0.68721    |   0.1 |  0.19
Modify  | 59.506     | 64.943     | 69.379     |  41.1 | 17.78
Other   |            | 19.15      |            |       |  5.24

Nlocal:        54.0000 ave          63 max          45 min
Histogram: 1 3 3 1 1 0 0 4 0 3
Nghost:        2469.75 ave        2501 max        2439 min
Histogram: 2 1 0 4 1 3 1 2 0 2
Neighs:        12563.1 ave       14458 max       10262 min
Histogram: 1 0 4 2 1 1 0 2 2 3

Total # of neighbors = 201009
Ave neighs/atom = 232.64931
Ave special neighs/atom = 2.0000000
Neighbor list builds = 7555
Dangerous builds = 0

unfix		3
unfix		2
unfix		1

write_data	data.final.${pid} nocoeff
write_data	data.final.0 nocoeff
System init for write_data ...
PPPM initialization ...
  extracting TIP4P info from pair style
  using 12-bit tables for long-range coulomb (../kspace.cpp:340)
  G vector (1/distance) = 0.37295212
  grid = 24 27 27
  stencil order = 5
  estimated absolute RMS force accuracy = 0.0028857246
  estimated relative force accuracy = 8.690274e-06
  using double precision FFTW3
  3d grid and FFT values/proc = 6615 1296
Last active /omp style is kspace_style pppm/tip4p/omp

write_restart   restart.lmp.${pid}
write_restart   restart.lmp.0
System init for write_restart ...
PPPM initialization ...
  extracting TIP4P info from pair style
  using 12-bit tables for long-range coulomb (../kspace.cpp:340)
  G vector (1/distance) = 0.37295212
  grid = 24 27 27
  stencil order = 5
  estimated absolute RMS force accuracy = 0.0028857246
  estimated relative force accuracy = 8.690274e-06
  using double precision FFTW3
  3d grid and FFT values/proc = 6615 1296
Last active /omp style is kspace_style pppm/tip4p/omp
Total wall time: 0:06:05
