LAMMPS data file via MDAnalysis

        1728  atoms
        1152  bonds
         576  angles
           0  dihedrals
           0  impropers

           2  atom types
           1  bond types
           1  angle types
           0  dihedral types
           0  improper types

0.000000 18.180000 xlo xhi
0.000000 45.801891 ylo yhi
0.000000 22.205000 zlo zhi


Masses

1 1.007940
2 15.999400

Atoms

1 0 2 -1.179400 1.254940 2.293128 1.973606
2 0 1 0.589700 0.425500 2.004598 2.355839
3 0 1 0.589700 1.280693 3.235377 2.139983
4 0 2 -1.179400 3.150727 6.483586 20.837826
5 0 1 0.589700 3.959290 6.197677 20.411434
6 0 1 0.589700 2.985858 7.355639 20.479094
7 0 2 -1.179400 7.719341 9.507577 16.987673
8 0 1 0.589700 7.812943 9.527167 17.940683
9 0 1 0.589700 6.848065 9.870205 16.824430
10 0 2 -1.179400 3.538085 6.594723 6.333973
11 0 1 0.589700 2.696522 6.183103 6.135091
12 0 1 0.589700 3.462329 7.479668 5.976967
13 0 2 -1.179400 0.223709 10.290941 8.864883
14 0 1 0.589700 0.269010 11.146805 9.291298
15 0 1 0.589700 0.983308 9.814828 9.201708
16 0 2 -1.179400 3.116457 14.805681 6.283396
17 0 1 0.589700 3.077803 14.777188 7.239990
18 0 1 0.589700 3.819266 14.197406 6.053210
19 0 2 -1.179400 1.117312 2.050085 21.429588
20 0 1 0.589700 1.185877 2.147669 0.188034
21 0 1 0.589700 1.231701 2.937007 21.088116
22 0 2 -1.179400 9.814729 13.224780 17.205097
23 0 1 0.589700 10.570107 13.753332 16.946079
24 0 1 0.589700 9.857792 13.196818 18.161518
25 0 2 -1.179400 0.682720 20.730234 20.437704
26 0 1 0.589700 0.719140 20.912443 19.498131
27 0 1 0.589700 0.344481 19.836634 20.495857
28 0 2 -1.179400 5.427335 2.487476 1.596777
29 0 1 0.589700 4.877913 1.891174 2.106174
30 0 1 0.589700 5.390734 3.315308 2.076157
31 0 2 -1.179400 7.275839 22.310419 6.604422
32 0 1 0.589700 8.060766 22.206215 6.065486
33 0 1 0.589700 6.602483 21.804647 6.148504
34 0 2 -1.179400 0.599876 2.308497 9.473934
35 0 1 0.589700 0.671487 3.218420 9.762332
36 0 1 0.589700 1.487838 1.959623 9.558166
37 0 2 -1.179400 2.517879 22.310049 8.465372
38 0 1 0.589700 1.716649 22.025229 8.906077
39 0 1 0.589700 3.218129 22.111471 9.087936
40 0 2 -1.179400 8.026063 1.195594 20.150021
41 0 1 0.589700 7.233151 1.634582 20.459463
42 0 1 0.589700 7.710772 46.186218 19.751356
43 0 2 -1.179400 0.679089 10.664864 1.660327
44 0 1 0.589700 1.486243 10.312597 2.036718
45 0 1 0.589700 0.560403 11.509381 2.095206
46 0 2 -1.179400 14.536984 20.841383 19.635977
47 0 1 0.589700 15.238656 21.248112 20.145309
48 0 1 0.589700 13.742287 21.297642 19.914255
49 0 2 -1.179400 7.463706 14.229675 16.112942
50 0 1 0.589700 7.470261 15.099424 16.512754
51 0 1 0.589700 8.225930 13.787617 16.488123
52 0 2 -1.179400 0.184587 13.248965 17.467489
53 0 1 0.589700 0.335587 13.378492 18.404388
54 0 1 0.589700 17.639231 13.827987 17.260118
55 0 2 -1.179400 13.967322 13.570036 2.680425
56 0 1 0.589700 14.003715 13.390532 3.620525
57 0 1 0.589700 14.205687 12.739753 2.267793
58 0 2 -1.179400 9.687545 12.876956 9.661933
59 0 1 0.589700 8.833042 13.236013 9.420745
60 0 1 0.589700 9.718308 12.950622 10.616395
61 0 2 -1.179400 11.616871 21.846897 1.337227
62 0 1 0.589700 12.458449 21.473021 1.600307
63 0 1 0.589700 11.638497 22.744001 1.670431
64 0 2 -1.179400 7.717370 9.082586 1.909155
65 0 1 0.589700 7.831206 8.156212 1.696817
66 0 1 0.589700 7.728438 9.112774 2.866414
67 0 2 -1.179400 9.908908 13.102283 12.534329
68 0 1 0.589700 10.076959 12.221124 12.868471
69 0 1 0.589700 10.654808 13.620173 12.838451
70 0 2 -1.179400 5.873994 2.263826 16.512428
71 0 1 0.589700 5.736567 2.359369 15.569371
72 0 1 0.589700 5.137145 1.729155 16.809446
73 0 2 -1.179400 14.218430 18.381996 21.038025
74 0 1 0.589700 14.447957 19.191471 20.581341
75 0 1 0.589700 13.391216 18.108376 20.640295
76 0 2 -1.179400 10.291781 2.849282 13.406144
77 0 1 0.589700 10.399234 3.641654 12.879711
78 0 1 0.589700 10.450525 3.135164 14.306333
79 0 2 -1.179400 2.858857 21.248434 0.149638
80 0 1 0.589700 2.151590 21.037571 21.731070
81 0 1 0.589700 3.319878 21.980322 21.931072
82 0 2 -1.179400 5.418172 2.459624 6.004164
83 0 1 0.589700 4.698604 1.831745 6.074050
84 0 1 0.589700 6.169858 1.934530 5.727942
85 0 2 -1.179400 7.188452 22.152380 9.339081
86 0 1 0.589700 7.203864 22.301088 8.393037
87 0 1 0.589700 8.047125 21.777269 9.537147
88 0 2 -1.179400 4.580434 21.190281 12.565180
89 0 1 0.589700 4.673595 21.254017 11.614058
90 0 1 0.589700 4.826022 20.288176 12.770528
91 0 2 -1.179400 12.612370 9.364050 2.179866
92 0 1 0.589700 12.461889 9.220439 3.114789
93 0 1 0.589700 11.860969 9.883749 1.892859
94 0 2 -1.179400 0.201670 21.301229 9.612960
95 0 1 0.589700 17.616987 21.771494 9.299888
96 0 1 0.589700 0.053276 21.194180 10.553108
97 0 2 -1.179400 16.710819 9.270041 17.126680
98 0 1 0.589700 16.761145 8.369617 16.805765
99 0 1 0.589700 15.847177 9.576166 16.847879
100 0 2 -1.179400 4.859174 18.367496 8.924094
101 0 1 0.589700 5.549988 17.722010 9.075698
102 0 1 0.589700 4.986767 18.646929 8.016948
103 0 2 -1.179400 10.342499 10.488544 13.395292
104 0 1 0.589700 9.622899 9.902081 13.160352
105 0 1 0.589700 10.348994 10.489065 14.353067
106 0 2 -1.179400 12.369701 1.125842 2.346058
107 0 1 0.589700 12.341116 1.248402 3.295539
108 0 1 0.589700 11.517984 1.437214 2.037931
109 0 2 -1.179400 14.668736 5.089295 2.053367
110 0 1 0.589700 14.059529 5.613844 1.533028
111 0 1 0.589700 15.467238 5.616464 2.092750
112 0 2 -1.179400 1.125950 5.212976 9.817060
113 0 1 0.589700 0.925774 5.314122 10.748223
114 0 1 0.589700 1.955375 5.676662 9.697909
115 0 2 -1.179400 9.974260 13.100099 19.927114
116 0 1 0.589700 10.574230 13.744420 20.303595
117 0 1 0.589700 9.101027 13.439157 20.126604
118 0 2 -1.179400 14.362877 21.416693 2.072896
119 0 1 0.589700 14.269377 21.597805 3.008733
120 0 1 0.589700 14.989027 22.071379 1.762806
121 0 2 -1.179400 3.267325 9.438728 2.610912
122 0 1 0.589700 3.417404 9.452738 3.556777
123 0 1 0.589700 2.970326 8.547282 2.428089
124 0 2 -1.179400 5.015320 13.152799 16.957350
125 0 1 0.589700 5.084941 13.321795 17.897528
126 0 1 0.589700 5.802104 13.550271 16.582912
127 0 2 -1.179400 9.822112 20.918901 19.846039
128 0 1 0.589700 9.125541 21.477627 20.191893
129 0 1 0.589700 10.633007 21.364111 20.093843
130 0 2 -1.179400 16.132757 22.935637 8.756949
131 0 1 0.589700 16.103252 23.840214 9.068630
132 0 1 0.589700 15.279361 22.571968 8.995113
133 0 2 -1.179400 1.302612 2.438978 16.227047
134 0 1 0.589700 1.057115 3.252479 16.667992
135 0 1 0.589700 0.551502 1.859552 16.357714
136 0 2 -1.179400 5.432397 5.010595 2.804479
137 0 1 0.589700 5.463264 5.124332 3.754991
138 0 1 0.589700 4.729735 5.593442 2.515480
139 0 2 -1.179400 7.776670 9.209000 19.702208
140 0 1 0.589700 7.081141 9.607403 20.226345
141 0 1 0.589700 7.853885 8.318160 20.043892
142 0 2 -1.179400 5.569780 5.093466 20.029930
143 0 1 0.589700 5.600845 4.197857 20.366405
144 0 1 0.589700 5.616440 4.994547 19.078403
145 0 2 -1.179400 8.281141 6.770270 5.637846
146 0 1 0.589700 7.474086 6.260225 5.563015
147 0 1 0.589700 8.385859 6.917336 6.578461
148 0 2 -1.179400 16.037632 14.341570 16.613634
149 0 1 0.589700 15.958560 15.242987 16.925825
150 0 1 0.589700 16.049772 14.418007 15.658973
151 0 2 -1.179400 14.629663 10.654096 21.117636
152 0 1 0.589700 14.705682 10.743875 22.068176
153 0 1 0.589700 14.595960 11.554049 20.793249
154 0 2 -1.179400 9.756742 13.142682 2.181659
155 0 1 0.589700 10.560117 13.615160 1.961458
156 0 1 0.589700 9.833697 12.309444 1.716650
157 0 2 -1.179400 7.102702 16.871370 19.935860
158 0 1 0.589700 7.801152 17.433657 20.272001
159 0 1 0.589700 7.250391 16.844423 18.989901
160 0 2 -1.179400 8.002649 6.649237 20.719673
161 0 1 0.589700 7.451926 6.073413 20.188553
162 0 1 0.589700 7.730894 6.476746 21.621748
163 0 2 -1.179400 10.459736 5.427968 4.892230
164 0 1 0.589700 11.195193 5.865429 5.322228
165 0 1 0.589700 9.688064 5.917789 5.178068
166 0 2 -1.179400 3.363439 44.954948 8.746448
167 0 1 0.589700 2.553544 44.451977 8.655973
168 0 1 0.589700 3.729879 44.671825 9.584802
169 0 2 -1.179400 11.380713 22.407763 5.475479
170 0 1 0.589700 12.252908 22.246908 5.113797
171 0 1 0.589700 11.218693 23.336035 5.307328
172 0 2 -1.179400 5.204809 12.785932 2.420523
173 0 1 0.589700 4.471409 13.147938 1.922199
174 0 1 0.589700 5.285954 11.885039 2.107330
175 0 2 -1.179400 9.869604 3.128823 8.448417
176 0 1 0.589700 9.068892 2.662995 8.691334
177 0 1 0.589700 9.901480 3.069638 7.492984
178 0 2 -1.179400 16.527805 14.479310 2.036012
179 0 1 0.589700 15.710789 14.065193 2.315655
180 0 1 0.589700 16.385443 15.414210 2.183977
181 0 2 -1.179400 1.229439 5.330566 5.521699
182 0 1 0.589700 0.427451 5.798545 5.756114
183 0 1 0.589700 1.094843 4.443082 5.854223
184 0 2 -1.179400 7.147261 16.674973 9.575033
185 0 1 0.589700 7.960401 17.140753 9.377556
186 0 1 0.589700 7.341247 15.759136 9.375375
187 0 2 -1.179400 5.032646 20.718386 1.931258
188 0 1 0.589700 5.720432 21.341904 1.696586
189 0 1 0.589700 4.337460 20.875216 1.291327
190 0 2 -1.179400 12.531900 6.715405 1.253676
191 0 1 0.589700 12.512010 6.836014 0.303720
192 0 1 0.589700 12.562000 7.604086 1.608149
193 0 2 -1.179400 16.590256 9.376804 12.746489
194 0 1 0.589700 16.524736 8.480807 13.076926
195 0 1 0.589700 16.514158 9.288581 11.795806
196 0 2 -1.179400 16.414854 6.897895 13.440122
197 0 1 0.589700 17.189035 6.443814 13.106040
198 0 1 0.589700 15.674892 6.420682 13.063499
199 0 2 -1.179400 5.132008 12.987046 5.337486
200 0 1 0.589700 5.002377 12.781952 4.410959
201 0 1 0.589700 6.015348 13.354620 5.380676
202 0 2 -1.179400 16.159670 17.091648 17.285793
203 0 1 0.589700 16.883596 17.525991 16.833637
204 0 1 0.589700 15.390784 17.621387 17.073114
205 0 2 -1.179400 16.719839 14.632353 6.052339
206 0 1 0.589700 16.881140 15.483457 5.644900
207 0 1 0.589700 16.527117 14.836698 6.967996
208 0 2 -1.179400 12.957210 1.770335 17.329830
209 0 1 0.589700 12.139701 2.127895 16.981838
210 0 1 0.589700 12.798303 1.678833 18.269909
211 0 2 -1.179400 11.845539 14.568852 8.639876
212 0 1 0.589700 11.153984 14.013629 9.001093
213 0 1 0.589700 11.631325 15.449368 8.948319
214 0 2 -1.179400 14.788861 2.382060 1.648203
215 0 1 0.589700 13.915002 2.102685 1.923259
216 0 1 0.589700 14.754223 3.338225 1.674457
217 0 2 -1.179400 5.402485 10.401011 1.211203
218 0 1 0.589700 6.222156 9.914932 1.305972
219 0 1 0.589700 4.736390 9.825253 1.587751
220 0 2 -1.179400 15.033170 4.896610 19.911282
221 0 1 0.589700 14.227639 5.211674 20.322561
222 0 1 0.589700 15.735449 5.344712 20.383673
223 0 2 -1.179400 3.183676 6.259769 16.653046
224 0 1 0.589700 3.129065 7.182018 16.903452
225 0 1 0.589700 3.245571 6.273506 15.697350
226 0 2 -1.179400 5.389346 18.108707 1.079189
227 0 1 0.589700 4.668236 17.666672 1.528374
228 0 1 0.589700 5.409255 18.985415 1.463020
229 0 2 -1.179400 12.074029 9.287558 4.745180
230 0 1 0.589700 12.262689 8.465860 5.198710
231 0 1 0.589700 12.841408 9.835364 4.912703
232 0 2 -1.179400 2.844276 14.665415 13.450899
233 0 1 0.589700 3.624839 14.164023 13.213365
234 0 1 0.589700 2.900434 14.760715 14.402283
235 0 2 -1.179400 17.368607 0.740183 16.558994
236 0 1 0.589700 16.671869 1.362718 16.349457
237 0 1 0.589700 17.494070 46.042061 15.751971
238 0 2 -1.179400 3.155765 17.254229 5.561959
239 0 1 0.589700 3.137569 16.338259 5.839293
240 0 1 0.589700 4.024518 17.565321 5.818477
241 0 2 -1.179400 14.037710 13.264281 9.631296
242 0 1 0.589700 14.043748 13.376795 10.582437
243 0 1 0.589700 13.356997 13.862985 9.322878
244 0 2 -1.179400 10.080502 10.642212 16.101530
245 0 1 0.589700 9.857129 11.496969 16.470160
246 0 1 0.589700 9.305955 10.102360 16.261766
247 0 2 -1.179400 5.098294 21.237080 4.803479
248 0 1 0.589700 4.299903 21.721539 5.015592
249 0 1 0.589700 4.965069 20.937120 3.903738
250 0 2 -1.179400 16.036404 23.020267 15.914721
251 0 1 0.589700 16.155489 22.801983 14.989798
252 0 1 0.589700 15.952565 23.973663 15.927294
253 0 2 -1.179400 3.259377 6.776799 1.752410
254 0 1 0.589700 3.232945 6.659438 0.802205
255 0 1 0.589700 2.515247 6.269460 2.077912
256 0 2 -1.179400 2.413910 9.216485 10.031024
257 0 1 0.589700 2.742610 8.345179 9.809340
258 0 1 0.589700 3.075138 9.816914 9.685778
259 0 2 -1.179400 0.751078 10.559320 13.774491
260 0 1 0.589700 18.128006 10.179131 13.437037
261 0 1 0.589700 0.658261 10.517178 14.726848
262 0 2 -1.179400 17.024570 6.428148 20.959579
263 0 1 0.589700 17.757244 5.947707 20.572952
264 0 1 0.589700 16.978201 7.240712 20.455523
265 0 2 -1.179400 7.113774 22.341627 1.371176
266 0 1 0.589700 7.472376 23.226032 1.445769
267 0 1 0.589700 7.759091 21.783958 1.806570
268 0 2 -1.179400 7.583158 16.889585 12.370832
269 0 1 0.589700 7.324531 16.715141 11.465281
270 0 1 0.589700 7.602587 16.027081 12.785651
271 0 2 -1.179400 12.623886 1.498987 19.927490
272 0 1 0.589700 13.487822 1.728894 20.271202
273 0 1 0.589700 12.015611 2.056043 20.413992
274 0 2 -1.179400 5.695120 2.878903 8.855856
275 0 1 0.589700 5.845536 2.836359 7.910900
276 0 1 0.589700 6.350676 2.289757 9.230158
277 0 2 -1.179400 5.667954 5.047133 17.090538
278 0 1 0.589700 5.606920 4.138152 16.796787
279 0 1 0.589700 4.782836 5.395373 16.978376
280 0 2 -1.179400 12.003041 8.890969 17.238075
281 0 1 0.589700 12.070050 8.975746 18.189751
282 0 1 0.589700 11.301242 9.494172 16.991999
283 0 2 -1.179400 9.865022 10.412119 8.376080
284 0 1 0.589700 10.007380 11.305777 8.688177
285 0 1 0.589700 10.465279 9.877936 8.897002
286 0 2 -1.179400 10.030512 10.597535 20.637869
287 0 1 0.589700 9.182331 10.241210 20.371628
288 0 1 0.589700 9.953242 11.539366 20.485672
289 0 2 -1.179400 3.619370 0.806117 17.162352
290 0 1 0.589700 3.537125 0.653179 18.104261
291 0 1 0.589700 2.845641 1.322371 16.934547
292 0 2 -1.179400 3.139376 17.317524 2.682913
293 0 1 0.589700 3.033664 16.402384 2.422935
294 0 1 0.589700 3.216141 17.288933 3.637201
295 0 2 -1.179400 7.596930 14.396814 13.404906
296 0 1 0.589700 7.504374 14.240898 14.345367
297 0 1 0.589700 8.460675 14.045096 13.186947
298 0 2 -1.179400 10.286709 5.340443 2.191643
299 0 1 0.589700 11.054110 5.874039 1.983279
300 0 1 0.589700 10.279519 5.293349 3.148252
301 0 2 -1.179400 9.360347 17.880455 6.242414
302 0 1 0.589700 9.397730 18.767159 5.883704
303 0 1 0.589700 10.118351 17.435757 5.861841
304 0 2 -1.179400 14.497682 18.725540 1.564138
305 0 1 0.589700 14.618422 18.638378 0.617992
306 0 1 0.589700 14.689226 19.645418 1.746817
307 0 2 -1.179400 7.137493 16.588186 5.393669
308 0 1 0.589700 7.205425 16.732523 4.449262
309 0 1 0.589700 7.960473 16.926317 5.748151
310 0 2 -1.179400 14.381387 18.839537 13.406948
311 0 1 0.589700 14.209401 19.718981 13.070301
312 0 1 0.589700 13.616936 18.327541 13.141337
313 0 2 -1.179400 12.321508 6.600915 8.446218
314 0 1 0.589700 11.475749 6.332735 8.806932
315 0 1 0.589700 12.954084 6.004588 8.847682
316 0 2 -1.179400 7.692850 14.336740 20.755562
317 0 1 0.589700 7.441620 14.308983 21.679409
318 0 1 0.589700 7.646276 15.263783 20.521826
319 0 2 -1.179400 9.253846 18.147640 1.356034
320 0 1 0.589700 9.926883 18.079407 2.034103
321 0 1 0.589700 8.530617 17.610332 1.680488
322 0 2 -1.179400 7.022058 22.364820 16.078663
323 0 1 0.589700 7.196898 22.066967 15.185369
324 0 1 0.589700 7.792322 22.091684 16.578083
325 0 2 -1.179400 16.776228 6.678895 16.146456
326 0 1 0.589700 16.643770 6.590061 15.202040
327 0 1 0.589700 16.132713 6.086412 16.536057
328 0 2 -1.179400 11.482157 22.444260 8.184508
329 0 1 0.589700 11.341303 23.372118 8.372801
330 0 1 0.589700 11.617459 22.409246 7.236960
331 0 2 -1.179400 3.144776 6.624598 13.869637
332 0 1 0.589700 3.251278 7.539077 13.607658
333 0 1 0.589700 3.943760 6.193341 13.564957
334 0 2 -1.179400 0.654710 21.531986 17.513618
335 0 1 0.589700 18.116606 21.913347 17.019978
336 0 1 0.589700 1.431471 21.989014 17.189707
337 0 2 -1.179400 16.236849 8.862890 9.861497
338 0 1 0.589700 16.959991 9.323642 9.434983
339 0 1 0.589700 15.460904 9.380976 9.645720
340 0 2 -1.179400 0.562896 18.758121 6.246198
341 0 1 0.589700 1.446816 18.504808 5.978096
342 0 1 0.589700 0.548725 18.614677 7.193069
343 0 2 -1.179400 0.684419 18.703238 1.732979
344 0 1 0.589700 1.457217 18.192036 1.974920
345 0 1 0.589700 0.558737 18.522289 0.800886
346 0 2 -1.179400 13.860204 18.574734 5.943370
347 0 1 0.589700 14.692489 18.142870 5.748474
348 0 1 0.589700 13.192745 17.939266 5.683459
349 0 2 -1.179400 2.712170 22.721806 16.155565
350 0 1 0.589700 2.505692 22.636124 15.224223
351 0 1 0.589700 3.402034 22.075764 16.309111
352 0 2 -1.179400 15.843542 22.414883 6.128734
353 0 1 0.589700 16.628496 22.109083 5.673059
354 0 1 0.589700 16.066698 22.354816 7.058234
355 0 2 -1.179400 7.845160 1.394316 9.753686
356 0 1 0.589700 7.733176 0.491317 9.456483
357 0 1 0.589700 7.700425 1.355666 10.699694
358 0 2 -1.179400 10.563820 2.641222 21.039570
359 0 1 0.589700 10.506014 3.535403 20.702831
360 0 1 0.589700 9.759550 2.218549 20.736761
361 0 2 -1.179400 5.425347 10.529131 20.674580
362 0 1 0.589700 5.275065 11.431721 20.393467
363 0 1 0.589700 5.381312 10.564712 21.630703
364 0 2 -1.179400 0.732402 5.645416 12.600409
365 0 1 0.589700 0.713690 4.774601 12.997501
366 0 1 0.589700 1.429529 6.106918 13.067471
367 0 2 -1.179400 14.955714 2.392620 21.241425
368 0 1 0.589700 14.971809 3.310588 20.970655
369 0 1 0.589700 14.875768 2.424793 0.003443
370 0 2 -1.179400 13.898317 18.728601 8.860229
371 0 1 0.589700 13.864171 18.506983 7.929084
372 0 1 0.589700 14.467154 18.061586 9.245349
373 0 2 -1.179400 0.779742 13.431044 2.656999
374 0 1 0.589700 0.888910 13.327172 3.602861
375 0 1 0.589700 18.102522 13.828112 2.557419
376 0 2 -1.179400 7.118001 14.053141 8.920827
377 0 1 0.589700 6.188177 13.913074 9.103128
378 0 1 0.589700 7.211797 13.858476 7.987748
379 0 2 -1.179400 18.098177 21.262045 12.414140
380 0 1 0.589700 18.144308 20.391203 12.808934
381 0 1 0.589700 0.669951 21.725538 12.766469
382 0 2 -1.179400 2.252594 17.239683 9.534046
383 0 1 0.589700 3.104341 17.639122 9.354588
384 0 1 0.589700 2.374532 16.312799 9.328537
385 0 2 -1.179400 5.341575 18.669752 6.336140
386 0 1 0.589700 6.022294 18.076946 6.016559
387 0 1 0.589700 5.372777 19.415682 5.736771
388 0 2 -1.179400 9.475416 18.096819 20.707512
389 0 1 0.589700 9.300539 18.120539 21.648912
390 0 1 0.589700 9.751908 18.987577 20.492073
391 0 2 -1.179400 12.582847 6.819934 5.787028
392 0 1 0.589700 12.740999 6.916101 6.726766
393 0 1 0.589700 13.335082 6.321252 5.466792
394 0 2 -1.179400 1.037868 10.823483 21.196020
395 0 1 0.589700 0.267610 10.317722 20.935276
396 0 1 0.589700 0.941558 10.936982 22.142174
397 0 2 -1.179400 9.191025 20.812712 2.358706
398 0 1 0.589700 9.180753 19.955338 1.933048
399 0 1 0.589700 9.967731 21.246887 2.004595
400 0 2 -1.179400 14.285180 13.258080 12.519902
401 0 1 0.589700 15.027737 13.722021 12.907852
402 0 1 0.589700 14.338326 12.374252 12.883697
403 0 2 -1.179400 18.072599 18.440104 8.918885
404 0 1 0.589700 0.653517 18.037027 9.322095
405 0 1 0.589700 18.046091 19.324459 9.284300
406 0 2 -1.179400 17.027916 1.301500 2.794807
407 0 1 0.589700 17.068214 0.420090 2.423565
408 0 1 0.589700 16.171240 1.635651 2.526956
409 0 2 -1.179400 11.448985 22.771908 16.411266
410 0 1 0.589700 11.543772 23.690800 16.662046
411 0 1 0.589700 12.293863 22.376024 16.627333
412 0 2 -1.179400 0.035805 21.413074 5.055163
413 0 1 0.589700 0.251242 21.252949 4.135766
414 0 1 0.589700 0.158477 20.565023 5.481974
415 0 2 -1.179400 7.747226 6.270847 1.360255
416 0 1 0.589700 7.211797 5.619143 1.813489
417 0 1 0.589700 8.647925 6.051898 1.601467
418 0 2 -1.179400 10.138780 2.679288 5.646780
419 0 1 0.589700 9.377212 2.199730 5.319442
420 0 1 0.589700 10.204793 3.443817 5.074308
421 0 2 -1.179400 12.243899 6.817597 13.175940
422 0 1 0.589700 12.444871 7.738946 13.011746
423 0 1 0.589700 12.352757 6.712911 14.121749
424 0 2 -1.179400 12.985483 24.739542 0.538988
425 0 1 0.589700 13.350964 25.169151 1.312940
426 0 1 0.589700 12.092870 25.080536 0.473747
427 0 2 -1.179400 5.200863 13.112388 12.783253
428 0 1 0.589700 5.302529 12.185769 13.000648
429 0 1 0.589700 6.096431 13.449961 12.747271
430 0 2 -1.179400 16.285179 17.070662 12.465915
431 0 1 0.589700 15.534547 17.579376 12.773871
432 0 1 0.589700 17.043524 17.626213 12.648362
433 0 2 -1.179400 5.405542 21.132277 19.719387
434 0 1 0.589700 5.162867 20.400301 20.286818
435 0 1 0.589700 4.855122 21.857557 20.015532
436 0 2 -1.179400 14.639735 2.774891 6.017958
437 0 1 0.589700 14.779131 2.915359 6.955076
438 0 1 0.589700 15.400867 2.266943 5.735554
439 0 2 -1.179400 16.486910 1.586792 12.855108
440 0 1 0.589700 16.697342 0.725030 13.214920
441 0 1 0.589700 15.632886 1.802046 13.231525
442 0 2 -1.179400 12.090380 9.174193 9.641436
443 0 1 0.589700 12.837030 9.732153 9.421885
444 0 1 0.589700 12.172028 8.422596 9.054027
445 0 2 -1.179400 0.754148 10.638632 16.661135
446 0 1 0.589700 0.575063 11.507038 17.021896
447 0 1 0.589700 18.178226 10.115773 16.904400
448 0 2 -1.179400 7.257707 16.578819 2.475535
449 0 1 0.589700 7.116705 15.756655 2.005826
450 0 1 0.589700 6.655197 17.197437 2.061785
451 0 2 -1.179400 0.513073 13.459042 20.292940
452 0 1 0.589700 0.558850 12.569434 20.643368
453 0 1 0.589700 17.821318 13.760960 20.519073
454 0 2 -1.179400 4.597291 12.954690 10.093369
455 0 1 0.589700 4.768525 13.024564 11.033139
456 0 1 0.589700 4.761541 12.034502 9.887205
457 0 2 -1.179400 5.379180 2.760407 13.782477
458 0 1 0.589700 6.233444 2.491857 13.442682
459 0 1 0.589700 4.759200 2.515313 13.094810
460 0 2 -1.179400 10.182327 5.148786 19.955999
461 0 1 0.589700 10.242432 5.258246 19.006384
462 0 1 0.589700 9.561226 5.821350 20.236528
463 0 2 -1.179400 16.052086 45.394684 18.778439
464 0 1 0.589700 16.367420 45.926434 19.509745
465 0 1 0.589700 16.591137 45.665314 18.034470
466 0 2 -1.179400 0.605378 2.970559 13.506108
467 0 1 0.589700 17.875378 2.727306 13.386232
468 0 1 0.589700 0.782255 2.792901 14.430496
469 0 2 -1.179400 12.069552 17.616722 17.210960
470 0 1 0.589700 11.336473 18.039700 16.762779
471 0 1 0.589700 12.849290 18.032934 16.842211
472 0 2 -1.179400 5.123320 18.249626 15.983646
473 0 1 0.589700 4.948845 19.088013 16.411543
474 0 1 0.589700 4.934062 18.408018 15.058205
475 0 2 -1.179400 7.890516 8.884640 12.675946
476 0 1 0.589700 7.037386 9.246621 12.917622
477 0 1 0.589700 7.780860 7.937322 12.758001
478 0 2 -1.179400 7.112015 14.187108 1.129470
479 0 1 0.589700 7.955663 13.933402 1.505290
480 0 1 0.589700 6.478850 13.597856 1.540355
481 0 2 -1.179400 9.213207 18.578220 16.396843
482 0 1 0.589700 9.357853 18.301178 15.491526
483 0 1 0.589700 9.035434 19.516703 16.334927
484 0 2 -1.179400 14.517187 10.796293 13.686461
485 0 1 0.589700 13.804193 10.327269 13.251969
486 0 1 0.589700 15.313501 10.363464 13.377067
487 0 2 -1.179400 2.970351 1.127086 5.834247
488 0 1 0.589700 2.253015 1.754776 5.925506
489 0 1 0.589700 3.080691 1.024400 4.888389
490 0 2 -1.179400 11.567871 22.698038 13.527292
491 0 1 0.589700 10.805605 22.132607 13.399875
492 0 1 0.589700 11.537725 22.936192 14.454480
493 0 2 -1.179400 7.896549 1.374334 2.397978
494 0 1 0.589700 7.083967 1.683818 1.996435
495 0 1 0.589700 8.576509 1.940595 2.031932
496 0 2 -1.179400 7.680065 22.313938 20.752356
497 0 1 0.589700 6.986798 21.908436 20.230682
498 0 1 0.589700 7.421989 22.153923 21.660728
499 0 2 -1.179400 0.592958 17.988619 21.067692
500 0 1 0.589700 18.096294 17.401407 20.747477
501 0 1 0.589700 1.385059 17.706474 20.609110
502 0 2 -1.179400 0.180839 18.724112 13.269143
503 0 1 0.589700 0.892062 18.250454 12.836786
504 0 1 0.589700 0.336979 18.590414 14.204613
505 0 2 -1.179400 14.506930 5.268727 17.186882
506 0 1 0.589700 14.723542 4.373068 16.927721
507 0 1 0.589700 14.540031 5.256592 18.144032
508 0 2 -1.179400 13.894057 21.561743 12.520624
509 0 1 0.589700 13.066317 21.773430 12.953538
510 0 1 0.589700 13.657904 21.431574 11.601577
511 0 2 -1.179400 9.791645 18.227985 13.802220
512 0 1 0.589700 9.022682 17.831581 13.391397
513 0 1 0.589700 9.753058 19.149000 13.544398
514 0 2 -1.179400 14.709197 2.319716 8.864494
515 0 1 0.589700 15.283577 1.569264 9.017985
516 0 1 0.589700 13.863214 2.053015 9.225778
517 0 2 -1.179400 7.708523 14.055916 6.089784
518 0 1 0.589700 7.510722 14.909453 5.704120
519 0 1 0.589700 8.401358 13.696653 5.534669
520 0 2 -1.179400 7.916057 6.747183 16.223215
521 0 1 0.589700 7.103607 6.395021 16.588148
522 0 1 0.589700 7.894017 7.678369 16.443699
523 0 2 -1.179400 17.076479 8.870131 5.174393
524 0 1 0.589700 17.816927 9.405090 5.461791
525 0 1 0.589700 17.174789 8.047522 5.654093
526 0 2 -1.179400 7.550865 7.193546 8.507051
527 0 1 0.589700 7.534038 7.948188 9.095982
528 0 1 0.589700 8.334742 6.706808 8.763444
529 0 2 -1.179400 12.660262 9.414245 12.396781
530 0 1 0.589700 11.752877 9.673682 12.560157
531 0 1 0.589700 12.702589 9.271779 11.450599
532 0 2 -1.179400 13.900089 21.156385 4.665391
533 0 1 0.589700 14.506094 21.406115 5.363762
534 0 1 0.589700 13.777802 20.213951 4.779612
535 0 2 -1.179400 16.576601 22.388107 20.873934
536 0 1 0.589700 17.430340 21.968315 20.763912
537 0 1 0.589700 16.542629 23.047716 20.180716
538 0 2 -1.179400 12.325491 6.478035 15.871264
539 0 1 0.589700 12.223542 7.359235 16.231020
540 0 1 0.589700 13.158924 6.168448 16.227432
541 0 2 -1.179400 17.090647 6.249156 6.223823
542 0 1 0.589700 16.251728 5.991188 5.840394
543 0 1 0.589700 16.903067 6.365198 7.155866
544 0 2 -1.179400 14.387350 5.074840 9.384270
545 0 1 0.589700 14.333800 4.135562 9.560522
546 0 1 0.589700 15.323458 5.245596 9.274895
547 0 2 -1.179400 13.941939 13.029384 17.416794
548 0 1 0.589700 14.743345 13.385067 17.031433
549 0 1 0.589700 14.020257 12.082443 17.301308
550 0 2 -1.179400 0.869171 10.492731 6.303866
551 0 1 0.589700 0.451584 10.292132 7.142151
552 0 1 0.589700 0.832077 11.447012 6.239680
553 0 2 -1.179400 4.728506 21.154848 9.832124
554 0 1 0.589700 5.574704 21.483540 9.526824
555 0 1 0.589700 4.551940 20.395050 9.277026
556 0 2 -1.179400 3.061998 14.602531 1.724351
557 0 1 0.589700 2.157380 14.365706 1.931606
558 0 1 0.589700 3.139481 14.452870 0.781513
559 0 2 -1.179400 11.841007 14.954564 1.652833
560 0 1 0.589700 12.626704 14.495423 1.951198
561 0 1 0.589700 11.969898 15.063211 0.709993
562 0 2 -1.179400 16.296076 17.249311 5.316807
563 0 1 0.589700 17.051281 17.672716 5.726174
564 0 1 0.589700 16.499489 17.248228 4.380856
565 0 2 -1.179400 9.614509 20.598906 12.571804
566 0 1 0.589700 9.733722 20.779917 11.638875
567 0 1 0.589700 8.715036 20.871376 12.756352
568 0 2 -1.179400 3.862630 0.710831 19.982431
569 0 1 0.589700 3.183963 1.022820 20.581900
570 0 1 0.589700 4.077174 45.635155 20.298960
571 0 2 -1.179400 0.721203 5.011445 17.061520
572 0 1 0.589700 1.544085 5.483787 16.931543
573 0 1 0.589700 0.053475 5.581825 16.679699
574 0 2 -1.179400 16.952393 9.188268 20.062828
575 0 1 0.589700 16.120411 9.584175 20.324160
576 0 1 0.589700 16.958445 9.250810 19.107094
577 0 2 -1.179400 5.168301 10.488599 6.325771
578 0 1 0.589700 5.764448 10.158220 5.652925
579 0 1 0.589700 5.085383 11.422864 6.134791
580 0 2 -1.179400 4.976178 10.442704 9.211831
581 0 1 0.589700 5.747705 9.985424 9.547678
582 0 1 0.589700 5.019310 10.321545 8.262716
583 0 2 -1.179400 2.814518 17.089666 17.163857
584 0 1 0.589700 2.687406 16.170195 16.930090
585 0 1 0.589700 3.652774 17.325089 16.764778
586 0 2 -1.179400 13.826872 21.566936 9.585843
587 0 1 0.589700 13.135471 21.954153 9.048027
588 0 1 0.589700 13.789590 20.631392 9.386942
589 0 2 -1.179400 9.308973 20.610600 5.180889
590 0 1 0.589700 9.911697 21.352577 5.234346
591 0 1 0.589700 9.002911 20.614597 4.273313
592 0 2 -1.179400 7.737668 1.776855 13.017290
593 0 1 0.589700 7.649554 1.033372 13.614033
594 0 1 0.589700 8.523330 2.234222 13.318461
595 0 2 -1.179400 1.132605 5.138482 2.572057
596 0 1 0.589700 0.463057 5.641372 2.107423
597 0 1 0.589700 0.959869 5.307258 3.498888
598 0 2 -1.179400 10.610443 2.820774 16.292698
599 0 1 0.589700 9.853320 2.387950 16.688435
600 0 1 0.589700 10.586978 3.711603 16.642242
601 0 2 -1.179400 5.116905 18.499798 20.605906
602 0 1 0.589700 5.102123 18.270376 21.535667
603 0 1 0.589700 5.770775 17.913609 20.224083
604 0 2 -1.179400 2.313085 17.116106 12.471915
605 0 1 0.589700 2.488177 17.189751 11.533143
606 0 1 0.589700 2.500077 16.200665 12.679882
607 0 2 -1.179400 14.077065 3.020752 13.484036
608 0 1 0.589700 14.183625 3.847241 13.012851
609 0 1 0.589700 13.173870 2.757118 13.304877
610 0 2 -1.179400 7.213809 16.988995 17.125326
611 0 1 0.589700 6.415663 17.411135 16.806017
612 0 1 0.589700 7.919934 17.580643 16.864006
613 0 2 -1.179400 16.207952 14.287279 21.374743
614 0 1 0.589700 16.202011 14.425956 0.130525
615 0 1 0.589700 16.327385 15.161973 21.004622
616 0 2 -1.179400 9.344751 21.298012 17.051968
617 0 1 0.589700 9.615344 21.066050 17.940947
618 0 1 0.589700 10.038287 21.876287 16.733252
619 0 2 -1.179400 16.211115 22.946125 13.042534
620 0 1 0.589700 15.351522 22.557484 12.877306
621 0 1 0.589700 16.833786 22.316801 12.677698
622 0 2 -1.179400 16.772865 6.220656 9.120876
623 0 1 0.589700 17.619040 5.968808 9.492249
624 0 1 0.589700 16.583614 7.073666 9.511971
625 0 2 -1.179400 2.749700 8.938764 17.306227
626 0 1 0.589700 2.886353 9.102865 18.239899
627 0 1 0.589700 1.975316 9.455705 17.082233
628 0 2 -1.179400 16.526531 14.314992 13.335162
629 0 1 0.589700 16.617855 15.203872 12.991849
630 0 1 0.589700 17.262579 13.834474 12.955092
631 0 2 -1.179400 11.887903 14.822963 16.382025
632 0 1 0.589700 11.891887 15.761403 16.570450
633 0 1 0.589700 12.633220 14.476464 16.873661
634 0 2 -1.179400 14.793110 10.276709 6.250839
635 0 1 0.589700 15.637922 9.908829 5.989654
636 0 1 0.589700 14.784239 11.153322 5.866379
637 0 2 -1.179400 0.675201 13.027314 12.528772
638 0 1 0.589700 0.791416 12.154689 12.904760
639 0 1 0.589700 1.387021 13.546596 12.903883
640 0 2 -1.179400 12.125111 14.477713 5.814325
641 0 1 0.589700 12.086071 14.532941 6.769731
642 0 1 0.589700 11.408355 13.888164 5.578426
643 0 2 -1.179400 11.668566 17.200293 4.996100
644 0 1 0.589700 11.984032 16.325474 5.223089
645 0 1 0.589700 11.833562 17.278631 4.055883
646 0 2 -1.179400 0.880484 4.731154 19.948036
647 0 1 0.589700 1.734695 5.113245 20.151945