LAMMPS data file via write_data, version 30 Jul 2021, timestep = 12250000

1920 atoms
2 atom types
1280 bonds
1 bond types
640 angles
1 angle types

-0.21317734846327419 24.943178348465363 xlo xhi
-0.09026824928380428 24.820269249279022 ylo yhi
-0.09481943420018446 22.904819434206146 zlo zhi

Masses

1 1.008
2 15.999

Pair Coeffs # lj/cut/tip4p/long/omp

1 0 0
2 0.21084 3.1668

Bond Coeffs # harmonic/omp

1 450 0.9572

Angle Coeffs # harmonic/omp

1 55 104.52

Atoms # full

1 1 2 -1.1794 4.4984905951603045 1.3999093381295677 4.3156627635865865 0 0 0
2 1 1 0.5897 4.635491538631934 1.9756974158741132 5.0678790286132065 0 0 0
3 1 1 0.5897 5.124396477019424 1.7081330763792606 3.6603898753937782 0 0 0
4 2 2 -1.1794 2.7777268822356604 1.423509671488882 1.9503150220700545 0 0 0
20 7 1 0.5897 3.825020497400595 3.0151004523789577 1.3999812790251511 0 0 0
6 2 1 0.5897 1.8244175026559568 1.4935060508896978 1.9007416726587871 0 0 0
24 8 1 0.5897 1.275132498490868 4.8612565689144756 0.5633371857198246 0 0 0
11 4 1 0.5897 2.7342231078626784 5.054816645684523 3.760416667795876 0 0 0
10 4 2 -1.1794 3.0393089039329664 4.23224689336543 3.3777448405352 0 0 0
25 9 2 -1.1794 4.0158784315974705 5.867218292308477 0.6648084720104134 0 0 0
12 4 1 0.5897 2.568473488869484 4.164796904804456 2.547142821840972 0 0 0
5 2 1 0.5897 2.9632697448691756 1.3307501488343965 2.8847141012993904 0 0 0
15 5 1 0.5897 1.4262972561044616 1.9018974454819835 5.140385923382738 0 0 0
387 129 1 0.5897 3.9434302485042263 0.3004484917715539 1.2392934127679507 0 1 0
14 5 1 0.5897 2.032919037526977 3.203859437838997 4.662300520462391 0 0 0
19 7 2 -1.1794 4.555551573336236 3.3135580863346092 0.858323962972866 0 0 0
21 7 1 0.5897 5.334479955796383 2.9686118985773122 1.2947109272608441 0 0 0
28 10 2 -1.1794 1.3548860089068913 0.2209164032855438 4.694568021518487 0 0 0
22 8 2 -1.1794 1.4820435798161598 4.146606616265701 1.1654985477128184 0 0 0
9 3 1 0.5897 4.856627638955169 4.4894476004051915 3.5895159694095735 0 0 0
16 6 2 -1.1794 -0.03428019122194212 1.4797629000158632 1.7876571198596363 0 0 0
23 8 1 0.5897 0.7311072671453577 4.106743885527145 1.7576584110766411 0 0 0
13 5 2 -1.1794 1.3135027119887144 2.851282119222838 5.186012324592835 0 0 0
27 9 1 0.5897 4.0073223524914345 4.9119914272794665 0.724843090866269 0 0 0
98 33 1 0.5897 0.12249133422576874 5.3480337510616085 3.7437545406889505 1 0 0
7 3 2 -1.1794 5.7921324628830675 4.423058838370243 3.7807737071219356 0 0 0
99 33 1 0.5897 -0.06924068184967336 3.890152469259733 4.103610543855454 1 0 0
386 129 1 0.5897 4.82968741126176 0.24761018490213144 0.013155061493760487 0 1 0
47 16 1 0.5897 5.853832084107968 0.9977598384485915 1.7318579377268586 0 0 0
26 9 1 0.5897 4.88856377952483 6.118844602339882 0.9668936206813614 0 0 0
8 3 1 0.5897 6.043896594146477 5.304463674403707 4.05623354489541 0 0 0
29 10 1 0.5897 2.0913840928841467 -0.06853090780761306 4.1561087527161815 0 0 0
504 168 1 0.5897 1.3074557292691544 3.901482320400938 6.559744272784968 0 0 0
481 161 2 -1.1794 4.557911028839978 1.2609713906768742 10.280957337849875 0 0 0
482 161 1 0.5897 5.3491829404060764 1.2068871867290756 9.74512797434211 0 0 0
483 161 1 0.5897 4.710998625273236 2.0073010664654483 10.860345619842867 0 0 0
484 162 2 -1.1794 2.78386044345888 1.7244642971642816 8.18626904085268 0 0 0
485 162 1 0.5897 3.192555616099644 1.7360846223755022 9.051697204242135 0 0 0
486 162 1 0.5897 3.077525367744456 0.9026237072753375 7.793218182931661 0 0 0
528 176 1 0.5897 5.7510606708394425 1.9776716603031077 7.630531437945513 0 0 0
488 163 1 0.5897 4.73791914215967 4.594595715160672 9.565465762625452 0 0 0
490 164 2 -1.1794 2.909339604503998 4.514385764771392 9.62571535790423 0 0 0
491 164 1 0.5897 2.679631720236195 4.582123387357798 8.699011796589922 0 0 0
492 164 1 0.5897 2.417808108094103 3.7555709090822607 9.939942257879444 0 0 0
493 165 2 -1.1794 1.1909760610299949 2.589527094757153 10.517354789598249 0 0 0
527 176 1 0.5897 5.77352807718754 0.4650088145096474 7.575758252303692 0 0 0
487 163 2 -1.1794 5.649282165351356 4.606059946681973 9.2731509592389 0 0 0
498 166 1 0.5897 0.9392160291642508 1.5301515477263226 7.928558935289162 0 0 0
508 170 2 -1.1794 1.4971503780533673 8.139570407281194e-05 10.897149754947113 0 0 0
501 167 1 0.5897 4.559381155961152 4.036080406857266 6.238378688274767 0 0 0
494 165 1 0.5897 1.1871102031086096 1.6827379600162737 10.823717781662282 0 0 0
502 168 2 -1.1794 1.4430509412263237 4.615290612207517 7.182823558577349 0 0 0
500 167 1 0.5897 3.7920444308589296 2.8761394476877298 6.836210463981096 0 0 0
503 168 1 0.5897 0.713428224777212 4.539009464847119 7.797622629424082 0 0 0
499 167 2 -1.1794 4.626678940369745 3.099588869332566 6.424363346694372 0 0 0
629 210 1 0.5897 1.770812840205459 6.00741314481203 10.250132652313457 0 0 0
496 166 2 -1.1794 -0.0100841315266669 1.634237236459898 7.864136448139302 0 0 0
579 193 1 0.5897 -0.06488500872313968 3.842064620080547 9.696713959743631 1 0 0
505 169 2 -1.1794 4.51818637621485 5.905453502616879 6.258476080473394 0 0 0
867 289 1 0.5897 4.371258116970891 0.08421747758775602 5.779078100791287 0 1 0
578 193 1 0.5897 0.0008072876265746431 5.353243428103341 9.636037060765782 1 0 0
149 50 1 0.5897 1.5030247379701842 5.96947078751575 5.666499627129825 0 0 0
506 169 1 0.5897 3.783653663121331 6.118742188149477 6.833905093968917 0 0 0
495 165 1 0.5897 0.920082514088373 3.1014475898389344 11.279389535719423 0 0 0
1058 353 1 0.5897 -0.10509615561657881 4.431996485142196 14.18916450468306 1 0 0
961 321 2 -1.1794 4.435965067544203 1.5794374323370328 15.857395724199678 0 0 0
962 321 1 0.5897 5.099366877167446 1.396926097043872 15.192017311487094 0 0 0
988 330 2 -1.1794 1.37664184096346 -0.059713299026197306 16.01780506506867 0 0 0
964 322 2 -1.1794 2.781896538005051 1.7196595757642779 13.670025025202117 0 0 0
965 322 1 0.5897 2.9875225265765755 1.772482792825531 14.603337409695246 0 0 0
966 322 1 0.5897 1.8253867932286374 1.7148165726409033 13.63493892481143 0 0 0
981 327 1 0.5897 5.232086914323773 2.7777729593583067 12.546812600036022 0 0 0
970 324 2 -1.1794 3.014324339569428 4.682390446510335 14.474364892157926 0 0 0
971 324 1 0.5897 3.959246036145033 4.696647666758831 14.626267950534912 0 0 0
972 324 1 0.5897 2.702718944971975 3.9261898420377097 14.971555185705576 0 0 0
979 327 2 -1.1794 4.534951379246251 3.3062125703329444 12.15835604824448 0 0 0
975 325 1 0.5897 0.47041750818830574 3.0375159680035875 16.043476880730097 0 0 0
1110 370 1 0.5897 1.9752813027796776 5.739321588415101 15.741687433008682 0 0 0
987 329 1 0.5897 4.433880221886172 5.103785127816495 12.159157664237405 0 0 0
967 323 2 -1.1794 5.7620004006605745 4.499705227119616 14.842940499382259 0 0 0
963 321 1 0.5897 4.527700777247364 0.866646983251262 16.489572514439892 0 0 0
982 328 2 -1.1794 0.956506889718886 4.295587346062089 12.692832740692372 0 0 0
983 328 1 0.5897 0.8939662025568362 5.066046164224496 12.128371575410705 0 0 0
984 328 1 0.5897 1.8028161117867665 4.386837852624233 13.130535204617932 0 0 0
980 327 1 0.5897 3.72660760694275 2.9319578502014507 12.508591174781351 0 0 0
973 325 2 -1.1794 1.3227878377869347 2.7635541883793677 16.38194730518169 0 0 0
990 330 1 0.5897 1.3138058214330122 0.8273189755844785 16.37187187164237 0 0 0
1109 370 1 0.5897 0.4860992968944078 5.776724037189622 16.011207198169174 0 0 0
985 329 2 -1.1794 4.402854060871684 6.056629131903603 12.244368753680105 0 0 0
1008 336 1 0.5897 5.743038314661406 0.7636245067181368 13.22114038445003 0 0 0
976 326 2 -1.1794 -0.14979983778915953 1.4258636776798952 13.47259094409233 0 0 0
1346 449 1 0.5897 3.701306078331208 0.28993614333865275 13.074559817091375 0 1 0
1347 449 1 0.5897 4.163680508826835 0.257209861968904 11.633453657185315 0 1 0
1460 487 1 0.5897 4.347464014112795 2.863890008310765 17.094210234488102 0 0 0
969 323 1 0.5897 6.054115132110322 3.670295652305687 15.220952156594638 0 0 0
1454 485 1 0.5897 2.037276160009983 3.2817213848079763 21.356515963761318 0 0 0
1466 489 1 0.5897 4.264808027198369 5.045035668073266 18.072985605833537 0 0 0
1441 481 2 -1.1794 4.397363174055606 1.6132186357304221 21.53787490760964 0 0 0
1442 481 1 0.5897 3.5528221143730514 1.675314754505465 21.091723927461935 0 0 0
1464 488 1 0.5897 0.724525927554442 4.948151618132316 18.914399642728945 0 0 0
1444 482 2 -1.1794 2.728178834920899 1.1273019041591412 18.97250414087103 0 0 0
1487 496 1 0.5897 5.523923824662754 1.6604337685657022 20.107704980929746 0 0 0
1446 482 1 0.5897 3.09464357156475 1.9648047936149626 18.688903276778383 0 0 0
1456 486 2 -1.1794 0.05250946063028761 1.2655501689819635 18.982045789354913 0 0 0
1450 484 2 -1.1794 3.0991097363438733 4.693096934136255 20.79523775143037 0 0 0
1451 484 1 0.5897 4.053921706789303 4.744802763262204 20.752546331443057 0 0 0
1452 484 1 0.5897 2.8183518755452037 4.679807245087706 19.880288204285 0 0 0
1453 485 2 -1.1794 1.5759002862468745 2.5925420937433716 21.834328403212595 0 0 0
1443 481 1 0.5897 4.371002279677199 2.3049795007345164 22.198882268528116 0 0 0
1447 483 2 -1.1794 5.706944825167361 4.702256535645727 20.96136318934831 0 0 0
1469 490 1 0.5897 1.6070828642521702 1.0134132179166853 21.92377303680476 0 0 0
1461 487 1 0.5897 5.219559348551905 2.844872232140945 18.331443180587634 0 0 0
1462 488 2 -1.1794 1.5390729981350477 4.7224299139075825 18.465275340978025 0 0 0
1459 487 2 -1.1794 4.45333066606973 3.275082920794061 17.952023259342766 0 0 0
1463 488 1 0.5897 1.5593878366722165 5.298508448261912 17.70117260849252 0 0 0
1445 482 1 0.5897 1.7803294456352483 1.2514737397792743 18.924339396970147 0 0 0
1465 489 2 -1.1794 4.2728219787689 5.973420357439238 17.840215920534646 0 0 0
1590 530 1 0.5897 1.9921489430462032 5.790966822288581 21.783093594791545 0 0 0
974 325 1 0.5897 1.459539414927302 3.3082156899684296 17.15704358715235 0 0 0
1455 485 1 0.5897 1.381184827998236 2.9809155811560943 22.687195267812086 0 0 0
1488 496 1 0.5897 5.739670864405646 0.7983593364159435 18.88217433198117 0 0 0
1539 513 1 0.5897 -0.08738128727205663 5.477881707437876 21.147001732361105 1 0 0
1468 490 2 -1.1794 1.6071728371394327 0.0568533794734192 21.957377433412717 0 0 0
1538 513 1 0.5897 -0.15987449889252048 3.9667981933185743 21.091985592826646 1 0 0
143 48 1 0.5897 1.3998390460754446 11.53607017738745 0.9946986876462398 0 0 0
121 41 2 -1.1794 4.569487606891056 7.602883075024025 4.008225487328021 0 0 0
122 41 1 0.5897 3.761097364826203 7.605081272559268 3.495731349782839 0 0 0
123 41 1 0.5897 5.2680855446242605 7.578440881542426 3.3543840710806085 0 0 0
124 42 2 -1.1794 2.4979436382112197 7.80221905941654 2.0381386958971675 0 0 0
134 45 1 0.5897 1.6931144769426258 9.364526452299621 5.553204994197855 0 0 0
126 42 1 0.5897 3.0262466783109674 8.555876720036048 1.7753549285555796 0 0 0
125 42 1 0.5897 2.8505333949060203 7.072651833700927 1.5286779347413584 0 0 0
129 43 1 0.5897 5.214988098384326 11.041371386960895 3.425016769784959 0 0 0
130 44 2 -1.1794 3.3158450644476205 11.032988901183488 3.7529197345741245 0 0 0
1574 525 1 0.5897 1.4081821685086289 9.30731706909367 0.20110138799171323 0 0 1
132 44 1 0.5897 3.2730069075801844 10.107662262756714 3.9939355337893216 0 0 0
133 45 2 -1.1794 1.618094586329646 8.846571671265886 4.751813817761366 0 0 0
135 45 1 0.5897 0.8564657216584515 9.211000042651452 4.300963047904446 0 0 0
140 47 1 0.5897 4.394242276878625 10.360580662768392 0.6342530014405633 0 0 0
137 46 1 0.5897 0.7081565316344473 7.692423001758749 1.6403635984243035 0 0 0
139 47 2 -1.1794 4.341968236137825 9.439139676208237 0.8879468119336107 0 0 0
270 90 1 0.5897 2.093393583807935 12.101687740605001 4.58031021959724 0 0 0
142 48 2 -1.1794 1.673266321152176 10.755526121250655 1.4764979243166547 0 0 0
131 44 1 0.5897 2.935430631440695 11.070255884718245 2.875396347429345 0 0 0
144 48 1 0.5897 0.9909624085191557 10.629196188443402 2.135772869251977 0 0 0
150 50 1 0.5897 1.42390127540388 7.119841952258112 4.685660231837944 0 0 0
507 169 1 0.5897 4.33198358914016 6.37724103290676 5.446764840664608 0 0 0
148 50 2 -1.1794 1.4062859789214521 6.164092698295981 4.734353416161433 0 0 0
218 73 1 0.5897 0.1446211859219444 11.212735447025112 3.8767881375691107 1 0 0
141 47 1 0.5897 4.486212192120736 8.957452564306854 0.07351243050132908 0 0 0
621 207 1 0.5897 4.318088534378891 8.919861052794557 5.529238582251592 0 0 0
612 204 1 0.5897 2.7790253046985445 11.45416859834923 9.427977221459734 0 0 0
620 207 1 0.5897 5.046400326264138 9.00372545917242 6.8536940525064285 0 0 0
601 201 2 -1.1794 4.411139680966932 7.9788109332975665 9.891178952224639 0 0 0
616 206 2 -1.1794 -0.03384951290086799 7.723112642941419 7.641552378458495 0 0 0
603 201 1 0.5897 3.625322937125842 7.903211070951958 9.349952365357252 0 0 0
604 202 2 -1.1794 2.693563639289615 7.583514683881998 7.793466975887728 0 0 0
605 202 1 0.5897 2.9414801470303664 8.45062029593897 7.472832092151347 0 0 0
606 202 1 0.5897 1.7364383993161616 7.5910534937912315 7.790188040443617 0 0 0
615 205 1 0.5897 0.7463959526971014 9.545930336470473 10.195653655075091 0 0 0
610 204 2 -1.1794 3.1285311570666177 10.745071781596543 8.888378086490945 0 0 0
611 204 1 0.5897 4.078657770736389 10.845353848370529 8.946320066167479 0 0 0
619 207 2 -1.1794 4.445970255772247 9.489126921385965 6.287998004664868 0 0 0
648 216 1 0.5897 5.422174485448053 7.606062231834281 8.428425924914993 0 0 0
607 203 2 -1.1794 5.808400173539215 10.550952132863681 9.118786682810844 0 0 0
614 205 1 0.5897 2.24389513699156 9.341690185214542 10.282185761990053 0 0 0
624 208 1 0.5897 1.312106112370516 11.326594813380272 6.22530601600095 0 0 0
698 233 1 0.5897 0.06709180387040109 11.187387822714511 9.642225943389358 1 0 0
613 205 2 -1.1794 1.4231849298709172 9.121122043026201 10.722566450245953 0 0 0
622 208 2 -1.1794 1.4367316881540104 10.622111543350554 6.861160024081143 0 0 0
623 208 1 0.5897 2.13401523952791 10.938028603786236 7.435740880521183 0 0 0
646 216 2 -1.1794 6.046714529185207 7.6393745468362075 7.703871136732284 0 0 0
602 201 1 0.5897 4.437723501873693 7.162918930858487 10.39094806319845 0 0 0
626 209 1 0.5897 4.610617187055318 11.494315186444046 6.353393805220153 0 0 0
1101 367 1 0.5897 4.502617020418249 9.096594496216902 11.267977963731951 0 0 0
630 210 1 0.5897 0.9671309396263688 7.233533736546773 10.627477420517993 0 0 0
699 233 1 0.5897 0.15876888572040831 10.528014315356355 8.282645712259717 1 0 0
647 216 1 0.5897 5.666681047713739 7.071987895268424 7.033211990318961 0 0 0
750 250 1 0.5897 1.5293206694805386 12.116234255154897 11.349352730085101 0 0 0
628 210 2 -1.1794 0.9822908995395936 6.280867071528959 10.718751975692111 0 0 0
986 329 1 0.5897 5.227519213351083 6.28624625138289 12.672564901466897 0 0 0
1083 361 1 0.5897 4.2145305619382585 7.160869715868191 16.416197207611503 0 0 0
1081 361 2 -1.1794 4.256113503855318 7.99000558069341 15.939811225842844 0 0 0
1082 361 1 0.5897 4.3233230584948 8.656480811104819 16.62349617432873 0 0 0
1095 365 1 0.5897 0.6630665500579846 9.420675503160675 16.04994694820431 0 0 0
1084 362 2 -1.1794 2.550984329761759 7.936007537993726 13.6630975582952 0 0 0
1127 376 1 0.5897 5.946329624448711 7.756937922425577 14.652539814702765 0 0 0
1086 362 1 0.5897 3.0664705396228626 7.696477522787194 14.433187061763519 0 0 0
1097 366 1 0.5897 0.7009068143533648 7.814527004325805 13.471834223406724 0 0 0
1089 363 1 0.5897 4.9798881771396095 10.978069151329954 14.976575300676318 0 0 0
1090 364 2 -1.1794 3.278421623840918 11.214205475559925 14.786760464169358 0 0 0
1091 364 1 0.5897 2.871857811830812 11.958609468351778 15.23027758013407 0 0 0
1092 364 1 0.5897 3.104012791207014 10.468393646696422 15.360767719823539 0 0 0
1093 365 2 -1.1794 1.3401925280228322 9.067400763080919 16.626870151251076 0 0 0
1178 393 1 0.5897 -0.12738010118024595 11.458729886182144 15.508409570710711 1 0 0
1100 367 1 0.5897 3.824284498579635 9.266364439338709 12.610620873077103 0 0 0
1107 369 1 0.5897 4.785775734182145 11.186189711638987 12.232702798079377 0 0 0
1094 365 1 0.5897 1.3726672276095928 8.134422614230893 16.415584020322513 0 0 0
1099 367 2 -1.1794 4.618954755646033 9.497003560217099 12.129527056828822 0 0 0
1103 368 1 0.5897 1.236595422211908 10.028373213979824 12.3644168616472 0 0 0
1102 368 2 -1.1794 1.2165587284729489 10.853046693996715 12.849849980115893 0 0 0
1085 362 1 0.5897 2.973930621555001 7.4754011858628 12.938462756496676 0 0 0
1104 368 1 0.5897 2.056996232336945 10.882933888594788 13.306929221017265 0 0 0
1128 376 1 0.5897 5.821783049509686 8.52196941278117 13.352209514481121 0 0 0
1105 369 2 -1.1794 4.705704783318106 12.137500630414921 12.301495298837228 0 0 0
1108 370 2 -1.1794 1.3160390253337846 6.162127022205244 16.291948971563976 0 0 0
1179 393 1 0.5897 0.0565145428200835 10.821342551629531 14.147688155339015 1 0 0
1087 363 2 -1.1794 5.85204262608016 10.669079495120116 15.221570676153643 0 0 0
1581 527 1 0.5897 5.269181809478247 8.928195150336217 18.297290498239576 0 0 0
1587 529 1 0.5897 4.637967665676066 11.42608086856989 18.027985054307536 0 0 0
1658 553 1 0.5897 0.22029488595871766 9.746430713111097 21.407551159847678 1 0 0
1561 521 2 -1.1794 4.488378742931516 7.81858855788801 21.76543543101313 0 0 0
1562 521 1 0.5897 4.298530554660197 7.047493092818963 22.299773993093623 0 0 0
1563 521 1 0.5897 3.7108749352664345 7.928629815433503 21.218141621155127 0 0 0
1564 522 2 -1.1794 2.7651640311853916 7.798021019090598 19.621820412069837 0 0 0
1565 522 1 0.5897 1.949036275625481 8.203585724415964 19.329242827945137 0 0 0
1566 522 1 0.5897 2.813592396539257 6.976508945754115 19.13303982007787 0 0 0
1584 528 1 0.5897 1.3346675878763086 10.110538004724516 18.214330111735173 0 0 0
1570 524 2 -1.1794 3.123160314574002 11.046184145645869 21.079234330665194 0 0 0
1571 524 1 0.5897 2.8070305024019038 11.069429370998542 20.176098533366627 0 0 0
1572 524 1 0.5897 4.0724469273849 10.953673180552602 20.998900176841254 0 0 0
1589 530 1 0.5897 1.4676960306202789 7.1602046610835135 22.159658409825454 0 0 0
1575 525 1 0.5897 2.0819289429144154 9.551212242267807 21.8672374013182 0 0 0
1579 527 2 -1.1794 4.500754734409188 9.493352765639715 18.218133797476945 0 0 0
1585 529 2 -1.1794 4.408358174110086 12.34345996663711 17.880232578561753 0 0 0
1573 525 2 -1.1794 1.5436824574528207 8.915117615154266 22.338213652637215 0 0 0
1567 523 2 -1.1794 6.013997097761259 10.917489842014595 20.647644699415828 0 0 0
1582 528 2 -1.1794 1.5466018841547458 10.845076999168073 18.790239055144013 0 0 0
1583 528 1 0.5897 0.8666860116300104 10.825957995403197 19.46365677236286 0 0 0
1580 527 1 0.5897 3.76546117345927 8.935577410673258 18.471858335763493 0 0 0
1608 536 1 0.5897 5.948853657836836 7.580444717386706 20.172327108864003 0 0 0
1588 530 2 -1.1794 1.2532116739997912 6.228536381899812 22.205770492131258 0 0 0
1657 553 2 -1.1794 -0.17721636528540635 10.5145061597708 20.997451639123256 1 0 0
1576 526 2 -1.1794 -0.09110515284641178 7.664206383456114 19.14298544442181 0 0 0
1467 489 1 0.5897 5.009258305656436 6.337604675439591 18.331313400588492 0 0 0
1230 410 1 0.5897 1.463899302089402 11.964427836795949 17.325817423355012 0 0 0
1710 570 1 0.5897 1.8595469250666152 12.083271394723221 21.89379315698765 0 0 0
288 96 1 0.5897 5.881051900461142 14.671589444921304 1.5094720644815922 0 0 0
339 113 1 0.5897 0.1465606971153236 17.72900752052398 3.979040198838671 1 0 0
241 81 2 -1.1794 4.693229277960501 13.99789965554716 4.366274749888264 0 0 0
242 81 1 0.5897 4.500437471650295 13.312355849494274 5.005804430470885 0 0 0
243 81 1 0.5897 4.027405353858281 13.8871047666083 3.687635180906084 0 0 0
244 82 2 -1.1794 2.8786653412261334 13.834144997870668 2.2295054113420023 0 0 0
245 82 1 0.5897 1.9317158549279712 13.866933661630874 2.3650380566817204 0 0 0
246 82 1 0.5897 3.0817406690019307 14.642052897124753 1.758145948728411 0 0 0
147 49 1 0.5897 3.8591844107791715 12.712268220723477 1.200494605908049 0 0 0
250 84 2 -1.1794 3.0947140816064906 17.32928998297693 3.865510177058868 0 0 0
251 84 1 0.5897 2.7179490660806933 17.310615044342107 2.985833624457599 0 0 0
252 84 1 0.5897 4.036303322728702 17.423062824605893 3.7213540928402864 0 0 0
253 85 2 -1.1794 1.2295496752787545 15.088737192272577 4.879298858000089 0 0 0
254 85 1 0.5897 0.520119700483347 15.446253276639897 4.3454122379693425 0 0 0
247 83 2 -1.1794 5.942825971377716 17.125355994651514 3.4012582918471805 0 0 0
269 90 1 0.5897 1.2715245179274504 13.340910478538326 4.864089132075943 0 0 0
259 87 2 -1.1794 4.626565333498793 15.776213538183441 0.6497958137695918 0 0 0
264 88 1 0.5897 1.554765513632589 18.05139781724742 1.122478636323232 0 0 0
262 88 2 -1.1794 1.6354217066003114 17.182442923048747 1.5156073763221747 0 0 0
263 88 1 0.5897 1.5682713433696513 16.577627434965997 0.7768082048542204 0 0 0
255 85 1 0.5897 2.0198915364837933 15.240954031722787 4.361272793189133 0 0 0
260 87 1 0.5897 4.501214185536151 16.713637879480025 0.5026245839039845 0 0 0
265 89 2 -1.1794 4.727931115077263 18.551034259880822 0.572847632644663 0 0 0
287 96 1 0.5897 5.962141830406287 14.20747489667737 2.9481033521355378 0 0 0
268 90 2 -1.1794 1.212582577638027 12.386430598776323 4.823717841345205 0 0 0
146 49 1 0.5897 5.370505413078196 12.736866474911414 1.2842722879077773 0 0 0
338 113 1 0.5897 0.13524249147906192 16.92177937299641 2.6984570004013695 1 0 0
256 86 2 -1.1794 -0.07340364375497438 13.828855982812632 2.2189734422577816 0 0 0
145 49 2 -1.1794 4.647523459578491 12.422120377822157 0.7417030270116881 0 0 0
258 86 1 0.5897 -0.16603546847603923 13.132392429873068 1.568980512670626 0 0 0
625 209 2 -1.1794 4.495032902124562 12.429527276573108 6.521185041181704 0 0 0
721 241 2 -1.1794 4.548051587293752 13.833551737796753 10.107674113865954 0 0 0
722 241 1 0.5897 3.7918011619515584 14.057509771279475 9.565388525680593 0 0 0
870 290 1 0.5897 2.1633833060100476 18.327169580874354 10.366410514997316 0 0 0
724 242 2 -1.1794 2.883512935557351 14.284021052299073 7.691097880996999 0 0 0
725 242 1 0.5897 3.291874946260538 15.122678373464792 7.476542159109938 0 0 0
726 242 1 0.5897 3.540196336745407 13.629544588809987 7.453247200714803 0 0 0
745 249 2 -1.1794 4.903432867158554 18.568789962966058 6.507791430572481 0 0 0
728 243 1 0.5897 4.805003696276506 16.74630050086172 9.298632421469033 0 0 0
730 244 2 -1.1794 2.9915072381226637 16.915834455833405 9.225493571750361 0 0 0
735 245 1 0.5897 0.6380909046709162 15.727355060734054 10.266359151584556 0 0 0
732 244 1 0.5897 2.533196959250649 16.27336304916257 9.767082867259585 0 0 0
733 245 2 -1.1794 1.3416103859546236 15.155138139419028 10.572596184119183 0 0 0
749 250 1 0.5897 1.140579154881827 13.350765780175886 10.56420135559982 0 0 0
723 241 1 0.5897 5.276629547027562 13.772379933536161 9.489947680922985 0 0 0
737 246 1 0.5897 1.0590023892287117 13.952006803289002 7.939237792686036 0 0 0
741 247 1 0.5897 4.89927177912785 16.71044701099064 6.452512429575736 0 0 0
731 244 1 0.5897 2.337160711565473 17.20349838963238 8.588923371491122 0 0 0
742 248 2 -1.1794 0.9749145748484016 17.027267508933683 7.082421444801858 0 0 0
739 247 2 -1.1794 4.884386143883899 15.761576709571907 6.577264652000571 0 0 0
744 248 1 0.5897 1.1932815481466652 16.269817505672258 6.539538139079624 0 0 0
743 248 1 0.5897 1.1415472304612544 17.782612906281706 6.51866373486837 0 0 0
740 247 1 0.5897 4.993393731197597 15.402052333680176 5.696928618010478 0 0 0
748 250 2 -1.1794 1.3938272984613649 12.434005243896388 10.45671868366729 0 0 0
869 290 1 0.5897 0.6529242075194986 18.41023420991445 10.308600383643608 0 0 0
736 246 2 -1.1794 0.10729585194699093 13.939838900172603 7.837933735984839 0 0 0
727 243 2 -1.1794 5.745864236010515 16.687797011250396 9.464521616246554 0 0 0
627 209 1 0.5897 5.279300909037314 12.684925774181867 7.006820394910168 0 0 0
747 249 1 0.5897 4.0134656781393305 18.589685774637083 6.859478008902375 0 0 0
1106 369 1 0.5897 4.793847730643336 12.451442114670932 11.401606306446931 0 0 0
1219 407 2 -1.1794 4.753678483781736 15.807238809275079 12.394808646130793 0 0 0
1201 401 2 -1.1794 4.456865541555198 13.939165822158627 15.634890671882449 0 0 0
1225 409 2 -1.1794 4.529417618210011 18.47416993898198 12.037624806058181 0 0 0
1227 409 1 0.5897 4.785730436571337 17.574163973689686 12.238697183841774 0 0 0
1204 402 2 -1.1794 2.767816338630722 14.049036110361817 13.26892491363567 0 0 0
1205 402 1 0.5897 3.190835332355031 14.14387121377703 14.122272114921614 0 0 0
1206 402 1 0.5897 3.194251842126952 13.289161724860504 12.872832607878284 0 0 0
1215 405 1 0.5897 2.2493695748312166 15.710811999535547 16.227613477872403 0 0 0
1210 404 2 -1.1794 3.189577206587489 17.014903063403437 15.241980202111735 0 0 0
1211 404 1 0.5897 2.879558961961678 17.80502241126495 15.684401022290295 0 0 0
1212 404 1 0.5897 4.1408396616755825 17.039662290429966 15.34515893305989 0 0 0
1214 405 1 0.5897 0.7418909931696639 15.620411969281689 16.12251959197993 0 0 0
1350 450 1 0.5897 0.8324369664504114 18.343427536429097 16.032654768826248 0 0 0
1229 410 1 0.5897 1.1914390604118508 13.31188316845745 16.691941961273137 0 0 0
1202 401 1 0.5897 5.261302842783546 13.748744715145454 15.152420496798777 0 0 0
1218 406 1 0.5897 0.9391853079071182 13.962501801015874 13.862182756530649 0 0 0
1203 401 1 0.5897 4.441828616634409 13.293040179507184 16.34088716484157 0 0 0
1217 406 1 0.5897 -0.19122674721813643 14.530317796296547 13.0306572166998 0 0 0
1222 408 2 -1.1794 1.2769127699322975 16.860069098291383 12.74650986856999 0 0 0
1223 408 1 0.5897 1.2257307545265457 17.569606927582065 12.106140910726532 0 0 0
1224 408 1 0.5897 2.087448839077601 17.028437835307237 13.22696457467264 0 0 0
1213 405 2 -1.1794 1.4955492333673 15.22204859617275 16.557783276770166 0 0 0
1220 407 1 0.5897 4.026468151047427 15.209202958607028 12.567071681563062 0 0 0
1248 416 1 0.5897 6.01672332792298 13.089788240773554 13.35205722038322 0 0 0
734 245 1 0.5897 1.429889403769862 15.360367686947024 11.503306835160291 0 0 0
1298 433 1 0.5897 0.14193322354707938 16.915152141963382 14.27490970089801 1 0 0
1297 433 2 -1.1794 -0.18675845791792015 17.127937405498216 15.148303036289196 1 0 0
1216 406 2 -1.1794 -0.010745818937725388 13.925961355304759 13.750597416015745 0 0 0
1228 410 2 -1.1794 1.2338895926512778 12.376572307931099 16.493126758773663 0 0 0
1700 567 1 0.5897 4.447382928481399 15.274710858704129 17.018864553801727 0 0 0
1221 407 1 0.5897 5.083695875930233 15.542687472346069 11.536184702996044 0 0 0
1207 403 2 -1.1794 5.981028141130247 17.150341857410837 15.084359286409114 0 0 0
1697 566 1 0.5897 1.1048189235908532 13.850657788031116 19.49196042436521 0 0 0
1779 593 1 0.5897 -0.11470865561142662 17.772413281570557 21.269744483283638 1 0 0
1681 561 2 -1.1794 4.529890246094599 13.854636724366792 21.550410339890412 0 0 0
1707 569 1 0.5897 4.447143784132018 17.275104360182304 17.807850785280642 0 0 0
1683 561 1 0.5897 4.638747158697029 13.236519159788118 22.27305362255342 0 0 0
1684 562 2 -1.1794 2.793112918543415 13.835716229165783 19.642151977772045 0 0 0
1693 565 2 -1.1794 1.3887016295371757 15.414751850970017 22.48915722690377 0 0 0
1686 562 1 0.5897 3.419291140495148 13.848138330332908 20.365954782300896 0 0 0
1687 563 2 -1.1794 5.6355155007735656 16.934113384890658 20.842724185473422 0 0 0
1689 563 1 0.5897 4.745363247090864 17.078577783817813 20.52192736759165 0 0 0
1690 564 2 -1.1794 2.7505205889660207 16.947413441075014 20.67933564931105 0 0 0
1691 564 1 0.5897 2.3995117745345436 16.226839472040496 21.20250319569628 0 0 0
1692 564 1 0.5897 2.255817002353659 16.91276544393034 19.86067550952709 0 0 0
1699 567 2 -1.1794 4.458502322267874 15.532071131367285 17.94070011645796 0 0 0
1685 562 1 0.5897 3.043263792496811 13.072502788373022 19.121512561433512 0 0 0
1682 561 1 0.5897 5.364214666135842 13.82575340287812 21.0821897063326 0 0 0
1778 593 1 0.5897 0.13459305598400267 16.977384197461873 20.00585253369377 1 0 0
1694 565 1 0.5897 0.49514441218587957 15.587840077202745 22.192935579362 0 0 0
1695 565 1 0.5897 1.5009117569115058 14.471118055468303 22.374701311845854 0 0 0
1701 567 1 0.5897 3.794389137902588 14.979141966724804 18.35224820155578 0 0 0
1702 568 2 -1.1794 1.0655704468324432 16.791860046170882 18.615376051620885 0 0 0
1703 568 1 0.5897 1.3192911089666746 16.143376158685086 17.958692207765516 0 0 0
1704 568 1 0.5897 1.159005046387533 17.6338103320817 18.169816777234352 0 0 0
1696 566 2 -1.1794 0.14941726030396824 13.878503659460243 19.542895230115114 0 0 0
1586 529 1 0.5897 5.04532569096656 12.836528994428505 18.397241768392185 0 0 0
1708 570 2 -1.1794 1.259898060121565 12.650855759989879 22.37796324775364 0 0 0
1698 566 1 0.5897 -0.09044301681618612 14.695940139568696 19.106544800043928 0 0 0
1728 576 1 0.5897 5.859369658550944 14.607455885828017 18.621183358921783 0 0 0
1705 569 2 -1.1794 4.56596470414503 18.21323582993761 17.95597798842598 0 0 0
1830 610 1 0.5897 1.7972705145168573 18.393495491952315 21.611317373314144 0 0 0
1709 570 1 0.5897 0.42039816002997465 12.5516181043525 21.929017403145004 0 0 0
261 87 1 0.5897 4.544009391769425 15.383709442115865 22.780379805001708 0 0 -1
390 130 1 0.5897 1.1558944596870815 19.817890149118163 5.157209172138786 0 0 0
363 121 1 0.5897 4.172919576033398 21.067038189870388 4.737052306185274 0 0 0
361 121 2 -1.1794 4.483015968476941 20.39573942931223 4.129316565679374 0 0 0
362 121 1 0.5897 3.828951355815482 20.384010872237305 3.4306011854293414 0 0 0
384 128 1 0.5897 1.3965182838259937 22.550937057600493 0.3935833103148615 0 0 0
364 122 2 -1.1794 2.8543652679599076 20.066304418913646 1.9073937723622163 0 0 0
365 122 1 0.5897 3.1821234514180934 20.86510755977278 1.4943258138590187 0 0 0
267 89 1 0.5897 3.9425219341960753 18.674067494891972 1.1059024034632856 0 0 0
366 122 1 0.5897 1.9016373633522141 20.150617837100548 1.8705604245512726 0 0 0
370 124 2 -1.1794 3.241551015688891 23.573954585346478 3.4903796257833855 0 0 0
371 124 1 0.5897 4.174856583221259 23.41087454494744 3.3543604770727624 0 0 0
372 124 1 0.5897 2.9866856562706343 22.953986342531543 4.173618756949176 0 0 0