LAMMPS data file via write_data, version 30 Jul 2021, timestep = 26250000

864 atoms
2 atom types
576 bonds
1 bond types
288 angles
1 angle types

0.5635967196152851 17.64397568038717 xlo xhi
1.7553737606927022 21.873804039302364 ylo yhi
0.6875866815165441 21.525609118490948 zlo zhi

Masses

1 1.00794
2 15.9994

Pair Coeffs # lj/cut/tip4p/long/omp

1 0 0
2 0.21084 3.1668

Bond Coeffs # harmonic/omp

1 450 0.9572

Angle Coeffs # harmonic/omp

1 55 104.52

Atoms # full

445 1 2 -1.1794 4.323327849989382 2.252157707637792 0.952220136059764 1 2 2
127 1 2 -1.1794 3.0984506735632436 5.830515086019438 3.0445182599106584 -3 -2 0
663 1 1 0.5897 3.7522941395610783 4.147645942317029 3.5658542064748713 -4 -4 1
128 1 1 0.5897 2.332425983599143 5.62988888769995 2.506621056950208 -3 -2 0
180 1 1 0.5897 2.428143314339918 3.4358683664142227 5.190916486757594 -5 1 -3
179 1 1 0.5897 0.9426052906393588 3.694230995519615 5.054313559208788 -5 1 -3
661 1 2 -1.1794 3.748173827717199 3.2738873776386255 3.95696239065918 -4 -4 1
117 1 1 0.5897 3.8377138598171436 6.6238221058471165 5.722487379224415 -1 -3 2
129 1 1 0.5897 2.7353322338145714 6.098882026884098 3.8886252292161996 -3 -2 0
482 1 1 0.5897 0.9195646299456461 4.505488108211647 1.7412175750079872 3 6 2
178 1 2 -1.1794 1.6420997426046604 3.6235950458789707 5.704011299499145 -5 1 -3
662 1 1 0.5897 4.672251660714394 3.028934086144018 4.006953101313108 -4 -4 1
92 1 1 0.5897 1.4776272432113489 4.902498335105367 7.0235017845790075 4 -6 1
557 1 1 0.5897 4.478429699292501 3.0186012633294776 7.339704980291665 4 3 3
847 1 2 -1.1794 3.534959330582446 6.450467347881076 9.86526380733309 -2 -3 5
268 1 2 -1.1794 3.2897428895913534 3.1973647059581927 8.834922692700697 -2 2 6
91 1 2 -1.1794 1.4938796254791724 5.622705319286359 7.653921209143978 4 -6 1
412 1 2 -1.1794 0.6674170543352317 5.919236167435807 10.330835862881239 5 1 1
413 1 1 0.5897 1.3820800465552066 6.279356887764862 9.805542737427421 5 1 1
41 1 1 0.5897 2.5159810161254095 2.175063519235758 10.220449196636824 2 -3 2
269 1 1 0.5897 2.8922637209596114 4.033039543507906 8.589895336611086 -2 2 6
270 1 1 0.5897 4.066104141220543 3.4397382893089787 9.339797380955977 -2 2 6
40 1 2 -1.1794 1.8964790715634943 1.9606885259068962 10.918033327591374 2 -3 2
47 1 1 0.5897 1.1683576191050307 2.375469392093427 6.775720573388372 4 -3 -3
116 1 1 0.5897 2.5361686480641765 6.6121920840704735 6.495846279691055 -1 -3 2
848 1 1 0.5897 3.886657382258083 6.73334365608879 10.709453470525586 -2 -3 5
849 1 1 0.5897 4.256483926133949 6.579046191619876 9.249435754311166 -2 -3 5
93 1 1 0.5897 0.595627228189727 5.953484195902416 7.663609336553383 4 -6 1
414 1 1 0.5897 1.1010027307003143 5.355663903898812 10.971741325820453 5 1 1
42 1 1 0.5897 1.7482739812392236 2.790931271548251 11.370909152371798 2 -3 2
324 1 1 0.5897 3.6374062143454533 2.530676805847974 15.090040580696897 7 0 -3
242 1 1 0.5897 3.7766312617761746 6.083552170491018 13.220265270673437 4 2 -1
241 1 2 -1.1794 3.664459438856248 5.295195487234775 13.7515694154316 4 2 -1
323 1 1 0.5897 4.530845360711072 3.6210074238342873 14.537613565350457 7 0 -3
655 1 2 -1.1794 1.6293638321992399 2.365451842489684 15.291897198346073 -2 2 -1
243 1 1 0.5897 3.041085644601775 5.550770966166799 14.4316053375559 4 2 -1
631 1 2 -1.1794 1.4753069051852012 5.919851715907516 15.169230208085985 3 6 3
771 1 1 0.5897 2.350499139069667 4.684606479350602 12.620353975907959 3 1 -3
322 1 2 -1.1794 4.5467686711619315 2.829381080869093 15.075609685884329 7 0 -3
769 1 2 -1.1794 1.5354165021154413 4.378926768784565 12.222137236796803 3 1 -3
770 1 1 0.5897 0.8516659652718628 4.655655776753236 12.832287086489968 3 1 -3
632 1 1 0.5897 1.0151022831145018 6.325945831762613 14.434608431841296 3 6 3
657 1 1 0.5897 0.7312655044320426 2.18765809823595 15.012299277188067 -1 2 -1
633 1 1 0.5897 0.835404996955448 5.318544935177499 15.5504546695064 3 6 3
123 1 1 0.5897 4.326897159513088 3.7137969690549006 16.739777323362766 2 4 -1
548 1 1 0.5897 0.9976387314964948 5.458531387115804 18.217777142374075 10 -2 4
420 1 1 0.5897 2.231309502282257 3.7969701552721173 18.013826713961336 -10 -1 6
2 1 1 0.5897 1.6018023899201639 3.2456991405533504 20.30785998835041 1 -3 6
172 1 2 -1.1794 2.6459179946532054 6.139775864553052 20.84817825085762 10 5 -4
418 1 2 -1.1794 1.425085144898531 3.706226816222822 18.521897399344788 -10 -1 6
447 1 1 0.5897 4.535673785845267 1.9160912954898093 20.91941288371593 2 2 1
121 1 2 -1.1794 4.1390656089546045 4.082632742556851 17.602944080528594 2 4 -1
419 1 1 0.5897 0.8364224156709945 3.2116091929634454 17.951641293211893 -10 -1 6
173 1 1 0.5897 2.0845984823612933 5.382234078202104 20.68249939114179 10 5 -4
122 1 1 0.5897 4.5200878501541535 3.457103341242071 18.21930871189919 2 4 -1
3 1 1 0.5897 2.523587751700593 2.694204006776123 21.374813299051503 1 -3 6
547 1 2 -1.1794 0.814387018694182 6.394545691968352 18.136140945388135 10 -2 4
1 1 2 -1.1794 1.6279666523831533 3.0009671699183693 21.232948439726762 1 -3 6
704 1 1 0.5897 4.215390260404618 5.3259496589436415 21.430511786682317 2 -2 -5
174 1 1 0.5897 2.082063665757908 6.759604037271449 21.311051407976493 10 5 -4
823 1 2 -1.1794 2.0649994539410317 9.634087893510538 4.8046108091042585 -1 3 2
119 1 1 0.5897 2.348549382414166 9.990118184621734 2.833731247998633 -2 -5 -3
118 1 2 -1.1794 2.7450762900852377 9.865217428480097 1.971445372276077 -2 -5 -3
102 1 1 0.5897 2.7416032390377274 11.222090158686203 4.42407336830918 5 -4 4
337 1 2 -1.1794 4.631275075068404 8.055647224985641 2.57467911216585 1 1 3
120 1 1 0.5897 2.065119324447913 9.432397055424346 1.4550195519255436 -2 -5 -3
825 1 1 0.5897 2.358727370612371 8.837340428232471 5.246558959830034 -1 3 2
339 1 1 0.5897 4.144324832686911 7.2405415236263995 2.696798490799465 1 1 3
338 1 1 0.5897 3.955486577315967 8.725834223012814 2.471778007305132 1 1 3
824 1 1 0.5897 1.3757926025707319 9.982254176495564 5.370434028651981 -1 3 2
530 1 1 0.5897 4.280045008085101 11.083344901198322 1.4536762949919018 -3 2 -4
115 1 2 -1.1794 3.0035558784785357 7.085674597707437 5.8075638458174135 -1 -3 2
609 1 1 0.5897 3.3487436251305924 9.838781257558107 10.441801476414543 2 6 0
274 1 2 -1.1794 2.500951322998347 8.980044427571762 9.099487037918333 -3 3 -2
275 1 1 0.5897 3.0484665351078393 9.275674350853391 8.37201295667565 -3 3 -2
276 1 1 0.5897 2.7909694184740492 8.083716316699684 9.269336000385223 -3 3 -2
380 1 1 0.5897 4.511540786096087 9.638648116017382 6.627083495002906 8 3 -3
249 1 1 0.5897 0.6791650931042705 9.298970095812901 9.284097059477906 -7 4 -1
379 1 2 -1.1794 4.270211110251564 10.158058702046318 7.394135630332258 8 3 -3
702 1 1 0.5897 1.1258301439110565 8.555012235320593 13.398924327938275 5 -1 4
788 1 1 0.5897 3.7367168567074254 8.556097648268324 11.894867536185446 -1 -5 5
11 1 1 0.5897 4.298826621801962 7.7396321390261695 15.95906350984355 2 0 3
621 1 1 0.5897 3.8291834399146416 10.524131377617225 14.932711733581268 -1 -6 5
619 1 2 -1.1794 3.831092587336772 10.540606081694165 13.975554339249662 -1 -6 5
787 1 2 -1.1794 3.5883606029086987 7.6772901931853275 12.244230446223936 -1 -5 5
124 1 2 -1.1794 1.0972227782417774 10.488065112665012 13.105367393863853 2 -1 4
125 1 1 0.5897 1.9614237429104506 10.751096158144565 13.422149281914875 2 -1 4
620 1 1 0.5897 4.331924820469652 11.324608391581497 13.75000817765661 -1 -6 5
789 1 1 0.5897 2.638320942904589 7.616083485359978 12.344455785820585 -1 -5 5
608 1 1 0.5897 3.5860054895445628 11.00092232982969 11.382744136961607 2 6 0
257 1 1 0.5897 2.153926251856716 7.395394184862999 15.933358050588524 3 -3 -1
700 1 2 -1.1794 0.9059148723913364 7.6542666258661045 13.160891604857547 5 -1 4
256 1 2 -1.1794 2.590767168845817 8.206177802489462 16.19446573564384 3 -3 -1
607 1 2 -1.1794 3.9416328061065298 10.150092622522138 11.125859547550606 2 6 0
261 1 1 0.5897 3.3231797382489887 10.579064132121855 19.948393232437873 4 -1 4
258 1 1 0.5897 2.8079446054457917 8.075268714176657 17.117540436934704 3 -3 -1
567 1 1 0.5897 3.780033331521409 8.42178096508449 19.086001888284642 0 7 -9
467 1 1 0.5897 1.2855242500572523 11.393546640540015 20.61304806865914 5 -4 6
565 1 2 -1.1794 3.6959058614495537 7.565322701911355 18.666754296826326 0 7 -9
836 1 1 0.5897 4.012301603514901 10.503244685838851 17.5454408248655 -1 6 2
259 1 2 -1.1794 3.8184367043047414 10.009374921946355 19.359709317167564 4 -1 4
566 1 1 0.5897 3.033100496085658 7.108558295147298 19.184848528927937 0 7 -9
592 1 2 -1.1794 1.0066284198158457 8.297738079687564 21.439780146841358 -3 -3 -4
835 1 2 -1.1794 3.911936233469057 11.126274207461236 16.825620503725823 -1 6 2
260 1 1 0.5897 4.716986534556889 10.335716825437887 19.409585296742975 4 -1 4
783 1 1 0.5897 0.9787222109926241 8.91244171685469 16.879307626948993 -3 -4 0
466 1 2 -1.1794 2.1459247889014414 11.808762857712805 20.552453213694882 5 -4 6
290 1 1 0.5897 2.8848671886806008 12.797253564432275 2.892590280328512 -6 -7 -11
728 1 1 0.5897 1.5068546876360946 15.475861667770436 5.015554757910245 -1 7 0
100 1 2 -1.1794 3.118663745484642 12.101238748833538 4.459943288617339 5 -4 4
708 1 1 0.5897 2.1687014198434555 15.626131804022394 1.267804131388814 -3 -6 -3
289 1 2 -1.1794 3.048734938727913 13.069410342796726 1.989556127451799 -6 -7 -11
291 1 1 0.5897 2.475903620946955 13.825193920551891 1.8589599487803834 -6 -7 -11
542 1 1 0.5897 4.375587587211159 14.217316209795777 2.659073098455726 -6 0 2
543 1 1 0.5897 4.531395622642626 15.592969720650327 3.2718781742326777 -6 0 2
706 1 2 -1.1794 1.4318299063674034 15.352962867997343 1.8144058388461193 -3 -6 -3
729 1 1 0.5897 1.6632407634792536 13.970244954807571 4.985497976665398 -1 7 0
707 1 1 0.5897 0.6561669088948906 15.564878124732088 1.294970495594209 -3 -6 -3
727 1 2 -1.1794 2.0286826769284794 14.761539227211742 5.381348401017092 -1 7 0
801 1 1 0.5897 4.082190503516774 14.512950261430305 5.298184402915562 -2 -2 6
101 1 1 0.5897 4.061329603429353 11.955011843569407 4.539715264702475 5 -4 4
279 1 1 0.5897 1.0996271513269047 16.52810712524401 3.3779009285753676 1 1 5
198 1 1 0.5897 3.347813372472055 13.88048699467631 8.53116358098511 0 -6 -1
36 1 1 0.5897 2.742571567627682 12.938007192390563 6.397143876289409 -1 0 0
197 1 1 0.5897 2.946780495164909 14.85928876251032 9.614407531142144 0 -6 -1
654 1 1 0.5897 3.6464715671086787 16.14548233797867 6.645951696732725 -1 0 -3
196 1 2 -1.1794 3.5953660326973402 14.187582860606685 9.403400602872216 0 -6 -1
616 1 2 -1.1794 1.112215744690221 15.53060933016618 9.817432221975501 2 2 -1
737 1 1 0.5897 0.7773981055831587 14.71275520923086 6.7287691944041725 -1 1 5
34 1 2 -1.1794 3.034198282427764 12.747070209460066 7.28870667150623 -1 0 0
617 1 1 0.5897 0.8571590421857957 15.246205099806762 10.695174870109726 2 2 -1
846 1 1 0.5897 3.0207968859573917 13.353160871506638 10.914124698650191 -3 0 1
652 1 2 -1.1794 3.5912784974528154 16.716507129153534 7.412298967947366 -1 0 -3
747 1 1 0.5897 1.560839388178505 12.001841901226808 8.320098674927703 -2 6 -8
745 1 2 -1.1794 0.6703125311562114 12.103254254155416 8.656326840849896 -2 6 -8
35 1 1 0.5897 3.453186840615632 11.888683411055844 7.225527520260567 -1 0 0
844 1 2 -1.1794 2.948868271703649 12.673829491020305 11.58474443010514 -3 0 1
845 1 1 0.5897 2.8397691363606588 13.156265080840235 12.4043405662373 -3 0 1
377 1 1 0.5897 2.4646048312008215 14.243071815930499 14.67014576571003 -1 5 2
378 1 1 0.5897 2.8345272540971704 15.05064611088665 13.444092509425206 -1 5 2
134 1 1 0.5897 4.725171908344986 13.6339080959454 13.958190878385517 -4 -4 2
576 1 1 0.5897 0.7000720487035679 16.368792552894327 15.53922795435155 6 -1 1
376 1 2 -1.1794 3.0168379769151645 14.222614405190567 13.888490830427205 -1 5 2
753 1 1 0.5897 1.2767405201598225 12.52047503745924 15.841803663338986 5 -2 -2
424 1 2 -1.1794 2.4216232460925813 16.61523054788256 12.372185671452163 12 -6 4
158 1 1 0.5897 1.8962853769887318 15.319568061546695 17.614994730745593 3 3 1
817 1 2 -1.1794 2.066309917186507 14.310996473391695 19.34280282010964 5 1 3
363 1 1 0.5897 3.5617757182836423 13.841224345369218 18.321664783770544 4 -5 -3
468 1 1 0.5897 2.3868136253438084 11.995353621155388 21.459932505295313 5 -4 6
450 1 1 0.5897 4.233929673321654 16.378214536382124 20.421492900378304 6 1 -1
819 1 1 0.5897 2.0162414366057773 13.470204884234212 19.797700331683927 5 0 3
818 1 1 0.5897 2.5763039413185234 14.870731250085422 19.928436431127565 5 1 3
837 1 1 0.5897 4.2520059804917825 11.950996467173486 17.172849148851952 -1 6 2
448 1 2 -1.1794 3.7364329714986666 15.740102256704951 20.933060918364966 6 1 -1
361 1 2 -1.1794 4.472859139802603 13.676662241959933 18.078317266227593 4 -5 -3
449 1 1 0.5897 4.360294090792829 15.036110479134772 21.110771696592757 6 1 -1
157 1 2 -1.1794 1.7567487731642986 16.09150059885644 17.06634652487817 3 3 1
159 1 1 0.5897 2.563873942652363 16.59841312634738 17.155534704675816 3 3 1
751 1 2 -1.1794 1.8576566441245304 12.934832507626183 16.47995381151047 5 -2 -2
752 1 1 0.5897 2.4669031761585085 12.241991807487356 16.73524920150382 5 -2 -2
470 1 1 0.5897 3.252893312047126 17.886287943733077 4.0829087022741115 0 -5 1
389 1 1 0.5897 2.478203147612894 19.65721208716203 4.887585599623188 0 5 2
741 1 1 0.5897 3.925905268402741 19.592703862963027 1.616245823204176 -3 -2 3
740 1 1 0.5897 2.4360446994453095 19.63194880674382 1.8827148699288638 -3 -2 3
94 1 2 -1.1794 2.26772294115245 20.888805590248417 3.466480182589191 -7 0 3
739 1 2 -1.1794 3.0853351065339965 19.30469373477279 1.2600631369695026 -3 -2 3
471 1 1 0.5897 3.585801118533634 17.957431891508325 2.6076423585898167 0 -5 1
96 1 1 0.5897 1.4079569353065202 21.27911718641515 3.308924514103252 -7 0 3
388 1 2 -1.1794 2.2274947510129812 18.868026196523687 5.367903735243194 0 5 3
469 1 2 -1.1794 3.6809204458526654 17.398645652341134 3.3790593974472003 0 -5 1
278 1 1 0.5897 0.6540566841558514 17.845012231291346 3.9774690223378975 1 1 5
446 1 1 0.5897 4.623352648804407 21.688022899482014 1.552610924860939 1 1 2
160 1 2 -1.1794 4.815152698079132 20.754380577532206 5.71124436096533 1 4 2
95 1 1 0.5897 2.8840952279265326 21.612589286131524 3.3541731222188202 -6 0 3
277 1 2 -1.1794 0.5912535585581864 16.897685343898814 4.099949385179617 1 1 5
226 1 2 -1.1794 4.16394990646179 20.027574856006265 10.27942835791781 4 -2 1
113 1 1 0.5897 4.125883025506814 18.25841453909806 10.013654300274627 -5 -3 -1
46 1 2 -1.1794 0.7825169719744521 21.801500029353406 7.3124533492813475 4 -4 -3
568 1 2 -1.1794 3.006165225086151 20.391119201078894 7.840845529922705 5 0 -2
390 1 1 0.5897 2.6219574745553382 18.978193342554732 6.233139592646958 0 5 3
141 1 1 0.5897 0.9616155268966181 20.61765735559006 10.284447869138077 -2 -1 -1
518 1 1 0.5897 1.2106062981739287 18.633386783153476 8.569323143645486 0 -4 -7
112 1 2 -1.1794 3.9998831569134907 17.310400359055603 10.05585088204345 -5 -3 -1
569 1 1 0.5897 3.2738643138319556 20.302261803712483 8.755632666821162 5 0 -2
570 1 1 0.5897 2.2539558461850744 20.982606135141904 7.867254331619798 5 0 -2
517 1 2 -1.1794 1.1326189396917337 17.760244511181522 8.184704599353871 0 -4 -7
114 1 1 0.5897 3.836552633900522 17.04943086011759 9.149435177608408 -5 -3 -1
653 1 1 0.5897 2.6892240391241766 17.036899076650705 7.408382403516095 -1 0 -3
519 1 1 0.5897 1.2348472095133531 17.161930838796334 8.924939367221416 0 -4 -7
162 1 1 0.5897 4.233740729058413 20.666144409638495 6.466586438250727 1 4 2
417 1 1 0.5897 3.0564524419300985 21.359114937390327 12.364834905171076 0 -2 0
677 1 1 0.5897 1.0238341428041107 19.3094424048617 14.879694843248773 0 -4 -2
66 1 1 0.5897 3.2335743852715404 19.927989561810982 14.192086174327228 6 0 -4
415 1 2 -1.1794 3.6749402678838896 20.744152875512004 12.759379700211722 0 -2 0
64 1 2 -1.1794 2.8952595419287905 19.427788915375718 14.934882211702982 6 0 -4
65 1 1 0.5897 3.464876902505611 18.66016156910355 14.986714563961373 6 0 -4
656 1 1 0.5897 1.8262238202461116 21.790669259143232 15.922047799829778 -2 1 -1
426 1 1 0.5897 2.9469709395105377 17.03503678968395 13.053469073849358 12 -7 4
416 1 1 0.5897 4.430215264815354 21.28235280762919 12.996611401845279 0 -2 0
185 1 1 0.5897 0.6636434724114186 17.545570681415832 12.29405237065304 0 2 3
228 1 1 0.5897 4.192690435019684 20.14767681169729 11.228702176050792 4 -2 1
544 1 2 -1.1794 4.769150624735733 17.410598095024575 13.938570715305511 -2 4 5
425 1 1 0.5897 2.8181594137417836 16.905146810879586 11.55055251342571 12 -6 4
402 1 1 0.5897 4.219652199089874 21.372034423759263 18.557757720787272 -6 2 6
25 1 2 -1.1794 2.1942321118846886 19.132340387509423 19.395880069112437 2 4 6
321 1 1 0.5897 3.155485268109593 20.336171577362567 16.660081178262224 -1 -1 -2
319 1 2 -1.1794 2.882274098668006 20.972391059599584 17.321105103648605 -1 -1 -2
320 1 1 0.5897 2.5160506234304374 20.4413641539699 18.02839798564134 -1 -1 -2
26 1 1 0.5897 1.6807809955637498 18.389837734301135 19.077414359946268 2 4 6
27 1 1 0.5897 2.34517258382533 18.940390406940693 20.321480589713573 2 4 6
193 1 2 -1.1794 4.1401146244626785 17.673481309395996 16.988347254284704 -1 -5 3
194 1 1 0.5897 4.6594001092582955 18.444843933024885 16.760949114759583 -1 -5 3
195 1 1 0.5897 4.63300098378852 16.937070183374736 16.626227700610755 -1 -5 3
142 1 2 -1.1794 8.697673182923175 6.556524551409636 2.393879130083274 -2 5 2
830 1 1 0.5897 6.639805126471799 4.54325069731222 3.47371298039606 6 2 7
829 1 2 -1.1794 6.307156319051237 5.420369928169289 3.282961245849271 6 2 7
831 1 1 0.5897 5.712030514675714 5.295816300679714 2.5435687282113895 6 2 7
144 1 1 0.5897 7.891360094125612 6.174989873683478 2.7412326371421654 -2 5 2
505 1 2 -1.1794 6.952367100791063 2.9611635011266317 3.7266860192697626 3 -1 -4
703 1 2 -1.1794 5.15252611036836 5.184054351229283 0.726704267645792 2 -2 -4
786 1 1 0.5897 5.6474689237370335 5.580768501960661 4.929042058245599 6 6 1
680 1 1 0.5897 8.629934016326896 4.87747939743504 5.600154854436407 -6 -7 1
506 1 1 0.5897 7.534709632465618 2.879017080195796 4.481997909241215 3 -1 -4
784 1 2 -1.1794 5.260869458492933 5.663148961109903 5.800894887216202 6 6 1
507 1 1 0.5897 7.3212623844778415 2.3665787865446672 3.073423920151914 3 -1 -4
282 1 1 0.5897 7.367438707048361 1.8835028002804841 0.8402496698469097 -1 3 1
368 1 1 0.5897 8.761249619442696 5.671199807836276 0.8820645994080598 2 8 -2
679 1 2 -1.1794 9.051048832787625 5.539368501383256 5.051559860284957 -6 -7 1
328 1 2 -1.1794 7.987379393418594 3.2915183609610077 6.328767069447143 2 8 1
508 1 2 -1.1794 8.699416004318124 3.7691227082309062 10.483030045840621 -1 -1 4
858 1 1 0.5897 7.226468487402564 4.6421108666481175 7.629648929996941 0 -3 0
330 1 1 0.5897 7.153095224198091 2.86001104716376 6.51352226466351 2 8 1
856 1 2 -1.1794 7.339019414149943 5.1967513909064404 8.401720372001307 0 -3 0
857 1 1 0.5897 6.79415634429658 5.964274853589359 8.227344076976852 0 -3 0
762 1 1 0.5897 6.260914148452998 4.351050628809411 9.68748812597167 -2 -5 2
329 1 1 0.5897 8.630172716980915 2.8002701973833255 6.840492452730227 2 8 1
509 1 1 0.5897 8.267762725076281 4.373287834003515 9.878829273589595 -1 -1 4
556 1 2 -1.1794 5.161043098373732 3.120591322693792 6.67636422079098 4 3 3
760 1 2 -1.1794 5.525856258981289 4.0535215497150805 10.223708163516523 -2 -5 2
761 1 1 0.5897 5.472104359236827 4.693494140951141 10.933575137233204 -2 -5 2
558 1 1 0.5897 5.0824927476082955 2.339171250989109 6.129029175546489 4 3 3
827 1 1 0.5897 8.85324595720624 2.3598899067978008 9.514678580699623 -1 -2 5
785 1 1 0.5897 5.072419184917503 4.762806334551057 6.065923851714934 6 6 1
816 1 1 0.5897 5.3631831259114 6.759761735744936 7.273293634634145 -6 5 -7
755 1 1 0.5897 5.971142926961728 5.833666597092443 15.927223833525913 -6 -4 1
304 1 2 -1.1794 7.155947021502862 1.7595259525484728 15.209236944009513 6 -4 -10
352 1 2 -1.1794 6.299877809493676 6.443735640986009 11.453833586950205 8 5 -6
719 1 1 0.5897 6.981973372605534 4.674936039352735 14.47176688340686 7 6 0
720 1 1 0.5897 6.678563633087813 3.828974198668221 13.253361075053045 7 6 0
718 1 2 -1.1794 6.9916676731989424 4.6950018996150495 13.514756970174894 7 6 0
673 1 2 -1.1794 6.339992727598484 2.365298384008077 12.128685330508366 -2 -2 -6
306 1 1 0.5897 6.302171259068509 2.1773811434020667 15.095978728951108 6 -4 -10
353 1 1 0.5897 6.80493778266131 6.059408623137525 12.170489227184346 8 5 -6
108 1 1 0.5897 8.646686699760172 2.474689551946615 14.308321322627805 -4 3 5
754 1 2 -1.1794 6.549481291513276 5.122001047193016 16.201864811427505 -6 -4 1
675 1 1 0.5897 5.990725392153313 2.7450648153965327 11.32236085313831 -2 -2 -6
674 1 1 0.5897 7.140213649198379 1.9164663601857161 11.855599279059811 -2 -2 -6
305 1 1 0.5897 7.42150377406691 1.9933847404592164 16.09870597946999 6 -4 -10
524 1 1 0.5897 8.285127437741595 5.266147769401661 16.263497531141276 0 1 5
201 1 1 0.5897 8.809581124612716 2.154918146686254 17.70837829640614 5 -4 -3
84 1 1 0.5897 7.292696353814412 3.02916240237645 19.456713218042566 -2 0 -8
82 1 2 -1.1794 7.167074460420531 3.118180438233436 20.40152419696487 -2 0 -8
83 1 1 0.5897 7.739955382102535 3.842844725991417 20.652591551648264 -2 0 -8
200 1 1 0.5897 8.535971938355768 3.6349676010867644 17.54453694413324 5 -4 -3
199 1 2 -1.1794 8.096518601219692 2.7903066536018564 17.64352105979473 5 -4 -3
756 1 1 0.5897 6.0716203601900345 4.6822515531529145 16.90516632110733 -6 -4 1
374 1 1 0.5897 5.483371259481593 6.656359415411856 18.890790430335926 3 6 -5
375 1 1 0.5897 5.8579424142640075 5.757076755834909 20.049759253336696 3 6 -5
373 1 2 -1.1794 6.236181001879928 6.335846745562221 19.38769547756177 3 6 -5
369 1 1 0.5897 9.069184752093019 5.881832067729682 20.252751032221596 2 8 -4
367 1 2 -1.1794 8.913166426898755 5.196584623420653 20.902719201082242 2 8 -3
400 1 2 -1.1794 4.853329109703482 1.7655190454695102 19.06050898489896 -6 3 6
525 1 1 0.5897 9.068701286600048 5.904917065680919 17.39054148770552 0 1 5
705 1 1 0.5897 5.264847861788839 4.23630980346039 21.49033555646502 2 -2 -5
537 1 1 0.5897 8.258644384104123 9.592967040222467 2.234854042268661 3 6 5
535 1 2 -1.1794 8.35436880502169 9.176219921122906 1.3783942163097795 3 6 5
340 1 2 -1.1794 8.383000327965169 8.226488757223414 5.184518142292587 0 5 4
600 1 1 0.5897 5.5357886559318645 8.848447843329609 4.307807300985141 -1 -4 -7
342 1 1 0.5897 7.43122962185426 8.295846687932926 5.10909587927043 0 5 4
51 1 1 0.5897 5.597882965232738 8.22032097208934 1.0007548049137387 5 5 0
598 1 2 -1.1794 5.854584006407865 9.281082444687543 5.100005952584665 -1 -4 -7
536 1 1 0.5897 7.464492970159609 9.142296149204224 1.0271824663833256 3 6 5
599 1 1 0.5897 5.989545585124225 10.191942790391936 4.8382756701005905 -1 -4 -7
529 1 2 -1.1794 5.128503418334791 10.976195379961933 1.0235365774365695 -3 2 -4
143 1 1 0.5897 8.428017547118468 7.4021684803126 2.035356078831085 -2 5 2
341 1 1 0.5897 8.58310573674949 7.338330218923055 4.888710686919484 0 5 4
861 1 1 0.5897 8.765913452113681 9.817686755490891 4.4307138603303 -1 -2 4
859 1 2 -1.1794 9.063601573127807 10.537830302114006 3.8746767998452314 -1 -2 4
422 1 1 0.5897 5.115274287442472 10.550704402627767 9.897018640316412 -5 4 8
815 1 1 0.5897 5.930374856214462 7.984415381570462 7.959435253775796 -6 5 -7
217 1 2 -1.1794 8.470742516586 7.601717472845733 10.125738200527676 0 4 -2
9 1 1 0.5897 8.100727171586641 9.776232975861982 7.937608119933593 1 1 1
421 1 2 -1.1794 5.862646366144642 11.043482075262578 9.557911690474816 -5 4 8
7 1 2 -1.1794 7.872449349089362 8.859451756244068 7.783438487677742 1 1 1
423 1 1 0.5897 6.620890336363554 10.66753875635685 10.005233507618184 -5 4 8
8 1 1 0.5897 8.044523391584924 8.72267937388561 6.851735323151376 1 1 1
218 1 1 0.5897 8.177184940713722 8.06849098384219 9.343235791833953 0 4 -2
814 1 2 -1.1794 5.445991603135697 7.1767466910284705 8.130988116703218 -6 5 -7
381 1 1 0.5897 5.063442051025855 10.647871251973955 7.611551519283792 8 3 -3
354 1 1 0.5897 6.960354150000498 6.785839692488349 10.851235620560802 8 5 -6
10 1 2 -1.1794 5.240837953090485 7.5801317607817245 15.89951242924034 2 0 3
734 1 1 0.5897 8.020495774526402 9.029619378931518 11.149591345551382 5 1 -4
733 1 2 -1.1794 7.7933155437814055 9.828775394535043 11.625107001100327 5 1 -4
298 1 2 -1.1794 5.932868681837686 8.75657125708165 13.43385324169387 -4 0 -1
297 1 1 0.5897 8.879500273751054 7.829606614268107 14.409847859512093 -1 -2 1
735 1 1 0.5897 7.108013650490648 9.557885797560411 12.236141969149623 5 1 -4
222 1 1 0.5897 8.90332481566782 11.011034020826145 12.853249434827156 2 -6 6
299 1 1 0.5897 5.39529841031435 8.067544056515043 13.0431635177062 -4 0 -1
12 1 1 0.5897 5.471649658456842 7.836258139174923 15.006487994659762 2 0 3
437 1 1 0.5897 8.459377593720859 9.385932287027167 16.025971875297813 -4 8 3
220 1 2 -1.1794 8.945062318854283 11.409408383626431 13.722685990301914 2 -6 6
295 1 2 -1.1794 8.612286382547552 7.3891655196050765 13.602994550644787 -1 -2 1
296 1 1 0.5897 7.763017865220349 7.775396297633072 13.388673379320144 -1 -2 1
300 1 1 0.5897 5.30797218524949 9.439911864691526 13.676594208751911 -4 0 -1
499 1 2 -1.1794 7.023851762151887 11.760905525709378 15.670720811287325 -1 -1 -1
17 1 1 0.5897 7.953494298793473 6.800906880159724 19.159605070787684 0 4 0
163 1 2 -1.1794 6.713718369235938 10.542166862040553 19.262806416332396 -6 -1 0
77 1 1 0.5897 6.249425893973589 8.715039457369823 16.540607327613728 -3 -5 -2
49 1 2 -1.1794 6.110904365613849 8.3791426705472 21.04634586185489 5 5 -1
164 1 1 0.5897 6.622599342401085 9.81453788779167 19.878176976995604 -6 -1 0
76 1 2 -1.1794 6.892823790480111 9.354389917857988 16.846657090154096 -3 -5 -2
165 1 1 0.5897 6.8649408787367925 10.12262793382491 18.415762788242155 -6 -1 0
16 1 2 -1.1794 8.850785676003325 6.97819496229594 18.87710501824845 0 4 0
50 1 1 0.5897 6.0313656629753085 7.5690558284528295 20.54256435951975 5 5 -1
18 1 1 0.5897 8.865216488590235 7.918840081241055 18.7000006453801 0 4 0
78 1 1 0.5897 6.585949507738957 10.190511183637465 16.495810138785032 -3 -5 -2
531 1 1 0.5897 5.083424856928722 10.111174730140673 21.45399845640599 -3 2 -5
800 1 1 0.5897 5.51794644336073 14.554267573510904 4.819489678271982 -2 -2 6
833 1 1 0.5897 8.303146922670727 13.490933487683764 3.0824708366132643 1 1 -2
660 1 1 0.5897 6.599837812786116 14.852608851634477 1.633533023261867 2 -1 -1
628 1 2 -1.1794 8.138123897757026 15.13948226451018 4.356262578208236 -4 -3 4
832 1 2 -1.1794 8.028362678210971 12.68841830342721 2.6388123564586303 1 1 -2
659 1 1 0.5897 7.8223444853623 15.74356851296209 1.696311088444907 2 -1 -1
629 1 1 0.5897 7.544239999493407 15.88857139637303 4.305572136469701 -4 -3 4
658 1 2 -1.1794 7.356475359663902 15.136953202535382 1.1206680271961007 2 -1 -1
630 1 1 0.5897 8.94036232312457 15.439870455089237 3.9289627854447344 -4 -3 4
356 1 1 0.5897 6.394609143652634 12.293406292785495 5.044203471325625 5 1 -3
834 1 1 0.5897 8.376424561741999 11.982052701391932 3.183120273620263 1 1 -2
541 1 2 -1.1794 5.029188580139855 14.88792145653575 2.857756881166699 -6 0 2
357 1 1 0.5897 6.30486086753772 12.457781778558132 3.5418229104210166 5 1 -3
355 1 2 -1.1794 5.886804782866404 12.016611253666303 4.281390657128599 5 1 -3
799 1 2 -1.1794 4.981113379300624 14.620054412722478 5.60938386513417 -2 -2 6
780 1 1 0.5897 7.954042662129717 12.493764587277347 0.7084704745678536 -3 -2 -1
627 1 1 0.5897 8.54428479734312 16.260316020742486 9.107989224409978 -9 -2 4
723 1 1 0.5897 5.408149089146123 14.091432980553407 8.641580918330032 1 -1 1
721 1 2 -1.1794 6.10070392843603 14.221632726072388 7.993663711407275 1 -1 1
722 1 1 0.5897 5.635425641886751 14.432785731618695 7.184161900680699 1 -1 1
560 1 1 0.5897 8.219033542416515 12.543816002816506 6.728221287785108 5 0 -1
561 1 1 0.5897 6.765575592008453 12.717066957363166 7.115095326582598 5 0 -1
626 1 1 0.5897 7.405415609883722 15.575981546516246 8.382104450860597 -9 -2 4
625 1 2 -1.1794 7.894657408304217 16.39798680417776 8.418495327918432 -9 -2 4
489 1 1 0.5897 5.898016555172691 12.466472172213397 10.753239514658326 -1 -2 3
488 1 1 0.5897 7.1225611318725095 13.356543099063487 10.776012113924782 -1 -2 3
559 1 2 -1.1794 7.346211829721833 12.182452762701045 6.573419741732838 5 0 -1
232 1 2 -1.1794 9.043795906839838 13.275537210079747 10.373310402595603 2 3 0
487 1 2 -1.1794 6.221857816692547 13.299863963290885 11.09522461678209 -1 -2 3
596 1 1 0.5897 5.300716977794785 16.275845402747144 11.082119694276603 4 -7 1
686 1 1 0.5897 8.928174772080876 14.590987658318548 6.949227588520995 8 -7 -3
500 1 1 0.5897 6.241305760928616 12.071196403957659 15.214972077980388 -1 -1 -1
135 1 1 0.5897 5.65620409331831 13.17152344788489 12.857358901977507 -4 -4 2
766 1 2 -1.1794 5.641370978857374 15.612780685296066 16.298516190802104 0 -6 3
597 1 1 0.5897 6.260601933451943 15.127427146012057 11.310375055378351 3 -7 1
133 1 2 -1.1794 5.361149461087641 12.952100981092215 13.741260206159847 -4 -4 2
581 1 1 0.5897 8.340557650351965 15.679622162359282 13.58295545685678 -5 -6 2
580 1 2 -1.1794 7.9369676101053415 16.527885216928325 13.398748871097784 -5 -6 2
582 1 1 0.5897 7.3592749360508165 16.36206516596951 12.653655238586019 -5 -6 2
545 1 1 0.5897 5.287821054085767 16.609734287295048 13.861218873055677 -2 4 5
503 1 1 0.5897 8.715191530714671 14.25564558267569 15.321066703298072 -5 0 5
595 1 2 -1.1794 6.165924893216254 16.071549568590246 11.437195217638168 3 -7 1
502 1 2 -1.1794 8.990583423730014 14.254225169858186 14.404264701688447 -5 0 5
501 1 1 0.5897 7.721053638023429 11.819160142564316 15.01736047371884 -1 -1 -1
63 1 1 0.5897 5.09196042985201 12.570132964152668 21.188241277385245 -5 4 0
767 1 1 0.5897 5.543112235648653 14.941231437034004 16.973599877969264 0 -6 3
22 1 2 -1.1794 7.447625605407642 15.205976517828253 19.173750692333364 -6 2 0
60 1 1 0.5897 8.190753481554736 14.103143731510045 17.932397411624976 4 1 1
23 1 1 0.5897 8.122735662014223 15.8368973893519 18.923673660228125 -6 2 0
24 1 1 0.5897 7.47161825045651 15.195450945736802 20.13068594352061 -6 2 0
59 1 1 0.5897 7.707846387423837 13.075220355472242 16.931187026620613 4 1 1
62 1 1 0.5897 6.22832599405473 13.44943175099451 20.71098781747348 -5 4 0