LAMMPS (30 Jul 2021)
  using 1 OpenMP thread(s) per MPI task
package omp 0
using multi-threaded neighbor list subroutines
echo both

include		in.partitions
variable        pid world 0
include		in.temp
variable        temperature equal 242.92
variable	tempDamp equal 100.0
include		in.pressure
variable        pressure equal 6250.0
variable        pressureDamp equal 1000.0 # This is 1 ps
include		in.seed
variable        seed world 745823

units		real
atom_style	full
read_restart	restart.lmp.${pid}
read_restart	restart.lmp.0
Reading restart file ...
  restart file = 30 Jul 2021, LAMMPS = 30 Jul 2021
  restoring atom style full from restart
  orthogonal box = (-0.14585982 -0.14940610 -0.056496617) to (24.875861 24.879407 22.866497)
  4 by 4 by 4 MPI processor grid
  restoring pair style lj/cut/tip4p/long/omp from restart
  restoring bond style harmonic/omp from restart
  restoring angle style harmonic/omp from restart
  1920 atoms
  1280 bonds
  640 angles
Finding 1-2 1-3 1-4 neighbors ...
  special bond factors lj:    0        0        0       
  special bond factors coul:  0        0        0       
     2 = max # of 1-2 neighbors
     1 = max # of 1-3 neighbors
     1 = max # of 1-4 neighbors
     2 = max # of special neighbors
  special bonds CPU = 0.073 seconds
  read_restart CPU = 0.229 seconds
include 	in.setup
variable	out_freq equal 1000
variable	out_freq2 equal 10000
variable	out_freq3 equal 1000

timestep	2.0

neigh_modify    delay 7 every 1

include		in.tip4p
# This is TIP4P/Ice

# create groups ###
group ox type 2
640 atoms in group ox
group hy type 1
1280 atoms in group hy

# set charges - beside manually ###
set group ox charge -1.1794
Setting atom values ...
  640 settings made for charge
set group hy charge 0.5897
Setting atom values ...
  1280 settings made for charge

# ### TIP3P Potential Parameters ###
pair_style lj/cut/tip4p/long/omp 2 1 1 1 0.1577 8.5
pair_coeff 1 1*2 0.000 0.000
pair_coeff 2 2 0.21084 3.1668
bond_style  harmonic
bond_coeff  1 450 0.9572
angle_style harmonic
angle_coeff 1 55 104.52
kspace_style pppm/tip4p/omp 1.0e-5
pair_modify tail yes

thermo          ${out_freq}
thermo          1000
thermo_style    custom step temp pe etotal epair emol press lx ly lz vol pxx pyy pzz pxy pxz pyz enthalpy

restart 	${out_freq3} restart.lmp.${pid} restart2.lmp.${pid}
restart 	1000 restart.lmp.${pid} restart2.lmp.${pid}
restart 	1000 restart.lmp.0 restart2.lmp.${pid}
restart 	1000 restart.lmp.0 restart2.lmp.0


include         in.dump
dump            myDump all atom ${out_freq2} dump.water.${pid}
dump            myDump all atom 10000 dump.water.${pid}
dump            myDump all atom 10000 dump.water.0
dump            myDump2 all dcd ${out_freq2} dump.dcd
dump            myDump2 all dcd 10000 dump.dcd
dump_modify     myDump append yes
dump_modify     myDump2 append yes


variable natoms 	equal  "count(all)"                        # NUMBER ATOMS
variable H      	equal  "enthalpy/v_natoms"                 # ENTHALPY-per-atom
variable Vol      	equal  "vol/v_natoms"                 # volume-per-atom
fix AVG all 		ave/time ${out_freq} 1 ${out_freq} v_Vol v_H file vol_enthalpy.dat
fix AVG all 		ave/time 1000 1 ${out_freq} v_Vol v_H file vol_enthalpy.dat
fix AVG all 		ave/time 1000 1 1000 v_Vol v_H file vol_enthalpy.dat




fix 		1 all shake 1e-6 200 0 b 1 a 1
       0 = # of size 2 clusters
       0 = # of size 3 clusters
       0 = # of size 4 clusters
     640 = # of frozen angles
  find clusters CPU = 1.062 seconds
fix             2 all nph aniso ${pressure} ${pressure} ${pressureDamp}
fix             2 all nph aniso 6250 ${pressure} ${pressureDamp}
fix             2 all nph aniso 6250 6250 ${pressureDamp}
fix             2 all nph aniso 6250 6250 1000
fix             3 all temp/csvr ${temperature} ${temperature} ${tempDamp} ${seed}
fix             3 all temp/csvr 242.92 ${temperature} ${tempDamp} ${seed}
fix             3 all temp/csvr 242.92 242.92 ${tempDamp} ${seed}
fix             3 all temp/csvr 242.92 242.92 100 ${seed}
fix             3 all temp/csvr 242.92 242.92 100 745823


run             250000
PPPM initialization ...
  extracting TIP4P info from pair style
  using 12-bit tables for long-range coulomb (../kspace.cpp:340)
  G vector (1/distance) = 0.37427031
  grid = 30 30 30
  stencil order = 5
  estimated absolute RMS force accuracy = 0.0032963361
  estimated relative force accuracy = 9.9268181e-06
  using double precision FFTW3
  3d grid and FFT values/proc = 3600 512
Last active /omp style is kspace_style pppm/tip4p/omp
Neighbor list info ...
  update every 1 steps, delay 7 steps, check yes
  max neighbors/atom: 2000, page size: 100000
  master list distance cutoff = 10.8154
  ghost atom cutoff = 10.8154
  binsize = 5.4077, bins = 5 5 5
  1 neighbor lists, perpetual/occasional/extra = 1 0 0
  (1) pair lj/cut/tip4p/long/omp, perpetual
      attributes: half, newton on, omp
      pair build: half/bin/newton/omp
      stencil: half/bin/3d
      bin: standard
Per MPI rank memory allocation (min/avg/max) = 9.330 | 9.337 | 9.342 Mbytes
Step Temp PotEng TotEng E_pair E_mol Press Lx Ly Lz Volume Pxx Pyy Pzz Pxy Pxz Pyz Enthalpy 
15000000    246.98991   -9141.2576   -8199.6194   -9141.2576            0    7464.6171    25.021721    25.028813    22.922993    14355.845    7297.5722    8467.3281    6628.9509   -62.326449     316.2596   -474.81738   -6636.7878 
15001000    244.59127   -9183.5699   -8251.0765   -9183.5699            0    7427.8986    25.020426    24.907189    23.026176    14349.647    7172.7921    7879.2891    7231.6146   -733.33168    288.43133   -355.09985   -6696.6038 
15002000    241.57905    -9167.232   -8246.2225    -9167.232            0    6347.5416    24.992651    24.999839    23.049172    14401.405     6117.022    7355.4147    5570.1881   -255.10135   -108.13375    354.49192   -6913.0501 
15003000    247.27059   -9193.5534   -8250.8451   -9193.5534            0    6440.5498    24.895106    24.972243    23.161059    14398.921    6194.6809    6432.4156    6694.5528    376.65184   -160.61604    619.12917   -6898.3716 
15004000    240.64373   -9205.2194   -8287.7757   -9205.2194            0    6112.6226    25.086064    25.007346    22.999242     14428.25    5933.8643    5710.6545    6693.3491     256.0531   -993.80159    813.94361   -7001.5502 
15005000    253.07085    -9192.562   -8227.7405    -9192.562            0    4999.7262    25.069719    25.111866    23.011691    14486.951    3609.9567    6300.1335    5089.0885    523.35841    1177.1597    228.87195   -7171.4117 
15006000     250.2003   -9168.8467    -8214.969   -9168.8467            0    4984.3904    24.996441    25.082861    23.170923    14527.758    6280.3119    4305.8231    4367.0362   -288.72945   -194.02576    824.23949    -7158.914 
15007000    235.54217   -9162.4667   -8264.4725   -9162.4667            0    6989.9442    24.945554    24.947906    23.174845    14422.617    7316.1459    6837.4117     6816.275    612.58321   -32.973398      131.895   -6794.2141 
15008000    240.17614    -9180.087   -8264.4261    -9180.087            0    5270.6722    25.038174    25.123789     23.01284    14476.314    4645.7558    5344.1938    5822.0671    -837.2143    509.03915   -387.77965   -7151.6702 
15009000    248.23942   -9151.5148   -8205.1129   -9151.5148            0    5775.3642    25.046128    25.122783    22.983878     14462.11    3731.0477     7080.152    6514.8929   -675.40925    60.533233    813.66312   -6987.0017 
15010000    237.52985   -9134.3482   -8228.7761   -9134.3482            0     5819.131    24.926234    25.034025    23.226163    14493.218    6304.0986    5345.5532    5807.7411    218.56254    956.21255    1187.4459   -6998.7938 
15011000    246.07298   -9196.9698   -8258.8274   -9196.9698            0    6121.2431    25.076276    25.028417    22.997174    14433.474    5459.8804    5896.2899     7007.559     516.4078   -52.725578   -69.765888   -6970.3215 
15012000    246.26762    -9151.525   -8212.6406    -9151.525            0    5110.3884     25.02245    25.063948    23.125112    14503.177    5422.9467    5833.7189    4074.4996    267.11821   -74.948219   -519.97294   -7131.7221 
15013000    244.07826   -9156.1218   -8225.5841   -9156.1218            0    4524.1351    24.923867    25.014736    23.320156    14539.277    6488.5937    3876.3218    3207.4899   -103.83995   -1083.5707    446.89264   -7266.2845 
15014000    235.79126   -9188.1757   -8289.2319   -9188.1757            0    6942.6775    24.978398    25.025387    23.009414    14383.048    7224.3276    5937.2686    7666.4363   -99.488445    600.64736   -388.64114   -6832.9219 
15015000    243.97612   -9175.8616   -8245.7134   -9175.8616            0    7245.9631     25.07016     25.07069    22.852517    14363.406    5832.5521     7040.099    8865.2383    -397.7527    561.56192    893.38171   -6727.8614 
15016000    247.91628   -9180.6455   -8235.4755   -9180.6455            0    6581.0718    25.033934    24.962064    23.017151    14383.387    5822.9195    7026.8054    6893.4903   -224.20666    121.93874    1021.0962   -6854.9842 
15017000    241.24957   -9159.4579   -8239.7045   -9159.4579            0    6623.0604    24.969393    24.898129    23.165059    14401.513    6692.7554     7563.192    5613.2338   -669.50179    562.32725   -157.74667   -6848.6546 
15018000    245.10469   -9217.2315   -8282.7806   -9217.2315            0     5498.866    25.065859    25.047331    22.992091     14435.19    5049.0113    5402.8626     6044.724    398.88176    495.94554    276.80153    -7125.146 
15019000    235.29278   -9150.7274    -8253.684   -9150.7274            0    7131.3625    25.056455    25.166733    22.835853     14400.04    5851.4988    6236.2137     9306.375   -569.86995    110.19339    1048.2224   -6756.0278 
15020000    237.46815    -9172.697   -8267.3601    -9172.697            0    5843.7829    25.015615    25.013811    23.071013     14436.36    5327.3735    6219.7043    5984.2709    52.805134   -190.48148   -174.26139    -7037.013 
15021000    241.30487   -9182.5559   -8262.5917   -9182.5559            0    5789.2378    24.947824    24.968813    23.253907    14485.267    6374.6724    5866.2599     5126.781    190.81316    531.13928    614.89619   -7039.5992 
15022000     252.9348   -9185.0431   -8220.7403   -9185.0431            0    6887.5463     25.01931    24.969391    23.107842    14435.861    7124.4926    7455.8663    6082.2799   -372.22709   -399.05183   -80.872572   -6770.6899 
15023000    242.13701   -9212.1944   -8289.0577   -9212.1944            0      7565.51    24.980371    24.989846    22.955739    14330.249    6779.7334    8376.6238    7540.1727     966.2776   -85.791532    427.36472   -6707.9267 
15024000    251.01016   -9137.3675   -8180.4024   -9137.3675            0    6192.8735    25.096677    25.085226    22.913055    14425.047    5325.5768    6128.3179    7124.7259   -183.58174   -608.86812    82.533435   -6877.5796 
15025000    238.38342   -9149.7173    -8240.891   -9149.7173            0    5134.3585    25.047051    25.042924    23.143497    14516.791    5436.3491    5668.7216    4298.0049   -230.70795    157.88544    488.46219   -7153.8831 
15026000    246.71467   -9154.8354   -8214.2465   -9154.8354            0    5407.1402    25.055508    25.002936    23.125433    14487.188    4372.9014    6794.8313    5053.6879    762.90079    199.38701   -1078.7058   -7071.8217 
15027000    235.25314   -9140.5979   -8243.7056   -9140.5979            0    5327.2849    25.111305    25.013732    23.050743    14478.805    4683.6018    5590.6195    5707.6335   -318.44468   -203.60118   -286.56583    -7118.804 
15028000    235.08619   -9154.5218    -8258.266   -9154.5218            0    6051.7516    25.058497    24.964444     23.06169    14426.735    6068.0185    6291.1166    5796.1196    41.775614   -141.67657    1806.5185   -6984.9827 
15029000    234.43434   -9161.1717   -8267.4011   -9161.1717            0    6039.2193    25.073355    24.950168    23.149008    14481.659    5648.7349    6219.3452    6249.5778   -326.49603    285.51598    209.47423   -6991.9171 
15030000    248.28769   -9160.1154   -8213.5295   -9160.1154            0    5982.3101    25.115054    25.110446    22.934718    14463.785    4769.6172    6238.0401    6939.2729    -1285.731   -422.01002    957.77311   -6951.6242 
15031000    247.81627   -9145.0985   -8200.3099   -9145.0985            0    5520.1402    24.966662    25.045551    23.171576    14489.274    6329.7767    5708.0275    4522.6164     150.4404   -570.13296   -872.86189   -7033.8424 
15032000    242.04263   -9142.1068   -8219.3299   -9142.1068            0    6014.5486    24.935108    25.042415    23.159754    14461.769    5968.5962    6736.1655     5338.884   -529.83319   -765.08056    1443.6621   -6950.8011 
15033000    244.11531    -9163.858   -8233.1791    -9163.858            0    5550.5589    24.967241    25.115938     23.10339    14487.574    7213.4457    4309.6536    5128.5773    22.970456    377.67988    29.088287   -7060.4215 
15034000    238.91463   -9199.8031   -8288.9515   -9199.8031            0    5359.3444    25.083083    25.122991    22.935143    14452.857    5604.0165    4406.2413    6067.7755   -1141.7749    374.17598    658.63298   -7159.3084 
15035000    237.49315   -9209.9869   -8304.5547   -9209.9869            0    6402.5937    25.096109    24.907587    23.006043    14380.698    5393.7953    7567.7916    6246.1943    164.10243    232.54678    113.32879   -6961.7532 
15036000    237.76675   -9161.8339   -8255.3586   -9161.8339            0    6535.8303    25.035011    24.921296    23.123382    14426.792    6559.7703    7281.7369    5765.9836   -1275.7309    539.71131    393.22862   -6880.2202 
15037000    248.20638   -9198.8792   -8252.6033   -9198.8792            0    6549.6696    25.027213    24.926122     23.10457    14413.356    6602.5192    6615.1037    6431.3858   -132.94165   -485.39759    1230.4697   -6875.8365 
15038000    237.20278   -9127.4293   -8223.1041   -9127.4293            0    7482.7185     24.99947    25.002568    23.007118    14380.621    7013.5319    7682.5046    7752.1191   -778.45459   -1460.4363    818.33163   -6653.7789 
15039000    240.50751   -9181.2708   -8264.3465   -9181.2708            0    6135.7821    24.966193    25.055586    23.035032    14409.394    6255.0473    5039.3021     7112.997   -978.60718   -259.64049    952.59724    -6974.935 
15040000    247.84937   -9203.0469    -8258.132   -9203.0469            0    6734.0957    24.890903    24.989232    23.130244    14387.117    6594.8137    7440.4942    6166.9793   -484.08287    116.74458    451.18505    -6845.175 
15041000    243.75394   -9223.5188   -8294.2176   -9223.5188            0     8233.484    24.907377    25.088146    22.856183     14282.37    8211.1477    7966.6285    8522.6759   -423.72142    162.38446    796.66812   -6579.2346 
15042000    253.15142   -9225.5156   -8260.3869   -9225.5156            0    6334.8751     24.98361    25.076236    22.965585    14387.822    6116.1241    6239.7486    6648.7527   -969.30453    -619.8713   -325.69147   -6931.1298 
15043000    242.48182   -9154.6984   -8230.2471   -9154.6984            0    7395.4984     24.86235    25.026081    23.098915     14372.31     8392.997    7363.3927    6430.1054   -151.02997    485.10732    484.26915   -6680.1106 
15044000    246.11892   -9197.3344   -8259.0168   -9197.3344            0    7191.8843    24.872671    25.086786    23.006915    14355.749    8320.4463    6232.3428     7022.864   -233.28145   -708.34885    264.91696   -6753.2961 
15045000    229.64025   -9187.9786   -8312.4852   -9187.9786            0     5359.223    25.005405    25.046468    23.110862    14474.265     5470.552    6287.1909    4319.9261   -793.40956    61.284454    -575.5985   -7181.1944 
15046000    249.14119   -9156.7603   -8206.9204   -9156.7603            0    5321.2953    25.041227    25.016331    23.134432    14492.325    5045.3269    5541.1119    5377.4473   -300.67944    767.61616     814.4024   -7082.2344 
15047000    243.08337   -9190.7312   -8263.9865   -9190.7312            0    6296.4928     25.15827    24.997638     22.88455    14392.032    4544.1051    6700.1797    7645.1937    -358.9103   -394.40242    757.71936   -6942.3966 
15048000    240.66627   -9180.9977   -8263.4681   -9180.9977            0     5727.492    24.950724    25.056445    23.065592    14420.065    6758.1351    5147.3796    5276.9613    600.96322    45.833365      1351.68   -7058.9659 
15049000    245.29905   -9164.9649    -8229.773   -9164.9649            0    4671.7915    24.970027    25.059908     23.17228    14499.975    4680.1254    4768.6919    4566.5573    449.83663   -170.69161    1157.5431    -7241.842 
15050000    251.28192   -9178.2507   -8220.2494   -9178.2507            0    5414.1445    24.952649    25.102048    23.063605    14446.179    5036.3293    6068.5652     5137.539   -691.10056   -319.35487   -85.107391   -7079.5828 
15051000    243.23457   -9170.1516   -8242.8305   -9170.1516            0    5057.4971    24.907867    25.023362    23.264006    14499.956    5327.0974      5486.17    4359.2239   -75.547593   -229.08012   -242.68048   -7173.3368 
15052000    244.08051   -9189.3392    -8258.793   -9189.3392            0    6722.8944    24.922337    25.052321    23.097345    14421.114    6502.1814    6579.6981    7086.8039    23.480347   -606.60207   -329.92931    -6844.853 
15053000    241.47867   -9177.0156   -8256.3888   -9177.0156            0    5147.1872    25.047814    25.118093    23.015677     14480.39     3989.324     5146.249    6305.9887   -44.828892    368.16936    646.41867   -7169.3974 
15054000    241.88082   -9153.3043   -8231.1443   -9153.3043            0    4803.6625    25.114456    25.094222    23.051923    14527.961    4324.0077    4399.1561    5687.8239     297.3962    564.60182    936.30157   -7213.3663 
15055000    244.40656   -9153.7318   -8221.9426   -9153.7318            0     5258.122     25.13217    24.997206    23.075947    14497.095    5137.0848    5303.7389    5333.5421   -766.70354   -857.64345   -938.10836   -7110.2428 
15056000    240.67195   -9122.7781   -8205.2269   -9122.7781            0    6142.9651     24.98633    25.130025    23.034964    14463.817     7384.642    5222.8776    5821.3757    663.10843   -1080.4438   -945.42601   -6909.4302 
15057000    240.80358   -9162.0091    -8243.956   -9162.0091            0    6875.7737    24.815004     25.14123    23.088993    14404.755    6961.1832    6182.7999     7483.338   -448.87239    954.47452   -499.84939   -6799.5032 
15058000    240.66248   -9182.2447   -8264.7295   -9182.2447            0    5900.7013    24.956625    25.071025    23.064064    14430.912     6374.089    5424.5564    5903.4584     303.8751   -1545.6557    431.92546   -7022.8677 
15059000    243.58402   -9170.6773   -8242.0239   -9170.6773            0    7099.9344    24.922207    25.094767     22.98644    14376.109    7743.2526    6791.8587    6764.6918    416.20497    354.82672   -472.37752   -6753.4459 
15060000    243.84828   -9222.5382   -8292.8773   -9222.5382            0     6369.023    24.841879    25.072215    23.138625    14411.682    7943.9279    5467.0236    5696.1177   -222.95183   -586.40364    752.05608   -6954.2386 
15061000    244.28648   -9207.0849   -8275.7534   -9207.0849            0     5446.715     24.99047    25.125613    23.022457    14455.821    5891.2755    4294.2258    6154.6437   -727.75619    425.74648    604.81761   -7127.4589 
15062000    246.47868   -9178.3826   -8238.6935   -9178.3826            0    6701.7685    24.945689    25.142269     23.00446    14428.195    6838.0785    5623.6122    7643.6148   -67.002043   -52.692642     312.1985   -6828.5044 
15063000     250.8645   -9145.2227   -8188.8128   -9145.2227            0    7559.7944    24.946028    25.000934    23.039171    14368.932    6602.0363    8073.4681    8003.8789   -374.61225    16.837191    532.56223   -6604.6116 
15064000    245.98621   -9167.4881   -8229.6764   -9167.4881            0    7774.0504    24.908582    24.942194    23.092257    14346.635    8334.5149    7709.0199    7278.6165   -1342.2981    44.113156   -111.59513   -6603.1044 
15065000    235.96674   -9188.4794   -8288.8666   -9188.4794            0    7181.4246    25.047917    24.965559    22.973778    14366.314    6441.7473    8415.7183    6686.8081    35.167066   -452.03432   -522.66598   -6784.2292 
15066000    250.77377   -9132.3456   -8176.2816   -9132.3456            0     6959.092    24.965523    24.970565    23.113481    14409.018    6143.0466    7425.1251    7309.1042    690.58157    -963.7381   -503.35552   -6713.8928 
15067000    238.40738   -9196.1557    -8287.238   -9196.1557            0    6593.1703    24.929078    24.887058    23.170942    14375.517     5996.791    7616.4013    6166.3187    497.63849   -578.64649   -115.28596   -6904.9655 
15068000    241.15868   -9197.9087   -8278.5019   -9197.9087            0    7130.6663    25.015033    25.007862    22.959883    14363.071    5654.5748    7843.9576    7893.4665   -144.38701    206.89559    421.51656   -6784.8365 
15069000    243.07165   -9207.3614   -8280.6615   -9207.3614            0    6792.0412    25.049498    25.032153    22.881069    14347.411    6369.0914    7096.6492     6910.383    -1055.057    35.928765   -59.273549   -6859.4794 
15070000    245.78829    -9213.636    -8276.579    -9213.636            0    6393.4831    24.955064    25.060378    23.016482    14394.124    6006.8597    6708.3839    6465.2058   -357.20212    334.38447     728.7229   -6934.4364 
15071000    241.81471   -9163.3606   -8241.4527   -9163.3606            0    6198.7211     24.95528    25.045176    23.097651    14436.248    6684.2849    6516.5512    5395.3271    310.59747   -1139.4753     430.6206   -6936.3871 
15072000    243.37141   -9136.1218    -8208.279   -9136.1218            0    6791.6629    24.947897    24.937201    23.150712    14402.769    6893.0181    7073.2006      6408.77    539.63291   -81.474236    167.35322   -6781.6928 
15073000    229.64869   -9191.9072   -8316.3817   -9191.9072            0    6792.4268    25.050593    24.886099     23.04338    14365.509    4854.4917    8647.6131    6875.1757    703.27427   -332.20655    501.62752    -6893.326 
15074000    246.04472   -9176.9049   -8238.8702   -9176.9049            0    5995.3704    25.042946    25.079827    22.974739    14429.808      5012.77    5562.3573    7410.9838    122.63739    64.719832    691.24509   -6977.1808 
15075000    254.24071   -9182.9602   -8213.6786   -9182.9602            0    6247.0348    24.948394    25.024699    23.063646    14399.235    6344.9453    6135.8313    6260.3278    127.22745    1229.4294    1171.9736   -6901.8133 
15076000    245.84447   -9184.5961   -8247.3249   -9184.5961            0    5923.4743    24.979587    24.969631    23.143915    14435.578    5481.4951    6780.0034    5508.9244   -282.51548   -2.2655467   -876.29359   -7000.2671 
15077000    240.38323   -9212.2052   -8295.7547   -9212.2052            0    6148.5568    24.892669    24.959272    23.185427    14405.173    6842.4008    6667.8688    4935.4007    36.742709   -374.56594    242.86267   -7004.0371 
15078000    241.44938   -9134.9545   -8214.4394   -9134.9545            0    5950.7995    25.052571    25.043004     23.03525    14452.123    5164.0204    6339.0821    6349.2961    -246.5294   -687.27833    90.754243    -6960.193 
15079000    243.15945   -9190.5156   -8263.4809   -9190.5156            0    6105.2721    25.002104    25.037174    23.027247    14414.643    5878.6749    6001.5224    6435.6189    243.98736   -589.97981   -253.01953   -6980.0136 
15080000    239.66512   -9169.9636   -8256.2508   -9169.9636            0    3616.9113    25.118092    25.091556    23.082605    14547.859    3706.7095    3567.0311    3576.9933   -895.87266   -619.52835    795.34356   -7488.8667 
15081000    255.40414   -9190.7546   -8217.0376   -9190.7546            0    5293.7049     24.98799    24.988273    23.177111    14471.944    5670.1257    5643.2489    4567.7402    541.96035   -850.37724   -155.18012   -7099.7564 
15082000    236.28753    -9158.118   -8257.2822    -9158.118            0    5653.4883    25.026332    25.073209    23.034213    14453.749    5072.5433    5620.5767    6267.3449   -1033.9838   -237.21885    858.09909   -7065.5659 
15083000    235.30669   -9190.9543   -8293.8579   -9190.9543            0    6062.8435    25.103031    25.025473    22.957325    14422.141     5246.964    6375.2668    6566.2997    540.81461    490.14437   -454.64196   -7018.6471 
15084000     242.2689   -9129.9671   -8206.3276   -9129.9671            0    6357.9326    24.988877    25.008385    23.132801    14456.415    5936.6921    7251.9313    5885.1744    1267.3222    473.33967    181.03024    -6865.872 
15085000    235.26828   -9157.9186   -8260.9686   -9157.9186            0    6306.1754    25.005316    24.920657    23.166716    14436.313    6244.8721     6811.311    5862.3432   -1397.2127   -386.98069   -871.59498   -6933.2739 
15086000    240.53272   -9154.1133   -8237.0928   -9154.1133            0    6561.6717    25.011122    24.984362    23.094734    14431.598    7306.0726    6197.7334    6181.2092    335.14952    -199.2591    133.12377   -6856.0575 
15087000     239.6471   -9168.2087   -8254.5646   -9168.2087            0    7576.7267     25.07706    25.038604      22.8628    14355.428    5857.9259    7613.8116    9258.4426    848.31581   -379.83126    591.10183   -6668.3073 
15088000    248.10634   -9155.4677   -8209.5732   -9155.4677            0    7008.5268      24.9939    25.028014    23.031912     14407.56    6814.3256    7439.9648      6771.29   -386.61505    400.61534   -820.90593   -6736.9452 
15089000    232.59561   -9187.6185   -8300.8579   -9187.6185            0    7088.7259    24.946301    24.986931    23.046419    14365.559    7679.3222    6497.9594    7088.8961    1284.4032     515.9111   -47.910626   -6815.7207 
15090000    249.88206   -9197.2421   -8244.5777   -9197.2421            0    5836.5821    25.005943    25.027098      23.0376    14417.533    5603.2284    6503.1452    5403.3728    57.510885    666.70826    179.34106   -7017.3492 
15091000    235.75607   -9183.0407   -8284.2311   -9183.0407            0    5931.9031    24.925076     25.06965    23.070165    14415.691    6323.0933    5662.4289    5810.1871   -513.40422   -1146.7543    51.166757   -7037.1192 
15092000    242.45124   -9161.9574   -8237.6227   -9161.9574            0     6380.902    24.980536    25.066174    23.075635    14449.189    5873.0521    6497.7763    6771.8778    117.81166    294.39186   -360.67646   -6892.9969 
15093000    244.23913   -9158.4597   -8227.3087   -9158.4597            0    5018.6004    25.058276    25.035779    23.058325     14465.72    4559.4615    6133.7427     4362.597   -8.2588852    424.82231   -699.99218   -7168.5462 
15094000    244.36246   -9183.7754   -8252.1543   -9183.7754            0    6139.1067    24.880197    25.085605    23.107735    14422.342    7283.7003    5119.8876    6013.7322   -121.17931   -283.05698    550.38475   -6960.8849 
15095000     234.8677   -9205.8567    -8310.434   -9205.8567            0    6270.0402    24.849129    25.137413    23.058401    14403.265    7991.0595    4516.9665    6302.0947    353.04959    239.80409   -87.449028   -6993.3691 
15096000     241.6813   -9166.3563    -8244.957   -9166.3563            0    5358.9096    24.913874    25.176875    23.071311     14471.56    7012.5428    3619.9965    5444.1894   -424.52678    52.137209   -187.77245   -7113.9438 
15097000    255.46729   -9202.2093   -8228.2515   -9202.2093            0    6136.5706    24.991763    25.074947    22.985145    14404.035    7023.2299    5778.7497    5607.7323   -632.49474   -952.12844    648.36658   -6939.1539 
15098000    235.54596   -9201.0253   -8303.0167   -9201.0253            0    6227.9786    25.172183    24.890079    22.975081    14394.753    4655.8861    7280.7608     6747.289   -174.55994   -612.43458   -223.71155   -6995.5603 
15099000     242.9995      -9152.1   -8225.6751      -9152.1            0    6517.4981    25.096109    24.883043    23.087157     14417.18    6178.7203    7417.1696    5956.6043   -162.35927    13.979574    700.36456   -6855.3073 
15100000    235.09796   -9183.8034   -8287.5028   -9183.8034            0     5912.752    25.075169    24.841164    23.143026    14415.707     6106.808    6494.4866    5136.9614   -234.66732   -678.26424   -274.73965   -7044.4158 
15101000    239.42708   -9174.6344   -8261.8291   -9174.6344            0    6475.6347    25.105831    24.887918      23.0348    14392.877    5844.1497    7367.2045      6215.55    281.44507   -771.53844    600.69281   -6902.5588 
15102000    249.47892   -9167.6429   -8216.5155   -9167.6429            0    5888.2852    25.057516     25.00521    23.052513    14443.977    5018.8692     7013.142    5632.8443     121.8831   -1115.8721   -287.53505   -6976.1448 
15103000    243.74797   -9162.9802   -8233.7018   -9162.9802            0    6025.6105    24.938862    25.053013    23.104445     14435.51    6736.5278    5161.3166    6178.9872    121.41559   -875.02577   -444.86508   -6965.1474 
15104000    239.35572   -9164.9773   -8252.4442   -9164.9773            0    5962.7126    24.812278    25.149971    23.172257    14460.139    7894.7825    5349.1994     4644.156   -75.031821   -832.38645   -670.77155   -6994.9898 
15105000    237.31626   -9135.5282   -8230.7704   -9135.5282            0    6290.4059    24.945717    25.035265     23.11384    14435.116    6836.7815    5517.3302    6517.1061    0.1503913   -577.34934    10.012168   -6906.5056 
15106000    240.63243   -9206.0103   -8288.6098   -9206.0103            0    6031.7356    24.952684    25.049654    23.033515    14397.239    6032.7093    5907.0878    6155.4096    134.57766   -447.72605   -230.14606   -7022.1325 
15107000    244.70318    -9185.563   -8252.6429    -9185.563            0    6111.7735    24.972611     25.11635    23.022446    14440.158    6915.6578    5293.3251    6126.3377    394.55604    40.859292    420.59901   -6965.5346 
15108000    251.77972   -9206.9413   -8247.0422   -9206.9413            0    6653.5392    24.874732    24.987725    23.170124     14401.69     6763.397    7355.3176    5841.9029    283.85081   -33.571508    -111.6839   -6849.5736 
15109000    236.17952   -9163.2979   -8262.8738   -9163.2979            0    5646.8826    24.948739    25.072208    23.132281    14469.704    5792.8226    5866.0391    5281.7862    263.62369     1145.479    1669.7029    -7071.236 
15110000    240.50599   -9187.0643   -8270.1458   -9187.0643            0    5380.1276    25.004436    25.007404    23.129941     14463.06    4216.4073    6583.5657    5340.4099   -154.46203    1489.5172   -228.63694   -7135.3214 
15111000       240.76   -9161.6817   -8243.7948   -9161.6817            0    6051.3212    25.015708    24.998903    23.084775    14436.416    6164.3198    5923.6778    6065.9661   -520.36339   -152.14788   -476.41783   -6969.7476 
15112000    236.42349   -9136.2507   -8234.8965   -9136.2507            0    6544.8323    25.100529    24.895462    23.111088    14441.871    5607.7505    7450.8947    6575.8516    713.82373    350.88151   -244.09291   -6856.4247 
15113000    235.42177   -9149.6046   -8252.0694   -9149.6046            0    5211.0119    25.238355    24.974994    22.998364    14496.507     1714.316    7449.4356    6469.2842    338.87886   -755.30951   -1041.8303   -7150.3745 
15114000     253.7676   -9152.5702   -8185.0924   -9152.5702            0    6805.1047    25.008847    25.025212    23.065899    14435.832    7036.2117    7252.3283     6126.774    507.01966    1009.7167    465.48262   -6752.4014 
15115000    253.62158   -9161.3195   -8194.3984   -9161.3195            0      7501.74     24.85011    24.968052     23.16894    14375.374    9118.2211    7799.7376    5587.2614    111.74631   -374.54991    1002.8359    -6621.658 
15116000    236.01997   -9172.8745   -8273.0587   -9172.8745            0    7196.0296    24.955766    24.952694    23.087957    14377.185    6710.7083    7408.7198    7468.6609   -165.00119   -314.65007    159.29249   -6764.2205 
15117000    238.42743   -9217.8577   -8308.8636   -9217.8577            0    6052.2874    25.051821    24.980842    23.049624    14424.814    6002.9501    5591.7296    6562.1825   -427.30732    734.70282   -58.042953   -7035.6371 
15118000    231.00941   -9180.5751   -8299.8619   -9180.5751            0    5116.3347    24.984789    25.002965    23.182147    14481.743    4632.2687    5933.2258    4783.5097   -208.33012    6.9054048   -477.79402    -7219.285 
15119000    233.68682   -9133.6145   -8242.6938   -9133.6145            0    5989.3345    24.993839    24.964957    23.184527    14466.452      6030.03    7261.0806    4676.8927   -704.51465    18.446797   -676.97575   -6979.0738 
15120000    241.02555   -9175.9805   -8257.0812   -9175.9805            0    6527.6115     25.03653     25.00072    23.000892    14396.978    5651.7598    7080.9436    6850.1312      648.422   -891.30083   -338.41996   -6886.5102 
15121000    240.55983   -9164.8224   -8247.6986   -9164.8224            0    8047.0696    24.967884    24.978824    22.942628    14308.592    7535.1966    8498.1595    8107.8528     281.8541    717.04194    78.576549   -6568.4672 
15122000     246.2509   -9168.4579   -8229.6372   -9168.4579            0     5808.025    24.937929    25.091831    23.083311    14444.111    5587.8838     6414.185    5422.0063    644.01035   -267.40871    958.38676   -7006.1619 
15123000    241.99322   -9203.8834   -8281.2949   -9203.8834            0    5502.1456    24.860978    25.059968    23.201473    14454.873    6357.5573    5402.6921    4746.1872    330.05834   -795.63512    63.279407   -7121.3903 
15124000    247.32721   -9158.1219   -8215.1977   -9158.1219            0    6292.8292     24.99934    25.021003     23.09437    14445.726    6241.2818    6239.2728    6397.9332    173.08598   -118.28302    716.16143    -6889.449 
15125000    250.54481   -9153.2894   -8198.0984   -9153.2894            0    6757.7768    25.163795    25.032628    22.876231    14410.102    5364.7998    6780.0061    8128.5244    199.53253    62.692879    1325.2513   -6777.9072 
15126000    247.37235   -9192.3899   -8249.2937   -9192.3899            0    6342.7467     25.01837    24.951487    23.088712    14413.026    6537.5989    6146.5507    6344.0906   -44.445993   -142.19974    -185.3321   -6916.0535 
15127000    248.31322   -9186.2696   -8239.5864   -9186.2696            0    6647.7095     25.00656     24.90805    23.113074    14396.317    5687.0238    8010.7321    6245.3727    395.81484     1446.704    885.09945   -6843.8631 
15128000    245.51593   -9203.6838   -8267.6651   -9203.6838            0    6152.3759    25.065646    24.985044    23.020511     14416.97    5217.5099    6446.4017    6793.2161    184.62486   -338.10913    914.97034   -6974.0868 
15129000    248.75598   -9182.4445   -8234.0732   -9182.4445            0    5784.4926    25.016073    25.109172    22.930949    14403.683    6103.2456    4671.7582     6578.474   -21.068366    623.87143    1028.8913   -7018.9657 
15130000    236.52761   -9185.1598   -8283.4087   -9185.1598            0    6776.0102    24.942968    25.056597    23.018565    14386.278    6724.3461    7213.8683    6389.8161   -454.94757   -757.71796    -203.3359   -6861.7401 
15131000    244.88768   -9216.7204   -8283.0969   -9216.7204            0    7645.8528      24.8717    24.987926    23.074136    14340.396     8598.938    6909.4504    7429.1699   -378.80788    519.54603    83.518911   -6684.0436 
15132000    244.28436    -9190.711   -8259.3876    -9190.711            0    4684.1524    24.826353    25.172728    23.235535    14520.978    6479.7782    4194.9781    3377.7008   -406.72586   -586.62925     559.0745   -7267.4079 
15133000    240.79456   -9185.0732   -8267.0545   -9185.0732            0    5186.1289    24.980568    25.125404    23.092344    14493.837    5029.3425    5447.1659    5081.8783    108.72262    559.72043   -77.413826   -7170.8223 
15134000      239.649   -9195.9439   -8282.2926   -9195.9439            0    5577.0275    24.946307    25.143024    23.053794     14459.93    6679.8273    3684.7948    6366.4604    1051.6879   -403.13596    443.82947   -7106.1909 
15135000    231.31699   -9187.5753   -8305.6895   -9187.5753            0    5833.3722    24.938819     24.97517    23.128622    14405.691      6441.79    6398.6959    4659.6306    134.35903   -1140.1355   -933.94497   -7080.1433 
15136000    242.77048   -9173.9511   -8248.3993   -9173.9511            0    4925.8062    24.938873    24.977444    23.220388    14464.196    6027.0371    5865.5045    2884.8769    155.19656    869.34545   -860.66637   -7209.3229 
15137000    237.32458   -9179.8477   -8275.0582   -9179.8477            0    6362.6577    25.036451     25.02282    22.968325    14389.256    6447.1477    5165.9809    7474.8446    28.341546   -278.81209    380.61059   -6939.8383 
15138000    239.29661   -9153.9133   -8241.6055   -9153.9133            0    5843.4209     25.08578      25.0907    22.935636    14436.143    5560.6035    5562.7655    6406.8939   -935.38269    547.78215   -213.64343    -7011.353 
15139000      231.291   -9171.2888    -8289.502   -9171.2888            0    7484.8679    24.930377    25.063135    22.984825    14361.687    6962.1923    7733.7646    7758.6467   -166.35691   -140.16604    691.16242    -6721.793 
15140000    247.12196   -9192.3794   -8250.2378   -9192.3794            0    5728.6996    24.935703    24.994094     23.15997    14434.343    5948.2977    5532.1096    5705.6915    196.37651   -228.62777    854.01248   -7044.2887 
15141000     242.2862   -9203.2887   -8279.5832   -9203.2887            0    5455.1456    24.996651    25.004471    23.057987    14411.889    4442.9432    5922.2886     6000.205    433.34282    507.20686    35.163398   -7133.0065 
15142000    244.01168   -9224.2017   -8293.9179   -9224.2017            0    5065.9971    25.073172    24.992857    23.068956    14456.166    4774.6988    4906.4218    5516.8706   -665.58415    652.15788    777.24363   -7225.8621 
15143000    239.21917   -9161.6653   -8249.6527   -9161.6653            0    5985.0219      25.1293    24.966015    23.055853    14464.746    4617.7691     6427.337    6909.9598   -529.90636   -576.77662   -477.09263   -6987.0915 
15144000    248.89936   -9207.2421   -8258.3243   -9207.2421            0    6102.1759    25.005888    24.939918    23.099989    14406.189    5975.2222    6668.2632    5663.0423    126.01657   -82.704032    386.22118   -6976.2603 
15145000    260.04585   -9183.5998   -8192.1865   -9183.5998            0    6953.3115    24.982396    25.022083    23.003973     14380.05    6491.5914    7836.8011    6531.5421    -147.6675    -355.3716   -292.00401   -6733.9499 
15146000    245.94725   -9212.5233   -8274.8602   -9212.5233            0    5607.3727    25.052225     25.06104    23.009772    14446.336    5100.9709    5969.0517    5752.0956   -288.70366    610.44838   -368.51841   -7093.4709 
15147000    243.86011   -9204.7075   -8275.0015   -9204.7075            0    5615.7804    24.986537    25.024709    23.102273    14445.408    5510.5556    5073.2337     6263.552   -753.09209   -154.61639    57.740701   -7091.9169 
15148000    235.67829   -9196.6161    -8298.103   -9196.6161            0    5776.8596       24.932    25.017803    23.163898    14448.339     7357.707    4838.9057     5133.966   -167.79239    677.28124    1023.7717   -7080.8366 
15149000    245.70595   -9174.1403   -8237.3972   -9174.1403            0    6216.8328    24.880295    25.210795    23.029331    14445.194    7265.9876    4679.3374    6705.1734    195.65466     787.4799    659.01147   -6927.7073 
15150000    236.02682   -9169.4412   -8269.5993   -9169.4412            0    6025.5653    24.944677    25.065948     23.08815    14436.142    6670.3307    5453.4798    5952.8853    137.56863   -539.65902    719.99286   -7000.9989 
15151000    243.48997   -9155.4058    -8227.111   -9155.4058            0    7673.3393    24.878465    25.010037     23.08715    14365.086    7624.8675    6885.8987    8509.2518   -52.117692   -699.61907   -94.565206    -6619.546 
15152000    238.60918   -9185.6105   -8275.9235   -9185.6105            0    6568.0419    25.036472     24.97922    23.016295    14394.196    6913.0699    6580.4287     6210.627   -473.07703   -597.86352   -95.000251   -6897.1301 
15153000    243.71368   -9163.7791   -8234.6314   -9163.7791            0    5860.1274    25.116141    24.916142     23.07569    14440.705    5968.6024    5836.7366    5775.0431    731.84001    309.36354    718.80633   -7000.4717 
15154000    234.35397   -9182.9275   -8289.4633   -9182.9275            0    5451.7365     25.12054    24.846494    23.131912    14437.953    4835.7394    5513.7526    6005.7175     17.27283   -875.66145    426.93237   -7141.5308 
15155000    240.50258   -9174.2533   -8257.3478   -9174.2533            0    7151.3614     25.07234    24.944056     23.02754    14401.558    6499.3467    7367.3931    7587.3443    325.74469    42.101354    487.66682   -6755.3333 
15156000    229.69401   -9219.4388   -8343.7405   -9219.4388            0    7182.2742    25.114778    24.893893    22.971813    14362.083    4276.2338    9193.5291    8077.0596    303.82305   -558.38119    316.36166   -6839.3683 
15157000    243.69413   -9192.6859   -8263.6128   -9192.6859            0    6424.3325    24.984932    25.041633    23.041345    14416.129    6213.5292    5785.8538    7273.6145    167.92379   -1379.9523     569.4991   -6912.9325 
15158000    240.54148    -9173.038   -8255.9841    -9173.038            0    6184.3795    24.875988    25.091501    23.129143    14436.653    6140.8066    5749.8913    6662.4405   -1353.5965    149.69367    433.45704   -6953.9016 
15159000    243.64305   -9151.8671   -8222.9886   -9151.8671            0    6857.6309    24.955962    25.082322    23.018819    14408.709    6873.8411    6095.3645     7603.687    57.678206   -347.17037    364.56545   -6781.9518 
15160000    246.35563   -9188.7028   -8249.4828   -9188.7028            0     7068.298     24.92467    25.077665    22.971972    14358.689    7524.3853    6129.5978    7550.9108    588.35291    488.34279   -514.26145   -6769.3335 
15161000    241.27654   -9221.9564   -8302.1001   -9221.9564            0    8026.5354    24.873554    24.943066    23.080155    14319.452    8150.2799    8162.0907    7767.2357   -12.997103    678.55562     410.0563   -6625.8825 
15162000     245.0915    -9201.357   -8266.9564    -9201.357            0    6163.5376    25.006541    24.933238    23.113261     14410.98     7032.761    5377.7174    6080.1344   -71.802927   -1241.2906   -110.27408   -6971.5696 
15163000    245.60573    -9187.847   -8251.4859    -9187.847            0    5837.6707    25.010623    25.049408     23.01581    14419.435    5884.1115    5429.5284    6199.3723   -741.77672    914.72164    350.65011   -7023.8666 
15164000    238.87161   -9193.4401   -8282.7526   -9193.4401            0    6056.7504    24.955153    25.077122     23.03929    14418.067    6881.1065    6235.9815    5053.1632    134.98475   -617.23332    474.76422   -7009.1832 
15165000    239.62545   -9164.7616   -8251.2001   -9164.7616            0    7273.1152    24.872081    25.122645     23.01564    14381.379     7290.054    6096.2747     8433.017   -402.73524    -522.0431   -1445.4605   -6725.7539 
15166000    244.65929   -9153.1529   -8220.4002   -9153.1529            0    6018.8499     24.89058    25.057783    23.165402    14448.325    6837.1451    5519.9326    5699.4721    672.52534   -888.98214    251.07567   -6952.1442 
15167000    235.72184   -9216.6949   -8318.0157   -9216.6949            0    5226.6226    24.930794    25.090172    23.072369     14432.18     6086.148     4525.253    5068.4667   -509.82863   -882.11768     156.3172   -7217.9238 
15168000    248.98979    -9147.077   -8197.8144    -9147.077            0    6425.5943    24.996362    25.068631    22.981152    14400.554    6875.1144    6117.9235     6283.745   -303.90189    327.59132    277.21709   -6848.3283 
15169000    237.50395   -9162.9862   -8257.5129   -9162.9862            0    5674.3624    24.955919    25.153216    23.042979    14464.576    6879.2397     3848.388    6295.4596    -109.5123    252.35394   -605.93048   -7060.5004 
15170000    242.93616   -9198.6104    -8272.427   -9198.6104            0    5533.9904    24.931766    25.009907    23.172334    14448.903    6076.6182    5948.5764    4576.7767   -345.47361   -617.63706   -415.23571    -7106.291 
15171000    237.38844    -9181.467   -8276.4341    -9181.467            0    5319.9014    24.868084    25.057074    23.185329    14447.275    6461.2477    5249.0168    4249.4396    72.510191    -55.17882    615.18276   -7155.5378 
15172000     241.6523   -9180.6579   -8259.3691   -9180.6579            0    7032.8199    24.919688    24.961146    23.103715    14371.065    7902.1392    6390.9392    6805.3813     98.46102   -73.837495   -223.52005   -6785.3799 
15173000     236.4531   -9166.4938   -8265.0267   -9166.4938            0    8293.9161    25.058342    25.007127    22.886022    14341.231    7161.1788    8099.8571    9620.7123    96.445566   -739.66066   -824.62328   -6530.3364 
15174000    241.81723   -9201.1958   -8279.2782   -9201.1958            0    6661.3928    24.955518    25.038144     23.01557    14381.045    5750.0406    6684.7475    7549.3904   -5.1375356   -529.69031     178.0555   -6882.1656 
15175000    232.76069   -9154.5495   -8267.1596   -9154.5495            0    5946.5532    24.955746    24.974067    23.163064    14436.298    6226.4108    5794.8637     5818.385   -693.79134    -1323.655   -162.98928   -7015.1806 
15176000    242.24864   -9209.0782   -8285.5159   -9209.0782            0    6566.0632    24.963904    24.947379    23.066807    14365.638    6476.3538    7186.3115    6035.5242    -645.3774    518.09459    108.77473   -6909.8725 
15177000    239.07419   -9158.4534   -8246.9935   -9158.4534            0    5512.0447    25.062756    25.058561    23.055394    14479.631    5673.3501    5394.6998    5468.0843   -734.96834   -191.99656    1327.4097   -7083.0119 
15178000    248.41738   -9205.6239   -8258.5435   -9205.6239            0    5289.1293    25.037716     24.97442    23.169643    14488.034    4390.2613    6789.9733    4687.1534    -570.9887   -402.87303   -714.12914    -7140.987 
15179000    241.66533   -9182.2387   -8260.9002   -9182.2387            0    5864.8895    25.143218     24.93919    22.995284    14419.227    5892.7909    5630.8592    6071.0183    338.27533   -476.57616    659.53077   -7027.5748 
15180000    245.62724    -9218.818   -8282.3749    -9218.818            0    6167.8113    25.060172    24.928874    23.028062    14386.134    6575.5918    6360.3248    5567.5173   -870.00835   -1563.4489    293.92302   -6988.3248 
15181000    245.35996   -9188.4295   -8253.0054   -9188.4295            0    7870.0297    25.018578    24.908504    23.006941    14337.358    7469.3697    8099.4434    8041.2758     557.5191    75.156241   -541.93793   -6607.4163 
15182000    250.82923   -9173.1259   -8216.8504   -9173.1259            0    7568.7865     25.08203    24.921929    22.928333    14332.331    6157.6991    9063.0804    7485.5799     164.7133    257.96748    474.60187    -6634.805 
15183000     244.8974   -9193.2335   -8259.5729   -9193.2335            0    5991.3091    24.978565    24.955746    23.088402    14392.357     5138.316    7396.7105    5438.9007   -839.39974   -237.32492   -257.77591   -7002.0105 
15184000    248.76503   -9188.7993   -8240.3936   -9188.7993            0    7732.1378    25.009098     24.87085    23.032839    14326.369    6979.8687    8177.0536     8039.491    767.31843    725.36058    1375.3998   -6624.8763 
15185000    247.90637   -9138.3166   -8193.1845   -9138.3166            0    7177.6508      24.8683    25.038084    23.088671    14376.266    7106.2807    7630.9918      6795.68   -1040.4338   -1056.3959    249.11829    -6688.296 
15186000    251.68684   -9173.3427   -8213.7977   -9173.3427            0    5688.7534    24.844663    25.067978    23.195672    14446.392    6686.3598     5180.157    5199.7433   -584.33353   -537.77575     1126.418   -7015.2581 
15187000    236.72768   -9209.4171   -8306.9032   -9209.4171            0    5098.4226    24.991417     25.06519    23.082028     14458.92    5159.8817    4299.0323    5836.3538   -120.03614     -374.115    745.39068   -7231.8064 
15188000    249.05726   -9147.4157   -8197.8958   -9147.4157            0    7363.7874    24.999844    25.033934    22.989373    14387.771    8044.6259     6465.739    7580.9973   -75.469362   -737.27347   -850.60334   -6652.7458 
15189000    236.51271   -9201.0812   -8299.3869   -9201.0812            0    7142.1286    24.990841    25.054155    22.951883    14370.734    6631.3353     6258.672    8536.3786    218.41268    1098.2707    405.51832   -6802.5224 
15190000    245.97832   -9149.4464   -8211.6648   -9149.4464            0    6707.9108    25.009873    24.976675    23.083233    14419.252    6742.8584    6530.4184    6850.4555    693.21786    296.10909   -130.65449   -6801.0582 
15191000    240.11881    -9155.807   -8240.3646    -9155.807            0    6275.7108    24.910417    24.994002    23.177919    14430.828    7621.2123    5923.1331    5282.7869    178.39433    180.09713   -1.2302644   -6919.5859 
15192000    238.57397   -9140.6018    -8231.049   -9140.6018            0     6763.676    24.999414    24.982833    23.070517    14408.834    6475.1433    6280.7851    7535.0997    339.17802   -12.835552   -168.92865   -6809.7432 
15193000    237.74324   -9160.0563   -8253.6706   -9160.0563            0    6120.2521    25.130516    25.058971    22.925687    14437.334    4715.9052    5934.9418    7709.9093   -345.48871   -1148.1685   -606.27535   -6965.0289 
15194000    236.42952   -9166.2015   -8264.8243   -9166.2015            0    5782.3105    25.052568    25.009288    23.075983    14458.185    6006.8048    6355.6559    4984.4708    83.712894    403.29389    722.42832   -7045.5791 
15195000    239.36383   -9166.1327   -8253.5687   -9166.1327            0     5487.973    24.983652    24.969812    23.176832    14458.568    4672.6387    6019.2155    5772.0648   -219.93451    633.01898    1223.6141   -7096.3561 
15196000    245.97906   -9172.3521   -8234.5677   -9172.3521            0    5724.3039    25.097865     24.92886    23.093305    14448.584    5397.4847    6984.5877    4790.8394   -1253.6473   -513.84998    561.48322   -7028.3551 
15197000    248.80528   -9204.0492     -8255.49   -9204.0492            0    5763.9131    24.998827      25.0811    23.013668    14429.526    4193.3083    5487.4012    7611.0299    108.91463   -35.001304    198.80975   -7042.5331 
15198000    252.23519   -9196.3993   -8234.7637   -9196.3993            0    6553.9853    25.014225    25.171854    22.884941    14409.604     6455.295    6196.6147    7010.0463    253.73138   -541.93366    -6.359906   -6857.4483 
15199000    244.07768   -9146.2443   -8215.7088   -9146.2443            0    6516.6818     24.97068    25.029714    23.059821    14412.595    6374.8513    6742.4359    6432.7581    258.28229   -642.25134   -1161.5987   -6845.9485 
15200000    250.96566   -9213.8492   -8257.0537   -9213.8492            0    6816.1932    24.907754    24.972519    23.152565    14401.112    7303.2483    6555.1216    6590.2096     190.5932    256.43708   -121.50353   -6825.4797 
15201000    242.38509   -9140.9287   -8216.8462   -9140.9287            0    7482.4199    24.861673    25.117842    23.059979    14400.301    7440.9724    7654.0153    7352.2721   -63.997282    108.35954    785.96625   -6645.4362 
15202000    239.18892     -9166.96   -8255.0628     -9166.96            0    7043.2148    25.015732    25.039021    22.969622    14387.469     6723.338    6766.2445    7640.0619    331.51902     -97.7188    45.600302   -6777.2098 
15203000    240.34245   -9220.8591    -8304.564   -9220.8591            0     7959.287    24.901068    24.914652    23.096738     14329.25    7661.9306     8077.682    8138.2484   -263.31819    296.70894   -437.30521   -6641.2528 
15204000    247.72489   -9185.4474   -8241.0071   -9185.4474            0    6862.4125    24.911046    24.976481     23.13375    14393.594    6701.4442    7924.4991     5961.294   -616.45912    723.56905   -495.72315   -6800.4782 
15205000    236.48079    -9194.741   -8293.1684    -9194.741            0    5367.5013    24.989022    25.135398    22.999451    14446.163    5700.2349     5063.004    5339.2651   0.95903521    677.36101   -228.61959     -7162.33 
15206000    231.04094   -9213.8587   -8333.0253   -9213.8587            0    5627.3753    24.913694    25.161814    23.010277    14424.538    5653.6368    5503.6057    5724.8835    346.97903   -1199.4167    695.91117   -7149.2107 
15207000    241.69451   -9168.2937    -8246.844   -9168.2937            0    6406.4615    24.914344    25.047464    23.122674    14429.499    6744.8461    6248.3848    6226.1537    515.56627   -921.06303   -577.23659   -6898.6718 
15208000    244.34057   -9181.2723   -8249.7346   -9181.2723            0    6110.4138    24.962968    25.066183    23.052648    14424.649    5631.9266     6317.724     6381.591   -527.71553   -303.60232   -1280.6582   -6964.2948 
15209000    240.76147   -9138.5391   -8220.6465   -9138.5391            0    6442.1484    25.021452    25.084969    23.003631    14438.514     6667.792     6222.811    6435.8423    22.766503    271.22801    974.44219   -6864.1175 
15210000    241.18832    -9161.883   -8242.3631    -9161.883            0    6306.9201    25.002045    25.044799    23.014221    14410.842    6324.4252    6402.4031     6193.932   -140.72304    544.96085     391.7823   -6916.8545 
15211000      246.864   -9164.0431    -8222.885   -9164.0431            0    6800.9373    25.027107    24.934569    23.104891    14418.379    6532.2488     6855.153    7015.4101   -756.00268    1.5227126    540.19119   -6792.8024 
15212000    246.67437   -9209.7395   -8269.3043   -9209.7395            0     5690.637    25.007012    24.953375    23.122115    14428.416    6084.8227    6253.5772     4733.511    75.507663   -1190.7916   -629.73711   -7071.8597 
15213000    235.72825   -9174.5068   -8275.8033   -9174.5068            0    5805.3803    25.001267    25.078076    23.016017    14430.667    6342.1061    5340.1455    5733.8892    487.55826    331.71245   -320.66621   -7054.0234 
15214000    248.80338   -9181.1532   -8232.6013   -9181.1532            0    6332.3909    24.949123    25.125235    22.945252    14383.291     6995.145    5790.9827    6211.0451   -529.70868   -1169.8011    899.82096   -6904.2839 
15215000    237.19595   -9173.2871    -8268.988   -9173.2871            0    6979.7898    24.877534    25.017926    23.113875    14385.713    8013.0923    6753.6265    6172.6505   -678.92474   -83.724422     73.95269    -6804.622 
15216000    237.74041   -9191.1405   -8284.7656   -9191.1405            0    6054.4548    24.864189    25.053362    23.163354    14429.183    7229.4726    5156.7664    5777.1254   -658.81382   -691.10971   -216.59584   -7010.6974 
15217000    244.62738   -9160.2148   -8227.5837   -9160.2148            0    6619.8013    24.892562    25.104718    23.052657    14406.083    7513.3013    7065.6804    5280.4223   -153.74057   -702.64052    1083.2368   -6836.7771 
15218000    242.14397   -9159.8762    -8236.713   -9159.8762            0    7459.4146    24.818966    25.132119    23.050453    14377.794    8329.4737    6339.6924    7709.0776     -423.837   -327.79694   -161.58198   -6672.5828 
15219000    242.10464   -9209.7909   -8286.7776   -9209.7909            0    6720.6218    24.949874    25.079353    22.962286    14368.115    6441.5157    5483.8527    8236.4969   -130.03603   -1010.6355    257.59082   -6878.5101 
15220000     248.0348   -9202.2581   -8256.6363   -9202.2581            0    5200.1196    25.038304    24.923358    23.154796    14449.487    4797.7335    5940.0584     4862.567     179.1879   -1146.9046     377.2359   -7160.8102 
15221000    245.03929   -9185.0132   -8250.8117   -9185.0132            0    7288.9658    25.013396    24.878393    23.079918    14362.474    6297.0693    8598.7503    6971.0778    -55.73701   -60.761787   -701.06882   -6724.0507 
15222000    236.99063   -9175.6249   -8272.1086   -9175.6249            0    7345.3077    24.979946    24.979674    23.017262    14362.562    6575.1652     7612.727    7848.0308   -642.88273   -1030.4173    89.215977   -6733.5366 
15223000    233.94699   -9158.7036    -8266.791   -9158.7036            0    5907.4035     24.96208    25.043097      23.0769    14426.012    6349.9178    6476.5535    4895.7392   -865.21058    5.3092286    327.03219   -7023.9407 
15224000    251.37616   -9156.7959   -8198.4353   -9156.7959            0    7142.0078    24.984635    24.994038    23.091052    14419.598    7500.6534    6057.4353    7867.9347   -916.96242    -479.6413   -150.50995   -6696.5065 
15225000    242.66227   -9201.4613    -8276.322   -9201.4613            0    6044.0382    24.981401    25.072842    22.994542     14402.74    6631.3304    5470.8674    6029.9167    -35.88434    513.39803   -328.02464   -7006.7767 
15226000    238.90897   -9166.0547   -8255.2247   -9166.0547            0    6456.5565    25.032304    25.122886    22.874113    14385.157    6168.4052    6133.2812    7067.9832    272.21845   -414.88328   -132.66334   -6900.6859 
15227000    245.78902   -9166.5685   -8229.5087   -9166.5685            0    4873.6759    24.939931    25.100503    23.134928    14482.576    5648.9617    3912.8709     5059.195    780.85355    952.45551    -193.6474   -7200.1224 
15228000    238.04083   -9130.4368   -8222.9166   -9130.4368            0    5487.3705    24.878801    25.024168    23.271163    14487.958    6534.3573    5854.2791    4073.4751   -417.46366    169.17175     -38.1449   -7063.4791 
15229000    242.95411    -9198.854   -8272.6021    -9198.854            0    5849.2881    24.967297     25.05696    23.055028    14423.331    5463.7734     5340.359    6743.7321    72.052138   -1637.5072   -804.65146   -7042.2074 
15230000    248.31246   -9178.3584    -8231.678   -9178.3584            0    7161.6944    24.985374    25.036416    22.972169    14370.108    6963.6385    7030.4128     7491.032    -61.49218    94.215575    697.37396   -6730.7782 
15231000    250.70189   -9162.5418   -8206.7519   -9162.5418            0    7443.4739    24.974216    25.062741    22.988437    14388.976    7903.0039    5499.5522    8927.8656    460.36858    115.71221   -697.13034   -6644.7504 
15232000    238.09639   -9147.3524   -8239.6204   -9147.3524            0    6249.4662    24.957333    24.989037    23.103113    14408.481    6686.6917    6580.2789     5481.428    1069.9251   -654.18189    80.882739   -6926.4019 
15233000    243.31301   -9155.4832    -8227.863   -9155.4832            0    5920.8625    24.969108    25.062295    23.080577    14443.437    6534.0662    4499.9067    6728.6145   -166.64001    -587.8936   -797.56309   -6980.6765 
15234000    241.99888   -9166.4578   -8243.8477   -9166.4578            0    4052.5945    25.034869    25.183913    23.106643    14568.183    4746.6016    3360.2532    4050.9288    130.00445    729.65168    247.53859   -7382.8253 
15235000    230.07331   -9160.0499   -8282.9055   -9160.0499            0    6302.3213    24.945816     25.08689    23.077435    14442.158    6449.4653    6447.3503    6010.1482    151.20556   -274.82212    109.12832   -6955.4851 
15236000    244.16857   -9171.9402   -8241.0582   -9171.9402            0    5940.8034    24.814193    25.091948    23.181531    14433.666     7161.328    4959.4905    5701.5918    -492.8225   -493.86213     282.3059   -6990.5179 
15237000    236.23062   -9174.0147   -8273.3958   -9174.0147            0    7234.3818    24.883557    25.099996    23.047472    14394.925    8219.8491    5974.2668    7509.0295    487.35839   -435.71226    737.04219   -6754.6443 
15238000    249.69365   -9155.2051    -8203.259   -9155.2051            0    5754.9867     24.94441    25.140431    23.062744    14462.951    6227.3851     5156.067     5881.508    340.40969   -2.8044679   -30.784699   -6989.3751 
15239000     247.4148   -9197.9768   -8254.7188   -9197.9768            0    5798.7934    25.051839    25.014408     23.02287     14427.44    6043.8847    5674.2212    5678.2742   -230.81026    124.80149    1348.8336    -7034.598 
15240000     250.1003   -9161.2349   -8207.7385   -9161.2349            0     7300.416    24.962116    24.862432      23.1754    14383.092    8054.1834    8169.9945    5677.0702   -132.55205   -547.39997    835.56184    -6676.384 
15241000    243.84829   -9169.1763   -8239.5154   -9169.1763            0    6562.1125    24.984191    24.981428    23.080575    14405.527    5736.5957    7014.3229    6935.4188   -810.89294   -551.08772   -595.28218   -6860.8822 
15242000    246.14127   -9160.2698    -8221.867   -9160.2698            0    6275.2982    25.096044    25.183211    22.852885        14443    6703.4084    4605.1276    7517.3587    388.31352   -826.90755    89.452777   -6900.0612 
15243000    245.25556   -9188.4238   -8253.3977   -9188.4238            0    6380.8562    24.998403    24.960572    23.084402    14404.077    5259.9757    7663.8598     6218.733    427.97226   -1018.5123    410.54129   -6912.9797 
15244000    238.97197   -9182.8955   -8271.8253   -9182.8955            0     5874.055    24.952816    24.908941    23.201323    14420.741    6522.6765    6153.8961    4945.5923    389.59592   -779.68688    440.68331   -7036.4427 
15245000     241.7649   -9163.6636   -8241.9455   -9163.6636            0    6247.4171    25.052971     25.01544     23.02283    14428.663    5707.1402     5892.706    7142.4051    362.28247   -643.64104   -194.69371   -6927.3187 
15246000    239.14279   -9175.8079   -8264.0865   -9175.8079            0    6244.7278     25.05753    25.015568    22.991997    14412.035    5103.2582    7049.4311     6581.494    57.261262     353.6853    -348.0802     -6951.54 
15247000    248.35755   -9146.1084   -8199.2562   -9146.1084            0    6917.7962    24.949014    25.032289    23.097881    14425.341     6651.499    6599.1702    7502.7193   -300.51406   -587.96635   -243.75566   -6743.8985 
15248000     234.3651   -9183.0191   -8289.5124   -9183.0191            0    6205.6048    24.898022    25.015479    23.123212    14401.967    7127.7111    5284.2826    6204.8207   -517.50073   -210.76273   -54.556273   -6986.1001 
15249000    230.35928   -9185.1127    -8306.878   -9185.1127            0    5192.7465    24.941451    25.206078    23.000374    14459.786    6117.4311    3999.9542    5460.8542    -282.8852   -683.30931   -554.25407   -7211.8257 
15250000    250.10651   -9169.8674   -8216.3473   -9169.8674            0    6291.7763    25.013184    25.142847     22.95823    14438.492    6995.2203    5759.7667    6120.3418   -212.75239   -1117.9953    100.34355   -6891.4842 
Loop time of 521.668 on 64 procs for 250000 steps with 1920 atoms

Performance: 82.811 ns/day, 0.290 hours/ns, 479.232 timesteps/s
99.2% CPU use with 64 MPI tasks x 1 OpenMP threads

MPI task timing breakdown:
Section |  min time  |  avg time  |  max time  |%varavg| %total
---------------------------------------------------------------
Pair    | 61.522     | 64.403     | 66.323     |  13.0 | 12.35
Bond    | 0.27117    | 0.28057    | 0.2915     |   0.7 |  0.05
Kspace  | 223.77     | 233.42     | 242.76     |  34.0 | 44.74
Neigh   | 4.4426     | 5.205      | 6.1358     |  18.6 |  1.00
Comm    | 87.207     | 97.764     | 109.11     |  55.8 | 18.74
Output  | 1.0146     | 1.015      | 1.0204     |   0.1 |  0.19
Modify  | 104.32     | 111.18     | 114.98     |  25.8 | 21.31
Other   |            | 8.404      |            |       |  1.61

Nlocal:        30.0000 ave          34 max          27 min
Histogram: 2 10 17 0 9 14 0 8 3 1
Nghost:        2758.00 ave        2788 max        2722 min
Histogram: 1 5 6 4 5 10 16 12 4 1
Neighs:        10513.2 ave       11727 max        9439 min
Histogram: 4 5 8 12 5 9 10 5 4 2

Total # of neighbors = 672848
Ave neighs/atom = 350.44167
Ave special neighs/atom = 2.0000000
Neighbor list builds = 9167
Dangerous builds = 0

unfix		3
unfix		2
unfix		1

write_data	data.final.${pid}
write_data	data.final.0
System init for write_data ...
PPPM initialization ...
  extracting TIP4P info from pair style
  using 12-bit tables for long-range coulomb (../kspace.cpp:340)
  G vector (1/distance) = 0.37410607
  grid = 30 30 30
  stencil order = 5
  estimated absolute RMS force accuracy = 0.0033162839
  estimated relative force accuracy = 9.9868906e-06
  using double precision FFTW3
  3d grid and FFT values/proc = 3600 512
Last active /omp style is kspace_style pppm/tip4p/omp
WARNING: Not all mixed pair coeffs generated from mixing. Use write_data with 'pair ij' option to store all pair coeffs. (../write_data.cpp:312)

write_restart   restart.lmp.${pid}
write_restart   restart.lmp.0
System init for write_restart ...
PPPM initialization ...
  extracting TIP4P info from pair style
  using 12-bit tables for long-range coulomb (../kspace.cpp:340)
  G vector (1/distance) = 0.37410607
  grid = 30 30 30
  stencil order = 5
  estimated absolute RMS force accuracy = 0.0033162839
  estimated relative force accuracy = 9.9868906e-06
  using double precision FFTW3
  3d grid and FFT values/proc = 3600 512
Last active /omp style is kspace_style pppm/tip4p/omp
Total wall time: 0:08:43
