#include		in.partitions
include		in.temp
variable        temperature equal 95.77
variable	tempDamp equal 100.0
include		in.pressure
variable        pressure equal 8261.0
variable        pressureDamp equal 1000.0 # This is 1 ps
include		in.seed
variable        seed equal 745823

units		real
atom_style	full
read_restart    restart.lmp.${pid}
read_restart    restart.lmp.1
Reading restart file ...
  restart file = 30 Jul 2021, LAMMPS = 30 Jul 2021
  restoring atom style full from restart
  triclinic box = (-3.0495667 -0.073512892 0.061713220) to (14.659566 22.653512 19.168285) with tilt (-0.27642304 -6.4743366 0.16400908)
  2 by 4 by 2 MPI processor grid
  restoring pair style lj/cut/tip4p/long/omp from restart
  restoring bond style harmonic/omp from restart
  restoring angle style harmonic/omp from restart
  1008 atoms
  672 bonds
  336 angles
Finding 1-2 1-3 1-4 neighbors ...
  special bond factors lj:    0        0        0       
  special bond factors coul:  0        0        0       
     2 = max # of 1-2 neighbors
     1 = max # of 1-3 neighbors
     1 = max # of 1-4 neighbors
     2 = max # of special neighbors
  special bonds CPU = 0.001 seconds
  read_restart CPU = 0.006 seconds

include 	in.setup
variable	out_freq equal 1000
variable	out_freq2 equal 10000
variable	out_freq3 equal 1000

timestep	2.0

neigh_modify    delay 7 every 1

include		in.tip4p
# This is TIP4P/Ice

# create groups ###
group ox type 2
336 atoms in group ox
group hy type 1
672 atoms in group hy

# set charges - beside manually ###
set group ox charge -1.1794
Setting atom values ...
  336 settings made for charge
set group hy charge 0.5897
Setting atom values ...
  672 settings made for charge

# ### TIP3P Potential Parameters ###
pair_style lj/cut/tip4p/long/omp 2 1 1 1 0.1577 8.5
pair_coeff 1 1*2 0.000 0.000
pair_coeff 2 2 0.21084 3.1668
bond_style  harmonic
bond_coeff  1 450 0.9572
angle_style harmonic
angle_coeff 1 55 104.52
kspace_style pppm/tip4p/omp 1.0e-5
pair_modify tail yes

thermo          ${out_freq}
thermo          1000
thermo_style    custom step temp pe etotal epair emol press lx ly lz vol pxx pyy pzz pxy pxz pyz enthalpy

restart 	${out_freq3} restart.lmp.${pid} restart2.lmp.${pid}
restart 	1000 restart.lmp.${pid} restart2.lmp.${pid}
restart 	1000 restart.lmp.1 restart2.lmp.${pid}
restart 	1000 restart.lmp.1 restart2.lmp.1


include         in.dump
dump            myDump all atom ${out_freq2} dump.water.${pid}
dump            myDump all atom 10000 dump.water.${pid}
dump            myDump all atom 10000 dump.water.1
dump            myDump2 all dcd ${out_freq2} dump.dcd
dump            myDump2 all dcd 10000 dump.dcd
dump_modify     myDump append yes
dump_modify     myDump2 append yes


variable natoms 	equal  "count(all)"                        # NUMBER ATOMS
variable H      	equal  "enthalpy/v_natoms"                 # ENTHALPY-per-atom
variable Vol      	equal  "vol/v_natoms"                 # volume-per-atom
fix AVG all 		ave/time ${out_freq} 1 ${out_freq} v_Vol v_H file vol_enthalpy.dat
fix AVG all 		ave/time 1000 1 ${out_freq} v_Vol v_H file vol_enthalpy.dat
fix AVG all 		ave/time 1000 1 1000 v_Vol v_H file vol_enthalpy.dat



fix 		1 all shake 1e-6 200 0 b 1 a 1
       0 = # of size 2 clusters
       0 = # of size 3 clusters
       0 = # of size 4 clusters
     336 = # of frozen angles
  find clusters CPU = 0.000 seconds
fix             2 all nph tri ${pressure} ${pressure} ${pressureDamp}
fix             2 all nph tri 8261 ${pressure} ${pressureDamp}
fix             2 all nph tri 8261 8261 ${pressureDamp}
fix             2 all nph tri 8261 8261 1000
fix             3 all temp/csvr ${temperature} ${temperature} ${tempDamp} ${seed}
fix             3 all temp/csvr 95.77 ${temperature} ${tempDamp} ${seed}
fix             3 all temp/csvr 95.77 95.77 ${tempDamp} ${seed}
fix             3 all temp/csvr 95.77 95.77 100 ${seed}
fix             3 all temp/csvr 95.77 95.77 100 745823


run             250000
PPPM initialization ...
  extracting TIP4P info from pair style
  using 12-bit tables for long-range coulomb (../kspace.cpp:340)
  G vector (1/distance) = 0.38032714
  grid = 24 27 32
  stencil order = 5
  estimated absolute RMS force accuracy = 0.0023466942
  estimated relative force accuracy = 7.0669998e-06
  using double precision FFTW3
  3d grid and FFT values/proc = 7875 1344
Last active /omp style is kspace_style pppm/tip4p/omp
Neighbor list info ...
  update every 1 steps, delay 7 steps, check yes
  max neighbors/atom: 2000, page size: 100000
  master list distance cutoff = 10.8154
  ghost atom cutoff = 10.8154
  binsize = 5.4077, bins = 5 5 4
  1 neighbor lists, perpetual/occasional/extra = 1 0 0
  (1) pair lj/cut/tip4p/long/omp, perpetual
      attributes: half, newton on, omp
      pair build: half/bin/newton/tri/omp
      stencil: half/bin/3d/tri
      bin: standard
Per MPI rank memory allocation (min/avg/max) = 12.46 | 12.47 | 12.48 Mbytes
Step Temp PotEng TotEng E_pair E_mol Press Lx Ly Lz Volume Pxx Pyy Pzz Pxy Pxz Pyz Enthalpy 
33750000    100.97946   -5185.7048   -4983.7334   -5185.7048            0     9022.032    17.709132    22.727025    19.106572    7689.9344    9469.3992    8920.1897     8676.507   -437.61393   -132.53987    473.64141   -3971.9143 
33751000     99.07306   -5198.6811   -5000.5227   -5198.6811            0    8238.8382    17.845699    22.617121    19.139606    7725.0963    8243.0887    8379.9752    8093.4508   -1439.2956    314.71176   -691.20678   -4072.3138 
33752000    95.551781   -5187.1334    -4996.018   -5187.1334            0     9051.222    17.852103    22.551338    19.134105    7703.1765    8355.8749    9328.4202    9469.3709   -231.04638   -332.32693    495.23427   -3979.1772 
33753000    93.566201   -5189.7389   -5002.5949   -5189.7389            0    8654.9622    17.724754    22.858288    19.037355    7713.1276    9265.1257    7541.5581    9158.2029    608.06098   -416.61096    318.81981   -4029.0151 
33754000    92.448498   -5199.3286   -5014.4202   -5199.3286            0     8209.421    17.856802    22.685404    19.058546    7720.4028    7794.0083    8264.6286    8569.6261   -910.88964    519.88308    51.883961   -4090.0874 
33755000    94.712633   -5186.3102   -4996.8732   -5186.3102            0    9417.4999    17.878299    22.427565    19.180067    7690.5686    8973.1122    9617.3965     9661.991    161.70842    -162.6142   -179.29382   -3940.6153 
33756000    96.758591   -5187.1039   -4993.5748   -5187.1039            0    7416.0393    17.714744    22.863382    19.080186    7727.8369    7464.8828    7075.6501    7707.5849    428.77708    -586.9596    669.19322    -4157.768 
33757000    96.038579   -5191.8812   -4999.7922   -5191.8812            0    8389.7057    17.958058     22.52937    19.071863    7716.1656    7265.7222    8742.2377    9161.1571   -315.05813    47.123562   -731.28416   -4055.6788 
33758000    101.08151   -5196.7898   -4994.6143   -5196.7898            0    8052.2326    17.838839    22.743954    18.996679    7707.4417    7766.4127    7424.4464    8965.8388   -356.47662   -419.42537    -134.1047    -4089.502 
33759000    96.511396   -5178.1887    -4985.154   -5178.1887            0    8779.5236    17.702907    22.716749    19.170665    7709.5306     9529.898    8186.7911    8621.8817      362.045   -584.69669    714.73554    -3998.023 
33760000    94.943598   -5186.5988   -4996.6999   -5186.5988            0    8733.8873    17.927706     22.55087    19.129518     7733.784    7804.6549    8498.0858    9898.9212   -9.4873952    709.47481   -1062.5159   -4011.6108 
33761000    93.034915   -5184.5429   -4998.4616   -5184.5429            0    8918.4247     17.66162    22.858068    19.092699    7707.9234    9748.5912    8558.9894    8447.6936    949.26319   -114.83377    804.03066   -3995.9222 
33762000    103.84265   -5188.8565   -4981.1583   -5188.8565            0    8484.4198     17.74604    22.737492    19.129036    7718.5745     8618.233    9062.9808    7772.0457    121.42928    1177.1815   -7.8611679   -4026.0885 
33763000    100.55644   -5184.4949   -4983.3696   -5184.4949            0    8398.5554    17.828374    22.525359    19.198824     7710.066    9101.3295    8524.2503    7570.0863    200.89887     -333.757    538.34903   -4039.0074 
33764000    98.269608   -5193.7718   -4997.2205   -5193.7718            0    8172.7062     17.72432    22.847628    19.030128    7706.4152    8735.9217    7830.0337    7952.1631    383.60843    285.99655   -685.42934   -4078.6887 
33765000    98.300097   -5198.0958   -5001.4834   -5198.0958            0    7019.7461    17.799572    22.711268    19.164846     7747.405    6991.6295    6767.4918    7300.1169    507.89493   -375.31818   -240.72069   -4208.3367 
33766000    98.309411   -5192.4543   -4995.8233   -5192.4543            0    8679.2722    17.827544    22.595083    19.105464    7695.9645    7034.2554    9417.4023     9586.159   -677.34225    489.21593   -981.62791   -4021.6814 
33767000    97.290157   -5189.1316   -4994.5392   -5189.1316            0    8444.1825    17.729741    22.820458    19.009727    7691.3513    8717.0632    8523.3316    8092.1526    449.85615    460.94971    1117.5211   -4047.3513 
33768000    91.889626   -5186.6755   -5002.8849   -5186.6755            0    8909.3401    17.878579    22.472733    19.140733    7690.3741    9591.3317    8808.3319    8328.3567    -14.65704   -945.64387    475.84947    -4003.647 
33769000    93.138427    -5183.567   -4997.2786    -5183.567            0    8204.4655    17.711929    22.756461    19.107328    7701.4152    7994.5042    8711.0643    7907.8282    517.41487    679.57859   -1684.3908   -4075.7757 
33770000    99.318946   -5196.8633   -4998.2132   -5196.8633            0    8072.0443    17.847064    22.831393    18.898794    7700.7546    7091.5401    8663.2256    8461.3673    210.49542   -452.42027    671.98572   -4091.6612 
33771000    92.671154    -5193.303   -5007.9493    -5193.303            0    8448.7408    17.976393    22.462591    19.116156     7719.034     7354.751    9202.5706    8788.9008   -369.43881    871.93218    -696.3501   -4056.8391 
33772000    96.511468   -5189.4011   -4996.3662   -5189.4011            0    8450.6836    17.750159    22.811978    19.073696    7723.2493    9006.5813    7561.0786     8784.391   -589.18381    77.263552   -57.650431   -4044.5178 
33773000    94.623781   -5193.1245   -5003.8653   -5193.1245            0    8943.7396    17.740141    22.778625    19.018944    7685.4797    8132.7564    8703.4112    9995.0511   -1085.9589    222.39677    148.51077   -4001.4077 
33774000    100.62144   -5182.2528   -4980.9975   -5182.2528            0    8192.1731    17.899392    22.533496    19.173055    7733.1808    7263.1743    8476.2387    8837.1062    749.34609   -181.86574    287.68824   -4057.0801 
33775000    98.510881   -5185.4621   -4988.4282   -5185.4621            0     7305.106    17.757797    22.929232    19.007604    7739.3764    8792.2689     5787.973     7335.076    706.94486   -98.516735   -180.79314   -4163.8946 
33776000    99.230725   -5182.4193   -4983.9455   -5182.4193            0    9999.6503    17.815789    22.379476    19.257262    7678.0247    10119.195    10694.576    9185.1796   -127.27226    319.72516    -10.16662   -3864.2236 
33777000    96.540335   -5176.9759   -4983.8833   -5176.9759            0    8917.8189    17.781625    22.720072    19.076439    7706.8772    9393.2778    8022.0605    9338.1183    34.184721   -94.084932   -263.18671   -3981.5482 
33778000    98.787289   -5197.8173   -5000.2305   -5197.8173            0    8487.9161    17.732411    22.811207    19.017729    7692.6279    7310.2232    8664.8051    9488.7198   -444.20668    636.93095     128.1253   -4047.9789 
33779000    98.210786   -5196.6303   -5000.1966   -5196.6303            0    8461.7392    17.829779     22.62942    19.162693    7731.7169    8574.9952    8770.9215    8039.3008     359.8558    332.23195    99.737467    -4046.058 
33780000    102.90222   -5195.2246   -4989.4075   -5195.2246            0    8240.5591    17.824247    22.621543    19.123775    7710.9351     7945.577    9120.7078    7655.3925     440.3903    479.16786    147.43442   -4062.7065 
33781000    98.979688    -5185.053   -4987.0814    -5185.053            0    8049.6738    17.735132    22.795747    19.076144    7712.2102    9019.3275    8563.7954    6565.8985    20.565193     732.5822   -366.49938   -4081.6969 
33782000    95.336569   -5183.1526   -4992.4677   -5183.1526            0    9155.5802     17.85225    22.645816    19.029585    7693.2574    9311.4034    8302.7089    9852.6282    490.57386   -266.60733    482.17577   -3965.2274 
33783000    93.998912   -5183.1447   -4995.1353   -5183.1447            0    9438.8992    17.717569     22.81261    19.043312     7697.002    10023.919    9114.6169    9178.1619   -1385.2077    375.24492   -342.16142   -3935.5917 
33784000    96.118081   -5203.4788   -5011.2308   -5203.4788            0    7591.6318    17.870415    22.517609    19.254464    7747.9775    7793.2337    8307.0256     6674.636   -52.760328    226.53652   -353.48958   -4153.4045 
33785000    93.153597   -5198.2758   -5011.9571   -5198.2758            0    8026.5658    17.776237    22.769168    19.107122    7733.6097     8145.398    7831.4192    8102.8803    79.419115    494.56091    830.19628   -4106.6667 
33786000    94.444408   -5199.5566   -5010.6561   -5199.5566            0    7649.3106    17.716224    22.822788    19.126266    7733.3924    7438.4949    6722.7141    8786.7229    -102.6805   -7.7494063    761.07124   -4147.9393 
33787000    98.686791   -5193.8222   -4996.4364   -5193.8222            0    8826.5401    17.900034    22.425131    19.215013    7713.1102    9588.8711    9162.9782     7727.771   -461.97952    78.826127    1202.5775   -4003.5583 
33788000    99.852666   -5196.3502   -4996.6326   -5196.3502            0    9205.0273    17.774009    22.650801    19.111581    7694.2374    8636.0058    9786.9981    9192.0781   -970.40315    1202.0003    682.39672   -3963.7129 
33789000     93.49281   -5185.4603   -4998.4631   -5185.4603            0    8176.4291    17.733029    22.752666     19.10481     7708.288    8878.5244    7971.1109     7679.652   -62.806171    214.77812   -1079.2312   -4079.2896 
33790000    95.741035   -5184.8759    -4993.382   -5184.8759            0     8769.103    17.951607    22.452424    19.126575    7709.1013    7884.0013    9302.7374    9120.5704    158.41463   -314.68445   -322.77701   -4007.4776 
33791000    99.281482   -5188.0609   -4989.4857   -5188.0609            0    9273.2686    17.749363    22.619446    19.119948    7676.2914    9575.8603    10135.807    8108.1387   -30.630523    120.44137     774.1645   -3951.3355 
33792000     94.90428   -5190.4049   -5000.5847   -5190.4049            0    7371.8542    17.843589    22.815384    18.998918    7734.6178    7350.9777    7329.2905    7435.2944    495.87709    224.02303   -1301.8267   -4169.0287 
33793000    98.973142   -5191.1288   -4993.1703   -5191.1288            0    8381.8083    17.818941    22.561356    19.196393    7717.3237    9437.3906    8278.1911    7429.8432    -1044.459   -642.93942    13.758162   -4049.8041 
33794000    92.979986   -5191.3758   -5005.4043   -5191.3758            0    9419.2602    17.782753    22.596239    19.136281    7689.4039    9739.3099     9302.984    9215.4867    969.17073   -371.50427   -140.17218    -3949.109 
33795000    89.664002    -5188.964   -5009.6249    -5188.964            0    8444.1982    17.775599    22.886366    18.940467    7705.3393    8299.9258    7931.3646     9101.304   -22.448148   -364.22113   -923.59642   -4060.7126 
33796000     98.12524   -5206.0484   -5009.7858   -5206.0484            0    6875.6934     17.76319    22.675833    19.254482    7755.6115    5912.9242    7040.9538    7673.2021   -543.61734   -158.89927    825.48927   -4232.0924 
33797000    95.226114   -5188.3251   -4997.8611   -5188.3251            0    7934.5442    17.829979    22.729192    19.058977    7723.8606    7264.1854    7652.4427    8887.0045    -1079.104    87.153739    28.421847   -4104.0777 
33798000    93.389217   -5194.7745   -5007.9845   -5194.7745            0    7505.1032    17.844503    22.572936    19.224497    7743.6814    7380.0465    7624.8006    7510.4623    246.05157    241.01938    631.97951   -4160.4058 
33799000    96.326682   -5183.9765   -4991.3112   -5183.9765            0    8020.5701    17.727134    22.894789    18.973479    7700.5571    7730.5552     7949.163    8381.9921    590.17699   -107.50504    473.95592   -4090.5633 
33800000    94.528452   -5193.2147   -5004.1461   -5193.2147            0    8519.2293    17.939062    22.495595    19.107322    7710.7574      8788.39    8877.4312    7891.8666    261.33722   -162.82466    654.53566   -4046.1291 
33801000    100.87243   -5175.2595   -4973.5021   -5175.2595            0    8192.9577     17.86484    22.573824    19.142492    7719.7413    8545.7033    8675.3149    7357.8549   -427.00946    124.81521   -849.00087    -4051.102 
33802000    93.708982   -5188.8023   -5001.3728   -5188.8023            0     9010.549    17.805234     22.67069    19.045221    7687.7357    8828.9634    9817.0331    8385.6504   -868.24937    529.30576   -124.03565   -3991.1304 
33803000     91.95578   -5196.5322   -5012.6093   -5196.5322            0    8416.7853    17.793919    22.702311    19.096826    7714.4124    8722.6875    7479.2444    9048.4241    242.81441   -434.77091    1309.5439   -4065.6637 
33804000    97.398589   -5182.2388   -4987.4296   -5182.2388            0    8251.9613    17.808648    22.719001    19.109932     7731.777    7015.3934    8796.2935    8944.1971    246.34916    537.75772    -104.1685   -4056.9381 
33805000    96.676689   -5188.2403    -4994.875   -5188.2403            0    7880.0573    17.849894    22.706229    19.095823    7739.6094    7830.5331    7792.8395    8016.7995   -423.13267   -367.81348   -1022.4874   -4105.4193 
33806000    98.924549   -5182.1828   -4984.3215   -5182.1828            0    7525.5984    17.945667    22.540473    19.117731    7733.1951    7376.7823    7365.3555    7834.6574   -508.47912    -203.8434    117.18162   -4135.5791 
33807000     90.81258   -5194.7624    -5013.126   -5194.7624            0    6955.5862    17.744962    22.865852    19.066816    7736.4305    7944.5142    6284.4102    6637.8343    483.33367   -938.06592    352.33955   -4228.3418 
33808000    97.481091   -5194.6024   -4999.6281   -5194.6024            0     8625.841    17.898558    22.591571    19.084044    7716.7579    7767.1638    8541.0303    9569.3288    98.610868   -390.19659    428.68897   -4028.8674 
33809000    97.179058    -5193.124   -4998.7539    -5193.124            0    8624.6267     17.87188    22.526535    19.128666    7701.0392    8243.7141    8944.9353    8685.2306    523.02579     720.5579    1743.3142   -4030.1069 
33810000     95.47511   -5187.7831   -4996.8211   -5187.7831            0     8487.969    17.767357    22.858742    18.954588    7698.2054    8421.4947    7674.8707    9367.5415    987.73156   -1045.0532   -81.422282   -4043.8732 
33811000    95.313611   -5182.3096   -4991.6706   -5182.3096            0    7210.2449    17.754527    22.816484    19.105609    7739.6039    7990.7223    6431.2526    7208.7598    459.74151    96.354149   -548.49697   -4177.8201 
33812000    103.05965   -5187.4335   -4981.3015   -5187.4335            0    7889.6797    17.893194    22.505072    19.206654    7734.2818    7792.8358    8666.0941    7210.1092   -1259.0922   -354.57792   -351.30276   -4091.3727 
33813000    100.66813   -5187.1387     -4985.79   -5187.1387            0    7928.4603    17.751935    22.780925    19.095596    7722.3644    7302.9506     7417.799    9064.6312    462.55795   -224.08309    438.51981   -4092.8649 
33814000    93.631516   -5186.8586    -4999.584   -5186.8586            0    8782.9898    17.872028    22.716198    18.988539    7709.0528    9457.2858    8065.0861    8826.5975   -877.03817     371.4722   -960.89299   -4012.1246 
33815000    95.042545   -5195.6948   -5005.5979   -5195.6948            0     8274.214    17.777858    22.591057    19.198182    7710.3852    8575.4608    9053.8827    7193.2984    931.41131   -220.18075      1637.38   -4075.1786 
33816000    98.159988   -5182.0767   -4985.7446   -5182.0767            0    8761.1112    17.803107    22.760232    19.041095    7715.5055    8991.0821    9033.5423    8258.7093    286.76216    648.00323     109.8484   -3999.9204 
33817000    95.134603   -5192.0144   -5001.7334   -5192.0144            0    8309.0742    17.736762    22.693724    19.144442    7705.8904    8845.4513     8553.929    7527.8425   -979.69136   -30.242925   -512.85672   -4067.9388 
33818000    95.537089    -5189.792    -4998.706    -5189.792            0    7493.3876    17.909581    22.674254    19.073983    7745.6846    6906.4548    7685.9706    7887.7375    1062.5058   -733.17694    2305.9058   -4152.2315 
33819000    93.120564   -5197.8692   -5011.6165   -5197.8692            0    8358.6965    17.772962    22.687502    19.124108    7711.3013    8887.9193    8361.9495    7826.2208    340.14092    106.04147   -261.44949   -4071.5856 
33820000    94.608253    -5184.946   -4995.7178    -5184.946            0    8214.7014    17.827536    22.749668     19.02195    7714.7424    9364.2338    7745.5869    7534.2834     249.5285    165.74891    1371.0234   -4071.4686 
33821000    98.828179   -5190.8833   -4993.2147   -5190.8833            0    8643.0752    17.840354    22.642946    19.049576    7695.2319    8228.1756    8722.0291    8979.0209     146.2074   -527.87325   -260.76881   -4023.2277 
33822000    103.35542   -5189.1286    -4982.405   -5189.1286            0    7583.2538    17.776333    22.709047    19.177722    7741.7313    7795.5549    7341.3421    7612.8642    248.84182     140.0247   -445.13997   -4126.2161 
33823000    94.059358   -5199.3199   -5011.1895   -5199.3199            0    8369.0633    17.877334    22.675948    19.018892    7709.9831    8350.4882    8071.5726    8685.1289    1082.8823   -82.822779    1755.0364   -4070.1537 
33824000    91.243108   -5194.6269   -5012.1294   -5194.6269            0    7724.6306    17.801842    22.575266    19.220135    7724.2132    7912.6742    8077.1456    7184.0721    95.678764    741.47964    395.12294   -4141.9519 
33825000    92.052063   -5183.1506   -4999.0351   -5183.1506            0     9466.456    17.810514    22.670014    19.045545    7689.9169    9640.0033    9605.8265    9153.5382    1257.0528    520.54644    261.96222   -3937.3763 
33826000    99.349477   -5191.5354   -4992.8242   -5191.5354            0     9695.574    17.783283    22.716399    19.042612    7692.6846    9595.4633    9320.1404    10171.118   -248.79872   -87.331344    214.91867   -3905.0785 
33827000     89.08934    -5195.846   -5017.6563    -5195.846            0    7935.3403    17.807479    22.793767    19.037134    7727.1637    7808.6625    7218.5641    8778.7942   -299.39466     362.0011   -370.53568   -4123.4009 
33828000     97.63098   -5179.3761   -4984.1021   -5179.3761            0    7958.2566    17.867779    22.553523    19.208998    7740.8681    8441.3932    8314.5259    7118.8506    138.81467    477.69772    479.29036   -4085.6736 
33829000    92.971897   -5190.1692   -5004.2139   -5190.1692            0    8186.2452    17.824223     22.84759     18.96346    7722.6897     8002.993    7573.7967     8981.946    878.81367    -168.5241    884.50394   -4082.2175 
33830000    93.413264   -5177.5207   -4990.6826   -5177.5207            0     7438.872    17.889806    22.691123    19.104808    7755.4015    7469.5477     7324.448    7522.6203    958.43699   -68.917966   -200.02324   -4149.3121 
33831000    97.228382   -5194.1611   -4999.6923   -5194.1611            0    7651.7339    17.737213    22.705971    19.218433    7740.0442    8381.6558    7935.5217    6638.0243   -943.36219    -71.66637    -443.7979     -4135.96 
33832000    94.923062   -5196.8795   -5007.0217   -5196.8795            0    8546.9718    17.889934    22.697908    18.967284    7701.9327    7200.8775    8603.4278      9836.61     1101.044   -984.26694   -113.04757   -4046.9849 
33833000     96.79025   -5176.8344   -4983.2419   -5176.8344            0    10888.893    17.756907    22.494165    19.119574    7636.8705    11562.818    11216.438    9887.4223    1.4937558    319.74675    376.86016   -3770.4814 
33834000    95.312695   -5169.7246   -4979.0874   -5169.7246            0    10092.345     17.85491    22.648196    18.988393    7678.5549    11584.919    8846.3393    9845.7779   -295.36836    108.72935   -572.52466   -3848.9077 
33835000    95.288199   -5191.7097   -5001.1215   -5191.7097            0    9380.6749    17.798076     22.49948    19.193506    7685.9907      8812.71    9693.2224    9636.0923    594.37125   -682.91414    1138.7316   -3949.6202 
33836000    92.713884   -5188.6492     -5003.21   -5188.6492            0    8208.0008    17.834141    22.741436    18.995709    7704.1653    8203.3024    7614.1656    8806.5346   -311.91804   -91.543381    546.67251   -4080.9808 
33837000    97.575751   -5197.3337   -5002.1701   -5197.3337            0    8354.3861    17.783313     22.69488      19.0768    7699.2088     8036.896    8698.5549    8327.7073    12.215226    422.98765    233.55021   -4064.0974 
33838000    95.112196   -5192.7447   -5002.5086   -5192.7447            0    7770.5914    17.937031    22.572332    19.136945    7748.1782    7603.9123    8069.5359    7638.3261    150.11842    160.03841    505.40097   -4124.4377 
33839000    95.641379   -5210.3258   -5019.0312   -5210.3258            0    7615.5258    17.745444    22.841537    19.059301    7725.3675    9003.0747    6858.6511    6984.8516   -856.54441   -583.02576   -822.71168   -4161.0161 
33840000    96.159165   -5194.0839   -5001.7537   -5194.0839            0    8189.8698     17.77178    22.723873    19.112431    7718.4341    8951.4864    7820.9152    7797.2077   -851.60621   -506.00922   -636.19336   -4079.8574 
33841000    92.033511   -5190.7653   -5006.6869   -5190.7653            0     8002.345    17.869879    22.671674    19.088316    7733.4416    8029.7415    7744.7668    8232.5268    436.26627    828.17401    1641.9232   -4104.1479 
33842000    97.044587    -5199.411   -5005.3098    -5199.411            0     8272.193    17.863735    22.537035    19.199816    7729.7617    8724.1051    8626.9392    7465.5347   -101.72945   -299.02745   -366.12767   -4072.7802 
33843000    96.513271   -5184.9278   -4991.8893   -5184.9278            0    8160.3193    17.759334     22.79257    19.107018     7734.155    7761.9322    7744.7122    8974.3136    419.72025   -389.00279    1629.9571   -4071.4484 
33844000    95.202022   -5186.4954   -4996.0796   -5186.4954            0    9063.9805     17.86691    22.599855    19.077151    7703.1548    8294.3788    9017.2225      9880.34   -793.83712    114.89806   -1105.7324   -3977.8084 
33845000    90.396158   -5192.0117   -5011.2083   -5192.0117            0    8503.7942    17.790611    22.600674    19.159617    7703.6951    9034.5085    8589.4911    7887.3829     886.3885    226.64208    384.22615   -4055.8028 
33846000    95.530721   -5183.9122   -4992.8389   -5183.9122            0    8579.9951    17.783963    22.744522    19.053524    7706.9168    9648.2978    7401.5874       8690.1   -748.33389   -317.00194    -663.3947   -4028.4691 
33847000    95.665112   -5188.3099   -4996.9678   -5188.3099            0    8749.5803    17.801415    22.614716    19.112262    7694.0989    9351.8973    8554.8123    8342.0312    186.02051    65.022383   -141.60284   -4015.1727 
33848000     97.89695    -5192.578    -4996.772    -5192.578            0    8906.1397     17.74261    22.813162    19.005726    7692.8533    8996.6639    8671.8018    9049.9534    499.13981     1260.891    616.64524   -3997.5711 
33849000    96.087701   -5193.8536   -5001.6664   -5193.8536            0    8268.5201    17.815719    22.567618    19.186429    7714.0639    9133.1082     8065.833    7606.6191    970.98848   -540.57551    238.99464   -4071.4437 
33850000     92.67724   -5184.3231   -4998.9571   -5184.3231            0     8256.676    17.734538    22.896997    18.982074    7708.0063     8298.569    7526.0664    8945.3926    365.54458   -241.49516     230.5366   -4070.7964 
33851000    91.466616   -5194.7008   -5011.7562   -5194.7008            0    8456.0783    17.776524    22.562989      19.1995    7700.7564    7681.6344    9676.2441    8010.3563   -116.83737    740.91711   -348.69564   -4062.0741 
33852000    98.128856   -5195.5616   -4999.2918   -5195.5616            0    8287.6973    17.821531    22.656674     19.10796    7715.3478    8521.9413    7831.1407    8510.0098   -290.19656   -997.81235    1433.1915   -4066.7565 
33853000    99.156217   -5190.4528   -4992.1281   -5190.4528            0    8326.6805    17.694754    22.837707    19.057744    7701.3793    8325.2214    8376.2635    8278.5564    247.09656   -16.806725    646.58378   -4056.9027 
33854000    96.052808   -5184.7314   -4992.6139   -5184.7314            0    7950.1557    17.921936    22.387059    19.217792     7710.552    9507.7375    8670.9318    5671.7979    77.153951    259.79189   -17.069029    -4098.615 
33855000    94.882662   -5176.3019   -4986.5249   -5176.3019            0    7371.6854    17.822414    22.852718    19.049497    7758.6812    7687.1588    6659.0223    7768.8751   -607.64413   -577.49349     -422.835   -4152.4009 
33856000    88.627544   -5187.7886   -5010.5226   -5187.7886            0    8088.0459    17.786871     22.71368    19.093772    7713.9848    8585.5691    7398.9937     8279.575    423.84903   -452.75526    212.98244   -4100.6129 
33857000    101.71045   -5194.5216   -4991.0882   -5194.5216            0    8990.9746    17.914781     22.57591    19.026838    7695.2615    8687.7003    9568.8636    8716.3601   -999.16504   -49.032338    1051.9351   -3982.0536 
33858000     98.01828   -5188.7815   -4992.7329   -5188.7815            0    7690.0212    17.745725    22.640589    19.221228    7722.5832     8831.559    7609.0866     6629.418   -1189.9905   -152.71592   -975.33728   -4126.6369 
33859000    96.157589   -5194.2582   -5001.9311   -5194.2582            0       8183.6    17.789825    22.559824    19.197353    7704.5762    8313.5693    8097.1426    8140.0881    395.15859   -702.88321    140.93376   -4082.3945 
33860000    99.117809   -5190.2275   -4991.9796   -5190.2275            0    7512.3839    17.826545    22.840926    19.019732    7744.3555    6612.6612     8203.773    7720.7174   -953.61736    307.53233   -557.95345   -4143.5049 
33861000    100.23236   -5185.4063   -4984.9292   -5185.4063            0    8394.9903    17.697271    22.618584    19.288358    7720.8829    9976.3029     8701.184    6507.4839    978.00331    -738.5868    542.22177   -4039.6435 
33862000    95.551197   -5192.3359   -5001.2217   -5192.3359            0    6846.3252    17.946468    22.745627    19.003592    7757.3357    6311.6339    6475.5283    7751.8134   -351.93235   -649.07758    533.42822   -4226.6778 
33863000     97.59849   -5201.2431    -5006.034   -5201.2431            0    8348.9707    17.884735    22.589925    19.127824    7727.9245    8409.0092    7447.0844    9190.8186     529.5052    62.122271    646.62978   -4065.0729 
33864000     99.98375   -5194.7298   -4994.7499   -5194.7298            0    7927.1897    17.791332    22.778818    19.071862     7729.168    7369.8213     7777.437    8634.3108    -354.0033   -74.558076   -872.59755   -4101.1814 
33865000    96.399722   -5194.8549   -5002.0435   -5194.8549            0    7110.6916    17.840871    22.690438      19.1242    7741.8046    8333.9626    6071.1232    6926.9891    1196.3592   -927.56208   -216.14736   -4199.2018 
33866000     92.84905   -5193.4379   -5007.7283   -5193.4379            0    8854.6273    17.726867    22.695375    19.112693    7689.3786    9121.6012    8698.7747    8743.5059     495.8111   -102.54596   -704.19598   -4014.7553 
33867000    92.574087   -5194.7489   -5009.5893   -5194.7489            0    8191.3637    17.835944    22.677389    19.049288    7704.9157    7563.8347    8095.6835    8914.5729   -35.551986    43.437464    659.49522   -4089.1398 
33868000    96.240922   -5198.9875   -5006.4938   -5198.9875            0    8352.6653    17.781234    22.543338    19.256259    7718.8401    8114.8051    8879.3232    8063.8677   -760.09733    727.86943   -1046.1905   -4066.2228 
33869000    89.606794    -5184.191   -5004.9663    -5184.191            0    8744.4517    17.788018    22.664603    19.084635      7694.13    9663.2345    8364.3085     8205.812    1099.3897   -571.06231    848.46464   -4023.7427 
33870000    95.407183   -5192.6811    -5001.855   -5192.6811            0    7912.2769    17.897647    22.571021     19.17318    7745.3548    7409.5276    8684.8853    7642.4178   -907.69971    357.04033    438.48023   -4108.0996 
33871000    97.975956   -5202.6872   -5006.7232   -5202.6872            0     8571.939    17.725373    22.764532    19.103348    7708.3887    9806.3541    8264.2884    7645.1745   -556.44281    234.92599    1283.6895   -4043.0748 
33872000    95.877873   -5180.0803   -4988.3127   -5180.0803            0    8879.9638    17.856493    22.570553     19.12404    7707.5794    8551.3354    9246.7619    8841.7941    665.10973   -116.94016   -384.78514   -3990.1414 
33873000    95.192669   -5188.2734   -4997.8763   -5188.2734            0    8643.6543    17.747938    22.826016    18.987435    7692.0893    8193.6001    8351.0438     9386.319   -142.32671      213.098    438.83901   -4028.2205 
33874000    97.502516   -5185.9769   -4990.9598   -5185.9769            0    8641.2504    17.834495    22.635043    19.099377    7710.1236    9821.2034    7994.9528    8107.5949   -371.79676   -327.92492    1081.5744   -4019.3009 
33875000    98.384609   -5184.2334    -4987.452   -5184.2334            0    9205.5688    17.809167    22.611043    19.098798    7690.7773    11531.404    8348.1763    7737.1263    393.87559   -828.93295    696.96804   -3954.9361 
33876000    92.883945   -5186.0932   -5000.3138   -5186.0932            0    8297.9497    17.784444    22.780604    19.002953    7698.8634    8110.7264    8091.3581    8691.7646   -151.66875   -256.09596   -575.80495   -4068.6198 
33877000    93.144435   -5196.3558   -5010.0554   -5196.3558            0    7647.3133    17.934956    22.413338    19.257522    7741.1814    7359.8386    8504.8613      7077.24    945.37487    503.26937   -847.44825   -4146.6952 
33878000     89.14757   -5179.7458   -5001.4397   -5179.7458            0     9786.016    17.720726    22.736884    19.046072    7673.9307    10155.394    9536.8154    9665.8386   -10.927962     3.980192   -451.85365   -3906.2239 
33879000    99.884502   -5181.3215   -4981.5402   -5181.3215            0    8368.3225    17.845352    22.714905    19.042511    7718.9861    6979.3661     9036.865    9088.7364    316.52625    266.25348   -727.46797   -4039.4889 
33880000    91.652104    -5197.786   -5014.4704    -5197.786            0    7647.4116    17.768576    22.612621    19.200322    7714.5757    9393.4323    7810.0634    5738.7391   -359.21969    81.180635     492.7403   -4154.0665 
33881000    91.465968    -5196.421   -5013.4778    -5196.421            0    8311.5876    17.702838      22.9037    19.007586    7706.8253    8994.6275    7137.1057    8803.0296    411.15575   -69.398343    355.35979   -4079.2874 
33882000    95.834684   -5180.7878   -4989.1066   -5180.7878            0    7308.5202     17.92059    22.533274    19.161917    7737.7654    7633.7506    7785.3292    6506.4808   -255.41065    -622.2174   -209.46266   -4164.3593 
33883000    93.734283   -5178.6844   -4991.2043   -5178.6844            0    7806.1589    17.814204    22.644902    19.151324    7725.6616    8883.3614    7344.6433    7190.4719    1246.0297   -31.862243   -505.85872   -4111.6778 
33884000    99.179002   -5210.7877   -5012.4175   -5210.7877            0    7024.4822    17.824918    22.797294    19.059477    7745.0069    7625.7524    6683.3243      6764.37   -854.60898    145.76564   -195.24837   -4218.9813 
33885000    89.778358   -5184.3739   -5004.8061   -5184.3739            0    7708.0321    17.799824    22.648378    19.152413    7721.0489    7297.9412    8127.4277    7698.7275    494.72347    187.32583   -873.90677   -4136.8541 
33886000    99.301958   -5190.5533   -4991.9371   -5190.5533            0    7744.8335    17.679031    22.810458    19.165137    7728.6635    8172.0976    7820.6448    7241.7581     48.98839   -210.69018   -430.20224   -4118.9811 
33887000    90.053118   -5185.1973   -5005.0799   -5185.1973            0    7903.3757    17.857235    22.672804    19.096791     7731.786    7681.9544    7278.7689     8749.404    342.63678   -648.67753    955.83276   -4113.8939 
33888000    96.201602    -5192.458    -5000.043    -5192.458            0    7833.0874    17.725728    22.700392    19.176124    7716.1077    8596.7875    7140.6037    7761.8711    414.37201   -811.98136    496.11592   -4118.5738 
33889000    90.314272   -5192.6025   -5011.9628   -5192.6025            0    8293.3256    17.798286    22.786431    19.020905     7714.107    8122.0307    7684.8605    9073.0856   -470.02178   -22.448566    576.43132   -4078.9443 
33890000     97.49386   -5194.2544   -4999.2546   -5194.2544            0    6959.5766    17.872162    22.558141    19.251174    7761.3562    6982.9988    7033.1444    6862.5867    502.58979   -436.14503    313.78279   -4211.4902 
33891000    95.356277   -5197.2614    -5006.537   -5197.2614            0    6557.3939    17.858626    22.825639    19.056124    7767.9345    6244.5915    6369.8427    7057.7474   -1135.5952    194.62989   -296.60559   -4263.6672 
33892000     96.15956   -5195.1161   -5002.7851   -5195.1161            0    7302.4006    17.851099    22.604528    19.197484    7746.4854    7721.1462    7567.6495    6618.4061   -544.34296    216.97917   -793.26335   -4177.7997 
33893000    94.950759   -5191.0147   -5001.1015   -5191.0147            0    8602.5576     17.76256    22.851955    18.960801    7696.3642    7647.1504     8489.616    9670.9064    -699.5492    157.54695   -319.04386   -4035.5196 
33894000    94.543527   -5189.3662   -5000.2675   -5189.3662            0    8397.3456    17.857866    22.511384    19.214967     7724.518    8344.6995    8457.6149    8389.7223   -448.24229    52.789967   -500.73391   -4054.2715 
33895000    93.073732   -5186.5566   -5000.3976   -5186.5566            0    8837.8814    17.804985    22.645771    19.142993    7718.6006    8951.4402    8674.9492    8887.2547   -902.14547   -73.501237   -2138.3984   -4005.5361 
33896000    96.834456   -5198.1362   -5004.4553   -5198.1362            0    7521.2516    17.747164    22.759715    19.130828    7727.3321    7745.5765    7056.0006    7762.1777   -130.48002    91.613537    486.38437   -4156.8463 
33897000     97.59107   -5206.7211   -5011.5269   -5206.7211            0    9089.8637    17.833842    22.703588    19.010627    7697.2546     9924.313    8362.2262     8983.052   -462.90783   -227.62211   -766.45646     -3991.13 
33898000    97.148859   -5202.6146   -5008.3049   -5202.6146            0    7228.7417    17.895192    22.753043    19.022377    7745.3422    6707.6773     7185.091    7793.4568    184.56574    1349.3642   -838.41346   -4191.7616 
33899000    97.992219   -5189.1795    -4993.183   -5189.1795            0     7182.783    17.838587    22.727511    19.135926    7758.2149    7505.4789    6915.4505    7127.4196    372.01155   -1026.1596    -465.6226   -4180.4826 
33900000     90.10293   -5188.7104   -5008.4934   -5188.7104            0    7073.3892    17.778005    22.755492    19.167632    7754.2127    6968.3169    7150.6764    7101.1743     288.9203    29.090532   -400.43676   -4208.5833 
33901000    100.77389    -5185.118   -4983.5578    -5185.118            0    7860.2382    17.850315    22.687557    19.084809    7728.9666     7701.875    7857.7369    8021.1027    485.23248   -68.552637    520.76457   -4097.5592 
33902000    98.708249   -5195.0862   -4997.6575   -5195.0862            0    8575.0417    17.838703    22.583083    19.151823    7715.3678    7455.4156    9439.7439    8829.9657    329.18388    -309.1107    77.004424   -4032.7876 
33903000    99.396006   -5192.6143     -4993.81   -5192.6143            0    7573.9713    17.821938     22.76182    19.051514    7728.4322    8281.2309     6757.723    7682.9599   -353.51662    135.72162   -2078.7361   -4140.1382 
33904000    99.420421   -5202.2442   -5003.3911   -5202.2442            0    7866.0033     17.83514    22.605203    19.154879    7722.6146    7368.9554    8410.6903     7818.364     405.7852   -113.76149    363.50874   -4117.4714 
33905000    95.558568   -5193.7529   -5002.6239   -5193.7529            0    8683.2457    17.784362    22.664612    19.089315    7694.4381    8902.2796    8416.1643    8731.2932    51.623062   -630.22073    707.01974   -4028.2293 
33906000    90.201656   -5191.2461   -5010.8317   -5191.2461            0     8667.983    17.741252    22.679899    19.147052    7704.1957    9587.7061     8398.096    8018.1468    371.64978   -1207.8074    1008.1113   -4036.9163 
33907000    97.480107   -5197.6904   -5002.7181   -5197.6904            0    7942.5454    17.849735    22.556491    19.212205    7735.3597    6688.2673    8569.5805    8569.7885   -975.65492    437.75961    342.02897   -4106.7014 
33908000    94.195263   -5199.7052    -5011.303   -5199.7052            0    8110.9809    17.824282    22.718252    19.078741    7725.6789    8253.6881    7943.7914    8135.4632   -471.46969   -218.82202   -730.41629   -4097.4299 
33909000    91.346356   -5186.0533   -5003.3493   -5186.0533            0    9174.9054    17.851122     22.62786    19.021742    7683.5035    8823.0036    9189.1042    9512.6083    459.17075   -229.58185     1060.689   -3975.2459 
33910000    100.04152   -5194.6233   -4994.5279   -5194.6233            0    8439.8675    17.802957    22.479432    19.281446    7716.4417    8260.0181    9220.5642    7839.0202     786.6806    609.01957    462.10443   -4044.7357 
33911000     97.99977   -5204.0976   -5008.0859   -5204.0976            0    7598.2864    17.735583    22.900319    18.974805    7706.6267    8346.9863    6446.8222    8001.0507    786.39324   -654.34207   -1195.3463   -4154.0898 
33912000    93.179999   -5188.0544   -5001.6829   -5188.0544            0    7141.8198    17.864639    22.655337    19.137456    7745.4914    8100.4992    7186.4092    6138.5509   -8.7076873    235.16816     748.4284   -4194.9426 
33913000    90.346362   -5183.3141   -5002.6103   -5183.3141            0     7968.407    17.895786    22.564337    19.113851     7718.298     8980.721    7801.1798    7123.3202   -1054.3363    278.53035   -1629.1867   -4105.6588 
33914000    96.153771   -5202.7249   -5010.4055   -5202.7249            0    7092.0082    17.868371    22.800322     19.03803     7756.181     6858.181    7024.8302    7393.0135    19.501748     1042.367    91.490843   -4208.1863 
33915000    93.188326   -5187.6532   -5001.2651   -5187.6532            0    7830.3268    17.786018    22.657207    19.134072    7710.6772    7457.6029    8278.0132    7755.3641   -488.32558   -303.27724    729.22656   -4120.7267 
33916000    101.36169   -5187.1182   -4984.3823   -5187.1182            0    8142.1167    17.841088    22.701445    19.045943    7713.9589    8175.5352     7731.561     8519.254    32.303839    116.94341    -1221.858   -4068.3927 
33917000    90.870659    -5189.162   -5007.4095    -5189.162            0    7336.4822    17.949418    22.547112    19.144671    7747.9928    6360.9828    7368.2502    8280.2135   -216.18879   -126.15548    1210.1057   -4178.4125 
33918000    93.845274   -5177.0617   -4989.3596   -5177.0617            0    8918.1477    17.739025    22.772572    19.074529    7705.4085     8559.245    8993.2775    9201.9207   -585.21742   -69.304336   -881.06497   -3987.1785 
33919000    99.417912   -5184.2035   -4985.3554   -5184.2035            0    9068.5324    17.837719    22.663816    19.072897    7710.6147    8648.0227     9367.924    9189.6503    86.835574    244.95416    539.20787   -3965.5862 
33920000    93.784587    -5187.719   -5000.1382    -5187.719            0     8128.363    17.844815    22.761429    19.028854    7729.0165    7859.7102     7489.261    9036.1177   -19.323087   -779.45861   -831.70013    -4083.911 
33921000    91.310827   -5182.5315   -4999.8985   -5182.5315            0    6883.9163    17.802644    22.721669    19.171059    7754.8045    7247.6411    7542.2993    5861.8085     1027.813    347.56011   -398.93576    -4221.356 
33922000    96.448753   -5199.8758   -5006.9664   -5199.8758            0    8078.5375    17.836435    22.679089    19.106884    7729.0038    8297.0523     7615.084    8323.4763   -386.44657   -220.19874   -537.10424   -4096.3569 
33923000    92.461022   -5194.7889   -5009.8554   -5194.7889            0    7116.1802    17.750656    22.779324    19.139421    7738.9856    7163.6074     6459.401    7725.5322   -776.00731   -1117.6645   -1349.4505   -4206.6865 
33924000    98.480288    -5200.874   -5003.9013    -5200.874            0    8673.1924    17.759406    22.692069     19.11838    7704.6627    9366.2794    8484.9643    8168.3335   -112.18758    148.64988   -997.27439   -4029.3415 
33925000    93.213671   -5190.6806   -5004.2417   -5190.6806            0    7795.2202    17.896828    22.545361    19.152783    7727.9654     8302.731     7763.226    7319.7036   -350.12734   -123.82974    851.70099   -4125.6857 
33926000    93.279541   -5191.8982   -5005.3276   -5191.8982            0    7374.0645    17.767552    22.797636    19.088913    7732.1204     7508.817    6547.3419    8066.0345    887.97272   -240.64162   -1177.0079   -4173.7909 
33927000    97.354464   -5186.4685   -4991.7476   -5186.4685            0    8056.3795    17.953537    22.618886    19.049491    7735.7891    6858.2641    8114.9704    9195.9041   -51.372869   -426.90479    390.15958   -4082.8385 
33928000    94.986311   -5191.0985   -5001.1142   -5191.0985            0    7569.1869    17.779898     22.80387    19.100801     7744.429    7250.9354    7858.2949    7598.3304    -585.3556    804.47177     390.4431   -4146.2158 
33929000     99.62454   -5187.9336   -4988.6722   -5187.9336            0    9129.7612    17.764585    22.617209    19.127375    7685.0985    8684.2102    9469.1664    9235.9071    387.51057     569.1989    476.47401   -3965.4151 
33930000    96.554229   -5193.6967   -5000.5763   -5193.6967            0    7698.7654    17.780332    22.779389    19.098517    7735.3787    7232.0032    7960.9588    7903.3343   -637.18505    926.14835    475.25913   -4132.0588 
33931000    94.422314   -5197.1902   -5008.3339   -5197.1902            0    7411.1088    17.892016    22.660742    19.071631    7732.5236     6928.705    7550.8756    7753.7457   -614.18679   -299.37882   -208.44759   -4172.5763 
33932000    97.123397   -5192.2235   -4997.9647   -5192.2235            0    7007.8955    17.812536    22.587048    19.238861    7740.4209    5905.0896    7941.2193    7177.3774    428.11549     1.444158  -0.10785816   -4206.8707 
33933000    91.048144   -5190.2409   -5008.1333   -5190.2409            0    8700.9844      17.7779    22.732737    19.057131    7701.7548    8390.6474    9489.6815    8222.6244   -217.47477    546.48018    274.15007   -4030.8197 
33934000    90.599944   -5194.6867   -5013.4756   -5194.6867            0    8057.6991    17.841046    22.547192    19.203499     7724.905    8112.0122    8720.9038    7340.1813    94.605906    114.80916    971.61545   -4105.6967 
33935000    105.04919   -5195.2384    -4985.127   -5195.2384            0    8453.2439    17.639244    22.907476    19.021998    7686.2295    8100.0366    8550.5064    8709.1886    248.78445    924.65305    541.43424   -4037.5541 
33936000    95.794661   -5189.6652   -4998.0641   -5189.6652            0    7302.6197    17.916595     22.63169    19.082113    7737.4688    6186.4958    7263.9599    8457.4036   -840.59933   -166.24225   -1090.8609   -4174.0142 
33937000    93.874657   -5196.7275   -5008.9666   -5196.7275            0    6651.7208    17.832706    22.771184    19.108489    7759.4191    5741.5868    7176.4222    7037.1533    164.27063    477.97246    294.51273   -4256.2368 
33938000    98.242623   -5185.0437   -4988.5463   -5185.0437            0    8882.3421    17.712744    22.765269    19.102359    7702.7473    9094.2444     8927.503     8625.279   -925.45842    287.40447   -1504.2041   -3990.7336 
33939000    92.462533   -5197.0224   -5012.0859   -5197.0224            0    7316.3218    17.978808    22.445948    19.157356    7730.9778    6237.5982    7746.4992    7964.8681   -898.95932   -521.09243   -603.63825   -4187.1824 
33940000    100.59142   -5191.5439   -4990.3487   -5191.5439            0    6919.8214    17.777279    22.896467    19.082759    7767.3865    7936.4451    6021.6762    6801.3429   -1143.8264    500.89343    -771.1991   -4206.4757 
33941000    94.318973   -5183.2546    -4994.605   -5183.2546            0    8235.7847     17.79177    22.802105    19.039964    7724.3192    7937.2431    8367.4236    8402.6875    82.712104   -56.439132   -40.076248   -4066.8334 
33942000    98.880806   -5193.3174   -4995.5436   -5193.3174            0    8622.1069    17.909049     22.57064    19.110106    7724.6623    8251.2294    9078.7171    8536.3741   -195.38877    609.66753    1389.0827   -4024.2092 
33943000    94.235305   -5190.7052   -5002.2229   -5190.7052            0    8974.6223    17.744139    22.660264     19.16571    7706.2804    10059.728    8891.2569    7972.8819   -443.96974    654.41713    566.33553   -3993.5813 
33944000    98.708397   -5189.8377   -4992.4087   -5189.8377            0    8026.8632    17.843173    22.730609      19.0448    7724.3076    8055.3227    8250.2628    7775.0041     879.3411   -829.77878    1439.6472   -4088.1737 
33945000    96.501317   -5192.0769   -4999.0624   -5192.0769            0    8033.7454    17.804417    22.761323    19.045693    7718.3064    6857.7837    8420.5401    8822.9123   -444.36734   -172.61445   -679.21405   -4094.7552 
33946000    95.919032   -5197.0126   -5005.1627   -5197.0126            0    8002.2066    17.840885    22.544987    19.201149    7723.1347    7694.6845    8143.8569    8168.0782    1134.3309   -305.97816    4.5006447   -4103.8421 
33947000    103.12587   -5203.8093   -4997.5448   -5203.8093            0    7826.0258    17.834417     22.66089    19.076611    7709.6932    7863.6466     8383.638    7230.7929   -279.69393    321.57222   -274.28246   -4117.6024 
33948000    98.656606    -5193.318   -4995.9926    -5193.318            0      8323.03     17.69311     22.90039    19.024133    7708.1816    8100.9292    7462.9958    9405.1649   -254.08652   -1227.4202   -739.35789   -4060.3515 
33949000    98.013945   -5191.6443   -4995.6043   -5191.6443            0    8222.8232    17.832083    22.554714    19.218148     7729.492    7720.5818     8778.193    8169.6949    210.30865    277.52372   -640.23484   -4068.6725 
33950000    93.744827   -5190.6892    -5003.188   -5190.6892            0      7595.26    17.750666    22.854773    19.036283    7722.7808    6936.3485    6974.3738    8875.0576   -164.76078   -425.09209    860.21142   -4147.7427 
33951000    92.453927   -5178.5689   -4993.6496   -5178.5689            0    9906.2859    17.746388    22.617549    19.129743    7678.2924    9831.5528    10393.337    9493.9684   -131.18761     245.9516    68.533051   -3884.3436 
33952000     94.24796   -5187.9204   -4999.4128   -5187.9204            0    8574.3303    17.803724     22.63655    19.116305    7704.1551    9703.3602    7982.1875    8037.4433    635.64352    417.24704   -366.24086   -4036.0251 
33953000    97.045772   -5198.3811   -5004.2776   -5198.3811            0    9155.4443    17.726473    22.638158    19.134763    7678.6789    9244.2683    8520.7499    9701.3145   -348.41893   -333.17019    237.60054   -3978.9992 
33954000    88.547169   -5191.0471   -5013.9418   -5191.0471            0    8212.9382    17.824908    22.651609    19.125999    7722.3679    7402.3674    8420.2469    8816.2002    1023.5779    -108.4041    807.26557   -4088.9776 
33955000    96.162471   -5207.1921   -5014.8553   -5207.1921            0    7785.9188    17.680248    22.980712    19.031771    7732.6979     7383.686    7290.9137    8683.1568   -594.96026    9.7234888    205.42996   -4136.8102 
33956000    91.529045   -5190.8467   -5007.7773   -5190.8467            0    8127.3793    17.861599    22.645231    19.091768    7722.2387    7902.5576    7848.0019    8631.5782   -290.58054   -719.31832   -558.97591   -4092.4643 
33957000    97.182205   -5191.9092   -4997.5328   -5191.9092            0    8872.4281    17.826014    22.705358    19.037582    7705.3858    9038.7241    8403.1793     9175.381    131.92763    429.74556   -190.09096   -4000.4924 
33958000    96.164041   -5184.0324   -4991.6925   -5184.0324            0    8130.0705    17.744021    22.857801    19.029896    7718.3225    8812.5878    7338.8104    8238.8132   -175.19068   -368.29509   -494.56331   -4076.5407 
33959000    94.651832   -5185.3267   -4996.0114   -5185.3267            0    8859.2583    17.824143    22.643551    19.095552    7707.0006    9768.3767    7782.8738    9026.5242   -211.23897   -738.22139   -648.32266   -4000.2423 
33960000    96.590806   -5185.5483   -4992.3547   -5185.5483            0    7977.4251    17.847505     22.66786    19.085435    7721.2939    8816.0582    6842.5655    8273.6515   -880.73564   -538.27709    205.21368   -4094.0396 
33961000    95.301923   -5188.2265   -4997.6109   -5188.2265            0     8376.039    17.798154     22.70071    19.108146    7720.2783     9212.156    7667.7535    8248.2075    756.14356   -546.89306    110.33086    -4054.533 
33962000    94.778274   -5186.2643    -4996.696   -5186.2643            0    8609.6036    17.702253     22.94346    18.970474    7704.8756    9365.3801    7075.3194    9388.1113    170.71054   -1440.4875    941.89406   -4029.2546 
33963000    94.277398   -5187.5887   -4999.0222   -5187.5887            0    8679.4517    17.821763    22.507485     19.18762    7696.5969    8086.1406    9439.2421    8512.9724    503.36128    879.36967   -659.18587   -4024.7801 
33964000    93.162989   -5184.9782   -4998.6407   -5184.9782            0    8838.6876    17.734179    22.864651    18.976207    7694.5828    9108.5491    8412.8443    8994.6695    43.732079  -0.85820708   -1051.8986   -4006.7844 
33965000    90.364156   -5196.9209   -5016.1814   -5196.9209            0    7930.5794    17.725235    22.638789    19.177123    7695.3546    9381.6694    7324.3453    7085.7236    499.93216   -942.61837   -956.53004   -4126.1416 
33966000    93.960585   -5193.2577   -5005.3249   -5193.2577            0    7165.0418    17.846417    22.631575    19.177438     7745.624    7255.8639    7615.3272    6623.9343    433.95902     -111.778   -189.59277   -4195.9476 
33967000    92.251685   -5196.5397   -5012.0249   -5196.5397            0    9092.1635    17.699726    22.754648    19.092847     7689.664    9695.0859    8908.3619    8673.0427   -9.4477684    124.15095    544.48114   -3992.3764 
33968000    96.145339   -5183.8321   -4991.5295   -5183.8321            0    8108.7836    17.768969    22.800418    19.063321    7723.3121    9580.7954    7175.7057    7569.8498   -1004.4345   -326.05386   -688.68217   -4078.1839 
33969000    99.145486   -5198.3132     -5000.01   -5198.3132            0    8074.2121    17.773178    22.515975     19.26716    7710.3405    9933.0352    7667.9739    6621.6272    49.301527   -643.13689   -1200.5758   -4092.0858 
33970000     89.93673   -5196.7285   -5016.8439   -5196.7285            0    7133.6076    17.661733    22.897596     19.14198    7741.2316    7496.3315    6400.8444     7503.647    924.63491     356.8945   -872.99561   -4211.4744 
33971000    98.529242   -5199.5119   -5002.4413   -5199.5119            0    8666.0573    17.853973    22.519608     19.16423    7705.2561     8213.669    8574.4531    9210.0497   -1190.0905    320.25746    1534.4332   -4028.6082 
33972000    94.626728   -5200.7041   -5011.4389   -5200.7041            0    9247.9784    17.764078    22.663296     19.10484    7691.4663    9908.9892    9134.6907    8700.2554   -480.25987    158.12567   -149.32067   -3974.0733 
33973000     94.87458   -5200.3497   -5010.5888   -5200.3497            0     9331.432    17.819736    22.641226    19.040085    7681.9255    8609.1476    9209.8614    10175.287    97.542665    86.397666    -1368.638   -3965.1605 
33974000    98.143412   -5195.0819    -4998.783   -5195.0819            0    7907.6797    17.898158    22.503114    19.150082    7712.9692    7515.0094    8778.3234    7429.7063    305.94215   -209.35909    15.922445   -4109.2818 
33975000    96.531717   -5197.4321   -5004.3567   -5197.4321            0    9116.8309    17.731846     22.91246    18.911035    7683.1794    9266.3609    8272.4192    9811.7125    -22.64611    177.82215     221.5722   -3982.8041 
33976000    94.957739   -5189.0769   -4999.1497   -5189.0769            0    8996.9947    17.769293    22.631994    19.134135    7694.8789    8823.6155     9780.745    8386.6236    272.54562    179.76552     -660.949   -3989.4897 
33977000    99.634609    -5176.919   -4977.6375    -5176.919            0    8117.7091    17.804404    22.721908    19.129856     7738.984    7001.0306    7846.6953    9505.4014     -317.393   -199.89444    213.86946   -4061.4311 
33978000     96.14453   -5185.1454   -4992.8444   -5185.1454            0    7786.5854     17.80901    22.769177    19.082457    7737.8695    7260.1311    7576.9638    8522.6614    664.88664    559.19085   -777.96261   -4114.1369 
33979000    98.876279   -5188.1313   -4990.3665   -5188.1313            0    8123.6959    17.786963    22.696869    19.083951     7704.351    8141.7322    8301.1375    7928.2179    311.27908    -249.0533    -426.5341   -4077.5876 
33980000    100.28287   -5184.3753   -4983.7972   -5184.3753            0    8154.6376    17.829105    22.743798    19.056292    7727.3559    7675.8506    7645.9207    9142.1414    172.29047   -69.181298   -449.89556   -4064.8057 
33981000    101.77075   -5192.5493   -4988.9952   -5192.5493            0    8723.4877    17.869754    22.462523    19.198673    7706.3424    7875.2378    9112.5651    9182.6603     489.2545   -196.35451    19.295057   -4008.5703 
33982000    93.975674   -5191.2213   -5003.2583   -5191.2213            0    8290.0375    17.779575    22.809666    19.040594    7721.8398    6955.7329    8090.2892    9824.0903   -301.61679   -363.31967    172.32765   -4069.6748 
33983000    92.557403   -5194.5569   -5009.4307   -5194.5569            0    8491.9831     17.78357      22.6955    19.155528    7731.3057    7466.5715    9454.4981    8554.8798   -101.35993    779.01656   -1416.2245   -4051.9327 
33984000    95.358452   -5182.5792   -4991.8505   -5182.5792            0    7695.5019    17.913572    22.590773    19.119212    7737.1902    7105.8115    8176.9783     7803.716   -822.56743    481.35976    1068.7352   -4123.4979 
33985000    91.880733   -5190.5506   -5006.7778   -5190.5506            0    9180.3986    17.757494     22.64395    19.153206    7701.5007    10162.917    8935.3612    8442.9171   -178.66111   -685.89294    521.68541   -3975.6493 
33986000     97.16561   -5200.3118   -5005.9686   -5200.3118            0    8387.7845    17.790074    22.779977    19.040561    7716.3297    8144.8562    8230.2824    8788.2147   -176.34074    644.31404   -670.06908   -4062.0513 
33987000     94.04047   -5190.9387   -5002.8462   -5190.9387            0    8808.8903    17.873411    22.507725     19.12798    7694.9916    8883.8011    8835.0568     8707.813    507.12178    219.87985    262.90317   -4014.2812 
33988000    98.466791   -5186.7139   -4989.7681   -5186.7139            0    9298.1412     17.67769    22.763393    19.103907    7687.4923    9870.6711    9090.0047    8933.7479    644.09612    406.45142   -69.760762   -3947.3146 
33989000    95.962627   -5192.3747   -5000.4376   -5192.3747            0    7884.1013    17.815272     22.72379    19.095141    7730.2952    6750.1876    8338.2583     8563.858    258.84893   -128.75694    1562.4577   -4111.5964 
33990000    94.998362   -5186.9021   -4996.8937   -5186.9021            0     7770.859    17.926369    22.567915     19.11063    7731.4109    7251.3234    8267.0309    7794.2227    526.08433    739.56048    501.94941   -4120.6928 
33991000    92.199169   -5191.8035   -5007.3938   -5191.8035            0    7961.1604    17.765839    22.731421    19.134397    7727.2882    7886.0273    8235.0632    7762.3908    173.77995    863.52134   -167.50275   -4110.2142 
33992000    89.472262   -5177.7006   -4998.7451   -5177.7006            0    9241.0962    17.797524    22.494734    19.197242    7685.6267    10031.261    8917.2225    8774.8053   -220.15794   -1150.0802   -313.22142   -3962.9385 
33993000    99.719429   -5189.9134   -4990.4622   -5189.9134            0    8306.1231    17.726404    22.822936    19.090156    7723.2774    9311.9115    7744.5617     7861.896   -1100.7929    278.92652    735.39919   -4054.8931 
33994000    98.053849   -5182.7802   -4986.6604   -5182.7802            0     9748.843    17.789168    22.502343    19.205498    7687.9216    9786.2849    10247.332    9212.9123   -326.14384   -447.74894    -1629.653   -3893.6157 
33995000    96.208632   -5183.0927   -4990.6636   -5183.0927            0    8261.8114    17.836347    22.652708    19.125717    7727.5846    8425.8309    8295.3382    8064.2652    653.11367   -230.86056   -48.847497   -4059.5666 
33996000    92.028357   -5181.7882   -4997.7201   -5181.7882            0     9283.157    17.684705    22.893443    19.001222    7692.9064    10836.698    7924.1588    9088.6137    -567.8675    631.51073   -612.21915   -3956.2135 
33997000    92.065641   -5188.4986   -5004.3559   -5188.4986            0    7921.6473    17.951119    22.418379    19.207084     7729.603    7708.1927    8277.0918    7779.6575   -784.11642   -358.90962    411.55764   -4111.3618 
33998000    97.930087   -5190.6877   -4994.8155   -5190.6877            0    7311.9606    17.829123    22.801969    19.067538    7751.6995    7763.3105    6757.1192    7415.4521    843.66282   -169.75416    1355.4552    -4168.194 
33999000    91.815146   -5186.4436   -5002.8019   -5186.4436            0    8448.2545    17.744006    22.755339    19.096408    7710.5734    8937.2675    7899.3268    8508.1693   -736.12742   -941.96817    608.55217   -4052.7889 
34000000    100.31113   -5183.0556    -4982.421   -5183.0556            0    8715.6219    17.795489    22.632308    19.119989    7700.6329    8057.7541    9042.7216    9046.3899   -404.14865   -83.070268    408.46262   -4003.6058 
Loop time of 549.05 on 64 procs for 250000 steps with 1008 atoms

Performance: 78.681 ns/day, 0.305 hours/ns, 455.332 timesteps/s
370.0% CPU use with 16 MPI tasks x 4 OpenMP threads

MPI task timing breakdown:
Section |  min time  |  avg time  |  max time  |%varavg| %total
---------------------------------------------------------------
Pair    | 42.431     | 44.088     | 46.61      |  18.7 |  8.03
Bond    | 1.6395     | 1.8447     | 2.325      |  14.2 |  0.34
Kspace  | 261.69     | 269.03     | 274.87     |  20.3 | 49.00
Neigh   | 1.106      | 1.1653     | 1.2369     |   3.4 |  0.21
Comm    | 69.63      | 78.312     | 84.504     |  46.9 | 14.26
Output  | 0.54746    | 0.54785    | 0.54929    |   0.1 |  0.10
Modify  | 116.22     | 121.7      | 128.13     |  33.5 | 22.17
Other   |            | 32.36      |            |       |  5.89

Nlocal:        63.0000 ave          65 max          61 min
Histogram: 2 0 6 0 0 2 0 2 0 4
Nghost:        3498.50 ave        3521 max        3485 min
Histogram: 2 2 5 1 1 3 0 0 1 1
Neighs:        21694.0 ave       22440 max       20938 min
Histogram: 2 0 5 1 2 0 0 2 1 3

Total # of neighbors = 347104
Ave neighs/atom = 344.34921
Ave special neighs/atom = 2.0000000
Neighbor list builds = 2455
Dangerous builds = 0

unfix		3
unfix		2
unfix		1

write_data	data.final.${pid}
write_data	data.final.1
System init for write_data ...
PPPM initialization ...
  extracting TIP4P info from pair style
  using 12-bit tables for long-range coulomb (../kspace.cpp:340)
  G vector (1/distance) = 0.37954563
  grid = 24 27 32
  stencil order = 5
  estimated absolute RMS force accuracy = 0.0024478369
  estimated relative force accuracy = 7.3715882e-06
  using double precision FFTW3
  3d grid and FFT values/proc = 7875 1344
Last active /omp style is kspace_style pppm/tip4p/omp
WARNING: Not all mixed pair coeffs generated from mixing. Use write_data with 'pair ij' option to store all pair coeffs. (../write_data.cpp:312)

write_restart   restart.lmp.${pid}
write_restart   restart.lmp.1
System init for write_restart ...
PPPM initialization ...
  extracting TIP4P info from pair style
  using 12-bit tables for long-range coulomb (../kspace.cpp:340)
  G vector (1/distance) = 0.37954563
  grid = 24 27 32
  stencil order = 5
  estimated absolute RMS force accuracy = 0.0024478369
  estimated relative force accuracy = 7.3715882e-06
  using double precision FFTW3
  3d grid and FFT values/proc = 7875 1344
Last active /omp style is kspace_style pppm/tip4p/omp
Total wall time: 0:09:09
