LAMMPS data file via write_data, version 30 Jul 2021, timestep = 3500000

1008 atoms
2 atom types
672 bonds
1 bond types
336 angles
1 angle types

-3.1691745939070426 14.77917359346125 xlo xhi
-0.3616426508132946 22.941641650809668 ylo yhi
0.029608806849710234 19.20038919315182 zlo zhi
0.03231652319497344 -6.718225361320971 0.027959977075690902 xy xz yz

Masses

1 1.008
2 15.999

Pair Coeffs # lj/cut/tip4p/long/omp

1 0 0
2 0.21084 3.1668

Bond Coeffs # harmonic/omp

1 450 0.9572

Angle Coeffs # harmonic/omp

1 55 104.52

Atoms # full

21 7 1 0.5897 1.0762089046792376 2.1002871397349656 1.0836358574599754 0 0 0
31 11 2 -1.1794 1.2781763971053781 0.9119585828471872 2.4271393917047495 0 0 0
32 11 1 0.5897 1.064209854593531 1.2245980961365672 3.306262072886895 0 0 0
55 19 2 -1.1794 -0.8832387864308751 4.041868054284222 3.4055319657110847 0 0 0
56 19 1 0.5897 -1.3987572932797971 3.331943018151878 3.022767092184645 0 0 0
57 19 1 0.5897 -0.11970740535174285 4.119452662215317 2.833403640985578 0 0 0
86 29 1 0.5897 -2.302349933899127 1.073068638376793 4.247373845548663 1 0 0
121 41 2 -1.1794 -2.523503744592149 1.9498319850147503 2.6902926120746833 1 0 0
122 41 1 0.5897 -2.3631851364296943 1.6028801786756577 1.8126209195662148 1 0 0
46 16 2 -1.1794 1.5739478336575772 4.589486945313385 2.3776112709526718 0 0 0
123 41 1 0.5897 -3.441163469834842 2.22165971799668 2.676992544166868 1 0 0
16 6 2 -1.1794 5.356732075507766 4.692675045194029 0.37208405241581505 0 0 0
527 176 1 0.5897 3.799159435466798 1.5407080943085478 0.5430769513322758 0 0 1
53 18 1 0.5897 4.508195518742951 2.6209290102111025 2.7997653445123825 0 0 0
482 161 1 0.5897 -1.0128546769628057 -0.34501439662391914 1.0962593429573948 1 1 0
47 16 1 0.5897 1.6761750671528537 5.130740237962105 1.5947461482894816 0 0 0
19 7 2 -1.1794 1.1594544972562852 2.476961218924064 0.20757611171618562 0 0 0
6 2 1 0.5897 3.581238924587728 1.0867357231888903 4.275978244613076 0 0 0
71 24 1 0.5897 2.9993105699780918 0.30391665514795596 1.9012939018208794 0 0 0
52 18 2 -1.1794 3.691157805061218 2.657518530734344 3.2971338647754416 0 0 0
54 18 1 0.5897 3.111169640624622 3.203070575725037 2.7659474660567667 0 0 0
33 11 1 0.5897 0.5391159088712207 0.3541839837817886 2.18427245831557 0 0 0
70 24 2 -1.1794 3.7313190176487865 0.03795220108205499 1.344774195982325 0 0 0
18 6 1 0.5897 4.89988190532743 3.854774207127491 0.29791862526906665 0 0 0
48 16 1 0.5897 1.6955617081519936 5.197219185329336 3.10713970439373 0 0 0
602 201 1 0.5897 -0.39092903800679 5.190797823367175 0.4810740142252956 1 0 1
158 53 1 0.5897 -4.1161956263367285 4.391368375628998 4.261369595345995 1 0 0
163 55 2 -1.1794 -2.020250430789725 0.9858893512801856 0.09875028347526194 1 0 0
78 26 1 0.5897 0.14431938467044292 2.715790688530436 4.65129539360142 0 0 0
526 176 2 -1.1794 3.8159056418192625 2.3598636057607933 0.04813307611080841 0 0 1
528 176 1 0.5897 2.9045299426712816 2.6521673247544597 0.03709943895135306 0 0 1
134 45 1 0.5897 -2.4954560262685495 2.235053786685514 6.583575869951484 1 0 0
135 45 1 0.5897 -1.730645768192295 3.3856278906994515 7.202765545244071 1 0 0
43 15 2 -1.1794 -0.30163585260820724 4.709606472836646 7.33629620279478 0 0 0
34 12 2 -1.1794 0.2915940947362281 1.0971887281007755 7.385936185049317 0 0 0
35 12 1 0.5897 0.5166076091368801 1.609183304078756 8.162850986520283 0 0 0
36 12 1 0.5897 -0.5445492403988479 0.685274499948141 7.603882781932713 0 0 0
522 174 1 0.5897 2.427231233825804 4.929249034937153 9.341883681567198 0 0 0
157 53 2 -1.1794 -3.5688109483406842 4.850240713230715 4.898649064166049 1 0 0
4 2 2 -1.1794 3.7710031206309855 0.4936382926465652 5.002931365655691 0 0 0
58 20 2 -1.1794 2.2282513815238545 3.863384288887434 5.980051748826924 0 0 0
59 20 1 0.5897 1.7277195581501719 3.1608675626848832 5.5649897264782116 0 0 0
85 29 2 -1.1794 -2.399503701193562 0.5308702641522337 5.030245681513902 1 0 0
44 15 1 0.5897 -0.15118625103944927 4.986975507551284 8.239992452730155 0 0 0
126 42 1 0.5897 -4.298869274000783 2.6841752657186846 7.563264295106668 1 0 0
45 15 1 0.5897 0.5744714019860444 4.550934502462691 6.984832823633096 0 0 0
133 45 2 -1.1794 -2.6163320451259184 3.096394361271067 6.983330808862386 1 0 0
69 23 1 0.5897 -2.535966678445088 0.8067407782073406 8.782936362295484 0 0 0
159 53 1 0.5897 -3.1915245753371693 4.1539914479500695 5.436324544449779 1 0 0
60 20 1 0.5897 2.9825035098250563 3.4221792133847924 6.370688591262867 0 0 0
67 23 2 -1.1794 -2.107830226256719 0.09615619364038741 8.305365255721737 0 0 0
124 42 2 -1.1794 -5.193224298708772 2.3882244335672547 7.733045206208439 1 0 0
77 26 1 0.5897 0.37840453841690014 1.6759867561665773 5.726443001272647 0 0 0
669 223 1 0.5897 -5.254816595780329 1.314064059630043 9.317713262401938 1 0 0
11 4 1 0.5897 2.561696414976912 5.359108059225912 4.837957778989088 0 0 0
68 23 1 0.5897 -2.8177279974530594 -0.33541861898787206 7.829884403409694 0 0 0
98 33 1 0.5897 -3.0672926574204546 4.958186765532558 8.918226204713259 1 0 0
76 26 2 -1.1794 0.6765673888505868 1.9476516828358732 4.8583141526220075 0 0 0
87 29 1 0.5897 -3.319661990515944 0.6265336409465919 5.275858964869901 1 0 0
402 134 1 0.5897 1.7356683244200362 -0.2320138677067995 7.491212976458937 0 1 0
125 42 1 0.5897 -5.746089357113563 3.106425511624571 7.42532053068105 1 0 0
22 8 2 -1.1794 0.40534960188224334 2.517645835786411 9.852183390053462 0 0 0
556 186 2 -1.1794 0.3802824957742619 3.4764543336852674 12.84073437947315 0 0 0
560 187 1 0.5897 -4.816795970276985 3.8124894360809494 12.548898397422281 0 0 0
550 184 2 -1.1794 -1.644422952278629 5.063732323850216 12.17796245602349 0 0 0
589 197 2 -1.1794 -6.01114318271048 0.881522180930294 14.359122610000213 1 0 0
557 186 1 0.5897 0.1455557178950455 2.613374332230482 13.181764684696857 0 0 0
574 192 2 -1.1794 0.5398734861689389 0.038254036219189436 11.319810713217665 0 0 0
662 221 1 0.5897 -7.813714557841734 4.169739060103472 14.301926719412052 1 0 0
535 179 2 -1.1794 -2.1033488927293913 0.8748944443821376 12.472447895397902 0 0 0
536 179 1 0.5897 -2.526267641930575 1.3166356094158758 13.208891984817376 0 0 0
537 179 1 0.5897 -2.212715066403435 1.4770305811114888 11.73642994544301 0 0 0
24 8 1 0.5897 1.0152035197463647 3.1509657101782267 10.230741429388331 0 0 0
625 209 2 -1.1794 -6.303688300485224 2.590723031688923 12.0877913803693 1 0 0
668 223 1 0.5897 -5.956743572103649 1.5199252969483796 10.643292796654142 1 0 0
627 209 1 0.5897 -7.223041754507227 2.851511849196282 12.142346938554732 1 0 0
552 184 1 0.5897 -2.5233851075638585 4.729053563043389 12.356023872342748 0 0 0
558 186 1 0.5897 -0.45913932660666923 3.900222404098991 12.661982250201026 0 0 0
559 187 2 -1.1794 -4.154110080777573 4.153967755121836 13.149317539114469 0 0 0
576 192 1 0.5897 0.051119235477846914 0.37648285383102853 12.070194541300697 0 0 0
97 33 2 -1.1794 -3.5574764199749422 4.899772694085119 9.738393034155502 1 0 0
626 209 1 0.5897 -6.20654101946603 1.9127741227296196 12.75652610655939 1 0 0
986 329 1 0.5897 -4.309057168410185 -0.23181826445557813 10.752525280876254 1 1 0
561 187 1 0.5897 -3.976758865158623 3.428879313628256 13.748492647168884 0 0 0
23 8 1 0.5897 0.48793880921471233 1.7429260334893417 10.408276397926105 0 0 0
667 223 2 -1.1794 -5.581323429346986 0.8406603412792781 10.08297169520335 1 0 0
663 221 1 0.5897 -7.0237359334708245 5.272220526913142 13.629164616765697 1 0 0
525 175 1 0.5897 -1.3937635095134429 2.6410851765052756 10.033502228416642 0 0 0
524 175 1 0.5897 -2.7949592350323744 3.2140077580001605 10.046737535694547 0 0 0
523 175 2 -1.1794 -2.313735071072237 2.3893556362639687 10.114343249922996 0 0 0
618 206 1 0.5897 -6.824423709903929 5.3668210325153565 11.430983372106441 1 0 0
587 196 1 0.5897 -0.7278713081606982 5.468437474640133 10.694775280481206 0 0 0
606 202 1 0.5897 -5.960946714924633 4.064530696956809 9.696839907505908 1 0 0
630 210 1 0.5897 -8.345944845430306 1.6863348577275636 16.197248460085923 1 0 0
590 197 1 0.5897 -5.923582756919396 1.5166082729713448 15.070014710473453 1 0 0
601 201 2 -1.1794 -7.405532064168504 4.5822333066930705 19.001207963694284 1 0 0
628 210 2 -1.1794 -8.121407312585903 2.345800811974655 16.853774747713466 1 0 0
548 183 1 0.5897 -3.8820329009277 5.316331066863706 16.682024094083488 0 0 0
571 191 2 -1.1794 -5.963473497580453 0.21848400428738213 18.09237744217917 0 0 0
639 213 1 0.5897 -5.710914017406318 3.5174951256288964 15.186334884015448 1 0 0
563 188 1 0.5897 -1.070823956210985 4.636741384652004 15.773193036078261 0 0 0
538 180 2 -1.1794 -3.5358696185463723 0.978089698669725 16.778419692859153 0 0 0
539 180 1 0.5897 -3.318055086389827 1.4216034355845577 17.59829813509731 0 0 0
164 55 1 0.5897 -8.466677008513878 1.5427652754194994 18.51939107895764 1 0 -1
540 180 1 0.5897 -4.442581937169957 0.6935093536549872 16.893089936800415 0 0 0
638 213 1 0.5897 -6.42281702379171 2.896303829878177 16.369315940925063 1 0 0
549 183 1 0.5897 -4.44863615675374 3.954711441460196 17.024183805377312 0 0 0
562 188 2 -1.1794 -1.1168399972405618 3.8668006204970453 16.340073942424084 0 0 0
547 183 2 -1.1794 -3.8244096273756387 4.613277655276194 17.329067874841684 0 0 0
564 188 1 0.5897 -1.8237655299040005 4.063245423162378 16.95488363594356 0 0 0
637 213 2 -1.1794 -5.562991383623725 2.9657667969960104 15.954428635228663 1 0 0
580 194 2 -1.1794 -2.671502161327453 2.334450497529402 14.576556353900981 0 0 0
582 194 1 0.5897 -1.9848111170092508 2.8429220919344176 15.00807714333495 0 0 0
581 194 1 0.5897 -3.172951940378984 1.949743174524932 15.295498971966753 0 0 0
20 7 1 0.5897 -5.900399728832033 1.8289286811954293 18.792970052789656 0 0 -1
629 210 1 0.5897 -8.648772761402057 3.10884601201935 16.6176100223961 1 0 0
165 55 1 0.5897 -9.29378086650462 0.3310005901924282 18.893120922388164 1 0 -1
510 170 1 0.5897 0.42494505598047816 1.3128225463153205 15.290865313669574 0 0 0
572 191 1 0.5897 -6.7228849360820835 -0.13651473394720484 17.630281876862085 0 0 0
508 170 2 -1.1794 0.4996059073619685 0.7191759750054731 14.543617939295668 0 0 0
593 198 1 0.5897 -7.800922509565586 0.5156280609710414 14.43423510315119 1 0 0
603 201 1 0.5897 -6.824828571074451 3.830518511840598 19.118951856991337 1 0 0
591 197 1 0.5897 -5.372392421695482 0.1995168155121393 14.566546398297442 1 0 0
661 221 2 -1.1794 -7.05926993664259 4.745350973529166 14.427565995177474 1 0 0
101 34 1 0.5897 -9.253699087687117 4.685428016965895 19.041394794485583 1 0 -1
289 97 2 -1.1794 -2.679566738637099 9.996680084000895 2.5459871356536445 1 0 0
332 111 1 0.5897 -2.2747104776266935 9.289144138879356 0.7894150073520009 1 0 0
255 85 1 0.5897 -2.2210220571524326 8.823626235954503 4.041881197984876 1 0 0
238 80 2 -1.1794 3.6280713737905765 8.043937583780059 1.7352982460375586 0 0 0
146 49 1 0.5897 -1.653785992401164 6.614247463136981 2.0400082324859907 1 0 0
145 49 2 -1.1794 -0.8242602718633947 6.777630896048065 1.5911112099576328 1 0 0
291 97 1 0.5897 -3.546642892003484 10.335702198823407 2.7684026263114934 1 0 0
188 63 1 0.5897 1.139292860949162 9.949874160902144 1.5034897640663343 0 0 0
200 67 1 0.5897 0.43282133785997123 7.8916127150622 2.218496677107638 0 0 0
199 67 2 -1.1794 1.013369355623067 8.569647163403697 2.564269431918915 0 0 0
112 38 2 -1.1794 -3.4811623632537874 6.2956706620244045 2.4795338256724486 1 0 0
147 49 1 0.5897 -1.0072058980271885 7.515711348826904 1.009735485556681 1 0 0
239 80 1 0.5897 3.860914122869641 8.789175657921234 1.1814759875360752 0 0 0
221 74 1 0.5897 4.387322202868554 10.445719323911158 2.8627705306370292 0 0 0
224 75 1 0.5897 -0.1328382584999721 10.974014369028664 3.9916672576921637 0 0 0
201 67 1 0.5897 1.8946024700225088 8.262253806036094 2.3517621305675904 0 0 0
113 38 1 0.5897 -3.4175042857764986 5.7490745375598165 3.2627513679404556 1 0 0
174 58 1 0.5897 3.665236146237749 9.127579279934716 4.601025745309693 0 0 0
290 97 1 0.5897 -2.069802072677702 10.599743760553421 2.9711963251232008 1 0 0
245 82 1 0.5897 1.0327810218047162 9.42450289275159 4.389647024552502 0 0 0
694 232 2 -1.1794 3.9356113656214964 10.27895173671742 0.31728194706495844 0 0 1
189 63 1 0.5897 1.9152826489571133 10.747860599960642 0.4772291812209826 0 0 0
240 80 1 0.5897 3.428059335159201 7.339765409543843 1.1184535713794108 0 0 0
696 232 1 0.5897 4.5931391877778545 10.966899935859125 0.21387268936630896 0 0 1
220 74 2 -1.1794 3.7831496930127404 10.739510007345352 3.5446501743502545 0 0 0
187 63 2 -1.1794 1.0357990965531831 10.430308473047601 0.6820721226731166 0 0 0
10 4 2 -1.1794 2.3267517439546666 6.180960399268833 4.407164705798807 0 0 0
331 111 2 -1.1794 -1.9752955595005206 8.708365208081442 0.08986378750126926 1 0 0
173 58 1 0.5897 3.3557953389510358 7.653290678467357 4.752043497815831 0 0 0
12 4 1 0.5897 1.4424817913274586 6.371629207618558 4.720136032154893 0 0 0
9 3 1 0.5897 -0.8961630212029643 5.63107423244284 4.474435476715727 0 0 0
82 28 2 -1.1794 2.2710252710749588 6.379871011763811 0.062298884701530596 0 0 0
114 38 1 0.5897 -3.418943753501397 5.678528544833455 1.7504010198147424 1 0 0
191 64 1 0.5897 0.6796930837093358 9.57891225210316 8.83020447836627 0 0 0
301 101 2 -1.1794 -2.313858974494689 10.478819956338333 6.646451976243076 1 0 0
246 82 1 0.5897 0.5410761098062857 9.430677970585826 5.821579215718312 0 0 0
109 37 2 -1.1794 -3.9473748094152583 6.559404674781922 6.879674041919552 1 0 0
293 98 1 0.5897 -3.9841582104675846 10.595248392808513 7.152037947412345 1 0 0
65 22 1 0.5897 2.686200487349134 7.222546618282393 8.650805853324476 0 0 0
257 86 1 0.5897 -4.403229137677882 8.442334609550494 5.388095268170372 1 0 0
835 279 2 -1.1794 -5.607523606986874 9.128201769496972 9.427561917877604 1 0 0
110 37 1 0.5897 -3.846188154244624 5.992591550773058 6.114926339394634 1 0 0
294 98 1 0.5897 -5.139052556578617 10.293401538414717 8.083314591740928 1 0 0
292 98 2 -1.1794 -4.9264978937232975 10.726695252069824 7.256626595811672 1 0 0
8 3 1 0.5897 -0.5460139672333999 5.91598377253544 5.919551683951988 0 0 0
64 22 2 -1.1794 2.4508637955253487 6.4848189956847015 8.088023277063279 0 0 0
202 68 2 -1.1794 0.3822736864740457 8.312463679133394 7.3273317591305 0 0 0
203 68 1 0.5897 -0.33924178910507674 7.998997856010263 7.872754387052005 0 0 0
204 68 1 0.5897 1.0472494006466881 7.627036821040853 7.391927964761694 0 0 0
837 279 1 0.5897 -6.039564434856345 8.520639810379027 8.827103065119003 1 0 0
235 79 2 -1.1794 -1.976221176963917 7.50557224111374 8.418825560438066 0 0 0
236 79 1 0.5897 -2.6105996139187253 7.2602237269208025 7.745299492559467 0 0 0
237 79 1 0.5897 -2.4355836023461483 8.149255957253754 8.958236891904546 0 0 0
302 101 1 0.5897 -2.121658674323742 9.782168499177851 6.018692569765117 1 0 0
172 58 2 -1.1794 3.6704349744468026 8.414581070791597 5.239682294251503 0 0 0
303 101 1 0.5897 -1.46521729739267 10.886023372784624 6.820421155330985 1 0 0
111 37 1 0.5897 -4.855013635641958 6.430888061177962 7.155244459367183 1 0 0
7 3 2 -1.1794 -0.46796002893790467 6.276945063057843 5.0364325735495346 0 0 0
253 85 2 -1.1794 -2.186726260054293 8.476645749263024 4.933356178499934 1 0 0
244 82 2 -1.1794 0.8661902627941851 10.007579209758584 5.130345953912097 0 0 0
588 196 1 0.5897 -1.0207845497434294 6.312313536247063 9.472470300486602 0 0 0
254 85 1 0.5897 -1.6266466854240407 7.703202805723894 4.8683421759486345 1 0 0
759 253 1 0.5897 -5.7722686965281005 8.943554061486367 13.508308536280792 1 0 0
551 184 1 0.5897 -1.4064481327831384 5.546327366387713 12.969687916292207 0 0 0
836 279 1 0.5897 -5.051120208780371 8.571903458841222 9.972654687302846 1 0 0
99 33 1 0.5897 -3.8600474424777573 5.7931467296656995 9.901334019336495 1 0 0
742 248 2 -1.1794 0.19974405362584946 7.934984137616176 11.781945921273408 0 0 0
750 250 1 0.5897 -3.4098364274517383 10.42391754899403 14.281827140140404 0 0 0
724 242 2 -1.1794 0.23262266419998667 10.784861997798467 12.93525249875443 0 0 0
693 231 1 0.5897 -2.2861612240474587 9.416896345583153 10.934858730695808 0 0 0
649 217 2 -1.1794 -4.264590745797138 7.268052301803698 10.935210696256412 1 0 0
650 217 1 0.5897 -3.526598874101444 7.463733213371329 11.51255598688718 1 0 0
651 217 1 0.5897 -4.856166248106419 6.740772720288147 11.472189013624787 1 0 0
795 265 1 0.5897 -6.132214892919675 10.085982401518608 11.206549817149721 1 0 0
744 248 1 0.5897 0.13364955120213207 7.13335528388803 11.262934233075251 0 0 0
793 265 2 -1.1794 -6.162515243988334 10.148471788814637 12.161293825187002 1 0 0
616 206 2 -1.1794 -6.579767760217106 5.988337088235906 12.116713759547132 1 0 0
190 64 2 -1.1794 0.5401258129950359 10.031443950465214 9.662131717590514 0 0 0
703 235 2 -1.1794 -2.2384857727353085 8.506026749815177 12.50278339720888 0 0 0
704 235 1 0.5897 -1.3422894775841252 8.18544747989578 12.401555628516281 0 0 0
705 235 1 0.5897 -2.215592753019486 9.034881150645276 13.300385124778037 0 0 0
743 248 1 0.5897 0.36276431345987525 8.624697328941638 11.138497762712973 0 0 0
794 265 1 0.5897 -5.360937125038223 10.61571187656743 12.396768458907255 1 0 0
757 253 2 -1.1794 -5.595028270604326 8.4751645135407 14.324064829312254 1 0 0
692 231 1 0.5897 -1.4235853322109207 9.89081060331122 9.784385553501112 0 0 0
617 206 1 0.5897 -7.155470833496064 6.739958679323188 11.975949334237779 1 0 0
586 196 2 -1.1794 -0.2996958713268194 5.966610583606257 9.998485298102155 0 0 0
192 64 1 0.5897 1.2791707896291138 10.635598572549654 9.733658405059149 0 0 0
691 231 2 -1.1794 -2.32773395785563 9.676658210688624 10.014466028661877 0 0 0
614 205 1 0.5897 -7.395259639533416 5.739393906046971 17.614965151206206 1 0 0
695 232 1 0.5897 -3.0039992262620485 10.050017500558056 18.592882505159672 0 0 0
741 247 1 0.5897 -6.019279969653519 9.15441686759406 18.209104209558603 0 0 0
570 190 1 0.5897 -0.6945345104621881 7.175171371393713 17.257986755687995 0 0 0
740 247 1 0.5897 -6.566213544816026 7.854513786543622 17.658401410888466 0 0 0
83 28 1 0.5897 -4.868083903494727 7.050262469862517 18.66181982129749 0 0 -1
568 190 2 -1.1794 -1.1517378395940954 7.317542381108366 18.08683218146455 0 0 0
615 205 1 0.5897 -7.146710652169767 5.761792643950768 16.12166737322272 1 0 0
797 266 1 0.5897 -7.3744921540222785 10.835801940951907 16.79513207645089 1 0 0
798 266 1 0.5897 -8.403160000687143 9.77430399002615 16.467752081132787 1 0 0
749 250 1 0.5897 -3.057044108308081 9.611421902754541 15.50955791560078 0 0 0
613 205 2 -1.1794 -7.410115962961399 6.319509640743404 16.853728097121255 1 0 0
676 226 2 -1.1794 0.13932970039684545 8.533926149563179 15.155827510592575 0 0 0
758 253 1 0.5897 -5.5978571625127325 9.155803367798592 14.997178104205432 1 0 0
796 266 2 -1.1794 -8.196462956942387 10.456678999484156 17.106492624101065 1 0 0
706 236 2 -1.1794 -3.210582995425523 8.988078519124409 17.183426475972446 0 0 0
707 236 1 0.5897 -4.113164014983742 8.713994947297955 17.346182251792996 0 0 0
708 236 1 0.5897 -2.6856166915694715 8.2109761380629 17.37498291580564 0 0 0
739 247 2 -1.1794 -5.755770982349821 8.354988019855899 17.75327006162906 0 0 0
569 190 1 0.5897 -1.2089578940143868 6.447556397817117 18.481953776882733 0 0 0
84 28 1 0.5897 -4.044692815455043 5.780225884463708 18.632742616842464 0 0 -1
805 269 2 -1.1794 -5.6418186645012085 10.806854890484582 15.753112425050947 1 0 0
333 111 1 0.5897 -8.684214383616686 9.287815557702425 18.478303314856994 1 0 -1
760 254 2 -1.1794 -8.333599007936872 8.576710446469603 14.990858506059526 1 0 0
515 172 1 0.5897 -2.3889584306543865 6.388735045815338 14.783317324418523 0 0 0
512 171 1 0.5897 -4.693364806552649 7.105083850158724 14.786246296885304 0 0 0
511 171 2 -1.1794 -4.119322289064903 6.379076137525154 15.03029390461077 0 0 0
731 244 1 0.5897 -1.574878815321874 11.133060379865096 15.775049450451077 0 0 0
748 250 2 -1.1794 -2.66663963210717 10.043049593533434 14.749542251411865 0 0 0
516 172 1 0.5897 -1.0230689760644935 6.969818539848377 15.081117310718119 0 0 0
514 172 2 -1.1794 -1.4588674390245941 6.1636382207295295 14.804562015257432 0 0 0
513 171 1 0.5897 -4.372373908925194 5.665592565043142 14.444408276660774 0 0 0
762 254 1 0.5897 -7.407987116187157 8.36417019513381 14.871345145976006 1 0 0
806 269 1 0.5897 -6.071176018934826 11.28161281154444 15.041442621499861 1 0 0
678 226 1 0.5897 -0.12351570353961261 9.150108309559075 14.47211330653329 0 0 0
281 94 1 0.5897 -3.2472709850323205 13.48827107496352 3.345872018112234 1 0 0
282 94 1 0.5897 -2.60877395342751 14.365672388491927 2.2900946042734915 1 0 0
313 105 2 -1.1794 -0.7458233864415416 14.696962560663364 1.7750526610009718 1 0 0
315 105 1 0.5897 -0.6692761998140577 13.80835905028725 1.4274770439975246 1 0 0
225 75 1 0.5897 -0.6126141758520345 12.409498718289328 4.02526806993974 0 0 0
314 105 1 0.5897 0.07244600285079006 14.840019826852545 2.2506518086417704 1 0 0
500 167 1 0.5897 -1.6738183165210492 16.042433401665846 0.6767983855617438 1 0 0
280 94 2 -1.1794 -3.4405173564467066 14.197892650203498 2.73322618421779 1 0 0
250 84 2 -1.1794 2.3542289070618514 13.694319465369086 0.3350299116355119 0 0 0
252 84 1 0.5897 2.9273623051983817 14.339124800159214 0.749837142620119 0 0 0
222 74 1 0.5897 3.266568157807817 11.428520566119104 3.1268612651913217 0 0 0
369 123 1 0.5897 1.3240685219467032 16.494994599520876 3.639451588508591 0 0 0
216 72 1 0.5897 1.1521073997243088 12.069279609662996 2.8350783582607813 0 0 0
770 257 1 0.5897 -1.7010087091962578 12.382473409529815 0.10534586434791039 1 0 1
406 136 2 -1.1794 3.967354184337263 15.494548723163865 1.7257542090563975 0 0 0
367 123 2 -1.1794 1.421027140750768 15.982830325132802 2.836568315552972 0 0 0
215 72 1 0.5897 1.9079224515843656 12.974667426675497 1.8857635100981216 0 0 0
407 136 1 0.5897 4.7716082091787655 15.208202649576968 2.1585782820973436 0 0 0
368 123 1 0.5897 2.358915210303497 16.00892692471064 2.6470725276461606 0 0 0
223 75 2 -1.1794 -0.6280140346451546 11.618594633762608 3.486204844031859 0 0 0
214 72 2 -1.1794 1.9416338952201375 12.606447999733048 2.76870796308838 0 0 0
408 136 1 0.5897 4.26212272692263 16.11028173258298 1.054715934394264 0 0 0
180 60 1 0.5897 2.2622582336361337 13.681336188658 4.192109745107965 0 0 0
423 141 1 0.5897 -2.1308952573016473 16.176762188845437 4.004977476115268 1 0 0
499 167 2 -1.1794 -2.400990124786267 16.5249279555593 0.28363817998610935 1 0 0
771 257 1 0.5897 -0.32824231121266134 11.74506799803254 0.07365953082265361 1 0 1
356 119 1 0.5897 0.9800529193504186 17.06284201381753 1.1909237970005397 0 0 0
251 84 1 0.5897 1.5676245295730364 14.187299193605988 0.10184454712034291 0 0 0
404 135 1 0.5897 -1.7578895714178824 15.793193802127252 7.780328486573251 0 0 0
756 252 1 0.5897 -1.6997602997643173 14.565427316882861 9.24449850640986 0 0 0
422 141 1 0.5897 -2.2191422484507823 17.039000970626734 5.246343678039001 1 0 0
370 124 2 -1.1794 -0.015512309509589262 16.17494271713783 7.372767820285744 0 0 0
326 109 1 0.5897 -3.1934841770723565 11.77391317736956 5.538926874318052 1 0 0
211 71 2 -1.1794 -0.5128473666457958 12.375938556861 7.405702158681764 0 0 0
371 124 1 0.5897 0.10121650799183035 16.91291574317979 7.971172103010036 0 0 0
213 71 1 0.5897 -0.8340971126065582 12.96946990338566 6.726922829956879 0 0 0
212 71 1 0.5897 -0.6910536223114945 12.832633140747514 8.227909926801082 0 0 0
372 124 1 0.5897 0.2882188583408767 16.502180453997163 6.52600536656561 0 0 0
232 78 2 -1.1794 1.8179861678153344 14.149740880091974 8.36384188232599 0 0 0
327 109 1 0.5897 -3.968124288619673 12.992855446816865 5.992846869328208 1 0 0
234 78 1 0.5897 1.2739210306500324 14.679359866038757 7.781022679725627 0 0 0
226 76 2 -1.1794 2.308687341204985 11.88590271055375 6.684395764989562 0 0 0
405 135 1 0.5897 -2.72260779564463 16.456563483509065 8.740191332196465 0 0 0
277 93 2 -1.1794 -4.478939282867519 13.832648330327649 7.4368609375295085 1 0 0
278 93 1 0.5897 -3.881680790832055 14.564255136232447 7.592949663778716 1 0 0
1004 335 1 0.5897 -5.236256298450938 16.748477665431654 8.910595905435699 1 0 0
690 230 1 0.5897 1.8896151252467117 12.817464123134876 9.372889032689782 0 0 0
403 135 2 -1.1794 -2.608472464453711 15.6727966244225 8.202580843133022 0 0 0
227 76 1 0.5897 1.5309369411343612 12.065127014717834 7.2128671996845375 0 0 0
267 89 1 0.5897 -3.6731116527450896 12.344490846341227 9.041493633444475 1 0 0
279 93 1 0.5897 -5.350652937933007 14.198140616870285 7.587638347361271 1 0 0
177 59 1 0.5897 0.32626769065517003 14.360214075977435 5.106491188871122 0 0 0
179 60 1 0.5897 2.3858070082011693 13.453042135201779 5.6836746567654695 0 0 0
175 59 2 -1.1794 -0.5331436687099291 13.946996777508037 5.023217346698883 0 0 0
233 78 1 0.5897 2.488942765802669 13.776383431625675 7.792233519659824 0 0 0
178 60 2 -1.1794 2.307411184747994 14.145901984791807 5.027883544676643 0 0 0
325 109 2 -1.1794 -3.718578641811332 12.50307125661449 5.209141264086126 1 0 0
176 59 1 0.5897 -1.1563819462130605 14.66456878892988 5.1366888047286094 0 0 0
341 114 1 0.5897 3.5433422321644032 15.490701004996593 5.072293136462543 0 0 0
340 114 2 -1.1794 3.992424261484409 16.33529376814911 5.0360128366537 0 0 0
425 142 1 0.5897 -4.14515059733199 16.11388127309295 5.0955768335093925 1 0 0
421 141 2 -1.1794 -2.1041949905537973 16.13259244048183 4.960842623538432 1 0 0
462 154 1 0.5897 -4.952381302795623 17.022414153383096 6.9013144132802555 1 0 0
228 76 1 0.5897 1.9982216568930964 11.305175592849025 5.989614304963747 0 0 0
728 243 1 0.5897 -3.2692627546077055 11.865227658093051 12.457306462689829 0 0 0
912 304 1 0.5897 1.2089353420712197 15.253726075315127 11.798569802693569 0 0 0
755 252 1 0.5897 -0.4565893307432032 14.543595200270856 10.108147289553251 0 0 0
718 240 2 -1.1794 -1.5612778844538422 12.318227379051212 11.823641965546601 0 0 0
784 262 2 -1.1794 -6.550925643030099 13.937239929245623 11.823734445929963 1 0 0
720 240 1 0.5897 -1.4155962370361008 13.044437035215148 12.430071931325408 0 0 0
871 291 2 -1.1794 -2.1769575892442603 16.769628190196613 12.25593119719529 0 0 0
680 227 1 0.5897 -2.7316609014183584 14.057974644416694 14.295435497337403 0 0 0
719 240 1 0.5897 -1.4699628230297823 12.709165516090694 10.954667161157635 0 0 0
727 243 2 -1.1794 -4.073506940425711 11.738091796245062 12.96061928179214 0 0 0
729 243 1 0.5897 -4.367597753184126 12.624394788118584 13.17097268908158 0 0 0
911 304 1 0.5897 -0.1466418422936293 15.898567880206151 11.994394654352664 0 0 0
910 304 2 -1.1794 0.4321492187296756 15.542988602989574 11.319944904120492 0 0 0
785 262 1 0.5897 -7.177325389087883 14.660521885344789 11.79781743738626 1 0 0
1005 335 1 0.5897 -4.583644793089871 15.851316829188498 9.940661679701474 1 0 0
754 252 2 -1.1794 -1.0773156784233793 13.968833613612256 9.660187230127411 0 0 0
786 262 1 0.5897 -6.880053373948575 13.359299913591766 12.512204619417146 1 0 0
817 273 2 -1.1794 -3.8999742523901637 14.562162830514579 11.27787870469695 1 0 0
818 273 1 0.5897 -4.796479647917099 14.529546909855226 11.611746255523673 1 0 0
819 273 1 0.5897 -3.7071821571503265 13.660840754642273 11.019564895008086 1 0 0
873 291 1 0.5897 -2.8492960269792382 16.099996196621916 12.381880949171878 0 0 0
688 230 2 -1.1794 2.2618885727103333 12.16397523228639 9.964976696303664 0 0 0
725 242 1 0.5897 0.7140402247301596 11.392090714833758 13.497244050287827 0 0 0
925 309 2 -1.1794 -5.662136803411552 16.40895973637076 13.938574831607813 1 0 0
682 228 2 -1.1794 -0.9637510974349466 13.854012324389547 14.056661142135308 0 0 0
359 120 1 0.5897 0.5200965888649702 17.029404215730068 10.193463997248248 0 0 0
773 258 1 0.5897 -6.707291477729791 12.625115604302263 10.55413338225013 1 0 0
926 309 1 0.5897 -5.183073496409788 15.634212139203228 14.232578680785684 1 0 0
265 89 2 -1.1794 -3.8466219963632007 11.992518707155705 9.914601949241396 1 0 0
684 228 1 0.5897 -0.5912405066576669 14.695613170119994 14.319816288810959 0 0 0
930 310 1 0.5897 -7.770707753807494 16.05139996518652 14.116147991000364 1 0 0
774 258 1 0.5897 -5.751978302566464 11.910458807212832 9.622100871307348 1 0 0
829 277 2 -1.1794 -7.219413657037464 12.524096659713736 14.230443631933502 1 0 0
831 277 1 0.5897 -7.894094606752997 11.877400259847084 14.023353061964341 1 0 0
726 242 1 0.5897 -0.4117805969086561 11.332457342994115 12.48686862202532 0 0 0
266 89 1 0.5897 -3.187028533577268 11.309140244101187 10.033262446024649 1 0 0
1003 335 2 -1.1794 -5.434506156753592 16.19011644777122 9.662430750086381 1 0 0
738 246 1 0.5897 -0.8687776999626582 14.22772189840331 17.155726535150812 0 0 0
730 244 2 -1.1794 -1.3294144833544683 11.845478498708978 16.36543271660006 0 0 0
717 239 1 0.5897 -3.1448073470789932 12.609175463980836 16.900943012622506 0 0 0
927 309 1 0.5897 -5.745810264432105 16.951371394101564 14.722899246390226 1 0 0
185 62 1 0.5897 -1.18663712764661 13.09189019778973 19.0004638152341 0 0 -1
681 227 1 0.5897 -3.7279116154624408 13.803046979839687 15.406591837211092 0 0 0
807 269 1 0.5897 -5.022019290782156 11.436299503580143 16.121854395655326 1 0 0
736 246 2 -1.1794 -1.5122640482267276 14.527605236748945 17.797852875640153 0 0 0
715 239 2 -1.1794 -4.044487474943634 12.921376863400592 16.997324641042496 0 0 0
716 239 1 0.5897 -4.104076884715432 13.203867177037854 17.910022110449447 0 0 0
874 292 2 -1.1794 -3.495823850504255 16.430767210976907 16.901684312497764 0 0 0
907 303 2 -1.1794 -6.007496893195762 15.45023415254186 17.827002159546403 0 0 0
501 167 1 0.5897 -8.704089875833933 17.13882453289264 18.821416800820238 1 0 -1
876 292 1 0.5897 -2.9874602691126224 15.622957442089128 16.973881843231993 0 0 0
875 292 1 0.5897 -3.186223900658822 16.837616577277714 16.092393470632032 0 0 0
909 303 1 0.5897 -5.239120825436691 15.664842729686509 17.297983996014523 0 0 0
781 261 2 -1.1794 -7.894157632605254 13.803605062325923 16.602089026563938 1 0 0
782 261 1 0.5897 -7.710645771490736 13.440864866807857 17.46870436583003 1 0 0
830 277 1 0.5897 -7.620349423057484 13.085012824937245 14.894482691758625 1 0 0
908 303 1 0.5897 -6.570684450358705 14.946861642617462 17.23899115818991 0 0 0
683 228 1 0.5897 -0.5733793983998199 13.220122402430297 14.65832422218899 0 0 0
844 282 2 -1.1794 0.21905207132062898 16.34475083039172 14.814107923093482 0 0 0