LAMMPS data file via write_data, version 30 Jul 2021, timestep = 13000000

864 atoms
2 atom types
576 bonds
1 bond types
288 angles
1 angle types

0.6510640331424025 17.556508366859397 xlo xhi
1.8583987025297581 21.770779097472484 ylo yhi
0.7942965997222871 21.41889920027621 zlo zhi

Masses

1 1.00794
2 15.9994

Pair Coeffs # lj/cut/tip4p/long/omp

1 0 0
2 0.21084 3.1668

Bond Coeffs # harmonic/omp

1 450 0.9572

Angle Coeffs # harmonic/omp

1 55 104.52

Atoms # full

248 1 1 0.5897 1.773478530565955 2.4642986881216813 2.569654322185272 1 2 -1
328 1 2 -1.1794 4.1059105758955035 4.414782796749038 1.2676454418248573 5 7 -1
660 1 1 0.5897 2.6932080135695045 6.67942352364976 2.7663706851384244 -2 -1 0
407 1 1 0.5897 1.5732856192135467 5.6981949084857035 4.22414150408126 -3 -4 4
406 1 2 -1.1794 2.1768456892469255 5.2704248610131 4.831561513401319 -3 -4 4
155 1 1 0.5897 3.8178439090631295 4.744378887533767 4.906325794526036 1 0 -6
329 1 1 0.5897 4.237019463822641 5.118216110193853 1.9034244387551698 5 7 -1
358 1 2 -1.1794 2.0001868911850615 2.5672593863069406 5.325207060027978 6 2 -1
359 1 1 0.5897 1.8420051153126313 3.4761268282474456 5.069849711485304 6 2 -1
408 1 1 0.5897 2.346879582316375 5.92929506204907 5.504779290013984 -3 -4 4
247 1 2 -1.1794 1.3335374297972404 2.957669734714491 1.8773544156020279 1 2 -1
156 1 1 0.5897 4.614073537738321 3.5169073882869966 5.295187027602806 1 0 -6
658 1 2 -1.1794 3.599752996724783 6.814232337387916 2.490274032946686 -2 -1 0
541 1 2 -1.1794 0.8179846030146767 6.691085685096596 2.959681161501942 -4 0 2
518 1 1 0.5897 4.060471187835135 2.624608076345163 1.9576669375504077 1 2 -5
154 1 2 -1.1794 4.710934141099143 4.442849243858067 5.0727436421842835 1 0 -6
330 1 1 0.5897 3.282349814310544 4.635135896731164 0.8323539744748807 5 7 -1
585 1 1 0.5897 2.290118965723841 3.818468904931262 8.267684493116867 3 -3 4
521 1 1 0.5897 3.0742121690762576 5.958348304446537 7.4148930266331226 -4 1 -5
360 1 1 0.5897 2.5207764905401255 2.6301367349550215 6.126007554203067 6 2 -1
514 1 2 -1.1794 0.9025520651970049 2.920982734948737 9.03495770864773 -4 -2 1
706 1 2 -1.1794 4.583098255355518 4.533479929241194 10.519955138322903 -2 0 -5
704 1 1 0.5897 2.381346474329132 2.098437134558722 9.978844976543119 3 4 -3
635 1 1 0.5897 1.3720924764769606 4.759976377865654 10.314351620667631 -8 3 1
583 1 2 -1.1794 3.0583591202789595 3.9766594966756426 7.719024775411398 3 -3 4
584 1 1 0.5897 3.7739994322664923 3.533255491138487 8.174535103513664 3 -3 4
515 1 1 0.5897 0.7359740720037777 2.294182507285186 8.330965213413034 -4 -2 1
520 1 2 -1.1794 2.730331160790089 6.804685430422 7.129093164916547 -4 1 -5
708 1 1 0.5897 3.6744763949202017 4.500466597623603 10.819194057824589 -2 0 -5
251 1 1 0.5897 0.6661366657065751 1.9895829786336716 6.219764106135902 5 -2 2
181 1 2 -1.1794 3.960681870119331 5.36348639303742 13.695765687022183 -7 3 -4
674 1 1 0.5897 1.7739708106209364 5.3977357231052245 15.232493341486306 -3 -2 1
497 1 1 0.5897 3.6950577419120556 6.807953733173457 12.701967795656657 -1 0 0
673 1 2 -1.1794 1.753778365541329 6.308874810381913 15.525165066841383 -3 -2 1
182 1 1 0.5897 4.765285588475544 5.326952246592295 14.212978991079666 -6 3 -4
566 1 1 0.5897 3.562337189257705 2.219688958367984 12.10395976373431 -2 9 -6
183 1 1 0.5897 3.7823779849714487 4.451879983781706 13.464631000558107 -7 3 -4
765 1 1 0.5897 2.135455525747072 2.7510452392585654 15.324482742851004 -5 -2 -4
567 1 1 0.5897 4.114238396697434 2.3353156411721634 13.508943123489495 -2 9 -6
636 1 1 0.5897 1.4976595010280809 5.739700290114362 11.461629589876212 -8 3 1
565 1 2 -1.1794 3.8200164105570638 2.8616688480193613 12.765556490603116 -2 9 -6
763 1 2 -1.1794 1.4415077028482521 3.4087715900864914 15.370039467801202 -5 -2 -4
822 1 1 0.5897 0.9032391218581304 4.103005934542887 12.293730457885012 2 2 5
821 1 1 0.5897 0.7549873647796638 3.5463900537872197 13.693756403901528 2 2 5
675 1 1 0.5897 2.567331166619579 6.686433052294044 15.190710391795333 -3 -2 1
764 1 1 0.5897 1.0968719348991471 3.332783544981445 16.2598002517841 -5 -2 -4
507 1 1 0.5897 3.699382082637578 1.9273177746383192 16.20125250312805 8 0 -4
634 1 2 -1.1794 1.7939309959000052 4.879101227650893 11.16528431200243 -8 3 1
485 1 1 0.5897 3.4666485616154756 3.561247206815537 17.75702548037348 -3 4 2
244 1 2 -1.1794 1.9655323153003545 5.2990309030450575 20.524786916150926 -2 4 0
845 1 1 0.5897 1.4196169515475934 2.048675226708694 20.92404857049434 3 -1 4
486 1 1 0.5897 2.99084385062233 2.8118786135735254 18.983405990297104 -3 4 2
158 1 1 0.5897 3.506528642650566 6.522218776952668 20.03240267571104 0 1 0
159 1 1 0.5897 3.9757804634607803 6.376699151729663 18.60043320677825 0 1 0
246 1 1 0.5897 1.5137948555359066 6.104882908505322 20.27426697000434 -2 4 0
484 1 2 -1.1794 3.3157205137060526 2.6777599438006727 18.093065221677037 -3 4 2
410 1 1 0.5897 2.8116281412461537 5.6513978060205154 16.704283158085588 6 -3 -4
409 1 2 -1.1794 3.5624118814991728 5.225328969973157 17.117832986219394 6 -3 -4
411 1 1 0.5897 4.3102582048034215 5.478919118165308 16.576869379237806 6 -3 -4
245 1 1 0.5897 1.3091362496687258 4.7957925910430035 21.00657493827135 -2 4 0
844 1 2 -1.1794 1.300738094747053 1.942459446128064 19.980220175571905 3 -1 4
467 1 1 0.5897 2.2427934415735447 9.759986735572776 2.369917906952824 10 -3 10
783 1 1 0.5897 4.444641879013197 9.896641363757928 2.3027397156653793 -2 2 0
543 1 1 0.5897 0.8143829474652167 7.552372262273648 2.542060524056133 -4 0 2
852 1 1 0.5897 1.656906267956328 8.931504757591807 4.173083443140179 -4 0 -2
466 1 2 -1.1794 1.334790804074074 9.497885274221517 2.2179978071396818 10 -3 10
850 1 2 -1.1794 1.2711847867155375 9.007090410060535 5.045857372066067 -4 0 -2
468 1 1 0.5897 0.9935760738581634 10.155106154646266 1.6114788635647352 10 -3 10
659 1 1 0.5897 4.060194896378547 7.063239395142503 3.29166966664439 -2 -1 0
782 1 1 0.5897 4.172495729837705 10.81815669030261 3.472641255798909 -2 2 0
781 1 2 -1.1794 3.830725104104987 10.5606888365921 2.6163956289313726 -2 2 0
379 1 2 -1.1794 4.592881002722335 11.450689064431657 5.011879964089767 4 2 -1
841 1 2 -1.1794 4.716934907663349 8.008493254880566 5.046423047149787 -4 2 2
851 1 1 0.5897 0.6895817372060975 8.250232358720824 5.117557183928797 -4 0 -2
294 1 1 0.5897 2.9717157531606193 8.172252657317241 8.351245703772125 4 -1 2
293 1 1 0.5897 3.4279581790173386 9.615738841299635 8.360323546781899 4 -1 2
272 1 1 0.5897 1.9053313647463666 11.198167777761814 10.154622309545259 -3 2 6
292 1 2 -1.1794 3.233851736957321 8.879573349261797 8.940515887145306 4 -1 2
233 1 1 0.5897 2.2853102532719918 10.007577186143623 6.296083746039944 -4 -2 -2
522 1 1 0.5897 3.383388335235116 7.13269859765503 6.51090245386161 -4 1 -5
271 1 2 -1.1794 1.2651637649679746 10.763342190886512 9.59126725010403 -3 2 6
213 1 1 0.5897 1.058477198753638 8.032924158099345 7.47115291215044 3 1 -1
232 1 2 -1.1794 2.752916301471135 10.576101304922194 6.9079228549691996 -4 -2 -2
234 1 1 0.5897 3.5083081935948033 10.892248961851763 6.41228312588988 -4 -2 -2
273 1 1 0.5897 1.7354853590801356 10.012785554142003 9.228357830896583 -3 2 6
318 1 1 0.5897 4.812187610516469 8.657676592792031 10.090041553594864 -2 -4 0
221 1 1 0.5897 4.847299441754743 11.662645952120828 9.462984260415354 1 0 6
749 1 1 0.5897 1.646109645113969 10.390010747851614 13.350917075459545 4 8 -4
31 1 2 -1.1794 0.7837203508643011 7.662681328832367 11.40616541082532 4 5 3
173 1 1 0.5897 4.7123187506400015 8.254998558915409 14.965203139482753 3 2 1
174 1 1 0.5897 3.3371375632547484 8.867850584377575 15.12391428622564 3 2 1
694 1 2 -1.1794 4.6162714272071845 10.271156883706842 12.735843268285398 0 -4 0
308 1 1 0.5897 2.9156433253683987 10.950031160795023 15.647661607660183 0 10 -3
750 1 1 0.5897 3.086880646951739 10.741956488364904 13.654541556550798 4 8 -4
420 1 1 0.5897 3.712972647791913 11.431833957050186 11.494439576555612 -9 -5 1
748 1 2 -1.1794 2.271953238857449 10.46227764005797 14.07155715010605 4 8 -4
172 1 2 -1.1794 3.904019641743845 8.179778065614842 15.472391590644476 3 2 1
33 1 1 0.5897 1.723551749404446 7.8311559660582635 11.338605720015341 4 5 3
498 1 1 0.5897 4.152447843153492 7.642095468816822 11.524283772051634 -1 0 -1
496 1 2 -1.1794 3.542571328707892 7.6443212880048845 12.262035946044117 -1 0 0
696 1 1 0.5897 4.33799296117909 9.355552440509175 12.75775368661109 0 -4 0
307 1 2 -1.1794 3.32723988842401 11.156197138225625 16.486902830910743 0 10 -3
342 1 1 0.5897 3.530537027396992 11.375023372821934 20.660806981886406 -1 4 -2
95 1 1 0.5897 2.720458444345885 9.450552314870986 21.147164509610473 -7 3 -1
604 1 2 -1.1794 1.172060741741852 7.808469657270096 19.27479169323717 -6 0 -2
94 1 2 -1.1794 3.422796017354682 9.57301766178293 20.5084427939416 -8 3 -1
96 1 1 0.5897 3.6549040309413723 8.685891043593989 20.233908373161448 -8 3 -1
189 1 1 0.5897 1.05200812123807 9.534140677133085 18.335411718411663 -2 3 2
187 1 2 -1.1794 1.0251967424196191 10.336957977724193 17.814829926233546 -2 3 2
309 1 1 0.5897 2.674071065714507 10.909309493109753 17.141629641572266 0 10 -3
699 1 1 0.5897 4.56186430469704 9.023910512835783 17.19315998495752 -5 7 -5
157 1 2 -1.1794 4.091313104334848 6.914337681108166 19.383915391195842 0 1 0
605 1 1 0.5897 0.7225413751595209 7.428463153114064 18.519961688579393 -6 0 -2
618 1 1 0.5897 3.5541221389976094 15.412867404341517 1.8035815455353763 -4 1 -3
282 1 1 0.5897 1.547786062026843 12.798436042698889 4.874991522586853 -3 -1 1
382 1 2 -1.1794 1.5474337644372043 13.378853356989799 1.9524407953182359 -10 -3 -2
380 1 1 0.5897 4.208760711699389 12.32415897188419 5.0875557019455515 4 2 -1
613 1 2 -1.1794 1.2434086850808412 16.217757212482244 0.8474980268155745 -8 5 6
280 1 2 -1.1794 2.303848979017859 13.372070298277832 4.750236575209454 -3 -1 1
384 1 1 0.5897 1.86752587837614 13.332440246320933 2.8533376082774757 -10 -3 -2
281 1 1 0.5897 2.0706935266744853 14.179483189863832 5.208440426264052 -3 -1 1
717 1 1 0.5897 4.470370722291309 14.843385003825409 4.625525323583071 4 -8 1
616 1 2 -1.1794 3.9463002879125693 15.236024479033377 0.9485112416666402 -4 1 -3
617 1 1 0.5897 4.055382876923131 14.285291583703033 0.9265284247307094 -4 1 -3
615 1 1 0.5897 1.3264421893616585 15.2890190420202 1.06380027662662 -8 5 6
598 1 2 -1.1794 3.7518697926920654 16.398227526205716 3.962697256902851 -2 -3 -6
600 1 1 0.5897 2.8666207497070935 16.739284924160003 3.8351200137309727 -2 -3 -6
383 1 1 0.5897 2.290419725552294 13.096752080467395 1.418934356635703 -10 -3 -2
614 1 1 0.5897 0.8193033110270679 16.60548601826268 1.613030124086194 -8 5 5
501 1 1 0.5897 4.756380498475016 12.087399017043422 2.2993411873495573 4 -2 -3
91 1 2 -1.1794 2.1380692237353305 16.557820283019637 10.46697942117176 4 -4 -2
752 1 1 0.5897 3.4273510686801507 13.876603539395793 7.843248295043165 7 -1 0
92 1 1 0.5897 1.963366842470787 16.666333574714457 9.532137361457782 4 -4 -2
430 1 2 -1.1794 1.900967059913062 13.151130877265919 7.824587312768267 -6 -5 -5
432 1 1 0.5897 2.0071479043714473 13.143449845520244 8.775845931690256 -6 -5 -5
431 1 1 0.5897 2.071888619371217 12.248209759225597 7.556733463955897 -6 -5 -5
216 1 1 0.5897 1.5911293450757795 14.62375602777078 10.497886171015832 -2 -1 4
751 1 2 -1.1794 4.3409061137439755 14.150320337602816 7.760932534158504 7 -1 0
200 1 1 0.5897 4.563921635599616 15.819541945486431 7.4621988440027405 1 -6 -3
98 1 1 0.5897 3.655444750950919 15.67712416990401 10.88496931201249 3 -8 4
753 1 1 0.5897 4.521038773233373 14.105872523568785 6.821886523541432 7 -1 0
642 1 1 0.5897 0.9507034435348409 16.094158716007435 7.423404444052943 4 0 -6
214 1 2 -1.1794 1.2745956363889879 13.729113498333257 10.622958866476377 -2 -1 4
418 1 2 -1.1794 3.489107826956933 11.85237463597233 10.664188528166328 -9 -5 1
199 1 2 -1.1794 4.386172573888494 16.75896831060387 7.41625784023862 1 -6 -3
640 1 2 -1.1794 1.6804889704224206 16.70026315764346 7.551024722488445 4 0 -6
419 1 1 0.5897 3.7060371002345733 12.775252711844203 10.79642988935692 -9 -5 1
215 1 1 0.5897 1.4796442877723028 13.52743439036881 11.535942354994665 -2 -1 4
441 1 1 0.5897 2.9000158327784518 16.09419608647228 14.693918941382806 4 2 3
513 1 1 0.5897 1.4124902571821343 13.042742472329778 13.691755026822898 1 -1 -4
130 1 2 -1.1794 2.9052928679217955 14.37641335364611 16.03727512477147 -1 1 -1
440 1 1 0.5897 2.509888095020017 15.315884269881796 13.45539981926396 4 2 3
511 1 2 -1.1794 2.0569499983844652 13.557439768863311 13.205922336953359 1 -1 -4
439 1 2 -1.1794 2.6179596318941876 16.207557769357706 13.78626657127537 4 2 3
512 1 1 0.5897 2.9033024266590397 13.212340555288613 13.490214914381166 1 -1 -4
262 1 2 -1.1794 4.690044237322922 12.906424760716547 14.1069885121872 1 -1 1
131 1 1 0.5897 3.0295342599659025 13.435639530083096 16.162742288570275 -1 1 -1
417 1 1 0.5897 1.2621286758240362 15.002123460510417 15.870763573 -5 0 -3
97 1 2 -1.1794 4.195033044518478 14.946184652137458 11.186293006103103 3 -8 4
351 1 1 0.5897 4.848004369706177 15.208420048126902 12.999102012992942 -11 2 -4
340 1 2 -1.1794 3.313473211743289 12.306954643231128 20.6858077223192 -1 4 -2
718 1 2 -1.1794 1.4808672897072965 13.040531654874124 18.371066609735788 5 4 1
341 1 1 0.5897 2.617249255659692 12.408696364734345 20.036851601322763 -1 4 -2
6 1 1 0.5897 3.508436919917903 15.560655576296213 18.697787431963764 2 -2 -3
720 1 1 0.5897 1.5522065539800067 13.99504553838262 18.364591072783416 5 4 1
553 1 2 -1.1794 1.724031336729695 15.764578277838075 18.768796705516017 -3 -4 6
693 1 1 0.5897 1.1482751398445545 12.450000453199948 16.447333143233422 6 1 5
4 1 2 -1.1794 4.298677721409659 15.7014351759057 18.176320544484497 2 -2 -3
555 1 1 0.5897 1.5542503733674788 16.435282746065226 18.107319693662422 -3 -4 6
132 1 1 0.5897 3.466548062024525 14.782778145389198 16.6976422270786 -1 1 -1
759 1 1 0.5897 4.236377378609907 12.38878819980742 19.27370279345089 4 0 2
554 1 1 0.5897 1.7495505761278385 16.244786054369836 19.596426908225833 -3 -4 6
757 1 2 -1.1794 4.838893267529708 12.390300002607232 18.529928379364698 4 0 2
758 1 1 0.5897 4.355582922949087 11.95340509787503 17.828671610878974 4 0 2
599 1 1 0.5897 4.307396035752033 17.177207264091436 3.9910410218673955 -2 -3 -6
435 1 1 0.5897 3.027671315726874 19.70948878039625 5.46953245692574 2 2 -2
517 1 2 -1.1794 4.3532832131587735 21.63078127355071 2.0539753294694085 1 1 -5
141 1 1 0.5897 2.5449252644693274 19.71396321127844 1.9934874841126566 2 -5 5
573 1 1 0.5897 3.4195203914348915 20.607238612074195 3.304178955490418 4 -5 -4
572 1 1 0.5897 2.2778263442973956 21.108805333886718 4.16258161150253 4 -5 -4
826 1 2 -1.1794 1.005072854305747 17.016811806576023 3.4742979232561817 4 -1 2
139 1 2 -1.1794 2.4948275826886306 19.60320046767017 1.0440421853031603 2 -5 5
571 1 2 -1.1794 2.610926434217482 20.32255499682466 3.7300582274936254 4 -5 -4
827 1 1 0.5897 0.9342615723183043 17.607731260670263 4.2239818959313356 4 -1 2
519 1 1 0.5897 4.437649607370501 21.309167531449976 1.1563637396741195 1 1 -5
804 1 1 0.5897 0.6879118232800473 19.812629651149223 0.8768013819970043 7 1 1
140 1 1 0.5897 3.0753871697606066 18.865371070997135 0.8575425452471137 2 -5 5
114 1 1 0.5897 4.82662940531234 19.343645439670745 10.145938554581024 -4 -6 3
631 1 2 -1.1794 2.7891675228338495 19.140922240357444 9.051391473512377 4 1 4
93 1 1 0.5897 2.7727948652879646 17.243829267644323 10.673712914916338 4 -4 -2
633 1 1 0.5897 1.8554802188025796 19.134998452410116 9.262173225890546 4 1 4
632 1 1 0.5897 2.827955981286971 19.435986377850853 8.141631126416968 4 1 4
641 1 1 0.5897 1.3976987049171914 17.509446366413947 7.1250231280508025 4 0 -6
433 1 2 -1.1794 3.3486102230900845 19.509421425406412 6.348851068403306 2 2 -2
705 1 1 0.5897 3.0490974183118045 20.652380674631573 10.006339835065305 3 3 -3
201 1 1 0.5897 3.4512953734494736 16.835925584730518 7.60681244554329 1 -6 -3
434 1 1 0.5897 3.7612424928398727 18.64991470607679 6.263928478724767 2 2 -2
854 1 1 0.5897 4.776090254538816 20.844803030020625 6.0722694739306045 -1 -1 5
703 1 2 -1.1794 2.955850266870644 21.46037679298451 10.511028375389824 3 3 -3
46 1 2 -1.1794 4.72808425690795 17.183411646943746 15.805170080290129 7 -1 1
702 1 1 0.5897 1.7894618024569342 18.675305949137226 15.530986874688022 2 1 0
701 1 1 0.5897 3.242666524260868 18.298498525396642 15.335721660181852 2 1 0
700 1 2 -1.1794 2.5975210438491185 18.968625680957228 15.109989588538927 2 1 0
365 1 1 0.5897 2.021878192213819 19.688273839820866 13.26512736583873 6 8 -1
506 1 1 0.5897 3.2263154704776813 20.649325866227667 15.39431125827871 8 -1 -4
366 1 1 0.5897 1.9664649435724249 20.261563650927723 11.865072202083164 6 8 -1
364 1 2 -1.1794 1.4132373108593965 19.89937453981648 12.55715867976263 6 8 -1
196 1 2 -1.1794 3.919646401733644 17.854787650249918 12.030761258859918 -7 -1 -3
197 1 1 0.5897 3.1512447799859014 17.660626557323265 12.567494934455805 -7 -1 -3
198 1 1 0.5897 4.423377580797578 18.481156065127987 12.550520891726249 -7 -1 -3
505 1 2 -1.1794 3.529733291683438 21.552656309155477 15.303989288573666 8 -1 -4
527 1 1 0.5897 2.7250640538956974 19.06166628818919 17.838755729018086 1 -7 -2
732 1 1 0.5897 4.382041423761203 20.66935110164808 19.444763725226142 3 3 -4
526 1 2 -1.1794 3.1877731939822156 19.518069646835166 18.54149921418642 1 -7 -2
528 1 1 0.5897 3.4483697282241033 18.82433715219915 19.147343846663585 1 -7 -2
846 1 1 0.5897 1.75966279946068 21.041413419426675 19.770575158723666 3 -2 4
679 1 2 -1.1794 4.304605370308483 17.635419602409648 20.24964313510333 -7 -3 -3
449 1 1 0.5897 4.494668865887455 19.528867706804338 17.24450406893428 2 3 0
445 1 2 -1.1794 1.1725256085120561 17.967145289132297 17.194534946938553 3 -2 -2
681 1 1 0.5897 4.135278722229506 16.83469352393056 20.74607424647686 -7 -3 -3
446 1 1 0.5897 0.7904041913318269 17.310198963740355 16.612605720138784 3 -2 -2
680 1 1 0.5897 4.738361747613416 17.335383225341097 19.450831959866637 -7 -3 -3
347 1 1 0.5897 6.53010559507356 5.713502112234994 2.657593229803489 -1 1 -5
662 1 1 0.5897 8.024541784032905 3.4751252338212266 4.769781490395494 -2 -5 2
346 1 2 -1.1794 6.861342791297646 5.423802332158049 3.5076467303317203 -1 1 -5
348 1 1 0.5897 6.117042603427835 4.983273157216969 3.917768388372851 -1 1 -5
661 1 2 -1.1794 7.8396092862696625 2.540484006344638 4.861839193275447 -2 -5 2
663 1 1 0.5897 8.466103370127003 2.2353801250718965 5.5180704767192985 -2 -5 2
626 1 1 0.5897 7.6240706065436195 2.001163197564495 1.0494151564706469 -6 -3 4
353 1 1 0.5897 8.709038524324878 4.968411191392984 3.284713022345445 6 2 -4
219 1 1 0.5897 7.5715127334931065 6.666983695592222 4.499586310922004 0 6 -1
547 1 2 -1.1794 7.861264815287159 3.3533597651511133 9.167041896819883 7 -3 3
549 1 1 0.5897 7.803514544133394 2.9255477793479256 10.021365677595657 7 -3 3
789 1 1 0.5897 6.44373552138035 5.057068948490895 7.504781248834363 2 -5 9
863 1 1 0.5897 8.16413559032052 5.000483622777651 9.9475877619725 2 -3 2
862 1 2 -1.1794 8.075557816147594 5.917319703857893 10.207983463563542 2 -3 2
864 1 1 0.5897 7.4064765507001455 5.908823816879356 10.892444447153316 2 -3 2
787 1 2 -1.1794 6.943115317203282 4.610714682235278 6.820955420855416 2 -5 9
548 1 1 0.5897 6.967480874939378 3.328580039302478 8.825325624921001 7 -3 3
398 1 1 0.5897 5.248115544753553 2.323414811730923 7.717143087398402 8 -1 -5
296 1 1 0.5897 5.114193330502865 5.757925950846536 8.945149927494237 3 3 1
397 1 2 -1.1794 5.296768512850668 2.528261286045532 8.650898579268294 8 -1 -5
311 1 1 0.5897 8.612334728859523 5.271251594199996 7.600580430782208 5 4 5
295 1 2 -1.1794 5.512522270957004 6.304932958111041 8.268131499029087 3 3 1
27 1 1 0.5897 8.530755884061872 2.08099715827458 7.9180026420835 -3 5 5
788 1 1 0.5897 6.29300890941056 4.391240645459225 6.153550440110413 2 -5 9
707 1 1 0.5897 4.925259081864161 3.656708075273194 10.69447030172131 -2 0 -5
861 1 1 0.5897 6.940770274989793 5.051845025078213 12.639378456827462 -3 0 0
475 1 2 -1.1794 5.9381172969490335 4.8189607445797265 15.606035494905864 8 -2 1
315 1 1 0.5897 8.06243064083704 3.3584482582624506 13.342352936193889 0 -2 1
860 1 1 0.5897 5.713114727062467 5.417645990232099 11.83250058021859 -3 0 0
859 1 2 -1.1794 6.431941498315042 5.8028105234111 12.3336816486343 -3 0 0
2 1 1 0.5897 8.977245795671156 4.262802668998059 15.856369453513912 -1 -7 1
476 1 1 0.5897 6.798775222143029 4.7410038209930345 15.194405062774432 8 -2 1
313 1 2 -1.1794 8.060911697561025 3.4010776204477837 12.386104129802213 0 -2 1
1 1 2 -1.1794 8.696709164415 4.530946461033891 14.981351550344648 -1 -7 1
477 1 1 0.5897 5.784136857311275 3.9623062344791977 16.004404528560276 8 -2 1
314 1 1 0.5897 7.932066124749975 2.4949822769463332 12.105702905876017 0 -2 1
3 1 1 0.5897 8.895694896024292 5.466394624998845 14.94168234343033 -1 -7 1
688 1 2 -1.1794 8.852271753026448 3.209473759827776 17.146031230427038 1 -7 3
134 1 1 0.5897 5.43933816566986 2.6799534310462296 17.986565741426855 0 -5 0
455 1 1 0.5897 5.168483405660788 4.062865328480257 20.510517527884566 1 -2 1
690 1 1 0.5897 7.952610006683194 2.9832603227529546 16.910108077231833 1 -7 3
556 1 2 -1.1794 7.471380276093211 5.4237894686278105 18.703581248538093 0 4 0
454 1 2 -1.1794 5.660568674121809 3.582363320752082 19.84478988243017 1 -2 1
627 1 1 0.5897 8.401196770655872 1.9623056557442764 20.375364031903846 -6 -3 3
122 1 1 0.5897 7.061749744149724 6.239555411676282 20.756606575469945 -1 -4 -1
558 1 1 0.5897 6.673777974981715 4.928026087571726 18.888765623600985 0 4 0
456 1 1 0.5897 6.497991920566281 3.3823827814598024 20.2630705260516 1 -2 1
557 1 1 0.5897 7.176038934147277 6.164471322814669 18.174021528125966 0 4 0
689 1 1 0.5897 8.781984774952006 4.067013873383446 17.565472761459727 1 -7 3
133 1 2 -1.1794 5.973698010009621 2.556041067268311 17.20213575753406 0 -5 0
121 1 2 -1.1794 6.400481122382627 6.596420863317379 21.349577701928087 -1 -4 -1
625 1 2 -1.1794 7.934767388956226 2.5589065009487495 20.96082745669926 -6 -3 3
28 1 2 -1.1794 7.5691603001250085 10.802387398525557 2.075043204961503 -10 0 6
217 1 2 -1.1794 7.833622302027065 7.196558353889548 5.25263094209787 0 6 -1
734 1 1 0.5897 6.5368724126156 9.34180339721211 2.2342874497702656 -2 -1 -2
733 1 2 -1.1794 5.8553289601839165 8.686465661886404 2.383513175877969 -2 -1 -2
843 1 1 0.5897 5.056244448094634 8.565259815600243 5.7472182040311415 -4 2 2
185 1 1 0.5897 8.8460015698855 8.681946363377236 4.986831361904516 0 6 0
735 1 1 0.5897 6.221397653935367 7.875103155491617 2.031457083725149 -2 -1 -2
842 1 1 0.5897 5.256085544684319 8.22488097082724 4.285674822121164 -4 2 2
29 1 1 0.5897 7.436063701525997 10.997462624713892 1.147435227455514 -10 0 6
473 1 1 0.5897 7.617058531639928 10.913930578756823 5.25644174733936 0 -1 -4
381 1 1 0.5897 5.535031155887206 11.5942936164799 5.10106692017428 4 2 -1
30 1 1 0.5897 7.230685821396404 11.571739470898454 2.533038965122708 -10 0 6
218 1 1 0.5897 7.1858820623512525 6.99192318195276 5.927029037888136 0 6 -1
257 1 1 0.5897 8.077316074603456 7.234121235198151 8.836050322426813 1 -1 -1
316 1 2 -1.1794 5.497934728245698 8.159745975623313 10.535058651345555 -2 -4 0
317 1 1 0.5897 6.067525130691978 8.826214696295086 10.919259535556723 -2 -4 -1
721 1 2 -1.1794 6.173370976404688 9.598127099752189 7.0264006403727866 3 3 0
256 1 2 -1.1794 8.061005486547295 8.186956095744485 8.746121792098617 1 -1 -1
723 1 1 0.5897 6.925982524481775 9.27647940702573 7.522758742635465 3 3 0
258 1 1 0.5897 7.772021338664417 8.503859405932886 9.601878875813346 1 -1 -1
610 1 2 -1.1794 8.64821753875352 11.332830885598042 8.7204907870883 4 3 -3
297 1 1 0.5897 5.644564251867954 7.153061085469114 8.691773013880894 3 3 1
722 1 1 0.5897 5.9631951495730595 10.440995198335505 7.42846114254098 3 3 0
220 1 2 -1.1794 5.405710838278559 11.749633003547212 8.69043464090418 1 0 6
612 1 1 0.5897 7.7821480446027 11.50413888103439 9.090394851635844 4 3 -3
611 1 1 0.5897 8.773216682002989 10.39001869476903 8.828752892034691 4 3 -3
405 1 1 0.5897 5.675625456678755 11.520350144853921 15.304238629591817 4 -2 -4
646 1 2 -1.1794 6.066024913829461 7.904994822778156 14.053405578126569 -6 -3 -3
176 1 1 0.5897 8.40210933013266 9.973960226753686 14.493062409077616 -2 -4 8
326 1 1 0.5897 7.880568689200026 9.82093866070297 11.983177984832952 -1 -1 0
177 1 1 0.5897 8.747725712853441 8.586510764914507 13.995585653530823 -2 -4 8
175 1 2 -1.1794 8.409388154792403 9.432935434387485 13.703447179990293 -2 -4 8
647 1 1 0.5897 6.7509832844013395 8.51957505249325 13.790066298750052 -6 -3 -3
403 1 2 -1.1794 6.0922796291723245 10.66371754339084 15.398130243877603 4 -2 -4
325 1 2 -1.1794 7.372126896178045 10.035635305986117 11.201116051135003 -1 -1 0
327 1 1 0.5897 7.05534293310397 10.92524219824973 11.357556156353988 -1 -1 0
648 1 1 0.5897 6.028261686011234 7.267711002825249 13.340195246201299 -6 -3 -3
695 1 1 0.5897 5.2556780201871645 10.344666253972933 13.44434851673808 0 -4 0
672 1 1 0.5897 6.879746348855158 7.362793854132953 15.713697528197265 7 0 4
427 1 2 -1.1794 7.07641422965518 11.243414654079082 19.88791926305597 -4 4 -4
268 1 2 -1.1794 8.35948961631291 8.780682046349604 19.70157245045916 6 6 5
428 1 1 0.5897 7.221289129388663 10.33776413962637 19.613979903588366 -4 4 -4
429 1 1 0.5897 6.334004435085018 11.537884474616064 19.36033317586048 -4 4 -4
671 1 1 0.5897 6.385174995731895 8.114607791353357 16.931114140936863 7 0 4
269 1 1 0.5897 8.545933502457384 8.531210983258838 18.796447865409533 6 6 5
697 1 2 -1.1794 5.302643959482767 9.176111564766346 17.77994041224105 -5 7 -5
835 1 2 -1.1794 8.733853976557766 9.517438831103725 16.89103616155524 -3 1 -3
670 1 2 -1.1794 7.023395039702517 7.4566624040193155 16.655396703216674 7 0 4
837 1 1 0.5897 8.19581524879583 8.734505252135783 16.773736497089473 -3 1 -3
242 1 1 0.5897 8.997745926032994 7.76309436572551 20.989382015053906 -3 1 3
270 1 1 0.5897 9.036629558565632 9.421617617638669 19.918197539165206 6 6 5
698 1 1 0.5897 4.9766678729975835 8.932156860655374 18.646231652151556 -5 7 -5
657 1 1 0.5897 8.752449750573998 11.29575093473344 16.5309479053543 2 2 -3
123 1 1 0.5897 5.705726340396218 6.912489522814961 20.771959017195755 -1 -4 -1
404 1 1 0.5897 5.953884687451314 10.428806343936925 16.31567501991481 4 -2 -4
474 1 1 0.5897 8.116635233751193 12.1775447239928 4.588923367938941 0 -1 -4
716 1 1 0.5897 5.947466841473477 14.67030530612104 4.908616076270042 4 -8 1
509 1 1 0.5897 6.367410190211548 14.252583402799543 1.656845596035205 3 -1 6
508 1 2 -1.1794 7.074570921734834 14.893178804611665 1.7331137499594473 3 -1 6
849 1 1 0.5897 7.892742864792687 16.0881388337202 4.162136499229226 6 -1 2
334 1 2 -1.1794 8.658685706565713 13.274395723568055 3.297311387640085 2 1 4
847 1 2 -1.1794 7.163700425893677 16.076619483340224 4.7823013699399155 6 -1 2
510 1 1 0.5897 6.628190275272186 15.738327177989602 1.785260466471224 3 -1 6
335 1 1 0.5897 8.079919728308505 13.834360233513097 2.7799178340981157 2 1 4
715 1 2 -1.1794 5.100186396745736 14.238442089763131 5.017461271632608 4 -8 1
499 1 2 -1.1794 5.331021849633661 12.848293704767027 2.3834115156434073 4 -2 -3
500 1 1 0.5897 5.391938313208165 12.999987466482859 3.3265543938673425 4 -2 -3
472 1 2 -1.1794 7.428682103307445 11.848161895087925 5.16724367314514 0 -1 -4
824 1 1 0.5897 7.524081298002618 14.860981654772454 9.855399513500682 -4 3 7
767 1 1 0.5897 7.378495464595297 13.383093806491953 6.363780140242705 -2 -6 5
766 1 2 -1.1794 7.663201959850382 14.08396338022523 6.950267781106654 -2 -6 5
823 1 2 -1.1794 6.6380160925858345 14.50301727634926 9.91010574573493 -4 3 7
825 1 1 0.5897 6.544828665301409 13.971166845156137 9.11974284090389 -4 3 7
222 1 1 0.5897 5.164370240580569 12.595934557885506 8.313936043251488 1 0 6
99 1 1 0.5897 5.004334465266586 15.02090692574195 10.680639391706876 3 -8 4
768 1 1 0.5897 7.920079162238465 14.796802098107536 6.3653638180029075 -2 -6 5
778 1 2 -1.1794 8.07205133724377 14.32784705209142 13.754904611346168 -2 0 1
443 1 1 0.5897 6.607451049687595 16.303912978452882 12.313159714863465 5 3 -2
349 1 2 -1.1794 5.539217574669952 15.39195349499939 13.635377538217526 -11 2 -4
780 1 1 0.5897 7.334001025163242 14.866196343046896 14.04079671439219 -2 0 1
263 1 1 0.5897 5.328507789643669 12.609797419047124 13.458452051790882 1 -1 1
779 1 1 0.5897 8.827698888316363 14.913770541318364 13.798911885089106 -2 0 1
444 1 1 0.5897 8.002554854120131 16.535332292269423 11.772781221628389 5 3 -2
629 1 1 0.5897 6.479617804728787 13.212570244982523 11.248064556353892 -3 0 3
630 1 1 0.5897 7.300961111119655 13.199915381839295 12.519843515383846 -3 0 3
628 1 2 -1.1794 6.706153137733887 12.6617558151481 11.997472132879412 -3 0 3
350 1 1 0.5897 5.137047768990658 15.99687838037802 14.258759337041383 -11 2 -4
797 1 1 0.5897 7.692736106082727 16.665067779767448 15.855196511847307 -2 -7 -1
264 1 1 0.5897 4.939186759510483 13.811851704150873 14.292339440300795 1 -1 1
656 1 1 0.5897 8.187903660695758 12.650674938066276 16.16033745672189 1 2 -3
655 1 2 -1.1794 9.012638204145786 12.17336867609378 16.251066127966897 1 2 -3
654 1 1 0.5897 8.318434162881479 12.380494362736034 19.203414792852342 -1 0 1
798 1 1 0.5897 8.354369845009149 15.8287627877153 16.92976961697655 -2 -7 -1
653 1 1 0.5897 8.91978479323889 12.840198977818902 17.89230864984271 -1 0 1
597 1 1 0.5897 7.235165904582883 14.183150057691638 19.16739430698993 2 -4 -1
595 1 2 -1.1794 6.480905318786062 14.714636475637265 19.422069765650168 2 -4 -1
652 1 2 -1.1794 8.733214331197184 13.134294269039817 18.78391386331113 -1 0 1
596 1 1 0.5897 6.698712139780757 15.036840019541035 20.296699118810132 3 -4 -1
153 1 1 0.5897 6.075929971714797 13.253503070067465 17.240489203651208 4 -1 -1
152 1 1 0.5897 6.562521113093273 14.56610022210421 16.66401612393767 4 -1 -2
5 1 1 0.5897 4.9917711402813945 15.2595188847803 18.66682172646532 2 -2 -3
796 1 2 -1.1794 7.501053460846365 16.15104684261745 16.639583997523808 -2 -7 -1
151 1 2 -1.1794 6.481403556402596 13.634064211989307 16.461394533041336 4 -1 -1
504 1 1 0.5897 6.286644101727319 18.86734604057525 4.705328722813139 -7 1 4
483 1 1 0.5897 8.200063775472081 19.781220518715813 3.1710348635920544 5 5 6