LAMMPS data file via write_data, version 30 Jul 2021, timestep = 43000000

864 atoms
2 atom types
576 bonds
1 bond types
288 angles
1 angle types

0.14527013095222685 18.062302269047184 xlo xhi
0.15987638430324225 23.469301415702432 ylo yhi
0.19534096338802875 22.017854836606716 zlo zhi

Masses

1 1.00794
2 15.9994

Atoms # full

707 1 1 0.5897 3.153514175767302 1.8942547828410268 3.9130821611854314 0 0 0
706 1 2 -1.1794 3.135329052050998 1.8283195605713336 2.9583771723855494 0 0 0
30 1 1 0.5897 5.267142708236712 4.040759740543701 2.476362309846982 0 0 0
708 1 1 0.5897 2.3589007756120934 2.3240679589326723 2.6983441791232194 0 0 0
29 1 1 0.5897 4.616768688987335 2.6798543331176212 2.346154557057761 0 0 0
28 1 2 -1.1794 5.413703069032939 3.1621468469312703 2.125893717115475 0 0 0
495 1 1 0.5897 8.37240739543338 2.3523108922707223 2.742979067814377 0 0 0
1 1 2 -1.1794 0.9227390895544705 3.1928946898823263 2.1744581656766186 0 0 0
494 1 1 0.5897 6.862038209080401 2.3848577666823214 2.840740314582353 0 0 0
493 1 2 -1.1794 7.632309110848907 1.9238460683150245 3.172960045108364 0 0 0
846 1 1 0.5897 7.508436494506404 1.797003216010315 4.989593218048072 0 0 0
3 1 1 0.5897 0.8634869976801993 4.10553757499582 2.457037088531857 0 0 0
136 1 2 -1.1794 5.175030120839913 5.716630727814594 2.9801674045958904 0 0 0
595 1 2 -1.1794 0.7216874905214535 5.796725260524016 2.9309470592869284 0 0 0
597 1 1 0.5897 0.774673745319009 5.806438845634163 3.8865822840882522 0 0 0
137 1 1 0.5897 5.179884265114448 5.829372474695162 3.930643750256024 0 0 0
20 1 1 0.5897 0.8598339558934849 3.172603469844144 0.36376563344991 0 0 0
668 1 1 0.5897 5.362650068995719 3.2759712763275184 0.3845995538905651 0 0 0
181 1 2 -1.1794 0.9121849636646419 5.822260512574038 5.636318515445 0 0 0
819 1 1 0.5897 7.538845208928799 0.2880579610567082 2.408777852931042 0 0 0
487 1 2 -1.1794 3.1337438870568133 2.017771623976107 5.714859895801934 0 0 0
419 1 1 0.5897 8.964987393463106 2.6818842887383796 6.537181682516007 0 0 0
355 1 2 -1.1794 7.606058107578743 1.9485475670636048 10.252602575694214 0 0 0
35 1 1 0.5897 0.7668716958842865 4.084050126472743 9.830279459328825 0 0 0
183 1 1 0.5897 0.899149043694219 4.952561108343562 6.035965951200903 0 0 0
685 1 2 -1.1794 5.244007205206164 5.926596201776806 5.742487005162093 0 0 0
176 1 1 0.5897 9.096796515649539 2.847342233874608 9.793948289645238 0 0 0
489 1 1 0.5897 3.1101800616359685 1.1012668000939003 5.990072525116012 0 0 0
673 1 2 -1.1794 2.9431025077483355 1.8989235464707725 10.43296824724854 0 0 0
274 1 2 -1.1794 5.244691201459395 3.148399930378911 9.486094072443743 0 0 0
275 1 1 0.5897 5.287395792097405 3.2261644221858625 8.533063044319647 0 0 0
488 1 1 0.5897 2.331782645649373 2.3970220174305052 6.074360612284975 0 0 0
276 1 1 0.5897 6.054700644618648 2.698724494193978 9.726713421904934 0 0 0
82 1 2 -1.1794 5.365845306137207 3.3399339412238787 6.727957505410933 0 0 0
784 1 2 -1.1794 0.8459019973884336 3.287629897226785 6.695802066591648 0 0 0
686 1 1 0.5897 5.274699856241324 5.0344823497802595 6.088121319162025 0 0 0
34 1 2 -1.1794 0.7520000801628701 3.2093316689772 9.441804717343235 0 0 0
844 1 2 -1.1794 7.529610798306164 1.8573191312872601 5.9446092641355905 0 0 0
676 1 2 -1.1794 5.142801986011001 5.761228297470376 10.448429023575512 0 0 0
36 1 1 0.5897 1.5081101081948427 2.764003788681325 9.82416061387282 0 0 0
83 1 1 0.5897 4.619924160888387 2.871588655475267 6.353163289972184 0 0 0
845 1 1 0.5897 7.49845430011175 0.948393932500199 6.2432083577849005 0 0 0
356 1 1 0.5897 7.535718153954474 1.0334331333036673 9.980761479869043 0 0 0
112 1 2 -1.1794 0.8457512470319251 5.786030410243052 10.422291790104975 0 0 0
785 1 1 0.5897 0.8397775850766843 3.3103942984661616 7.6526647639353325 0 0 0
678 1 1 0.5897 5.239304303356926 4.864135492820066 10.12876533004981 0 0 0
675 1 1 0.5897 2.883262035788143 1.0335422280918736 10.028245414517661 0 0 0
674 1 1 0.5897 3.751850431087823 2.2723203891181494 10.082665407948411 0 0 0
84 1 1 0.5897 6.1277172455530655 2.817395727518717 6.477486848758728 0 0 0
166 1 2 -1.1794 3.010014350084288 1.7586705992443576 13.175033300901056 0 0 0
167 1 1 0.5897 3.016092598746534 1.7798108034316207 12.218134924158424 0 0 0
457 1 2 -1.1794 5.180917880939692 3.2667903286800493 14.02009048416838 0 0 0
458 1 1 0.5897 5.927853760273217 2.754014239258172 13.71126374510689 0 0 0
459 1 1 0.5897 4.41427406109341 2.767771473193475 13.738200420200323 0 0 0
762 1 1 0.5897 5.222388572430399 4.979197839888015 13.404277526600236 0 0 0
594 1 1 0.5897 8.184883305272391 2.375800334661576 13.300180567147233 0 0 0
168 1 1 0.5897 2.2251088259465295 2.248260045334375 13.420899472377366 0 0 0
71 1 1 0.5897 5.3108686443230955 3.2810106170625595 15.810700660633087 0 0 0
592 1 2 -1.1794 7.389109298663621 1.9367336717296315 12.999874653614869 0 0 0
466 1 2 -1.1794 0.8666972885732214 3.2226326812379535 14.016181900549723 0 0 0
593 1 1 0.5897 7.4667180310573045 1.0435014656387658 13.335116882724613 0 0 0
468 1 1 0.5897 0.8853786152737857 3.1554665433077433 14.970790806364727 0 0 0
365 1 1 0.5897 0.8895135745234471 4.934582238640871 13.460511471112737 0 0 0
761 1 1 0.5897 5.27407739312635 5.867908689211704 12.179811636654671 0 0 0
357 1 1 0.5897 7.514441222151417 1.9236550365028273 11.205034056902427 0 0 0
113 1 1 0.5897 0.8449571421265516 5.879025552702268 11.374914524580994 0 0 0
760 1 2 -1.1794 5.277415415868705 5.896564739015699 13.136527799854994 0 0 0
364 1 2 -1.1794 0.8729208094153309 5.834989826620765 13.136065672682733 0 0 0
323 1 1 0.5897 7.47491778395868 0.17393822441149376 17.047170165988966 0 1 0
133 1 2 -1.1794 0.8791584277710034 3.020889898382085 16.77476688306229 0 0 0
360 1 1 0.5897 8.897365064534753 2.750621137871448 20.859462887496967 0 0 0
756 1 1 0.5897 6.875233441713145 2.3993170196403932 17.215564445419254 0 0 0
571 1 2 -1.1794 0.7116399919341324 5.6300197364738045 17.582240098767066 0 0 0
599 1 1 0.5897 9.029848775475168 2.7755151085378067 16.821963582571456 0 0 0
754 1 2 -1.1794 7.643484993403557 1.8954574095031123 17.48415474014707 0 0 0
755 1 1 0.5897 7.645535383862097 1.9520556070902506 18.43963036171909 0 0 0
277 1 2 -1.1794 5.27130692887221 5.788855497006595 17.733777599177877 0 0 0
42 1 1 0.5897 7.5375335581255065 1.0586524236770454 20.52554489638358 0 0 0
40 1 2 -1.1794 7.511636247188287 1.9500420572098531 20.177656521143547 0 0 0
278 1 1 0.5897 5.256051920596846 4.889931325676863 17.40518029662013 0 0 0
570 1 1 0.5897 3.1835579218534145 1.9008841271698285 19.48129289015594 0 0 0
669 1 1 0.5897 4.536990211127285 2.784391455868129 21.037332738300158 0 0 0
289 1 2 -1.1794 3.1936462258578695 1.8690144895911243 17.664099353955486 0 0 0
667 1 2 -1.1794 5.316955583218643 3.2963601415264168 21.251271467977553 0 0 0
144 1 1 0.5897 5.343303482000054 5.901203705209111 19.493201345041165 0 0 0
142 1 2 -1.1794 5.360544281851694 5.924343888929401 20.449917447444925 0 0 0
648 1 1 0.5897 0.659296631470646 5.706185592466224 19.36507320410503 0 0 0
41 1 1 0.5897 6.74421806597633 2.3464675180668073 20.59011809505175 0 0 0
21 1 1 0.5897 0.7353413505835283 3.9898017686275664 20.918027579860706 0 0 0
291 1 1 0.5897 2.400318864056911 2.309010434076556 17.358717806333004 0 0 0
70 1 2 -1.1794 5.421008933749404 3.258015258195194 16.76121616640068 0 0 0
72 1 1 0.5897 4.662353166895551 2.768399328186507 17.078924834424633 0 0 0
134 1 1 0.5897 0.8188039150854827 3.92539467993148 17.082180561077237 0 0 0
569 1 1 0.5897 2.3326904426081967 2.2860829072181805 20.672675620340932 0 0 0
290 1 1 0.5897 3.078053456092823 0.9559097916183203 17.401119049976664 0 0 0
143 1 1 0.5897 5.30674548712995 5.005607973544347 20.713186873368507 0 0 0
646 1 2 -1.1794 0.6548328292985817 5.71865714945836 20.32213226516531 0 0 0
568 1 2 -1.1794 3.1469232569320003 1.8420100483400546 20.435929596492336 0 0 0
19 1 2 -1.1794 0.765651988455847 3.0879873745692357 21.237537895450743 0 0 0
123 1 1 0.5897 2.8062074682213196 8.77268454627627 2.660193261993068 0 0 0
121 1 2 -1.1794 2.830198837064876 9.693579915154208 2.9203097202903696 0 0 0
122 1 1 0.5897 2.864303536990024 9.67199603989595 3.8766104257006884 0 0 0
44 1 1 0.5897 1.4146307457665561 10.615389462886325 2.4046919646261027 0 0 0
218 1 1 0.5897 5.81633453659422 10.594542713887405 2.440126878899366 0 0 0
417 1 1 0.5897 8.126830098025316 6.706784801484951 2.558759586891096 0 0 0
219 1 1 0.5897 4.302966621833325 10.630835652669868 2.4247033209543067 0 0 0
254 1 1 0.5897 2.965005888038435 7.027796358491693 1.1573839977684393 0 0 0
415 1 2 -1.1794 7.362745959616455 7.20654688223557 2.2712848146155467 0 0 0
217 1 2 -1.1794 5.074494016505903 11.083819052462417 2.084454792145762 0 0 0
66 1 1 0.5897 7.4063817976217114 9.844841270671262 4.01045685358735 0 0 0
65 1 1 0.5897 7.3666180302151565 8.951399930266339 2.7889910346754787 0 0 0
64 1 2 -1.1794 7.330471261615386 9.869733142752285 3.056645265088283 0 0 0
253 1 2 -1.1794 2.976475486719244 7.086951288528791 2.112636738960007 0 0 0
255 1 1 0.5897 2.1714955950835413 6.649475259849222 2.389840035415391 0 0 0
416 1 1 0.5897 6.6136305285080645 6.670483030243999 2.5314599289563797 0 0 0
43 1 2 -1.1794 0.6453849422857406 11.08647903868766 2.0844499293004803 0 0 0
396 1 1 0.5897 0.8117497355543514 11.075622528846434 0.30652141035040886 0 0 0
363 1 1 0.5897 5.22841472162595 10.984692639788177 0.3073912145887132 0 0 1
773 1 1 0.5897 8.915412192479462 10.515250879578968 2.5211143073103974 0 0 0
162 1 1 0.5897 7.548603231713375 7.268541674102535 0.4433268353935863 0 0 1
138 1 1 0.5897 4.392876521528977 6.184117489510144 2.6870597557671334 0 0 0
581 1 1 0.5897 6.034047344983007 10.547609715901006 9.725400933170794 0 0 0
712 1 2 -1.1794 7.497337479732322 9.765080083308645 5.775028382478391 0 0 0
165 1 1 0.5897 8.9570618239049 6.262001367020577 5.945024383203729 0 0 0
795 1 1 0.5897 3.7796285098609403 10.062330065164499 6.031912244191163 0 0 0
12 1 1 0.5897 3.01377145740301 7.9851382968876425 6.403968117082597 0 0 0
580 1 2 -1.1794 5.250623397688009 11.026446799916375 9.454875020762348 0 0 0
793 1 2 -1.1794 3.0108267677213623 9.6263248256975 5.664405179596162 0 0 0
649 1 2 -1.1794 2.989697950912084 7.248841786433315 9.513908543953937 0 0 0
257 1 1 0.5897 3.0126913001513036 8.955670764354624 10.071764666284855 0 0 0
13 1 2 -1.1794 0.7564399354037019 11.035803551639706 9.364584372220587 0 0 0
527 1 1 0.5897 7.413193796613881 7.881181533720963 9.568285540721453 0 0 0
550 1 2 -1.1794 0.8092743578277651 10.947736368157912 6.637673856424754 0 0 0
713 1 1 0.5897 8.256058150287998 10.211798520175693 6.150529203452489 0 0 0
651 1 1 0.5897 3.7496552602429682 6.766796249014413 9.839975316930673 0 0 0
147 1 1 0.5897 7.507738759808348 7.05886368057954 7.514651505918778 0 0 0
687 1 1 0.5897 4.4766342988208185 6.319035511126565 6.158825654819606 0 0 0
650 1 1 0.5897 3.040238728867484 7.161188029052669 8.562117424345614 0 0 0
10 1 2 -1.1794 3.0432274495030627 7.112540204416579 6.796359294807893 0 0 0
114 1 1 0.5897 1.556086959056554 6.355232092479597 10.126212374855884 0 0 0
145 1 2 -1.1794 7.5661911139532485 7.147307526630002 6.563388711116783 0 0 0
582 1 1 0.5897 5.218403553484576 10.91652998048884 8.504598633454519 0 0 0
794 1 1 0.5897 2.266249053586915 10.101310003224507 6.033472157349625 0 0 0
578 1 1 0.5897 5.981980579284191 10.473979261152852 6.397121165320137 0 0 0
15 1 1 0.5897 1.565888176393211 10.634789291385495 9.68112528197245 0 0 0
258 1 1 0.5897 3.8236348535726044 10.233623841436355 10.106246776673876 0 0 0
714 1 1 0.5897 7.594109239892565 8.853837188539265 6.05170323711681 0 0 0
551 1 1 0.5897 0.7539291017697604 11.012706116162615 7.591012838722563 0 0 0
820 1 2 -1.1794 7.476366137325688 9.594203966935911 10.197750524782787 0 0 0
528 1 1 0.5897 8.135800423127826 6.5545147127010255 9.667222073421817 0 0 0
822 1 1 0.5897 8.298329226506004 9.99980014332475 9.921915724328015 0 0 0
677 1 1 0.5897 5.915455614103672 6.218638052021328 10.116764218334657 0 0 0
577 1 2 -1.1794 5.1803989820032745 10.8670172298892 6.742375504285364 0 0 0
256 1 2 -1.1794 2.9912740092184276 9.857376033877003 10.392300519792691 0 0 0
526 1 2 -1.1794 7.335059688310695 6.957095202752708 9.331130185225323 0 0 0
11 1 1 0.5897 2.2955837689229615 6.652439897574586 6.4148434533378085 0 0 0
146 1 1 0.5897 6.775565796585025 6.720221490160002 6.23365043898889 0 0 0
579 1 1 0.5897 5.175822805845524 11.75537269414984 6.385901670970846 0 0 0
828 1 1 0.5897 7.546316722825121 7.040954455019685 14.99203098657611 0 0 0
261 1 1 0.5897 0.8221018618586426 10.991562281701784 14.854191241987659 0 0 0
332 1 1 0.5897 3.0359184862526063 8.119917665994317 13.794888348166374 0 0 0
797 1 1 0.5897 3.0057927449012665 9.773586678760118 12.210740881128793 0 0 0
796 1 2 -1.1794 3.074525724141246 9.774148907002775 13.16542122963174 0 0 0
798 1 1 0.5897 2.273515926349782 10.205187226669446 13.463427742268246 0 0 0
722 1 1 0.5897 4.556788069010161 10.615904906848867 13.741976417266585 0 0 0
259 1 2 -1.1794 0.746592490975488 11.066751588584726 13.902989710212738 0 0 0
721 1 2 -1.1794 5.381191432849787 11.00852948635525 14.029065829404535 0 0 0
723 1 1 0.5897 5.34478878294842 10.971136111438263 14.984793003162155 0 0 0
331 1 2 -1.1794 3.040990927185345 7.209122750766247 14.089343508934471 0 0 0
225 1 1 0.5897 3.0004347137094625 7.024890150652536 15.831864269676451 0 0 0
826 1 2 -1.1794 7.608737085304484 7.15715969914206 14.04401124580101 0 0 0
475 1 2 -1.1794 7.609175149027527 9.678806538854307 12.94593405169677 0 0 0
476 1 1 0.5897 6.8378966191644635 10.12396664897729 13.296900440236353 0 0 0
477 1 1 0.5897 7.591113320812606 8.811829863760176 13.351264044368863 0 0 0
827 1 1 0.5897 6.845328202373308 6.697083224283369 13.695077672493122 0 0 0
333 1 1 0.5897 3.863463640510735 6.852860613382749 13.753447353205964 0 0 0
366 1 1 0.5897 1.6607677568024402 6.236661083715471 13.502360824975655 0 0 0
821 1 1 0.5897 7.510430022853646 9.6093104184769 11.154176126738506 0 0 0
851 1 1 0.5897 9.02140347397642 6.334633335378344 13.373988505279199 0 0 0
104 1 1 0.5897 9.011710086092076 10.569307790522858 13.475489075136078 0 0 0
279 1 1 0.5897 4.453230428451724 6.173395757815398 17.418979779868216 0 0 0
681 1 1 0.5897 5.281950342585193 11.745384961633563 17.07030063442641 0 0 0
711 1 1 0.5897 9.088467717429749 6.109128794826511 17.386763086120958 0 0 0
680 1 1 0.5897 4.539504006865503 10.427602905578084 17.005300124225414 0 0 0
462 1 1 0.5897 9.003429670075956 6.3263580991396635 20.69597438224703 0 0 0
224 1 1 0.5897 2.9376923595137203 7.862669402513783 17.091217896498478 0 0 0
520 1 2 -1.1794 7.585252475849944 6.881000968592245 16.729323265540557 0 0 0
679 1 2 -1.1794 5.345371000462127 10.85732920546523 16.718714795139 0 0 0
246 1 1 0.5897 9.052355800583257 10.396532826445721 16.774432911325405 0 0 0
522 1 1 0.5897 7.546665145877635 7.794935656074063 17.011301845963906 0 0 0
572 1 1 0.5897 1.4983046327974907 6.0798006725736045 17.273898126458917 0 0 0
160 1 2 -1.1794 7.59354041686222 7.273105702253005 21.309754986059808 0 0 0
647 1 1 0.5897 1.458239055814356 6.181531625569362 20.559846479367245 0 0 0
141 1 1 0.5897 7.5911073125527535 8.880836551875063 20.578593172520527 0 0 0
9 1 1 0.5897 6.8356755412372046 10.017887789647283 17.219363846851174 0 0 0
688 1 2 -1.1794 3.0174269742419515 9.58728790499459 20.267514393711195 0 0 0
521 1 1 0.5897 6.7934072466427855 6.484196743915412 17.092284779632458 0 0 0
361 1 2 -1.1794 5.291884533956024 10.900501346267268 21.17857785361891 0 0 0
7 1 2 -1.1794 7.624370796943779 9.54574842271721 17.486328402035596 0 0 0
394 1 2 -1.1794 0.8543788415507408 11.093773110949446 21.173005259898915 0 0 0
690 1 1 0.5897 2.2997164976851763 10.121266358130972 20.608078458602883 0 0 0
161 1 1 0.5897 6.779154953402525 6.855601353903846 21.029244197879514 0 0 0
287 1 1 0.5897 8.94462142733496 10.54380913623469 20.922485669630866 0 0 0
445 1 2 -1.1794 0.908835651584148 10.982564222941916 16.596295981063783 0 0 0
140 1 1 0.5897 6.777768129405754 10.157731172878709 20.57555215353438 0 0 0
8 1 1 0.5897 7.620211220086612 9.592865948982771 18.442310399551104 0 0 0
4 1 2 -1.1794 2.9652306816889396 7.005562669675427 21.190044463254516 0 0 0
625 1 2 -1.1794 3.0940224235600007 9.578978250436585 17.50654154750812 0 0 0
139 1 2 -1.1794 7.563885821917072 9.76010708094079 20.20121817156381 0 0 0
223 1 2 -1.1794 2.960035602581427 6.955793243681667 16.78566356060717 0 0 0
5 1 1 0.5897 3.7890489467601993 6.627371797314783 20.882616248968233 0 0 0
627 1 1 0.5897 2.303624777897325 10.045547275718178 17.234858074498526 0 0 0
6 1 1 0.5897 2.9968575548716245 7.917374727283355 20.900431165993076 0 0 0
626 1 1 0.5897 3.0710969790448335 9.604828733803384 18.463069566131942 0 0 0
689 1 1 0.5897 3.810465194372608 10.040038041859626 20.55444478713838 0 0 0
362 1 1 0.5897 5.316968766358175 11.802454108596466 20.859001686992762 0 0 0
200 1 1 0.5897 5.1773157134600325 13.463108459097304 4.856566969160831 0 0 0
173 1 1 0.5897 4.498923660696324 14.111219770971635 2.7569574131188612 0 0 0
172 1 2 -1.1794 5.258749409818975 13.613881325052109 3.0595163493616027 0 0 0
293 1 1 0.5897 2.9782738933393493 16.7381429361194 2.895343509948731 0 0 0
558 1 1 0.5897 3.0299148480897156 15.01611934862 1.3233691744710667 0 0 0
556 1 2 -1.1794 3.053550737484722 15.061022517467086 2.279174782920367 0 0 0
557 1 1 0.5897 2.300605118350535 14.542328631211376 2.5624705893455473 0 0 0
478 1 2 -1.1794 7.520065711090553 14.809975581916955 2.118275464912455 0 0 0
174 1 1 0.5897 5.131285654573755 12.736958323366439 2.6975386092685456 0 0 0
479 1 1 0.5897 8.24780459657606 14.323530651497116 2.5055538857094737 0 0 0
449 1 1 0.5897 7.577166560165079 16.497994618777224 2.704860502324823 0 0 0
480 1 1 0.5897 6.73573922436262 14.387909954518287 2.468856334778648 0 0 0
373 1 2 -1.1794 0.834252175157392 13.643691645695476 3.0377207175232326 0 0 0
374 1 1 0.5897 0.8207682959810062 13.610651665362816 3.9942061814653194 0 0 0
308 1 1 0.5897 7.476905056083667 17.47212788400435 4.858456589731914 0 0 0
317 1 1 0.5897 7.482312237498478 14.806712306024515 0.35022890640041804 0 0 0
448 1 2 -1.1794 7.626823571534361 17.396105097820953 3.03228828407805 0 0 0
45 1 1 0.5897 0.7359341642462095 11.968031853925545 2.446299403849479 0 0 0
14 1 1 0.5897 0.8160570641351523 11.949459727257699 9.643791792572449 0 0 0
813 1 1 0.5897 2.170991127128957 14.393587032534333 9.622664348593426 0 0 0
199 1 2 -1.1794 5.155837549963763 13.458088761547577 5.813464637381492 0 0 0
384 1 1 0.5897 2.8999509133080204 16.492909349436054 10.106119066009214 0 0 0
518 1 1 0.5897 7.451117041825433 15.68453751468623 6.377899041073531 0 0 0
376 1 2 -1.1794 7.459909860389661 14.80799104856032 9.507726408091546 0 0 0
377 1 1 0.5897 6.650848664697059 14.390730999325907 9.803586853681649 0 0 0
517 1 2 -1.1794 7.422798542023329 14.790529055754835 6.718807587340917 0 0 0
59 1 1 0.5897 8.887881446103506 13.828181203863082 9.974448760722055 0 0 0
238 1 2 -1.1794 2.88059727680745 17.56069299529386 5.872566217769012 0 0 0
454 1 2 -1.1794 5.104673657252954 13.580286069836879 10.299109946379508 0 0 0
18 1 1 0.5897 3.7418851957635657 14.42798903418295 6.345744564265092 0 0 0
184 1 2 -1.1794 7.308099973328264 17.410743484516583 10.436482640407455 0 0 0
378 1 1 0.5897 7.417964911212552 14.762527781427197 8.552574916529606 0 0 0
656 1 1 0.5897 1.523304095477317 14.096354965923682 6.040189888553451 0 0 0
811 1 2 -1.1794 2.918644561242948 14.894616855768726 9.296769031645137 0 0 0
186 1 1 0.5897 7.412078417264545 16.525801801079563 10.086712509941279 0 0 0
16 1 2 -1.1794 2.968686456940742 14.942162575902081 6.578161329287544 0 0 0
382 1 2 -1.1794 2.8842959745653425 17.368217428623648 10.493233983621726 0 0 0
201 1 1 0.5897 5.944582854641039 13.933883028550161 6.073702215555011 0 0 0
655 1 2 -1.1794 0.8012134315778137 13.551668564439577 5.726934527062678 0 0 0
17 1 1 0.5897 2.943057854026233 14.917983386482907 7.534663453134616 0 0 0
456 1 1 0.5897 5.136817252615607 12.683957877018027 9.964691232710043 0 0 0
239 1 1 0.5897 2.8732504211167953 16.65042237387025 6.16859386963476 0 0 0
766 1 2 -1.1794 0.7009861907246985 13.623420414906906 10.181719255609952 0 0 0
519 1 1 0.5897 8.232909432460843 14.38837761010959 6.405424783901163 0 0 0
812 1 1 0.5897 3.6846718954124857 14.409952110949003 9.604217089281565 0 0 0
307 1 2 -1.1794 7.411081090041449 17.43270830074816 5.8125274886236 0 0 0
552 1 1 0.5897 0.7976003079989116 11.855507268662944 6.334207643445735 0 0 0
429 1 1 0.5897 5.864864965961124 14.030115111452664 13.342288306922866 0 0 0
232 1 2 -1.1794 2.838409378759496 14.820579545940102 14.010025698331386 0 0 0
234 1 1 0.5897 2.927862323507274 14.821348088683672 14.962988896493433 0 0 0
606 1 1 0.5897 2.977546272558586 16.56550005619924 13.499716968659452 0 0 0
427 1 2 -1.1794 5.1032909705655 13.549609725777183 13.017720031201986 0 0 0
233 1 1 0.5897 3.629884057483236 14.3840230777781 13.69505803629161 0 0 0
639 1 1 0.5897 1.442039863010945 14.092477978806642 13.265062757415938 0 0 0
428 1 1 0.5897 5.210851062536302 12.664957646431366 13.367140318260322 0 0 0
297 1 1 0.5897 8.017450588600942 14.407442557231185 13.576681132017146 0 0 0
296 1 1 0.5897 7.372823011897118 14.766849878829746 14.898421060156322 0 0 0
295 1 2 -1.1794 7.2634464296542305 14.861972971144887 13.952308817086402 0 0 0
270 1 1 0.5897 7.473360503249288 16.572594438615916 13.461729806900596 0 0 0
638 1 1 0.5897 0.7371379780433418 12.7528290727989 13.286312417100971 0 0 0
637 1 2 -1.1794 0.6799741271670611 13.632454371808729 12.913138228889819 0 0 0
455 1 1 0.5897 5.046484474459393 13.479957996209084 11.249210070764875 0 0 0
268 1 2 -1.1794 7.540323225081118 17.485649232509793 13.1822195932207 0 0 0
605 1 1 0.5897 2.9508272242533846 17.413506274260858 12.245940087464367 0 0 0
604 1 2 -1.1794 2.993825945095566 17.474505342955307 13.20017791926352 0 0 0
269 1 1 0.5897 7.496304392693595 17.44796339056465 12.226823525677643 0 0 0
767 1 1 0.5897 0.6776124651333321 13.593445788693991 11.138115511779933 0 0 0
49 1 2 -1.1794 7.483537235820043 14.73252044513858 16.70304810759484 0 0 0
823 1 2 -1.1794 3.0848901056128875 14.908625349748686 16.717223606728794 0 0 0
446 1 1 0.5897 0.9734285543761608 11.874881555998703 16.93669330933853 0 0 0
684 1 1 0.5897 4.572649120016328 14.095955329444376 20.65361583809449 0 0 0
664 1 2 -1.1794 3.1309191818921636 14.923017243390717 21.37368886743249 0 0 0
583 1 2 -1.1794 3.061080331759914 17.487692512263184 17.69618355748956 0 0 0
716 1 1 0.5897 3.1029229458017262 17.513230406722883 19.49972578061965 0 0 0
125 1 1 0.5897 5.2113866472542645 13.457587887757423 18.528723656609976 0 0 0
666 1 1 0.5897 3.097090809480412 15.81576783678472 21.029997902882208 0 0 0
682 1 2 -1.1794 5.271832112370761 13.548178539685003 20.296809596470204 0 0 0
715 1 2 -1.1794 3.075690657088774 17.489770273282506 20.45620194093012 0 0 0
451 1 2 -1.1794 0.8264173606848286 13.730771819546801 20.38241339581645 0 0 0
117 1 1 0.5897 8.930394430020211 14.000278650570229 20.608201704107685 0 0 0
452 1 1 0.5897 0.8328905302618151 12.8294376913078 20.70463986208626 0 0 0
318 1 1 0.5897 7.483264796846271 15.805789121905105 21.035345494510217 0 0 0
124 1 2 -1.1794 5.166658204191465 13.426531599535767 17.573122234126757 0 0 0
665 1 1 0.5897 2.3468675836658943 14.500813524903043 21.02265647308986 0 0 0
316 1 2 -1.1794 7.4882309912893765 14.866054567600683 21.217451465433292 0 0 0
126 1 1 0.5897 5.934704493432626 13.917359103624557 17.280862858943777 0 0 0
157 1 2 -1.1794 7.504671560053874 17.466851600011445 20.53856996747559 0 0 0
824 1 1 0.5897 3.814167431101448 14.372310454741076 17.028264957858276 0 0 0
584 1 1 0.5897 3.0470276190286087 16.586555545278948 17.373644481458165 0 0 0
52 1 2 -1.1794 0.932459181298484 13.539780610366124 17.648952295519905 0 0 0
683 1 1 0.5897 6.079717758594125 13.99212900606627 20.55459619494971 0 0 0
159 1 1 0.5897 7.640015890991234 17.407505025184214 19.59289426568531 0 0 0
610 1 2 -1.1794 7.651836684245289 17.268942593000197 17.762452828992046 0 0 0
825 1 1 0.5897 2.3064910523048026 14.494590145539812 17.08990239316993 0 0 0
51 1 1 0.5897 8.235291009163596 14.210820548549021 16.983983305673497 0 0 0
53 1 1 0.5897 0.8420270709634917 13.58254713967005 18.600861970289934 0 0 0
50 1 1 0.5897 7.596429255887575 15.57383792887112 17.145444730852034 0 0 0
267 1 1 0.5897 6.036070740754384 21.75637323217583 2.6413797416385076 0 0 0
696 1 1 0.5897 1.4929910107207787 21.787776835212718 2.7876624753279375 0 0 0
266 1 1 0.5897 4.524591882916404 21.675782984796378 2.6692170261345938 0 0 0
265 1 2 -1.1794 5.311548458291528 21.25492339151104 3.0153263997363013 0 0 0
228 1 1 0.5897 5.32414155875171 19.563222736238707 2.51128727247883 0 0 0
343 1 2 -1.1794 0.6529146436018246 18.824702100939888 2.2190670870498703 0 0 0
249 1 1 0.5897 5.277475057553109 21.32748020514789 4.806854202129993 0 0 0
226 1 2 -1.1794 5.314679103355304 18.656999418803867 2.203154735321566 0 0 0
187 1 2 -1.1794 3.009542489339798 22.493338508586042 2.186514461663144 0 0 0
818 1 1 0.5897 8.25055962587574 22.26158341218446 2.3799302196520826 0 0 0
189 1 1 0.5897 2.9847799377994755 22.5611030590483 1.2320848295665385 0 0 0
344 1 1 0.5897 1.4461561823470437 18.37323332152663 2.5074510367705005 0 0 0
817 1 2 -1.1794 7.469457541832151 22.710261733520188 2.056225049689181 0 0 0
345 1 1 0.5897 0.6964520345239895 18.7994048024971 1.263240908960316 0 0 0
413 1 1 0.5897 0.6375620913371691 21.588291844395936 4.880110103300555 0 0 0
695 1 1 0.5897 0.6650564529370186 20.52038150165742 2.7729947387214477 0 0 0
227 1 1 0.5897 4.487805286477278 18.30139199213255 2.5287843936360854 0 0 0
694 1 2 -1.1794 0.6625018117540389 21.42258190802916 3.0928414501879913 0 0 0
450 1 1 0.5897 6.801890578725115 17.79723966259145 2.7587927903016594 0 0 0
602 1 1 0.5897 5.313838986570893 18.76098714940248 0.42461824381950564 0 0 0
321 1 1 0.5897 9.067095404002766 18.36788442543165 2.5225142207198674 0 0 0
498 1 1 0.5897 7.635609131011856 22.743245226131926 0.2588529048289663 0 0 0
188 1 1 0.5897 3.015269211930058 23.40067849599941 2.4914356330644813 0 0 0
292 1 2 -1.1794 2.902257744185416 17.662534340961308 3.1319947355319737 0 0 0
294 1 1 0.5897 2.8826597617607645 17.664417385708166 4.088944333753634 0 0 0
85 1 2 -1.1794 7.264130173175277 22.587915620949058 9.593113051300552 0 0 0
87 1 1 0.5897 8.04765926810322 22.14119669787462 9.9136571570909 0 0 0
86 1 1 0.5897 7.376123464269974 22.616733963659513 8.64297262638177 0 0 0
553 1 2 -1.1794 5.0215706411848755 21.312310660663314 10.476913728696259 0 0 0
33 1 1 0.5897 6.704929682179773 22.14342102115477 6.461943789561469 0 0 0
701 1 1 0.5897 3.0753852343236145 22.743715105440803 7.474714536493905 0 0 0
403 1 2 -1.1794 0.5904923022899682 18.654403592366144 9.569441430430905 0 0 0
185 1 1 0.5897 8.056191260468491 17.895883086555877 10.088318551664562 0 0 0
247 1 2 -1.1794 5.290516700172317 21.343645272480234 5.763779644225658 0 0 0
248 1 1 0.5897 4.494918439931872 21.817210947022694 6.0066553123618895 0 0 0
32 1 1 0.5897 8.218493825986245 22.11756797479626 6.444990135184796 0 0 0
37 1 2 -1.1794 2.940413692098025 22.66998631990564 9.28030429664388 0 0 0
555 1 1 0.5897 5.071561193116354 20.413871919787947 10.150444799134632 0 0 0
341 1 1 0.5897 1.5442053724808968 18.55168669119094 6.546665014570217 0 0 0
404 1 1 0.5897 1.3671885973788813 18.2244821650608 9.92739154029458 0 0 0
340 1 2 -1.1794 0.7572705550692556 19.02803810955732 6.8113276001840966 0 0 0
101 1 1 0.5897 5.85049801004337 18.31169636811834 9.906894283672065 0 0 0
554 1 1 0.5897 5.818658591069765 21.7306241111523 10.151520866157004 0 0 0
31 1 2 -1.1794 7.473626319197568 22.589003937008524 6.818000841728467 0 0 0
700 1 2 -1.1794 3.0819233398135277 22.75053910468176 6.517610602239953 0 0 0
309 1 1 0.5897 8.218420797919945 17.840468069280902 6.125818216695832 0 0 0
386 1 1 0.5897 6.01386813761352 18.322552113738 6.46157035532324 0 0 0
100 1 2 -1.1794 5.077175355016828 18.75634785924295 9.55979959365737 0 0 0
414 1 1 0.5897 0.727110870021128 20.76081349961675 6.144640115416538 0 0 0
412 1 2 -1.1794 0.6981102075905378 21.665161564235 5.8322476204948055 0 0 0
405 1 1 0.5897 0.6821123459155113 19.57100509608326 9.829687904701574 0 0 0
385 1 2 -1.1794 5.207835061433077 18.73007129202766 6.7785155676403095 0 0 0
94 1 2 -1.1794 0.7872804564822651 21.265588904869258 10.23238840687119 0 0 0
102 1 1 0.5897 5.188132346288065 18.724179264658723 8.609645504069809 0 0 0
38 1 1 0.5897 2.16333661000457 22.22399219962273 9.617138286660131 0 0 0
702 1 1 0.5897 2.255132407053956 22.337207823813593 6.26903029054179 0 0 0
383 1 1 0.5897 3.6443170867398442 17.811172494740568 10.115907138124513 0 0 0
342 1 1 0.5897 0.6897999217840691 18.875121662407317 7.75377471226748 0 0 0
240 1 1 0.5897 3.7118169263599023 17.91065541793524 6.193210683553734 0 0 0
387 1 1 0.5897 5.24512273953987 19.62668410402895 6.445393439957257 0 0 0
39 1 1 0.5897 3.6756627134968065 22.208876101107542 9.684040742763447 0 0 0
88 1 2 -1.1794 5.226751862776246 21.442611694212935 13.1811167448497 0 0 0
381 1 1 0.5897 1.4739981433670273 21.62500504830827 13.375091265848438 0 0 0
90 1 1 0.5897 5.177968065945522 20.533613293819492 13.477122930244038 0 0 0
763 1 2 -1.1794 5.248551616651532 18.85114653401396 14.063334145545193 0 0 0
738 1 1 0.5897 3.705563365296199 22.13536513188876 13.899154918898246 0 0 0
89 1 1 0.5897 5.112195168285488 21.392422729263508 12.2321714278583 0 0 0
736 1 2 -1.1794 2.8529374939972914 22.489958349612635 14.151160107903682 0 0 0
789 1 1 0.5897 6.784858394774089 22.192516530336817 13.665907297454881 0 0 0
765 1 1 0.5897 5.978804884589362 18.341380916234257 13.712484230326261 0 0 0
787 1 2 -1.1794 7.551899158336024 22.651310731497194 14.008519998514846 0 0 0
503 1 1 0.5897 1.5244543940364206 18.241086758904757 13.776441718926097 0 0 0
764 1 1 0.5897 4.466469275806731 18.40419180442365 13.739608940901764 0 0 0
474 1 1 0.5897 5.357742923313839 18.749092914487363 15.870218280823016 0 0 0
350 1 1 0.5897 2.88829224968437 22.58353532737452 15.930332245830964 0 0 0