LAMMPS data file via write_data, version 30 Jul 2021, timestep = 18000000

864 atoms
2 atom types
576 bonds
1 bond types
288 angles
1 angle types

0.7077557209479046 17.499816679050284 xlo xhi
1.9251740223951561 21.704003777602907 ylo yhi
0.8634603264321683 21.34973547356733 zlo zhi

Masses

1 1.00794
2 15.9994

Pair Coeffs # lj/cut/tip4p/long/omp

1 0 0
2 0.21084 3.1668

Bond Coeffs # harmonic/omp

1 450 0.9572

Angle Coeffs # harmonic/omp

1 55 104.52

Atoms # full

128 1 1 0.5897 1.1978878597970084 3.9556562671806286 2.391196674467216 -1 2 -2
391 1 2 -1.1794 2.9423998216379825 4.587119478370234 2.9722580454192546 0 -5 -2
393 1 1 0.5897 2.760069166560894 5.1480359032864325 3.7261264437903314 0 -5 -2
17 1 1 0.5897 2.35838743829976 3.3216514966592605 5.844668221352002 -5 1 5
87 1 1 0.5897 1.2567644999785292 2.012037178211532 1.5389930630030288 -2 11 2
37 1 2 -1.1794 2.47191826802172 6.348708785549551 5.3385857354267525 -2 9 -5
392 1 1 0.5897 3.0739745933560383 3.7163455899718256 3.3472841315965427 0 -5 -2
494 1 1 0.5897 2.6848091734966575 4.8729743670018495 1.1619740593468588 0 3 2
505 1 2 -1.1794 4.34555562041215 3.7892083107632466 5.727954200260399 7 0 -3
644 1 1 0.5897 4.393938423204318 5.618934549909056 8.699964184846658 -1 -2 2
473 1 1 0.5897 4.161225655138625 4.107012132712076 10.422427120410818 -1 -1 -5
16 1 2 -1.1794 1.4289015756679522 3.201612993590793 6.039281984669735 -5 1 5
604 1 2 -1.1794 2.1634996070984487 3.941454256194111 8.855080229151184 -5 2 -2
605 1 1 0.5897 1.4842764253670384 4.254693922633056 9.45235429457521 -5 2 -2
791 1 1 0.5897 3.2579459914720954 2.472990241497358 8.863943117699266 4 2 -3
687 1 1 0.5897 2.5940488690995194 5.773723682079131 10.051839613719478 9 -10 -4
472 1 2 -1.1794 4.751181582415618 4.814538339761568 10.162496979549077 -1 -1 -5
606 1 1 0.5897 1.904031859242926 4.279643698223719 7.998054427706902 -5 2 -2
643 1 2 -1.1794 4.425313065120288 5.932433473873958 7.796115438321423 -1 -2 2
506 1 1 0.5897 4.270033160681968 4.511769445852555 6.3511785805134044 7 0 -3
557 1 1 0.5897 1.3725609691299396 2.265173035828982 8.705983041969844 0 3 0
645 1 1 0.5897 3.9515472824285234 6.763967236976649 7.813950112880902 -1 -2 2
685 1 2 -1.1794 2.397263616286905 6.67467811113269 10.308251590374185 9 -10 -4
18 1 1 0.5897 1.3776035575727035 2.333473946244381 6.439173369218563 -5 1 5
38 1 1 0.5897 2.062290034422464 6.518002423446991 6.186962652424226 -2 9 -5
529 1 2 -1.1794 2.82458163169763 4.172510209515412 14.19507816089465 -7 3 -7
151 1 2 -1.1794 3.2979265137258817 2.9806234991310507 11.785540946162044 5 0 0
531 1 1 0.5897 1.948322039438364 3.822086157625216 14.354992252520091 -7 3 -7
153 1 1 0.5897 4.1757399231320855 2.6434998125864633 11.96438133069581 5 0 0
323 1 1 0.5897 4.434943836698288 3.767577920187425 15.023132190696892 13 0 -4
530 1 1 0.5897 2.674336036561292 5.074348682158176 13.911680056911084 -7 3 -7
152 1 1 0.5897 3.0632864790289167 3.4694615788049594 12.57431801220796 5 0 -1
384 1 1 0.5897 2.360528693258467 2.33581774727109 15.965651541631885 -9 -1 -3
411 1 1 0.5897 1.982165294519328 6.699875594343345 12.10304568214542 5 -1 -4
409 1 2 -1.1794 2.0926141048673648 6.7244336046564195 13.053518563172563 5 -1 -4
156 1 1 0.5897 1.1734310985017011 6.065717151661697 18.05494946454804 0 1 -5
382 1 2 -1.1794 1.8641844119301962 2.8673775499833036 16.587972438377047 -9 -1 -3
383 1 1 0.5897 2.324449561568209 2.7554770415140473 17.41974126681915 -9 -1 -3
601 1 2 -1.1794 3.013125393004081 2.609327536318344 19.1594454210748 2 9 -3
547 1 2 -1.1794 2.9193250237990327 5.896628898581213 17.113022481987098 8 -6 6
549 1 1 0.5897 2.614271577550981 6.4832537504418 16.420900669477426 8 -6 6
603 1 1 0.5897 2.8208713837554407 3.4434629149566227 19.58776754127425 2 9 -3
602 1 1 0.5897 3.9164756871811033 2.698123436245224 18.855669488673477 2 9 -4
47 1 1 0.5897 4.645845970997257 5.60312247417092 18.204810084297836 7 1 2
495 1 1 0.5897 2.057230476332688 5.651599017645056 20.51173064280636 0 3 1
548 1 1 0.5897 2.721224899569153 5.0184168793023645 16.787880613529964 8 -6 6
493 1 2 -1.1794 2.4735094974972274 4.814364049394969 20.716526177796318 0 3 1
684 1 1 0.5897 4.816080000215643 6.128456208031827 20.91287387725843 8 4 -3
44 1 1 0.5897 4.3015340405284075 3.8020289297006165 20.90084537006442 3 10 -4
435 1 1 0.5897 4.714160026410946 6.728710413011537 16.239907430080514 -1 -1 0
115 1 2 -1.1794 2.9709698402929665 8.249608283677293 1.9754964200539407 1 -4 3
504 1 1 0.5897 2.0856682116635135 9.562166314359521 4.476005576142018 -7 1 4
117 1 1 0.5897 3.6615821695323865 7.663614867694463 1.6658699939447559 1 -4 3
364 1 2 -1.1794 3.888263269876098 8.859352218134225 4.551880317803629 2 9 0
116 1 1 0.5897 2.1627671267856377 7.74980376165706 1.8606292416666097 1 -4 3
366 1 1 0.5897 4.113131607004629 8.595403233126142 3.6597127336530715 2 9 0
233 1 1 0.5897 2.793855440371706 10.187556951576262 1.1997821880246353 -3 -2 -1
365 1 1 0.5897 4.608074741881927 9.429472504690613 4.822108081838662 2 9 0
502 1 2 -1.1794 1.273954457975435 10.060286238456767 4.571879607508347 -7 1 4
39 1 1 0.5897 3.1514516434531403 7.018488794591329 5.26226917963636 -2 9 -5
165 1 1 0.5897 1.3369352802191923 11.540327804729973 5.753917095202607 1 2 -4
447 1 1 0.5897 1.0018320095305722 7.199387658567993 4.45111081591522 4 -1 0
503 1 1 0.5897 0.8550845219972096 10.004195010950891 3.713028630768583 -7 1 4
497 1 1 0.5897 3.0400543947901855 8.86896541263253 6.935777034894255 -1 1 -2
828 1 1 0.5897 1.3704269392053763 10.249816962905877 10.136436188880415 4 0 2
826 1 2 -1.1794 2.1948711939314984 10.051028793031389 9.6925814591858 4 0 2
686 1 1 0.5897 1.7670143019664322 6.977951760614392 9.654798001359481 9 -10 -4
498 1 1 0.5897 2.6300545587622066 8.877340073790515 8.393091324137776 -1 1 -3
496 1 2 -1.1794 3.1046464703326886 8.35900101126835 7.743234502636172 -1 1 -2
656 1 1 0.5897 3.8186274764954042 7.792488858810283 10.34345546647935 0 2 -2
827 1 1 0.5897 2.7399638389349246 9.647632684521067 10.368130637002755 4 0 2
655 1 2 -1.1794 4.520726459059096 8.429055445297486 10.477737503879615 0 2 -2
657 1 1 0.5897 4.815206206553282 8.651418798704539 9.59454499070547 1 2 -2
23 1 1 0.5897 2.1548600047609368 11.80052706638307 9.446578831554302 -3 2 4
410 1 1 0.5897 2.806219960045305 7.346210609942737 13.196207693367075 5 -1 -4
832 1 2 -1.1794 0.994852991530159 6.912953936391647 15.58907151935473 1 -3 0
517 1 2 -1.1794 4.147122266582547 11.548785814524667 15.24599801458481 -3 1 -8
535 1 2 -1.1794 1.7063875280386083 9.857015437330396 14.609568978539102 7 11 6
536 1 1 0.5897 0.8822637808823195 9.558030354328565 14.225344683989148 7 11 6
537 1 1 0.5897 1.5328835052657772 10.759452730342561 14.87732566318594 7 11 6
78 1 1 0.5897 4.321398608790757 8.563068809540443 14.39749333567687 -6 -4 -5
801 1 1 0.5897 3.1024810292592298 9.427402533178231 16.083091450810848 -1 -1 3
76 1 2 -1.1794 4.5536082644694025 8.231846681226523 13.529982843287108 -6 -4 -5
77 1 1 0.5897 4.50098148911011 8.99796649947702 12.958582209189993 -6 -4 -5
640 1 2 -1.1794 4.23056000627679 10.8773182911322 12.263983049413204 5 3 -7
518 1 1 0.5897 4.028385357401595 11.225325637413178 14.352989939644834 -3 1 -8
642 1 1 0.5897 3.849447202720337 11.695437798602818 11.945184154235928 5 3 -7
833 1 1 0.5897 1.3138579342335857 6.973681331209513 14.688661808051272 1 -3 0
675 1 1 0.5897 1.1489999792383436 10.789049008061157 18.42916209173973 -2 -4 -1
417 1 1 0.5897 1.5907261673672317 7.841147397689717 19.320874998081408 -5 0 -2
415 1 2 -1.1794 2.33683488371638 8.37642136599735 19.050695281399484 -5 0 -2
800 1 1 0.5897 2.911945817647943 8.418012961131613 17.19515787591288 -1 -1 3
673 1 2 -1.1794 1.3172299030297898 11.576859074751333 18.946127926408998 -2 -4 -1
416 1 1 0.5897 2.333630634231641 9.116440835938164 19.65778305978671 -5 0 -2
674 1 1 0.5897 1.7218907651101472 11.253754714924026 19.75115012736299 -2 -4 -1
234 1 1 0.5897 3.836745580724642 10.291950832260564 20.593655696544253 -3 -2 -2
799 1 2 -1.1794 3.572824544873792 8.774603288164624 16.6016050970661 -1 -1 3
232 1 2 -1.1794 2.9710139102677213 10.612343330126 20.846773691134732 -3 -2 -2
843 1 1 0.5897 4.754560331004701 8.48680955194813 19.421084861372965 -5 1 0
488 1 1 0.5897 2.3271142012110184 14.828294062870656 3.907202117594561 0 -4 4
509 1 1 0.5897 1.9335669632260917 12.716287381937521 2.007088650645544 5 -1 4
612 1 1 0.5897 4.202783558740326 13.786477389109104 5.0380959552974796 3 5 -4
614 1 1 0.5897 1.5880553245066746 15.501403304741043 1.5584948542124877 -12 5 4
613 1 2 -1.1794 1.5789634094821672 15.807889307432909 2.4652365377471277 -12 5 5
487 1 2 -1.1794 2.640263132794108 14.591386597352354 4.78015325085007 0 -4 4
489 1 1 0.5897 1.8553542274896382 14.304109291757545 5.246796679617474 0 -4 4
651 1 1 0.5897 3.9365481967914677 14.21574671757616 2.201648664926937 5 -5 1
50 1 1 0.5897 4.736962533378626 12.191604046272472 2.5734887450797874 10 2 -1
649 1 2 -1.1794 3.7315786731469855 13.353894655480483 1.8391385287182622 5 -5 1
458 1 1 0.5897 4.750869485459925 15.71176462236515 3.4770344917940372 0 3 -5
650 1 1 0.5897 4.274207406942008 13.288840972505415 1.0533189875192237 5 -5 1
508 1 2 -1.1794 0.9978022073774631 12.569270316793766 1.869346472801844 5 -1 4
615 1 1 0.5897 1.985918154874342 16.673550791349747 2.4300629527892053 -12 5 5
24 1 1 0.5897 2.725698863369158 13.19672140859737 9.317727876117527 -3 2 4
22 1 2 -1.1794 1.9600998164570755 12.71837207999934 9.635898801400915 -3 2 4
138 1 1 0.5897 3.251710484441033 15.523467674498887 7.6692940031997665 7 -8 3
164 1 1 0.5897 2.386890297820612 12.033142641779591 6.726823392463828 1 2 -4
705 1 1 0.5897 4.217558719597893 15.72400257301402 9.73463561068942 2 3 -3
136 1 2 -1.1794 4.1407815984536205 15.236910734091833 7.878168057925733 7 -8 3
163 1 2 -1.1794 1.557276066930852 12.28102064691088 6.318769715684428 1 2 -4
317 1 1 0.5897 4.512552702595601 11.825135319233665 8.467675715262374 0 -3 -1
454 1 2 -1.1794 1.4466882288422895 16.106366018405957 7.5990974475722215 0 -3 4
703 1 2 -1.1794 4.075225251954354 16.056431337744286 10.620885655286067 2 3 -3
316 1 2 -1.1794 4.05193881362221 12.050873087035155 7.659531365211957 0 -3 0
318 1 1 0.5897 4.339420254773424 12.941923679789971 7.46036388811582 0 -3 0
137 1 1 0.5897 4.690514201906117 15.994200156670562 7.6769198859041055 7 -8 3
704 1 1 0.5897 4.871750835147207 16.546796978387547 10.824058439786896 2 3 -3
519 1 1 0.5897 3.8254675222755647 12.449912537725808 15.219591990147162 -3 1 -8
779 1 1 0.5897 1.760438423840171 15.58991720601688 13.427247888887404 0 -2 1
755 1 1 0.5897 4.562223492927194 14.397698527836397 15.538596525698782 -4 -3 -7
754 1 2 -1.1794 3.9015830808573133 14.254513288400988 14.860916542474733 -4 -3 -7
95 1 1 0.5897 3.773199550450137 14.608166569480565 11.703472018395445 -7 3 -2
96 1 1 0.5897 3.9550749335892172 13.902833765771867 13.030581922879357 -8 3 -2
70 1 2 -1.1794 1.2837587420667749 12.574292774344203 15.328368550693297 6 0 -6
94 1 2 -1.1794 3.8173030164547708 13.73717691291223 12.097969732598932 -8 3 -2
71 1 1 0.5897 1.203767215125465 12.820806089609162 14.40693856596978 6 0 -6
756 1 1 0.5897 3.2241400627357755 14.905228154381048 15.044893735643127 -4 -3 -7
778 1 2 -1.1794 1.9700445879539763 16.365571834816897 12.907036904422265 0 -2 1
281 1 1 0.5897 1.5858069801136678 13.456593346369445 11.876578688703288 -5 1 1
280 1 2 -1.1794 0.9779513797484886 13.05497340579068 12.497394640771642 -5 1 1
780 1 1 0.5897 2.926309425479263 16.40700474494527 12.91255132053821 0 -2 1
216 1 1 0.5897 1.1366515340798902 15.189281586693 16.646857898131252 -3 -2 4
214 1 2 -1.1794 1.5611854631576503 14.830458159851258 17.426097537963184 -3 -2 4
354 1 1 0.5897 1.0992441076702562 13.882571817571678 20.61313032445788 8 1 -3
330 1 1 0.5897 3.0073873359133176 15.707523314276862 18.452098894992854 5 6 -1
765 1 1 0.5897 2.8324355595424686 12.34665286806083 18.376117883484987 -5 -1 -4
215 1 1 0.5897 1.898463009942354 13.979781315248097 17.145414028143406 -3 -2 4
352 1 2 -1.1794 1.2283341267129324 14.79726400842265 20.36235115813648 8 1 -3
353 1 1 0.5897 1.1198695898415765 14.802961649062052 19.41135083091577 8 1 -3
763 1 2 -1.1794 3.6264731042950946 12.620114949179706 17.916865445541685 -5 -1 -4
328 1 2 -1.1794 3.9208708009905786 15.962464642373021 18.581745729246965 5 6 -1
764 1 1 0.5897 3.666556803306915 12.051886644824725 17.147644967864277 -5 -1 -4
53 1 1 0.5897 2.338082336201073 18.728372942923734 2.1965102562939265 -3 -6 4
403 1 2 -1.1794 1.1040983576500625 19.902778197853117 4.669225669227641 5 -1 -3
369 1 1 0.5897 2.9178782706716633 18.07149982845621 4.695539182794194 6 5 -1
52 1 2 -1.1794 2.8334201089261613 18.26906990783197 2.8746536491377355 -3 -6 4
367 1 2 -1.1794 3.024454369713131 17.714532931568172 5.577252262599409 6 5 0
135 1 1 0.5897 3.2820202601254693 21.286742390957123 4.3899076959713526 1 -7 3
852 1 1 0.5897 4.670345355794887 16.961031657417884 1.406887070194403 -6 0 -2
134 1 1 0.5897 2.717264703321514 21.164809836321858 2.990631316940217 1 -7 3
404 1 1 0.5897 1.1830955451383556 19.51976799674413 3.7955821311114817 5 -1 -3
68 1 1 0.5897 4.443177936944675 16.916918342665515 5.318826276781129 2 -4 -5
54 1 1 0.5897 3.748467396455788 18.47695828527297 2.685806873251158 -3 -6 4
85 1 2 -1.1794 1.7274729108865834 20.966566393552746 1.4158489444689089 -2 10 2
133 1 2 -1.1794 3.3847287859057724 21.624270449067666 3.5001202181443976 1 -7 3
368 1 1 0.5897 2.5531314745494704 16.88166748400377 5.557558518091582 6 5 0
552 1 1 0.5897 4.596935025246109 20.282160583849162 1.7654497632736668 -3 4 -5
550 1 2 -1.1794 4.4528671547477305 20.576487621567942 0.8661065207989864 -3 4 -5
702 1 1 0.5897 2.877100835051788 18.731497364330664 9.473136475899437 0 3 -1
556 1 2 -1.1794 0.8628996314413138 21.249915933018535 8.866854779502095 0 2 0
33 1 1 0.5897 3.4037062441168575 19.804313782249068 6.347705613387902 5 4 2
31 1 2 -1.1794 3.8879660060928503 20.601189885247983 6.131654229117349 5 4 2
701 1 1 0.5897 3.7102240455063598 19.83721145791469 8.860681677017514 0 3 -1
700 1 2 -1.1794 3.4616029228328515 18.92090614144434 8.739181257121748 0 3 -1
558 1 1 0.5897 1.251421308336786 20.871020406618563 9.655327119743173 0 2 0
456 1 1 0.5897 1.2682444861900144 16.975069846317943 7.238918400468721 0 -3 4
319 1 2 -1.1794 1.3211616002899136 17.469726624080728 10.316854209332664 4 -2 5
792 1 1 0.5897 3.96570874613355 21.442893403015425 7.797875136362516 4 1 -3
321 1 1 0.5897 2.1018477381869323 17.13204163012846 10.755854054260473 4 -2 5
320 1 1 0.5897 1.3267857767316538 17.04674195481207 9.45821993006949 4 -2 5
32 1 1 0.5897 4.788595144568301 20.305897696707945 5.997919548659791 5 4 2
790 1 2 -1.1794 3.991760698049517 21.651635334692124 8.73165146174216 4 1 -3
731 1 1 0.5897 0.9425861714303103 19.058015745220317 6.424112371786191 5 6 -2
515 1 1 0.5897 4.823925627256908 17.916261376021836 8.154276632272229 -5 -3 1
839 1 1 0.5897 3.8624283640278345 20.581647482396257 14.717485552393745 0 -2 -5
838 1 2 -1.1794 3.116507116152262 20.540403589076668 15.315904138244035 0 -2 -5
443 1 1 0.5897 1.760866698201394 18.121297594557177 13.3743924896122 4 1 -4
442 1 2 -1.1794 1.5791326196654625 19.038855108959815 13.577509925557907 4 1 -4
466 1 2 -1.1794 2.065098626203632 20.364932691308034 11.240137660593335 11 -3 11
855 1 1 0.5897 4.596443783630431 17.780645964364368 13.170893791287504 1 -1 4
840 1 1 0.5897 2.4508281007149098 20.047599812482368 14.836044163685536 0 -2 -5
57 1 1 0.5897 3.4644604461062687 17.150326896382474 15.277517482379972 -4 0 -1
55 1 2 -1.1794 2.826329311828769 16.89297808074413 15.94293700520583 -4 0 -1
467 1 1 0.5897 1.966632898443283 19.9787494058726 12.110408023791157 11 -3 11
468 1 1 0.5897 2.3870948477479885 21.250979152167616 11.405804667949605 11 -3 11
638 1 1 0.5897 4.0025309493459025 19.56689031805353 11.661239969066758 -6 1 3
637 1 2 -1.1794 4.739800204541354 18.96376427807472 11.755382604684128 -6 1 3
853 1 2 -1.1794 4.5753688153473595 17.053574639525017 13.793101827547497 1 -1 4
2 1 1 0.5897 3.4214850120945868 19.80699531967298 18.34881511642301 0 -6 -2
84 1 1 0.5897 1.2191951522963431 18.095038575188305 16.297762397838184 -1 1 -7
478 1 2 -1.1794 1.5701953264910637 20.074451104888972 19.057845438406883 2 3 -6
3 1 1 0.5897 3.757009508606227 19.541752804647714 16.896624012292786 0 -6 -2
851 1 1 0.5897 3.66582294141007 17.63100880721552 20.979984702806195 -6 0 -3
56 1 1 0.5897 3.292376596720286 16.991439869579565 16.77318033118626 -4 0 -1
246 1 1 0.5897 1.7624603186755672 18.420685922068067 19.793244271392464 0 4 1
244 1 2 -1.1794 1.9019328296861864 17.605865518492486 20.275770721051973 0 4 1
479 1 1 0.5897 1.7579014363892422 21.010442364464225 18.987786464273693 2 3 -6
1 1 2 -1.1794 4.053211220227672 19.357037350067344 17.787880180892053 0 -6 -2
480 1 1 0.5897 1.403389350170731 19.79511765082951 18.15765201056184 2 3 -6
329 1 1 0.5897 3.87303602434594 16.822353616668316 18.99948716307899 5 6 -1
850 1 2 -1.1794 4.5983426606243825 17.611879448564782 21.195009613043407 -6 0 -3
245 1 1 0.5897 1.0987827224272975 17.104068347380625 20.13653923083807 0 4 1
86 1 1 0.5897 2.4558843170769675 21.190378445612836 21.322878970399305 -2 10 1
452 1 1 0.5897 5.823154128350754 3.1868400064008275 2.5178589306524164 -3 -2 4
305 1 1 0.5897 6.039330875650931 6.010114915363213 5.571732810351583 -4 -3 -5
451 1 2 -1.1794 6.164969435170716 2.7146068625509034 3.277035808720532 -3 -2 4
103 1 2 -1.1794 8.275310047566263 4.891176319533425 3.038579219004742 6 -2 4
104 1 1 0.5897 8.076840321994055 3.9917040629947325 3.2988712451972395 6 -2 4
19 1 2 -1.1794 5.57774875331893 5.627592499523056 3.7679799036414092 -3 -6 3
315 1 1 0.5897 7.855746184343341 4.250000908396512 1.3548949629932139 0 -3 2
105 1 1 0.5897 7.584324129157338 5.415970314568302 3.442706757169408 6 -2 4
682 1 2 -1.1794 5.041550843240782 6.62460544678502 1.2134948562543677 8 4 -2
20 1 1 0.5897 5.394142405276635 4.710608192902164 3.9721024524923494 -3 -6 2
21 1 1 0.5897 5.210844608906926 5.756888209983927 2.8933938407013144 -3 -6 3
43 1 2 -1.1794 4.952013689088645 3.4420917143186234 1.017498328597299 3 10 -3
453 1 1 0.5897 5.4651698096624015 2.1071276726384807 3.51679770349215 -3 -2 4
539 1 1 0.5897 8.112202788946519 5.472351775168293 9.193013359884086 -2 -4 -1
560 1 1 0.5897 6.159536972762761 4.270654056051722 9.021468058958902 0 5 1
559 1 2 -1.1794 6.990098125559817 4.139433963103114 8.564116139941648 0 5 1
807 1 1 0.5897 8.20741394547597 5.638862271955757 6.359298966983561 7 -1 -4
538 1 2 -1.1794 8.1875291173994 6.371924801901697 9.511294911362143 -2 -4 -1
561 1 1 0.5897 6.775301230620634 3.5504999712630934 7.840768283700344 0 5 1
394 1 2 -1.1794 6.645687341147398 2.545342387891339 6.44451528130496 8 -2 4
540 1 1 0.5897 9.019287845442003 6.68379556388585 9.15471591734281 -2 -4 -1
306 1 1 0.5897 6.162013706905719 6.13170039304007 7.075731117816964 -4 -3 -5
474 1 1 0.5897 4.984141964069755 5.246811746903198 10.984122230994368 -1 -1 -5
279 1 1 0.5897 7.830869531861594 4.726879693974466 11.007789389912942 0 6 0
507 1 1 0.5897 5.102858089518851 3.288639337637317 6.031478427992299 7 0 -3
491 1 1 0.5897 9.092318743016959 2.4660131040904454 9.256920561770606 1 7 7
304 1 2 -1.1794 6.622683713473041 6.329226065340099 6.260267021721677 -4 -3 -5
395 1 1 0.5897 7.550554375835062 2.773397232271368 6.2314340467030656 8 -2 4
113 1 1 0.5897 5.4226907968478155 6.347009618988701 13.159063029319006 -4 -5 5
322 1 2 -1.1794 5.160390053616279 3.5155148719100175 15.594452514549776 13 0 -4
786 1 1 0.5897 7.547381168632994 6.249202401197175 15.71512112098845 6 4 6
112 1 2 -1.1794 5.501656956412411 5.531412880805272 12.664316816506167 -4 -5 5
804 1 1 0.5897 7.7855690373151605 2.850604843362806 15.288007503108648 5 3 1
802 1 2 -1.1794 7.53254209993659 2.8948512424538686 14.365931471624636 5 3 1
803 1 1 0.5897 7.862558779617177 3.7421229018306175 14.066899229003514 5 3 1
324 1 1 0.5897 5.867346947453092 3.2785254008143476 14.994230016309832 13 0 -4
433 1 2 -1.1794 5.512336501333016 6.32785619097409 15.89575079088656 -1 -1 0
64 1 2 -1.1794 5.913465055867023 2.3161071037151566 11.883469416192101 7 2 -2
114 1 1 0.5897 6.435383744440956 5.460454323934714 12.466034204971917 -4 -5 5
66 1 1 0.5897 6.620785617528468 2.927832420284232 11.679256491421235 7 2 -2
277 1 2 -1.1794 7.7948231884405015 4.211894202688688 11.8138281650082 0 6 0
784 1 2 -1.1794 8.398790965282075 5.911039145613522 15.437734170239871 6 4 6
239 1 1 0.5897 8.971243056447692 6.39685151879087 13.662432298692243 -6 -2 -4
434 1 1 0.5897 5.3664948519602085 5.386201428850435 15.986861069623222 -1 -1 0
278 1 1 0.5897 8.709175671087099 4.005936488690269 12.008108486482136 0 6 0
240 1 1 0.5897 8.399553917099388 6.806074295697369 12.321724252214308 -6 -2 -4
785 1 1 0.5897 8.9808090203789 6.091617306370476 16.17588192852824 6 4 6
48 1 1 0.5897 5.604455776305717 4.603030118291546 18.815302434753274 7 1 2
341 1 1 0.5897 7.7091818905828555 5.915811580193306 20.95143792272 -1 4 -4
379 1 2 -1.1794 8.486656160730732 4.712190212267075 18.584991203814848 4 4 -2
591 1 1 0.5897 6.48556316185868 2.460726930545634 18.666846481667026 1 3 3
380 1 1 0.5897 8.111220928472957 5.578365642344533 18.426938912319706 4 4 -2
381 1 1 0.5897 8.072026901800367 4.415065553345654 19.394923742432912 4 4 -2
313 1 2 -1.1794 7.500837677760122 4.12370891527971 20.96123564432526 0 -3 1
589 1 2 -1.1794 5.686762400371299 2.865745867093936 18.329103222946003 1 3 3
314 1 1 0.5897 6.582653350539257 3.8936709745497105 21.103531254305096 0 -3 1
590 1 1 0.5897 5.808595961302979 2.8816119777730864 17.379838282805004 1 3 3
426 1 1 0.5897 8.564194092445746 3.335792033404511 17.62489427888566 6 -5 5
424 1 2 -1.1794 8.556636125244236 2.810722865322524 16.82461191978716 6 -4 5
340 1 2 -1.1794 7.736179064164023 6.8679208702283985 21.046128096430763 -1 4 -4
744 1 1 0.5897 6.52561546761625 6.660111640054273 18.176469416148006 -2 -1 -2
46 1 2 -1.1794 5.191247605611986 5.451226912441933 18.976601537936347 7 1 2
45 1 1 0.5897 4.937655061287177 2.499555678566432 21.337578957253033 3 10 -4
63 1 1 0.5897 7.237703705831281 8.214107013798856 5.2260042757285765 -2 -2 0
62 1 1 0.5897 8.246524894460045 7.715107049599803 4.213532379469278 -2 -2 0
789 1 1 0.5897 5.588105291831227 9.95718348331803 2.542888453856922 3 -6 7
61 1 2 -1.1794 7.786385032284306 8.504906713792472 4.497594057399302 -2 -2 0
788 1 1 0.5897 6.379753736569885 8.847813567725881 3.2020011564040365 3 -6 7
144 1 1 0.5897 8.264733294306264 11.112200399675752 3.926062209440087 -3 0 5
298 1 2 -1.1794 8.503935467360758 10.678585879708328 2.3124576318540955 -6 0 4
787 1 2 -1.1794 5.737116618319913 9.012181723278061 2.51191669971279 3 -6 7
142 1 2 -1.1794 8.02964900158712 11.43520722048071 4.79590040319478 -3 0 5
402 1 1 0.5897 6.489685455514495 10.401616222039213 5.226467702622334 -2 -4 -2
400 1 2 -1.1794 5.797018828950171 10.157951231981812 5.840498738693765 -2 -4 -2
300 1 1 0.5897 8.94404041753509 9.830073038493733 2.36284828648349 -6 0 4
143 1 1 0.5897 8.839724720334265 11.373064053627179 5.3019977685709145 -3 0 5
683 1 1 0.5897 5.910477887258801 6.982173395855883 1.0309639113521025 8 4 -2
203 1 1 0.5897 9.00477590590286 9.297990604318983 5.548175451376992 -2 -1 5
331 1 2 -1.1794 6.457478780021255 8.697516120095308 8.093709875391912 2 3 1
333 1 1 0.5897 6.7904065756403025 7.870906600285135 7.744332343174 2 3 1
332 1 1 0.5897 6.365248735201797 9.262494839224946 7.326582474770872 2 3 1
678 1 1 0.5897 6.254816949625248 11.388936118008232 9.969656111776011 2 1 -3
500 1 1 0.5897 7.465536592973701 9.652603873731422 9.300940760516701 4 -2 -5
296 1 1 0.5897 7.481524852699057 7.719402293340661 10.565793911001737 2 3 1
499 1 2 -1.1794 7.7042445282113174 10.44054859891911 9.789156850229835 4 -2 -5
574 1 2 -1.1794 8.78927808556271 11.694639488020675 7.559043777257514 -2 -2 -3
401 1 1 0.5897 5.389611700217561 10.988937891986717 6.084774128906754 -2 -4 -2
501 1 1 0.5897 8.256482481184323 10.938314543456196 9.186259241620643 4 -2 -5
677 1 1 0.5897 5.038435163059536 11.548810805377748 10.856587570535222 2 1 -3
820 1 2 -1.1794 6.450044367337285 11.751482897595247 13.69503906126982 2 3 4
297 1 1 0.5897 6.178809861060852 8.038917749893752 11.26768847666916 2 3 1
766 1 2 -1.1794 7.478093256996527 9.134988089177023 14.588543574898301 -4 -6 5
767 1 1 0.5897 7.213510773245328 10.020185397758494 14.33831718444289 -4 -6 5
450 1 1 0.5897 8.88533023889001 9.444884817398197 11.423676266942515 2 0 2
768 1 1 0.5897 7.02652300782872 8.564668811548415 13.966441615799917 -4 -6 5
641 1 1 0.5897 5.011956278008281 11.148312155804431 12.74584109544486 5 3 -7
295 1 2 -1.1794 7.104815002118934 7.862662011324796 11.433993707812133 2 3 1
350 1 1 0.5897 8.942696856588485 11.142672135042844 12.391668020782934 -12 5 -4
662 1 1 0.5897 5.342662911884173 9.37751445586857 16.878984161833888 -2 -5 3
287 1 1 0.5897 7.455274579780582 10.874970513838601 21.241817015256586 8 2 -2
286 1 2 -1.1794 7.249281237066644 10.902602071660782 20.3074668406263 8 2 -2
742 1 2 -1.1794 7.3125211340221945 7.190525962442106 18.301491688593234 -2 -1 -2
92 1 1 0.5897 8.711104174578509 10.162280239875928 19.408524617821445 5 -3 0
342 1 1 0.5897 7.520597507762979 7.201877638525062 20.175385840490534 -1 4 -4
841 1 2 -1.1794 5.253362601881056 9.065046933052244 19.998240539619896 -5 1 0
743 1 1 0.5897 7.028051457546508 8.087241692580243 18.12492784503066 -2 -1 -2
661 1 2 -1.1794 6.251463079544545 9.647343352271054 17.011158529774242 -2 -5 3
288 1 1 0.5897 6.569958476735244 10.23827349202758 20.19173949732749 8 2 -2
413 1 1 0.5897 6.420429339050592 11.680094378717852 16.46096126020849 2 -3 1
842 1 1 0.5897 5.0323666458497565 8.77089628341026 20.881887199080463 -5 1 0
663 1 1 0.5897 6.725197528026242 9.26482102527917 16.272612752878313 -2 -5 3
198 1 1 0.5897 7.922414650142765 14.448719144455822 2.634549538631098 -7 -2 -2
9 1 1 0.5897 8.488320676559587 15.29847039393033 5.0915228201154115 3 -1 -4
611 1 1 0.5897 5.301836242679942 12.87537723693554 4.534299672648652 3 5 -4
67 1 2 -1.1794 5.286797219635959 16.490214333489057 5.169081988390093 2 -4 -5
610 1 2 -1.1794 5.126463262838736 13.571402715192024 5.167543230386502 3 5 -4
69 1 1 0.5897 5.145037904452687 15.580157350960594 5.429661965267807 2 -4 -5
196 1 2 -1.1794 7.378703534124965 13.806583593458717 3.0908830270865253 -7 -2 -2
457 1 2 -1.1794 4.997154756894247 15.659407428672017 2.553547423456658 0 3 -5
197 1 1 0.5897 7.856303995144618 13.618630173144307 3.898824239697587 -7 -2 -2
459 1 1 0.5897 5.888770024725821 15.31135041663373 2.5623451435451376 0 3 -5
51 1 1 0.5897 6.129520704468588 12.549452487090642 3.0475440430901415 10 2 -1
7 1 2 -1.1794 8.74202478783964 14.423421694845448 5.384980805390634 3 -1 -4
301 1 2 -1.1794 8.935709781905265 15.784162649683882 1.0638942710263588 0 4 5
49 1 2 -1.1794 5.437986800188027 11.896331795686674 3.15454680063871 10 2 -1
235 1 2 -1.1794 6.730117051145649 14.351106668425539 10.708062901221073 -1 0 -5
428 1 1 0.5897 6.392070045460928 13.545696834250712 6.797258254683884 -3 4 -3
427 1 2 -1.1794 6.959987925463842 13.711856600700857 7.549630713856693 -3 4 -3
236 1 1 0.5897 6.2691447576417225 13.524236208099923 10.56662298004078 -1 0 -5
429 1 1 0.5897 6.35799389713239 13.92970437538155 8.2612273591433 -3 4 -3
237 1 1 0.5897 7.656144155081172 14.129317497280221 10.610637871323027 -1 0 -5
407 1 1 0.5897 6.725131441356664 16.053525737460724 10.854332750854399 -1 -4 3
575 1 1 0.5897 8.116554713806671 12.374798790918929 7.5268463512830435 -2 -2 -3
471 1 1 0.5897 8.941046908669446 16.0452131663084 7.650374659817115 -3 -1 6
8 1 1 0.5897 8.578355696138082 14.429730516201795 6.328040401327324 3 -1 -4
676 1 2 -1.1794 5.498831909383251 11.955743563150321 10.12267470505019 2 1 -3
470 1 1 0.5897 7.608181785922751 16.67193586984016 7.300369754574881 -3 -1 6
821 1 1 0.5897 6.398703623006584 12.051773708258594 14.602448140974273 2 3 4
717 1 1 0.5897 6.168439748747284 15.591736259267948 13.524257822781838 4 -10 -1
716 1 1 0.5897 6.431368209506874 14.151960302771416 13.137274563561254 4 -10 -1
715 1 2 -1.1794 6.815357528757958 14.891276705747837 13.60860599190052 4 -10 -1
375 1 1 0.5897 8.435683403944699 15.52101253115229 12.97545388530892 5 -1 0
830 1 1 0.5897 8.425291156035115 14.528027635694315 14.926499904345784 3 -4 8
349 1 2 -1.1794 9.052309714051699 12.0869578803288 12.50348240882151 -12 5 -4
822 1 1 0.5897 7.311255665426861 12.041720275619568 13.394577404585675 2 3 4
567 1 1 0.5897 7.187731672914134 16.588863186443874 18.756711525852953 0 9 -8
625 1 2 -1.1794 6.520844789045033 15.702679743844099 20.139764098099107 -5 -3 3
414 1 1 0.5897 6.59310576107247 13.14849159748757 16.786225437524745 2 -3 1
122 1 1 0.5897 5.961673796607158 12.162328430614206 19.989128075111697 0 -4 -2
126 1 1 0.5897 5.1056461428952495 15.041808364501163 17.592823201348722 1 2 3
543 1 1 0.5897 8.783256599293813 15.921982885082633 17.657422776998036 -5 -4 2
199 1 2 -1.1794 8.57758360546314 13.132926001225695 19.529988402658557 3 -7 -2
121 1 2 -1.1794 5.564263642089748 13.029072446602303 19.905284869332473 0 -4 -2
626 1 1 0.5897 6.181371765559588 14.820856445007461 19.987007739932228 -5 -3 3
627 1 1 0.5897 5.743105201480083 16.231989956473583 20.316284228065683 -5 -3 3
125 1 1 0.5897 5.921981039900419 15.56290812682184 16.429259733602777 1 2 3
124 1 2 -1.1794 5.733592541036809 14.766121874731777 16.92507794141728 1 2 3
412 1 2 -1.1794 6.989237838461941 12.431082375596306 16.2916534280551 2 -3 1
201 1 1 0.5897 8.038856268285748 12.395725704523626 19.81722625003549 3 -7 -2
242 1 1 0.5897 9.077241295754447 12.195244961517416 16.2894957279309 -5 2 2
303 1 1 0.5897 8.142398906160807 15.798976769495185 21.014787432120436 0 4 4
123 1 1 0.5897 4.907171309862037 12.9261934684727 19.216910251919966 0 -4 -2
200 1 1 0.5897 8.812223489151531 13.588126427337327 20.338645187623968 3 -7 -2
542 1 1 0.5897 8.971817255183506 14.498079254696531 18.135746895829932 -5 -4 2
209 1 1 0.5897 5.903155338133816 19.212596502770943 4.048191387982586 4 -3 6
793 1 2 -1.1794 7.946179262695537 18.445010921881405 1.8840507694105288 -11 6 5