LAMMPS data file via write_data, version 30 Jul 2021, timestep = 11250000

972 atoms
2 atom types
648 bonds
1 bond types
324 angles
1 angle types

-0.09347177724444755 20.093472777232634 xlo xhi
-0.06706828713183022 20.067069287128895 ylo yhi
-0.05137137181063878 20.751369371810014 zlo zhi

Masses

1 1.008
2 15.999

Pair Coeffs # lj/cut/tip4p/long/omp

1 0 0
2 0.21084 3.1668

Bond Coeffs # harmonic/omp

1 450 0.9572

Angle Coeffs # harmonic/omp

1 55 104.52

Atoms # full

10 4 2 -1.1794 1.092126663365298 3.8735350229765397 3.5797994873466426 0 0 0
11 4 1 0.5897 0.9904544451140589 3.1750202420638227 2.93324038045418 0 0 0
12 4 1 0.5897 2.0355787636865235 3.9221540168771942 3.734244686229636 0 0 0
16 6 2 -1.1794 3.881153718178247 3.6741258395727696 3.7209901744841325 0 0 0
33 11 1 0.5897 1.2114619233544026 2.084168754101056 1.0333394264509677 0 0 0
31 11 2 -1.1794 0.5644563827085175 1.9662729575406512 1.7288743147502137 0 0 0
18 6 1 0.5897 3.913846002316207 2.7661043564231824 3.419876490101892 0 0 0
23 8 1 0.5897 2.2099674553371402 0.9498400350894105 4.408445417595197 0 0 0
4 2 2 -1.1794 3.62007763758773 1.0519049912917868 3.2449420315468984 0 0 0
5 2 1 0.5897 3.6617924956526515 0.3317413738323342 2.6157270866353137 0 0 0
41 14 1 0.5897 9.821477368966661 1.1838947625678906 3.8979841170726863 0 0 0
6 2 1 0.5897 4.235969880253134 0.8040936141825766 3.9345790250010526 0 0 0
53 18 1 0.5897 9.462209385135568 4.4673841753564085 3.7879084818139703 0 0 0
17 6 1 0.5897 4.340484627931036 4.168717669220785 3.0422379265965436 0 0 0
236 79 1 0.5897 0.5149546510931013 0.16484236043298006 1.7885158065629663 0 1 0
9 3 1 0.5897 5.124211677394053 4.093923828455178 5.0362601534040605 0 0 0
48 16 1 0.5897 7.114879657646264 4.381587613177543 4.439312153211739 0 0 0
69 23 1 0.5897 6.359748159159239 2.430716712452335 1.5234074816687955 0 0 0
67 23 2 -1.1794 7.185593543377778 2.1726883534960724 1.9329406854963997 0 0 0
68 23 1 0.5897 7.860258516505349 2.4832481590608118 1.3290511335250732 0 0 0
46 16 2 -1.1794 7.648531328636876 4.437492784991293 3.646575214510571 0 0 0
47 16 1 0.5897 7.425308780468724 3.649599807511122 3.1509200561527204 0 0 0
34 12 2 -1.1794 5.015303624104394 2.4434728023968915 0.48963147135273943 0 0 0
710 237 1 0.5897 9.131177130468815 4.2343751794682465 -0.024570937360904252 0 0 1
58 20 2 -1.1794 8.450159161202704 0.805085494919936 5.072074627636305 0 0 0
273 91 1 0.5897 7.335148978260968 0.4137055146705019 1.904624780536535 0 1 0
37 13 2 -1.1794 9.19176173630402 2.3170068964065127 0.07233808101605985 0 0 0
36 12 1 0.5897 5.321351643854201 3.247241973577448 0.0694537018395996 0 0 0
29 10 1 0.5897 6.618363722129896 0.8341653074624119 4.998551552606894 0 0 0
3 1 1 0.5897 3.208466842542821 2.4541788615301106 0.10016622391586694 0 0 0
325 109 2 -1.1794 2.3819929930422274 2.6882545121769716 6.979527676156848 0 0 0
326 109 1 0.5897 2.2010073647104362 1.9785860822179062 6.363161735534352 0 0 0
327 109 1 0.5897 3.305410609969741 2.579041291141859 7.2068613749417665 0 0 0
355 119 2 -1.1794 0.5840742624551201 2.1330352146857874 8.892509157778463 0 0 0
356 119 1 0.5897 1.254489174012048 2.3461424965384556 8.243312217067027 0 0 0
342 114 1 0.5897 3.629135654233677 4.6400216094257605 9.603946374377243 0 0 0
358 120 2 -1.1794 5.07703542517058 2.418716196403843 7.3931608320466395 0 0 0
360 120 1 0.5897 5.360080270695719 1.8774907772589802 6.656141205737339 0 0 0
328 110 2 -1.1794 3.903095378019623 1.2319488666885914 10.255521078628139 0 0 0
361 121 2 -1.1794 9.12431932581363 2.6226118697728986 7.0350422584217815 0 0 0
59 20 1 0.5897 8.760488761122335 1.4364171732947453 5.72124254762742 0 0 0
561 187 1 0.5897 0.5976723973814645 0.18064082313741373 8.92085060392548 0 1 0
329 110 1 0.5897 4.162358661428049 0.6494400653975804 9.541535546429534 0 0 0
392 131 1 0.5897 7.779741445836144 2.1870304809940864 8.4261938657412 0 0 0
393 131 1 0.5897 7.388672709263758 1.0320406182838755 9.323463979644663 0 0 0
362 121 1 0.5897 8.966512315301628 3.560862758845293 6.930063248284156 0 0 0
8 3 1 0.5897 5.550757596350072 3.868978708944573 6.471403446481389 0 0 0
391 131 2 -1.1794 7.188700954859699 1.9501597747575237 9.140963946941985 0 0 0
359 120 1 0.5897 5.776485555240183 2.3277781248859717 8.040325416736303 0 0 0
27 9 1 0.5897 2.312795848280356 4.409440362029045 6.318484739657452 0 0 0
335 112 1 0.5897 0.7867712773442327 3.575721383714822 9.95467607889972 0 0 0
7 3 2 -1.1794 5.686662873744261 4.4509574281085 5.7236452500167845 0 0 0
371 124 1 0.5897 7.513788924964227 3.4219458497471567 10.122907910794597 0 0 0
341 114 1 0.5897 3.678213828416735 3.293810066931152 10.294765834698254 0 0 0
24 8 1 0.5897 2.060490251146375 -0.06391425030902896 5.522916128506425 0 0 0
60 20 1 0.5897 8.695593671318365 -0.047897743016584116 5.430476096558661 0 0 0
22 8 2 -1.1794 1.6715549700902066 0.7366737189737743 5.170687042333637 0 0 0
28 10 2 -1.1794 5.69685076925332 0.6301962153655204 5.158323231539287 0 0 0
649 217 2 -1.1794 2.601885393614752 2.6561997145949343 14.103616046457818 0 0 0
650 217 1 0.5897 2.3564982672427615 2.0362592865561173 13.416762289003291 0 0 0
651 217 1 0.5897 2.0463875860685126 2.4226487080399544 14.847393145697648 0 0 0
347 116 1 0.5897 0.7799255856093383 1.1188291268825354 11.794754842003359 0 0 0
348 116 1 0.5897 2.2039218512716814 1.1312106348599484 11.280765031543355 0 0 0
330 110 1 0.5897 4.601462260572983 1.1423206235399441 10.904014432384637 0 0 0
346 116 2 -1.1794 1.6849261209925914 0.9697701923600877 12.068745250190728 0 0 0
354 118 1 0.5897 5.651831280593905 1.3856567670821995 13.02744314039609 0 0 0
683 228 1 0.5897 4.418222475783206 2.6609521168687715 14.40682991907998 0 0 0
334 112 2 -1.1794 0.8317256224877728 4.347498493105555 10.51910500846403 0 0 0
684 228 1 0.5897 5.437855636584222 3.571512968113809 13.756230278672337 0 0 0
340 114 2 -1.1794 3.532015074115305 4.2250316583356655 10.461080145630978 0 0 0
336 112 1 0.5897 1.7610989294598174 4.43646414908819 10.730470178578596 0 0 0
386 129 1 0.5897 8.919011374235478 4.444574306093107 13.797188379295072 0 0 0
682 228 2 -1.1794 5.360917027528562 2.806453110854344 14.326355960927316 0 0 0
352 118 2 -1.1794 5.806938693120399 0.7363962958222627 12.341398836354195 0 0 0
372 124 1 0.5897 7.197789748670996 4.285079637826319 11.325896657938227 0 0 0
384 128 1 0.5897 9.376770639551351 0.8518402116594153 11.5207243537822 0 0 0
382 128 2 -1.1794 8.749888655383032 0.6596944565045264 12.218153321658539 0 0 0
353 118 1 0.5897 6.759781796934032 0.6981577934833435 12.25815503113564 0 0 0
685 229 2 -1.1794 9.22274617608685 2.705087919507397 14.15415075270083 0 0 0
383 128 1 0.5897 8.89234193391301 1.3499923190634389 12.865811793185754 0 0 0
686 229 1 0.5897 8.752316937256916 2.58143580444217 14.9786027431924 0 0 0
331 111 2 -1.1794 5.733762318550957 4.787138232652963 12.393144588568022 0 0 0
350 117 1 0.5897 2.275890585760401 4.314392347449691 13.598300958413667 0 0 0
332 111 1 0.5897 4.989509430086961 4.632698634543294 11.811291286002309 0 0 0
377 126 1 0.5897 9.608874930972837 4.0564168724437035 10.733580410994307 0 0 0
370 124 2 -1.1794 7.826657199964592 4.183341417142398 10.611410797623362 0 0 0
717 239 1 0.5897 6.595398561907227 2.287648894669901 15.545873327850764 0 0 0
653 218 1 0.5897 3.118542367336655 0.9827481335467763 17.58040349468118 0 0 0
652 218 2 -1.1794 3.9109279915661155 1.2542863734152436 17.117036912744062 0 0 0
664 222 2 -1.1794 3.986879807813814 4.094066842983958 17.497409168586234 0 0 0
671 224 1 0.5897 1.913468316509281 1.3779806090292905 19.271206418843633 0 0 0
702 234 1 0.5897 9.778594839505578 3.998702112910406 17.791405689458777 0 0 0
666 222 1 0.5897 4.094213397866698 3.186255897507019 17.213506469963868 0 0 0
670 224 2 -1.1794 1.7375834758503832 0.5928205401320303 18.75269492763449 0 0 0
665 222 1 0.5897 3.0394327833579915 4.229441376795996 17.51547913314648 0 0 0
681 227 1 0.5897 1.031689481104789 2.3947895203259923 16.87066358857842 0 0 0
672 224 1 0.5897 0.7977883699285554 0.6285278890038857 18.57431884717023 0 0 0
659 220 1 0.5897 0.5531095140760016 4.563256655176388 18.343818056588802 0 0 0
696 232 1 0.5897 7.7625444591672945 4.950041400820212 17.187741656823324 0 0 0
656 219 1 0.5897 5.187717598834963 4.391113012578822 19.14796804276814 0 0 0
715 239 2 -1.1794 7.339755191717572 2.0774453935383423 16.109852773380776 0 0 0
654 218 1 0.5897 4.1592181748373305 0.4895317363593997 16.597648263207017 0 0 0
694 232 2 -1.1794 8.111554445219856 4.262934697459505 17.75552120869208 0 0 0
677 226 1 0.5897 5.18708135034225 0.9361161910112015 18.569024545664103 0 0 0
38 13 1 0.5897 9.046409559532876 1.6116889002161494 20.24444952721697 0 0 -1
884 295 1 0.5897 0.9614357553278607 0.14310783014371053 15.920003869251376 0 1 0
706 236 2 -1.1794 8.499609506444926 0.5689440606560282 18.756652942301486 0 0 0
695 232 1 0.5897 7.83687599797064 3.4456221448603293 17.33981093732311 0 0 0
2 1 1 0.5897 2.199921142152772 3.447306802451809 20.365841446919866 0 0 -1
676 226 2 -1.1794 5.7023116975664845 0.6642019739221456 19.32858904110402 0 0 0
657 219 1 0.5897 6.699477810345208 4.460392258158307 19.104292957349287 0 0 0
658 220 2 -1.1794 1.2843054841740553 4.3151193747197105 17.778047849160615 0 0 0
708 236 1 0.5897 7.550235503515952 0.6708525035329628 18.82467575638112 0 0 0
655 219 2 -1.1794 5.953971546624369 4.559034508838825 19.69658662141034 0 0 0
716 239 1 0.5897 7.4039925026123985 1.1229869049284122 16.076680387949292 0 0 0
660 220 1 0.5897 1.1006673175441528 4.748529655132565 16.944530541127193 0 0 0
35 12 1 0.5897 5.362049436056017 1.7392769289252563 20.744495565147908 0 0 -1
679 227 2 -1.1794 0.9441591159741924 1.9563021757819161 16.024263485714357 0 0 0
1 1 2 -1.1794 2.3292636881339432 2.5130233828932793 20.529000196770095 0 0 -1
680 227 1 0.5897 0.16945990229131264 2.354072686959768 15.626853716159639 0 0 0
13 5 2 -1.1794 4.527755519064079 5.599140474588044 1.6492549416590538 0 0 0
111 37 1 0.5897 3.385560128522202 9.463859239248624 0.1631092426662103 0 0 0
15 5 1 0.5897 4.2503025357704205 6.316401848377023 2.2191864312009293 0 0 0
166 56 2 -1.1794 8.667947256943968 7.467102178924685 4.827702371966589 0 0 0
110 37 1 0.5897 2.0142391506717736 9.48404822089654 0.8043403327078478 0 0 0
140 47 1 0.5897 1.2137609028620489 9.60269402435187 2.85067242942277 0 0 0
112 38 2 -1.1794 4.116789446665013 7.866093022376367 3.222843869934189 0 0 0
114 38 1 0.5897 3.3587096354616937 7.81222718494133 3.8048624944256972 0 0 0
14 5 1 0.5897 3.8216881608306648 5.514912299408022 1.0084191318965587 0 0 0
57 19 1 0.5897 7.505078698015763 5.721329340935029 2.4825168676940073 0 0 0
20 7 1 0.5897 1.017156743726722 5.5528961189801 2.4951398581485553 0 0 0
141 47 1 0.5897 1.0642873271545195 8.133566116915148 2.5172096979722687 0 0 0
19 7 2 -1.1794 0.8010271139473607 6.190913373411612 1.8150550979964855 0 0 0
139 47 2 -1.1794 0.9040228056330691 9.009542353809179 2.1661811156522974 0 0 0
55 19 2 -1.1794 7.354980886346317 6.138924956157804 1.6343366000309554 0 0 0
113 38 1 0.5897 4.856662638905801 7.595883645525563 3.7668119058335665 0 0 0
674 225 1 0.5897 1.9266602813219276 5.719436952143604 0.46408966800477847 0 0 1
126 42 1 0.5897 4.33726581664405 9.552293236050401 3.165361463999782 0 0 0
56 19 1 0.5897 6.434205946104721 5.9635679288034655 1.4400728502288622 0 0 0
175 59 2 -1.1794 7.758068955772052 8.82612757460756 2.3080571055142483 0 0 0
177 59 1 0.5897 8.43405775181713 9.052986851288638 1.6693978040138526 0 0 0
143 48 1 0.5897 5.9520345109376365 9.064633860805623 1.1238152040609857 0 0 0
176 59 1 0.5897 7.489996033038822 7.9389127713975345 2.068905664375459 0 0 0
711 237 1 0.5897 8.647452018629831 5.524695187611596 0.6023956021298341 0 0 1
709 237 2 -1.1794 9.388573419208903 5.142949728574078 0.13193848211567877 0 0 1
142 48 2 -1.1794 5.452233738189168 9.110217300267907 0.3086681261897511 0 0 0
130 44 2 -1.1794 1.9983562755167559 7.787825960932274 5.0003071646370385 0 0 0
132 44 1 0.5897 1.050931942890495 7.843995948710641 4.875623547111464 0 0 0
109 37 2 -1.1794 2.4517605945430985 9.438056054484528 -0.04583924780019573 0 0 0
145 49 2 -1.1794 9.728776862515797 9.548650838981116 0.537676030761825 0 0 0
138 46 1 0.5897 6.839759472086364 7.34928884834684 5.067203219419865 0 0 0
465 155 1 0.5897 0.033883912212295975 8.952764132513485 8.201059223485482 0 0 0
63 21 1 0.5897 9.770350899154618 5.479782300644676 7.238399655570184 0 0 0
62 21 1 0.5897 8.268272573810846 5.592140635619598 7.390728117544422 0 0 0
345 115 1 0.5897 0.5645149235361233 6.866389916131205 8.725891271909903 0 0 0
468 156 1 0.5897 4.6048652750876276 8.91093770528795 7.282334254106549 0 0 0
337 113 2 -1.1794 3.873276040971747 6.132408339470137 8.442505795133892 0 0 0
381 127 1 0.5897 7.306042506391855 5.368729475052442 9.232152958219308 0 0 0
437 146 1 0.5897 3.911091207309388 7.352191027653428 9.698758668609793 0 0 0
433 145 2 -1.1794 2.8176570716964866 9.273129935059764 7.2241818736386785 0 0 0
343 115 2 -1.1794 0.47430619187541734 5.959956299479883 8.431781524806837 0 0 0
338 113 1 0.5897 4.758880087413285 6.041335109531899 8.0907449636852 0 0 0
168 56 1 0.5897 8.97481456437746 8.06746201375765 5.5071770611930555 0 0 0
464 155 1 0.5897 1.5318784133916963 9.110060098345388 8.353901127689449 0 0 0
435 145 1 0.5897 2.4698944159403013 8.96214553258475 6.3883106009394455 0 0 0
463 155 2 -1.1794 0.7428033173261829 8.867836745409482 8.838673446416648 0 0 0
167 56 1 0.5897 8.814098500674648 6.595004547962864 5.194225059622731 0 0 0
466 156 2 -1.1794 5.5584077862032695 8.856624920356486 7.218059314568791 0 0 0
500 167 1 0.5897 7.642108201729746 9.203502218165745 9.5455114926412 0 0 0
26 9 1 0.5897 1.452503155562158 5.471449116066885 6.9697000452608115 0 0 0
499 167 2 -1.1794 7.561861896067487 8.523562180843804 8.876525485971113 0 0 0
467 156 1 0.5897 5.717457038967146 8.125201410388943 6.6214056988672985 0 0 0
344 115 1 0.5897 0.6804915124259091 5.435071617190256 9.205250047761444 0 0 0
380 127 1 0.5897 6.8509514625604115 6.75963314104644 8.844562539546553 0 0 0
470 157 1 0.5897 9.075455290293055 9.019937246325053 7.70009565072927 0 0 0
379 127 2 -1.1794 6.820125755496718 5.846295122834952 8.559760664913702 0 0 0
469 157 2 -1.1794 9.390366767923178 9.11765750266237 6.801417665917652 0 0 0
501 167 1 0.5897 6.8357960876231445 8.814343062163928 8.324619776636906 0 0 0
25 9 2 -1.1794 2.1975341214350013 5.357723990869105 6.379507694775867 0 0 0
61 21 2 -1.1794 8.952107224123617 5.407141420153873 6.746946285546025 0 0 0
339 113 1 0.5897 3.3005022735902565 6.008923073579293 7.685523609139448 0 0 0
137 46 1 0.5897 5.890109734481402 6.197993163061404 5.321552557378054 0 0 0
136 46 2 -1.1794 5.910578442829326 7.142644692958933 5.168360946241268 0 0 0
131 44 1 0.5897 2.134004934208108 6.94435956222569 5.432077291215041 0 0 0
438 146 1 0.5897 3.860826474445819 8.742385657525983 10.296097863919236 0 0 0
443 148 1 0.5897 0.7445327612874757 9.956330456731004 10.254124338435348 0 0 0
385 129 2 -1.1794 8.717621700400732 5.341798628776713 14.063025515051716 0 0 0
456 152 1 0.5897 1.9402909038652738 6.596945694404387 12.298801731016917 0 0 0
455 152 1 0.5897 2.395777874729675 7.564231455597671 11.226903692267207 0 0 0
789 263 1 0.5897 1.6028074505335728 8.604357880898025 15.46630025322433 0 0 0
461 154 1 0.5897 6.013005424935045 8.165313320264703 13.041132075827633 0 0 0
492 164 1 0.5897 7.980599307639951 7.8018181053576 12.01169997908934 0 0 0
759 253 1 0.5897 2.3456065555296917 8.658249113201322 13.115351284637248 0 0 0
454 152 2 -1.1794 1.7049704093591076 7.421880027210915 11.87409446824843 0 0 0
792 264 1 0.5897 4.417918931942556 9.291974999825113 14.259708371638757 0 0 0
757 253 2 -1.1794 2.5570372854229015 9.106025034635444 13.934519058874319 0 0 0
790 264 2 -1.1794 5.3745153741477605 9.319545633768076 14.23842363049995 0 0 0
668 223 1 0.5897 0.9706752434437318 5.698763228794794 14.782014939879256 0 0 0
462 154 1 0.5897 5.442225023422394 7.649985083017012 11.737002603208797 0 0 0
333 111 1 0.5897 5.823067067061858 5.739768733371464 12.420884670428162 0 0 0
490 164 2 -1.1794 8.88991222152345 7.574575387933184 12.206187808637416 0 0 0
349 117 2 -1.1794 2.2320282480697293 5.26647824648656 13.509745104083652 0 0 0
491 164 1 0.5897 9.347090538151098 7.678744804415156 11.371651915028309 0 0 0
387 129 1 0.5897 8.658925697756745 5.828261564136665 13.240698242453952 0 0 0
793 265 2 -1.1794 9.161094730620826 9.158299202616995 14.481040156104102 0 0 0
351 117 1 0.5897 2.9555629469872233 5.590967202782267 14.04596026362504 0 0 0
460 154 2 -1.1794 6.142408065502715 7.494257291198674 12.370887928342533 0 0 0
791 264 1 0.5897 5.640546057529181 9.11429119517036 15.134752987266058 0 0 0
794 265 1 0.5897 8.9955713537762 8.60921091420888 13.714611111128034 0 0 0
436 146 2 -1.1794 3.965159375300126 7.8205469661299505 10.531850486125677 0 0 0
705 235 1 0.5897 7.176829879065343 5.535630980659371 15.210829713065774 0 0 0
661 221 2 -1.1794 4.00323433762027 6.204049156696047 15.383649304533947 0 0 0
533 178 1 0.5897 -0.04845670191895124 7.360984896490754 11.838358588467472 1 0 0
703 235 2 -1.1794 6.708182345086213 5.8815667852015565 15.97045269033702 0 0 0
761 254 1 0.5897 4.48541005798584 9.117190505280918 17.419652846623386 0 0 0
788 263 1 0.5897 0.9322478421410954 9.134908248455071 16.71570544873725 0 0 0
823 275 2 -1.1794 7.1888445982910545 8.552345674546714 16.29344957502062 0 0 0
675 225 1 0.5897 2.3741658317217254 6.173116364034405 19.893485463016997 0 0 0
779 260 1 0.5897 2.217492099428045 8.246580939076953 19.387020499779496 0 0 0
778 260 2 -1.1794 2.1196943938707355 7.552967059144358 18.734636190155015 0 0 0
780 260 1 0.5897 2.9096185118373272 7.615496513718818 18.19756633298048 0 0 0
760 254 2 -1.1794 4.513250532058519 8.160967555041232 17.38650555105844 0 0 0
858 286 1 0.5897 0.09395193978399191 7.152210469065156 18.65307566320652 1 0 0
824 275 1 0.5897 7.950135660611487 8.769418052686085 15.755278301669943 0 0 0
814 272 2 -1.1794 9.101214582136404 7.261074644200211 19.26718077041727 0 0 0
762 254 1 0.5897 5.163468015290497 7.916833171177249 18.0452417460111 0 0 0
784 262 2 -1.1794 6.258978823810112 7.312551813460359 19.22450454774718 0 0 0
816 272 1 0.5897 9.240006377247733 8.003059774970158 19.855806455243957 0 0 0
825 275 1 0.5897 7.078922293292464 7.607819224510277 16.183807356373954 0 0 0
815 272 1 0.5897 9.320915261582448 6.492590168343111 19.793897128321735 0 0 0
662 221 1 0.5897 3.9622782646941994 5.432013449910682 15.948049016102866 0 0 0
786 262 1 0.5897 7.196897899290023 7.410364697349411 19.060103932912014 0 0 0
785 262 1 0.5897 6.15534659212819 6.397669935152672 19.48622376465556 0 0 0
663 221 1 0.5897 4.190943757182054 6.928188045094284 15.980875269271028 0 0 0
787 263 2 -1.1794 0.8515323199936743 8.460005300657482 16.04169628919096 0 0 0
669 223 1 0.5897 0.7714687151481118 6.68870604993171 15.910002134158715 0 0 0
704 235 1 0.5897 5.784203667605669 5.72864211286685 15.77248740890063 0 0 0
673 225 2 -1.1794 2.5399559838789436 5.508991850964174 20.56262184304503 0 0 0
144 48 1 0.5897 5.624746859715235 8.274839839727573 20.6770655877555 0 0 -1
667 223 2 -1.1794 0.48869476615390306 5.828815016557579 15.598763627823864 0 0 0
120 40 1 0.5897 1.2696909300462296 11.598271792903146 3.2838467204445028 0 0 0
127 43 2 -1.1794 0.6068419781924886 12.771862066502123 1.995624523625671 0 0 0
246 82 1 0.5897 5.417491027225499 14.150774381545784 4.764994652905984 0 0 0
129 43 1 0.5897 0.6332009223462575 13.677711966392794 2.303848632325654 0 0 0
240 80 1 0.5897 2.821556092110224 13.94186497942828 4.409568372910984 0 0 0
276 92 1 0.5897 9.37878502955415 14.262659551324585 4.36642460474227 0 0 0
220 74 2 -1.1794 4.336376159740996 14.269173216705013 3.375936778748482 0 0 0
121 41 2 -1.1794 4.9300688450405525 12.340599089815255 1.3402791013270146 0 0 0
783 261 1 0.5897 1.871239156363028 12.371254799684502 0.643535125213573 0 0 1
123 41 1 0.5897 4.095779745689342 12.42443758596337 0.8785293498476406 0 0 0
819 273 1 0.5897 8.290706542939944 12.480494764244662 0.5066881449323111 0 0 1
118 40 2 -1.1794 1.493113911068417 11.042639381854105 4.030618490968628 0 0 0
125 42 1 0.5897 4.779465909615879 10.710805904746268 4.033878950563887 0 0 0
124 42 2 -1.1794 4.296439014182579 10.506220214217436 3.2331587328445495 0 0 0
122 41 1 0.5897 4.752482683032975 11.718430871240347 2.0457370056411834 0 0 0
119 40 1 0.5897 2.4473971479376693 10.973369628971698 4.001207478641138 0 0 0
317 106 1 0.5897 0.325626743466119 14.074981584823384 5.001052583505643 1 0 0
154 52 2 -1.1794 8.070983379538742 10.866536600859385 4.185615345921534 0 0 0
165 55 1 0.5897 7.629256160328894 12.309437159010152 2.906990898907951 0 0 0
164 55 1 0.5897 6.572363760596162 12.552812778947713 1.8506601393287436 0 0 0
163 55 2 -1.1794 7.444651101544614 12.833487979666975 2.127524815288341 0 0 0
156 52 1 0.5897 9.02496877253234 10.944404878654181 4.198334818280345 0 0 0
222 74 1 0.5897 4.521181857385526 13.894393326189851 2.5147034400443986 0 0 0
146 49 1 0.5897 9.508796559170365 10.40258910853557 0.16529390848020026 0 0 0
275 92 1 0.5897 7.9724664881144065 14.058566535256796 4.888668247399381 0 0 0
285 95 1 0.5897 7.7786319771445 14.80799984009813 2.1639263858182853 0 0 0
155 52 1 0.5897 7.896456765852523 10.155056245952462 3.569482541583376 0 0 0
238 80 2 -1.1794 2.134297535541679 13.976301572744994 5.07501018951006 0 0 0
133 45 2 -1.1794 2.533549234219405 11.913820127179987 7.059522732860686 0 0 0
134 45 1 0.5897 1.9200225933807782 12.124687416076302 7.763408086828983 0 0 0
135 45 1 0.5897 3.3913721270937063 12.156623288563207 7.408106530346269 0 0 0
453 151 1 0.5897 0.6856994731708221 11.969197333895826 9.721232958338762 0 0 0
169 57 2 -1.1794 9.433824448465161 11.928267179407385 6.810114189107721 0 0 0
170 57 1 0.5897 9.301131485307447 12.568678085006187 6.111136877772611 0 0 0
117 39 1 0.5897 5.552080630344107 10.357224324074705 6.221707844187078 0 0 0
445 149 2 -1.1794 4.829956075958156 12.591762861051725 8.574042082552763 0 0 0
450 150 1 0.5897 4.108088969097138 11.326041639755712 9.81571345522194 0 0 0
434 145 1 0.5897 2.812137825571873 10.22714469340003 7.146366717913752 0 0 0
446 149 1 0.5897 4.686295495354628 13.485172065935618 8.886198993206515 0 0 0
171 57 1 0.5897 9.078839491178783 11.11193410561112 6.458175278609847 0 0 0
573 191 1 0.5897 0.8793439583674211 14.444324700580733 8.940984032234951 0 0 0
447 149 1 0.5897 5.780663412023426 12.516034710770079 8.49231572307073 0 0 0
115 39 2 -1.1794 5.7130967665956565 11.087668605871922 5.624399172800656 0 0 0
480 160 1 0.5897 7.836065685131147 11.285826829252569 10.253865653103714 0 0 0
488 163 1 0.5897 8.031196406966053 12.470686754861967 8.137384603586572 0 0 0
487 163 2 -1.1794 7.561086194529376 12.53543339676754 8.968734340591094 0 0 0
489 163 1 0.5897 7.6188966342582445 13.461052823059305 9.205679136669183 0 0 0
451 151 2 -1.1794 0.6175458207510751 12.64062264948718 9.04237791984461 0 0 0
239 80 1 0.5897 2.297378790468793 13.212349569880752 5.6282320607420955 0 0 0
244 82 2 -1.1794 6.109964644598896 13.888854877576872 5.371795623305733 0 0 0
245 82 1 0.5897 5.99838371239906 12.943214759476541 5.469524043479444 0 0 0
274 92 2 -1.1794 8.881498885755695 14.14512339208539 5.175885736439984 0 0 0
575 192 1 0.5897 5.683675983323402 15.026706106886085 6.7432626053601465 0 0 0
116 39 1 0.5897 6.600980196055262 10.940028143301788 5.298568385098478 0 0 0
188 63 1 0.5897 0.012460576210465521 11.181619532966955 5.178063723397161 1 0 0
457 153 2 -1.1794 2.5175423767401472 11.99777292700425 13.3663092023091 0 0 0
458 153 1 0.5897 1.7804932411126289 12.297627113389439 13.898440586600053 0 0 0
459 153 1 0.5897 3.289304451731446 12.172952257223494 13.90484562335494 0 0 0
562 188 2 -1.1794 2.093393974550654 14.193290259562465 11.732508562009777 0 0 0
563 188 1 0.5897 2.3202846764003997 13.35440264453516 12.133805395113292 0 0 0
441 147 1 0.5897 5.572570943537813 10.56619902989218 13.050597324328912 0 0 0
564 188 1 0.5897 2.1407536780387058 14.823725864174719 12.451268519309227 0 0 0
598 200 2 -1.1794 8.80527888319774 14.045046218151962 11.88149995110648 0 0 0
449 150 1 0.5897 4.408144316579939 10.895919650943659 11.23597055593508 0 0 0
444 148 1 0.5897 2.01125698253057 10.603300425330596 10.772618164286579 0 0 0
570 190 1 0.5897 7.020845544004974 14.196271124850185 12.268846413774282 0 0 0
546 182 1 0.5897 5.165406794078258 14.582197048137363 10.948140750995767 0 0 0
478 160 2 -1.1794 7.8635490121920535 10.488851582076128 10.78333463662104 0 0 0
600 200 1 0.5897 9.011553774524685 14.706483206954225 12.541975085244031 0 0 0
479 160 1 0.5897 8.795042076372487 10.28031691524053 10.855002816390993 0 0 0
568 190 2 -1.1794 6.113015448006682 14.225342498264558 12.571041827591818 0 0 0
442 148 2 -1.1794 1.0585193474777181 10.625334115262767 10.862511238753909 0 0 0
599 200 1 0.5897 8.945617461418802 13.209407173596624 12.326767142651708 0 0 0
493 165 2 -1.1794 9.135699359181654 11.907563224374405 13.778404554606281 0 0 0
440 147 1 0.5897 6.440204313043256 11.136555937707184 11.948765120464168 0 0 0
569 190 1 0.5897 5.888047828264994 13.311058957610653 12.743421012415801 0 0 0
439 147 2 -1.1794 5.635090079997414 11.300638300310018 12.43987763282427 0 0 0
494 165 1 0.5897 8.448654823893444 12.118017632652332 14.410857334204847 0 0 0
642 214 1 0.5897 0.237193242496271 13.970204038294417 11.756641892421765 1 0 0
545 182 1 0.5897 3.6731569424570036 14.349786670628294 10.841894094056208 0 0 0
448 150 2 -1.1794 3.8580922584750565 10.68521653218615 10.481407769678402 0 0 0
795 265 1 0.5897 9.0077590377539 10.051776388708877 14.173726288080157 0 0 0
769 257 2 -1.1794 4.618752375930219 12.5759442955537 15.064418544495492 0 0 0
544 182 2 -1.1794 4.413769693432673 14.738456261270821 10.376338501340145 0 0 0
495 165 1 0.5897 9.92410149799107 12.316389316052032 14.135590630285954 0 0 0
758 253 1 0.5897 2.437011776197047 10.035129694435991 13.73803514068155 0 0 0
770 257 1 0.5897 5.5688558845256155 12.573751120829973 15.181100805913914 0 0 0
775 259 2 -1.1794 0.5576698714919986 12.657525588380812 15.231003423266841 0 0 0
777 259 1 0.5897 0.7575339399500065 13.546264220026123 15.525039127074967 0 0 0
869 290 1 0.5897 3.2779927763325563 14.259930596119558 17.416107065654728 0 0 0
768 256 1 0.5897 1.1389179968014242 11.51893697839335 16.55780371182771 0 0 0
888 296 1 0.5897 2.1445000168056336 13.5062060094763 19.510792253914506 0 0 0
766 256 2 -1.1794 1.4200054586145192 10.971234530627955 17.29083078250778 0 0 0
773 258 1 0.5897 3.1862862339474147 10.939528342173043 17.25688240895157 0 0 0
772 258 2 -1.1794 4.142866490669685 10.95465536199745 17.22455112044741 0 0 0
886 296 2 -1.1794 1.9838720302506205 14.293510987520431 18.990568990452076 0 0 0
965 322 1 0.5897 0.16326003485247303 14.27772817796025 18.841281173157864 1 0 0
887 296 1 0.5897 2.331792933432633 15.008434250335334 19.523600446585576 0 0 0
870 290 1 0.5897 4.7359632229616695 14.258227514566917 17.82406615217675 0 0 0
774 258 1 0.5897 4.348144992242642 11.359382028260407 16.381705187744895 0 0 0
771 257 1 0.5897 4.305233562896251 13.255598315994076 15.661134755896498 0 0 0
817 273 2 -1.1794 9.01914779907886 12.246126647196432 20.73435250813668 0 0 0
767 256 1 0.5897 0.7094692209343327 11.040570238468938 17.928536231988737 0 0 0
765 255 1 0.5897 5.751408829781577 10.648730600540151 20.170959808173308 0 0 0
924 308 1 0.5897 9.514617658738054 14.285616557688101 17.999055684328102 0 0 0
813 271 1 0.5897 7.553306398730965 12.133175417464138 16.35014923802994 0 0 0
812 271 1 0.5897 7.547621869126556 13.552630279647216 15.823759131697058 0 0 0
764 255 1 0.5897 5.145005369468617 11.161303693668835 18.881891740462173 0 0 0
922 308 2 -1.1794 8.924426964038187 14.178489369589698 18.745060553150747 0 0 0
818 273 1 0.5897 8.945970001791133 12.850634672033461 19.995754221127374 0 0 0
802 268 2 -1.1794 8.131860327615446 10.894344909570249 17.498547059390667 0 0 0
894 298 1 0.5897 5.873418416279904 13.120062827295145 19.211799760929843 0 0 0
893 298 1 0.5897 6.992701359266445 14.122848770600916 19.028337633398657 0 0 0
763 255 2 -1.1794 5.925006491184658 11.23224479062702 19.432253212371847 0 0 0
892 298 2 -1.1794 6.048408061303693 14.060301248265354 19.172290790246365 0 0 0
803 268 1 0.5897 7.726190485198249 11.044778306952384 18.35240290905168 0 0 0
804 268 1 0.5897 7.796559429153926 10.042038729643913 17.220352526121943 0 0 0
782 261 1 0.5897 2.3516933897210985 11.312294287229914 20.47683247334388 0 0 0
868 290 2 -1.1794 4.161229649415466 14.38614375069318 17.069308014527873 0 0 0
923 308 1 0.5897 9.167066468507196 14.882833534276891 19.346121039655888 0 0 0
781 261 2 -1.1794 2.4298389469434554 12.244574762305747 20.67929419654746 0 0 0
810 270 1 0.5897 9.966742169840485 10.719077091672665 16.95467861099095 0 0 0
811 271 2 -1.1794 7.298887476995913 12.658046960143908 15.591136455724245 0 0 0
224 75 1 0.5897 5.206072984210956 17.484397887199066 4.683504412554895 0 0 0
233 78 1 0.5897 4.358787522970221 17.670413451315923 2.6474903630707654 0 0 0
228 76 1 0.5897 0.526117013426812 17.748341668220498 4.461857496640781 0 0 0
247 83 2 -1.1794 0.8516337098603438 15.757089674506227 1.8928866032770124 0 0 0
263 88 1 0.5897 7.399228374108063 17.52814795169735 4.349737079514869 0 0 0
271 91 2 -1.1794 7.411086212558081 19.635617139283724 1.6247396779772438 0 0 0
248 83 1 0.5897 1.045834072271552 16.3763166644272 2.5965492456766155 0 0 0
232 78 2 -1.1794 4.027749602769545 17.03761913264251 3.2848968638862863 0 0 0
234 78 1 0.5897 3.193282472978961 17.40488132099957 3.576583659478096 0 0 0
227 76 1 0.5897 1.0039823695762993 18.28415472335918 3.1289339121796966 0 0 0
229 77 2 -1.1794 4.513985004449847 19.135848399865502 1.683830759642601 0 0 0
226 76 2 -1.1794 1.2060036309598354 17.630466567433388 3.798390822157583 0 0 0
254 85 1 0.5897 8.99683029423648 15.91998582861271 0.4027832434565026 0 0 0
249 83 1 0.5897 1.4422321682295385 16.00798870538941 1.1825624535010564 0 0 0
221 74 1 0.5897 4.310814049306842 15.21420995942482 3.2259219714954694 0 0 0