LAMMPS data file via write_data, version 30 Jul 2021, timestep = 45250000

864 atoms
2 atom types
576 bonds
1 bond types
288 angles
1 angle types

0.11924199485380527 18.088330405127806 xlo xhi
0.19351084254663675 23.435666957467674 ylo yhi
0.20562550288552472 22.007570297107826 zlo zhi

Masses

1 1.00794
2 15.9994

Atoms # full

707 1 1 0.5897 3.1262786185662423 2.0526037792800755 4.00218732532322 0 0 0
706 1 2 -1.1794 3.1303487512032 1.999748000112179 3.0464995035792652 0 0 0
30 1 1 0.5897 5.439319526786994 3.9981741213000914 2.3815238956480305 0 0 0
708 1 1 0.5897 2.3304062879696605 2.4516167999340857 2.7777599766430274 0 0 0
29 1 1 0.5897 4.591689843577444 2.7443063513428383 2.4168643012083444 0 0 0
28 1 2 -1.1794 5.4054167231316015 3.098086780850313 2.0576934798339614 0 0 0
3 1 1 0.5897 0.8575954684736752 4.153393365394347 2.4892563116763484 0 0 0
137 1 1 0.5897 5.3107311261206736 5.7040556623623475 4.008680410830456 0 0 0
495 1 1 0.5897 8.26701047690524 2.2098795979335573 2.8149379119548286 0 0 0
494 1 1 0.5897 6.753171480195994 2.2225742812308016 2.7950851918798634 0 0 0
493 1 2 -1.1794 7.5013836209171805 1.7682485205214034 3.1824676545558837 0 0 0
1 1 2 -1.1794 0.8592191588428258 3.2313550793326566 2.2323119480423967 0 0 0
846 1 1 0.5897 7.486672157530224 1.8851998724484853 4.975829544191966 0 0 0
595 1 2 -1.1794 0.8840116640313487 5.826203888011648 3.1158557318993267 0 0 0
597 1 1 0.5897 0.8626235663598424 5.799860235056594 4.072411786285583 0 0 0
136 1 2 -1.1794 5.363742550072097 5.646930704893435 3.0547013508787466 0 0 0
20 1 1 0.5897 0.7580178905850777 3.20458977922795 0.42077086006695086 0 0 0
188 1 1 0.5897 3.1380868716129733 0.24175805317577925 2.637694107344903 0 1 0
668 1 1 0.5897 5.295124602611819 3.1701125113822615 0.3166603091145248 0 0 0
83 1 1 0.5897 4.575032102993936 2.854546686044009 6.436529305703785 0 0 0
183 1 1 0.5897 0.8222727946531153 4.892728321086002 6.248579939225488 0 0 0
82 1 2 -1.1794 5.331054455241824 3.3033168543301272 6.815119450425578 0 0 0
785 1 1 0.5897 0.787244332558299 3.1551800860944192 7.778632258685111 0 0 0
674 1 1 0.5897 3.7285195824387616 2.4355764529848067 10.130560319210986 0 0 0
356 1 1 0.5897 7.539611895037919 1.107458457047507 10.092423444689794 0 0 0
844 1 2 -1.1794 7.4880523070761225 1.964898521954217 5.929661589511564 0 0 0
845 1 1 0.5897 7.470122433869007 1.0616797918423968 6.2459686577358875 0 0 0
181 1 2 -1.1794 0.9062490608970686 5.773173375760926 5.882604464395571 0 0 0
673 1 2 -1.1794 2.972919901300882 1.9998426465315646 10.524895760066306 0 0 0
34 1 2 -1.1794 0.6553614066771608 3.1980317751428733 9.554046222956286 0 0 0
274 1 2 -1.1794 5.19897749161427 3.2300754812169594 9.565617015838487 0 0 0
678 1 1 0.5897 5.234670787335155 4.917265948152332 10.132974621341408 0 0 0
35 1 1 0.5897 0.676510688723329 4.125059107216115 9.791434159489963 0 0 0
36 1 1 0.5897 1.4370344205288892 2.8274658826725156 9.963889230459433 0 0 0
355 1 2 -1.1794 7.510614804623365 2.016525283523059 10.390638975406809 0 0 0
112 1 2 -1.1794 0.7050049862168463 5.854583719889816 10.311314213465218 0 0 0
84 1 1 0.5897 6.08773442402235 2.8171721848516396 6.487404103212988 0 0 0
276 1 1 0.5897 5.9935162975531755 2.78410982121098 9.859101221621353 0 0 0
675 1 1 0.5897 2.9783004159263737 1.1207381254027746 10.1463209866172 0 0 0
275 1 1 0.5897 5.279424342119701 3.261080574248447 8.612349764928025 0 0 0
686 1 1 0.5897 5.433266160035373 4.977051332914112 6.194040836980947 0 0 0
784 1 2 -1.1794 0.8634524042896555 3.1682586362812932 6.824601345360155 0 0 0
489 1 1 0.5897 3.158435261541682 1.0778185175382546 6.097931600832652 0 0 0
488 1 1 0.5897 2.3304195535465864 2.3438178124583433 6.1574408618607706 0 0 0
685 1 2 -1.1794 5.413425233951982 5.8563400765100235 5.816378343144279 0 0 0
676 1 2 -1.1794 5.220298820071378 5.8043989826677205 10.49208560696252 0 0 0
419 1 1 0.5897 8.927263837517176 2.8228051330604282 6.51345341500228 0 0 0
176 1 1 0.5897 9.022083768546603 2.8196714823419535 9.818186934944624 0 0 0
487 1 2 -1.1794 3.1465974150357945 1.9889681475434644 5.8049442857940505 0 0 0
166 1 2 -1.1794 3.2240689589536946 1.960975613356643 13.26388543634644 0 0 0
167 1 1 0.5897 3.191729531585905 1.9254403886110898 12.30793433431055 0 0 0
457 1 2 -1.1794 5.4376364301961635 3.3905896376941302 14.113004370727744 0 0 0
458 1 1 0.5897 6.192184443273442 2.8691576249272877 13.83902242076657 0 0 0
459 1 1 0.5897 4.682357957697285 2.931602460584769 13.745336022864109 0 0 0
762 1 1 0.5897 5.399927431007173 5.083604489222156 13.515494465899055 0 0 0
594 1 1 0.5897 8.342223733130174 2.3091400804977114 13.416071147608166 0 0 0
168 1 1 0.5897 2.4113773202564834 2.3998663761162624 13.515337487322226 0 0 0
468 1 1 0.5897 0.7608304960045623 3.2230521093739157 14.879491337299527 0 0 0
466 1 2 -1.1794 0.8858473375056544 3.2062766982460085 13.930679723510814 0 0 0
593 1 1 0.5897 7.595304371476229 0.9924908830377859 13.436717214597095 0 0 0
592 1 2 -1.1794 7.535430223190415 1.8916918718864941 13.114183655672578 0 0 0
365 1 1 0.5897 0.8901784073727723 4.896174535597873 13.327176407907027 0 0 0
71 1 1 0.5897 5.243898047764433 3.2889949140716443 15.915061237936253 0 0 0
364 1 2 -1.1794 0.8179394995659978 5.794527283028928 13.004814246169106 0 0 0
761 1 1 0.5897 5.375342462586218 5.893668684228274 12.236862801077232 0 0 0
760 1 2 -1.1794 5.398366229666092 5.983552117781558 13.189511711222215 0 0 0
113 1 1 0.5897 0.7486130678406684 5.783601175590677 11.264840241047 0 0 0
357 1 1 0.5897 7.505059710937226 1.9556657134243585 11.345843630193906 0 0 0
737 1 1 0.5897 2.9043775508732765 0.316933300121549 13.733032473865011 0 1 0
467 1 1 0.5897 0.14614033948748073 2.696486169610116 13.600162400163068 0 0 0
754 1 2 -1.1794 7.497104268718056 1.8479831619605946 17.53043547625568 0 0 0
21 1 1 0.5897 0.6817381433686741 4.028180486202816 20.954805658130308 0 0 0
277 1 2 -1.1794 5.302616001960544 5.843829693790883 17.737116185825464 0 0 0
755 1 1 0.5897 7.522309765126728 1.822306472871256 18.48691663172504 0 0 0
290 1 1 0.5897 2.9005417853908586 1.067942736590623 17.282494186673734 0 0 0
42 1 1 0.5897 7.42492943351548 1.079485922209013 20.58041813054631 0 0 0
289 1 2 -1.1794 2.971587917844908 1.9531257431822415 17.63967378838426 0 0 0
41 1 1 0.5897 6.732637794482663 2.4258087574246447 20.583162064709413 0 0 0
143 1 1 0.5897 5.113077387613312 4.9173763026820225 20.74328679853536 0 0 0
569 1 1 0.5897 2.1860901638680126 2.274402779450435 20.680551489093368 0 0 0
291 1 1 0.5897 2.203564104772749 2.4117483916770035 17.298932381362945 0 0 0
570 1 1 0.5897 2.9313787746326 1.9526184436390637 19.402731060801685 0 0 0
40 1 2 -1.1794 7.4961807942030365 1.9679422192857692 20.23150203177224 0 0 0
571 1 2 -1.1794 0.7682337800450668 5.7807350446284715 17.634074628774318 0 0 0
667 1 2 -1.1794 5.252837383260521 3.2391598387137184 21.16487836389228 0 0 0
134 1 1 0.5897 0.737876673046935 4.087863822999925 17.03670429274847 0 0 0
568 1 2 -1.1794 3.0042118710751353 1.8983927123398534 20.3555722919944 0 0 0
756 1 1 0.5897 6.6941705807535765 2.3266464694394116 17.324294000265184 0 0 0
669 1 1 0.5897 4.443015476663849 2.787461825521798 20.9272370365843 0 0 0
278 1 1 0.5897 5.3165133963280065 4.934766083710209 17.437809604843807 0 0 0
19 1 2 -1.1794 0.7083318809138973 3.124846094508005 21.270178711571244 0 0 0
646 1 2 -1.1794 0.5699310291724327 5.770334405608867 20.384803545830874 0 0 0
72 1 1 0.5897 4.4853435707465215 2.795536012230433 17.128703996752733 0 0 0
144 1 1 0.5897 5.131162685867737 5.8062696775040665 19.518031273362954 0 0 0
70 1 2 -1.1794 5.267801808670767 3.2835101267954094 16.871903441255686 0 0 0
648 1 1 0.5897 0.6631301952955995 5.804086567595823 19.432791884235336 0 0 0
133 1 2 -1.1794 0.7915099389029839 3.2060297500573305 16.6683768571106 0 0 0
142 1 2 -1.1794 5.051207122870404 5.833051077272219 20.471467111033856 0 0 0
599 1 1 0.5897 9.066081421465684 2.6590914546422826 16.95774663368056 0 0 0
360 1 1 0.5897 8.919149206876988 2.7494747545512705 20.96595078039718 0 0 0
81 1 1 0.5897 3.0501374528662746 0.2541792115113488 21.037931584249637 0 1 0
253 1 2 -1.1794 3.1964017694072675 7.028301834912299 2.226827478493789 0 0 0
123 1 1 0.5897 3.084442485645048 8.709480207657238 2.810501063916123 0 0 0
121 1 2 -1.1794 2.9638213565414024 9.609877415929008 3.1120168086506452 0 0 0
122 1 1 0.5897 2.9339890821791332 9.541438038296967 4.06625777484625 0 0 0
44 1 1 0.5897 1.4788773620123201 10.383117192576458 2.570272272981852 0 0 0
218 1 1 0.5897 5.864948731641941 10.562892701271718 2.3625052154539805 0 0 0
255 1 1 0.5897 2.371244031618969 6.662161470172182 2.5452352253802806 0 0 0
219 1 1 0.5897 4.354473385901319 10.484819480708852 2.430490358418142 0 0 0
43 1 2 -1.1794 0.6941814676159169 10.796377653794513 2.2100315506003607 0 0 0
415 1 2 -1.1794 7.479879581385706 7.214082926799048 2.185694614491808 0 0 0
417 1 1 0.5897 8.254496787708156 6.72558738998986 2.4643480112071776 0 0 0
254 1 1 0.5897 3.08997192498788 7.068987155318742 1.276474625789777 0 0 0
217 1 2 -1.1794 5.069644083970866 10.967888753691525 2.0164144066611165 0 0 0
66 1 1 0.5897 7.433163726355582 9.79849509475131 3.927393884142389 0 0 0
65 1 1 0.5897 7.529470907680325 8.954164110960937 2.674578039268759 0 0 0
64 1 2 -1.1794 7.4075375586008585 9.85565232835537 2.97228896840426 0 0 0
416 1 1 0.5897 6.741831829060018 6.708360626406632 2.5260191784363264 0 0 0
396 1 1 0.5897 0.7525817237713537 11.00946685652988 0.47190326688433376 0 0 0
773 1 1 0.5897 8.914715660499455 10.715419711932105 2.583640029316786 0 0 0
162 1 1 0.5897 7.355607743672962 7.0958115549825855 0.4658087422438797 0 0 1
138 1 1 0.5897 4.601452657319415 6.13444821426513 2.7423847614051695 0 0 0
363 1 1 0.5897 5.082038102722446 10.90816976709484 0.22167895454331815 0 0 1
45 1 1 0.5897 0.7484210686983697 11.707220409156902 2.499165413006151 0 0 0
256 1 2 -1.1794 2.9291562344015523 9.737830246726162 10.391903644216256 0 0 0
12 1 1 0.5897 3.0815638637037224 7.886950895914531 6.553075239403157 0 0 0
10 1 2 -1.1794 3.20089523740256 6.99393305329096 6.876270750543353 0 0 0
794 1 1 0.5897 2.165165564055025 9.943195463245344 6.196977852440911 0 0 0
526 1 2 -1.1794 7.424889725965633 7.014615625745841 9.428478046978153 0 0 0
577 1 2 -1.1794 5.105795606890784 10.797219677982149 6.683215685998928 0 0 0
145 1 2 -1.1794 7.581757205748458 7.24471896431063 6.705525622669746 0 0 0
551 1 1 0.5897 0.7364374057480898 11.013481053923881 7.63074827427492 0 0 0
713 1 1 0.5897 8.246720034590245 10.221719990385377 6.047287784230956 0 0 0
580 1 2 -1.1794 5.181525885448426 10.992583382563462 9.434917415184191 0 0 0
650 1 1 0.5897 3.0749562933626953 7.060670460780435 8.627342713108039 0 0 0
822 1 1 0.5897 8.1820724002264 10.034402298929297 9.999366401451837 0 0 0
527 1 1 0.5897 7.449277046348454 7.9219173302940495 9.732422807583138 0 0 0
15 1 1 0.5897 1.4578605379185132 10.529773023010563 9.762933378215083 0 0 0
582 1 1 0.5897 5.196364042048654 10.935119276042787 8.47960163214207 0 0 0
820 1 2 -1.1794 7.3856375420565925 9.593398456701138 10.295224985433602 0 0 0
581 1 1 0.5897 5.942181924184849 10.48490890178933 9.717705178574686 0 0 0
147 1 1 0.5897 7.5424185230587195 7.145112742658402 7.656672395486514 0 0 0
649 1 2 -1.1794 2.9928049068021454 7.151193332128353 9.576664003104622 0 0 0
528 1 1 0.5897 8.206644467280395 6.613270063258014 9.808067191966538 0 0 0
13 1 2 -1.1794 0.7122038491680256 10.990803619413203 9.378564938887155 0 0 0
258 1 1 0.5897 3.694603137047024 10.155960281521956 9.997493279839636 0 0 0
714 1 1 0.5897 7.500783526574457 8.90481276967393 6.012236137744976 0 0 0
257 1 1 0.5897 2.9902955469099677 8.821642540675265 10.121650509444034 0 0 0
146 1 1 0.5897 6.79720493339118 6.799699766858114 6.384990395921759 0 0 0
578 1 1 0.5897 5.926285177799342 10.437331818379816 6.346175154294 0 0 0
550 1 2 -1.1794 0.7500937724659846 10.942767263030913 6.676304614498275 0 0 0
687 1 1 0.5897 4.612926909830641 6.2490876813629495 6.164606012159416 0 0 0
651 1 1 0.5897 3.749719413883118 6.682787618991819 9.928767336541696 0 0 0
11 1 1 0.5897 2.4494768102522415 6.511509394193876 6.531404272859484 0 0 0
795 1 1 0.5897 3.6784363353573513 9.924074426587914 6.15338219129872 0 0 0
165 1 1 0.5897 8.98663644416202 6.244122377844092 6.068473114079034 0 0 0
677 1 1 0.5897 5.979410524743177 6.234866059471665 10.098703107449492 0 0 0
114 1 1 0.5897 1.5025590576255088 6.32522351079737 10.068995351382423 0 0 0
579 1 1 0.5897 5.09238239448234 11.700685673933476 6.3673954114892615 0 0 0
793 1 2 -1.1794 2.905992804305731 9.456205235180981 5.835993748536155 0 0 0
712 1 2 -1.1794 7.447364310459153 9.813109263708606 5.715045886727316 0 0 0
826 1 2 -1.1794 7.706053265124067 7.083226396136754 14.15589082074955 0 0 0
827 1 1 0.5897 6.8959453988223265 6.66872902478363 13.858849993828574 0 0 0
332 1 1 0.5897 3.0626497854450374 8.023315096453263 13.661790411215144 0 0 0
797 1 1 0.5897 3.0773329744055737 9.781906847824535 12.15030813151654 0 0 0
796 1 2 -1.1794 3.1472704635747126 9.733052419681316 13.103656731979612 0 0 0
798 1 1 0.5897 2.365476726728884 10.182354525720479 13.424952954885057 0 0 0
722 1 1 0.5897 4.6424440928725605 10.521456763317362 13.625850353048957 0 0 0
261 1 1 0.5897 0.9146000957625589 10.896038347098177 14.935955493764126 0 0 0
723 1 1 0.5897 5.396257391474682 10.913495509203566 14.878808841780787 0 0 0
828 1 1 0.5897 7.679001787388002 7.00677316754321 15.109605675881586 0 0 0
259 1 2 -1.1794 0.8915781358924437 10.942034698496881 13.980181075059809 0 0 0
331 1 2 -1.1794 3.035956580801128 7.107506749650795 13.938839080374844 0 0 0
225 1 1 0.5897 3.0109535933645786 7.031508577276221 15.75535315052819 0 0 0
721 1 2 -1.1794 5.447080274541342 10.946011333675703 13.923554968953642 0 0 0
475 1 2 -1.1794 7.580140013725693 9.484941660419704 13.019551406803473 0 0 0
476 1 1 0.5897 6.800858961845303 9.934995562148739 13.345858901755156 0 0 0
477 1 1 0.5897 7.594396926214907 8.654408032640438 13.49513497483011 0 0 0
333 1 1 0.5897 3.8603834053334434 6.737222007648486 13.623356105144632 0 0 0
366 1 1 0.5897 1.604597893075018 6.230883116478449 13.332028460841332 0 0 0
821 1 1 0.5897 7.469073348905734 9.561226265548333 11.24819637809446 0 0 0
104 1 1 0.5897 8.98952601734709 10.39737079596151 13.585011273651999 0 0 0
445 1 2 -1.1794 0.9566342363010683 10.89285850300428 16.681219798033954 0 0 0
141 1 1 0.5897 7.434593752252471 8.751119680739464 20.738346469823394 0 0 0
361 1 2 -1.1794 5.099855961070132 10.823972424845195 21.070344062762963 0 0 0
9 1 1 0.5897 6.859297589082852 10.112482555062156 17.471655457727042 0 0 0
4 1 2 -1.1794 2.7202644544025847 6.994794337452058 21.372260181550374 0 0 0
627 1 1 0.5897 2.4197653548452758 10.062930643523915 17.34164058074766 0 0 0
394 1 2 -1.1794 0.7761012335842637 11.06816569208827 21.31878186401128 0 0 0
572 1 1 0.5897 1.5308465093826908 6.251726350667245 17.298087744478288 0 0 0
140 1 1 0.5897 6.669620787596759 10.057382828573276 20.71902783759484 0 0 0
161 1 1 0.5897 6.5691040625719 6.640462212400852 21.05700337097731 0 0 0
690 1 1 0.5897 2.142928394739801 10.0243127626405 20.645220843223218 0 0 0
625 1 2 -1.1794 3.155260178502378 9.539289945794508 17.65966594408505 0 0 0
688 1 2 -1.1794 2.8726238132299087 9.491246746193637 20.329507601051873 0 0 0
647 1 1 0.5897 1.3313215205122437 6.245657796998368 20.717447687034337 0 0 0
224 1 1 0.5897 3.0999951461505364 7.911837422781338 16.98368698795535 0 0 0
689 1 1 0.5897 3.65536984301655 9.961074208918598 20.617393496659997 0 0 0
681 1 1 0.5897 5.341984260812998 11.74214338532482 16.902204920971712 0 0 0
626 1 1 0.5897 3.043394288393445 9.520778105302135 18.610084734124115 0 0 0
139 1 2 -1.1794 7.514117262739671 9.671175282786857 20.486653518264433 0 0 0
6 1 1 0.5897 2.751648351072115 7.864543259112226 20.97385974797235 0 0 0
521 1 1 0.5897 6.753674687955454 6.705650265433058 17.154872924757974 0 0 0
8 1 1 0.5897 7.561816289660245 9.685694877376942 18.74292818546492 0 0 0
7 1 2 -1.1794 7.637948796605308 9.65519272637754 17.78929130653548 0 0 0
160 1 2 -1.1794 7.403950664913097 7.0320440385887375 21.313947518352002 0 0 0
5 1 1 0.5897 3.515793599163906 6.560758484949411 21.063939555130087 0 0 0
522 1 1 0.5897 7.575452920551611 7.974639739933197 17.233906285707082 0 0 0
279 1 1 0.5897 4.487427722275135 6.2003214713982535 17.38398728046368 0 0 0
680 1 1 0.5897 4.572132018265132 10.440630549154742 16.97485296380371 0 0 0
679 1 2 -1.1794 5.369178843076168 10.82959003581604 16.614662653372914 0 0 0
287 1 1 0.5897 8.984847914390146 10.457732526914132 21.127513932636965 0 0 0
223 1 2 -1.1794 3.0367850295363974 6.9963587861810295 16.711515160581335 0 0 0
520 1 2 -1.1794 7.608502310134023 7.069543833034509 16.92425707539033 0 0 0
362 1 1 0.5897 5.15368774084534 11.724638534409245 20.75085010672599 0 0 0
711 1 1 0.5897 8.962878269361166 6.144527275979131 17.515078645943674 0 0 0
447 1 1 0.5897 0.1475199097326616 10.502386806028388 17.01164394115512 1 0 0
462 1 1 0.5897 8.9525859327239 6.17639086480736 20.89258227774249 0 0 0
446 1 1 0.5897 0.9338221299515624 11.795992601364409 16.997450121954753 0 0 0
200 1 1 0.5897 5.048141474645565 13.41191698262609 4.826704412856048 0 0 0
173 1 1 0.5897 4.390913208881069 13.98164864265168 2.7393299851690047 0 0 0
172 1 2 -1.1794 5.129273435199892 13.484341367612595 3.0911864860666762 0 0 0
374 1 1 0.5897 0.7678675459328561 13.430690084741801 3.9419677504858757 0 0 0
558 1 1 0.5897 3.0374795761678337 14.8253086061715 1.2068718711559265 0 0 0
556 1 2 -1.1794 2.9658353228613796 14.872027163030838 2.160200283163507 0 0 0
557 1 1 0.5897 2.196941727115759 14.341595457432883 2.36936552232836 0 0 0
478 1 2 -1.1794 7.223725245886247 14.80514371272719 1.8961450886221007 0 0 0
174 1 1 0.5897 5.058592585980353 12.624386148771725 2.676870437838853 0 0 0
293 1 1 0.5897 2.968255569320796 16.589266188692566 2.6629488365572795 0 0 0
479 1 1 0.5897 7.999213864305904 14.468132641954394 2.3448592216956823 0 0 0
449 1 1 0.5897 7.478090672896366 16.430685289030684 2.682155887452794 0 0 0
480 1 1 0.5897 6.490034775342258 14.351850811061963 2.3114908150937343 0 0 0
373 1 2 -1.1794 0.8122206309531244 13.38710433343367 2.9868329627719064 0 0 0
308 1 1 0.5897 7.359560725610059 17.32117299462976 4.890347457201784 0 0 0
294 1 1 0.5897 2.9236887443896964 17.42804237661155 3.922383564192265 0 0 0
448 1 2 -1.1794 7.536587959107868 17.318175553917296 3.0358682649861986 0 0 0
292 1 2 -1.1794 2.9592246861137212 17.49636832927422 2.9683297007830105 0 0 0
384 1 1 0.5897 2.999756886229506 16.617168037436983 10.045528815169302 0 0 0
656 1 1 0.5897 1.3865808143255867 14.000636711647651 6.123474541516962 0 0 0
454 1 2 -1.1794 5.3301081171333795 13.571997797030862 10.285729361930253 0 0 0
307 1 2 -1.1794 7.2999923774899855 17.357532042301305 5.844959001088557 0 0 0
811 1 2 -1.1794 3.0807234731812376 14.944199569061304 9.43141578219475 0 0 0
456 1 1 0.5897 5.283201708606127 12.656134997797542 10.011559859772591 0 0 0
813 1 1 0.5897 2.3788307746892814 14.384082516787478 9.762921433853617 0 0 0
17 1 1 0.5897 2.9867710496437203 14.89541513580155 7.610561457350072 0 0 0
766 1 2 -1.1794 0.8819461257398472 13.552047684485816 10.354588987069736 0 0 0
239 1 1 0.5897 2.8987591028052626 16.519158843716504 6.019137702468442 0 0 0
377 1 1 0.5897 6.831298345891777 14.378666705076597 9.756965670297125 0 0 0
199 1 2 -1.1794 5.000505916432507 13.414781484052492 5.782672049590081 0 0 0
519 1 1 0.5897 8.163291977642904 14.400767774791902 6.487480506794998 0 0 0
812 1 1 0.5897 3.8861525711101303 14.52278324691414 9.731425058125394 0 0 0
18 1 1 0.5897 3.6265736028170865 14.390668125078466 6.3347560990946405 0 0 0
376 1 2 -1.1794 7.573836961907501 14.875689417276783 9.413594074403884 0 0 0
16 1 2 -1.1794 2.8818367163492122 14.897040122777106 6.659174049487283 0 0 0
517 1 2 -1.1794 7.29822388867995 14.739504473989017 6.718248349843116 0 0 0
186 1 1 0.5897 7.396947343482259 16.588828953292552 10.089384408370202 0 0 0
378 1 1 0.5897 7.478673635881456 14.822985518477633 8.462637745411135 0 0 0
518 1 1 0.5897 7.324051972495026 15.66043224784783 6.458634420910445 0 0 0
201 1 1 0.5897 5.780924336316524 13.894497671096266 6.060386766483565 0 0 0
184 1 2 -1.1794 7.32804342066198 17.490421237535166 10.403324612088777 0 0 0
382 1 2 -1.1794 2.9007149626595643 17.491926726493094 10.421246318371482 0 0 0
655 1 2 -1.1794 0.6708137804394009 13.5104275724416 5.71893078619577 0 0 0
238 1 2 -1.1794 2.910968963548783 17.415727994764687 5.684194707228986 0 0 0
59 1 1 0.5897 9.030542958085663 14.006576139561604 9.97970602063458 0 0 0
14 1 1 0.5897 0.7345298379113733 11.859577049474906 9.77969517097885 0 0 0
552 1 1 0.5897 0.7795489305944601 11.848771672575607 6.368943519443378 0 0 0
296 1 1 0.5897 7.424891929357919 14.920868232306729 14.790008130751367 0 0 0
232 1 2 -1.1794 2.9255231308440104 14.854061877737692 13.915719498226153 0 0 0
234 1 1 0.5897 2.940674192443795 14.773752521162848 14.869380841365386 0 0 0
606 1 1 0.5897 2.916685815770669 16.56874523915391 13.398233719379506 0 0 0
427 1 2 -1.1794 5.2084741723339345 13.524293686367459 13.065967788436362 0 0 0
233 1 1 0.5897 3.709758947394271 14.389554585346085 13.623290529437591 0 0 0
639 1 1 0.5897 1.420442268557593 14.014312022050406 13.369024551014368 0 0 0
429 1 1 0.5897 6.012846691122152 13.984897119643106 13.305014751662503 0 0 0
428 1 1 0.5897 5.330903672157015 12.636866024822794 13.403100915888665 0 0 0
637 1 2 -1.1794 0.6140246249619452 13.569896545899692 13.107298293461866 0 0 0
638 1 1 0.5897 0.7166292783463721 12.675468924554968 13.432332415450892 0 0 0
295 1 2 -1.1794 7.385376055369114 14.947427504631378 13.834036262301273 0 0 0
270 1 1 0.5897 7.458260609989421 16.638027923603538 13.37211176425464 0 0 0
297 1 1 0.5897 8.163046454506826 14.467958744806252 13.548304534946931 0 0 0
268 1 2 -1.1794 7.529270837740552 17.560143201832886 13.125453597636225 0 0 0
455 1 1 0.5897 5.2566382451638525 13.5410197983839 11.239560266336563 0 0 0
269 1 1 0.5897 7.460398998615513 17.55917375426056 12.170777729467366 0 0 0
767 1 1 0.5897 0.7827741640450661 13.564594633265688 11.306513117865887 0 0 0
605 1 1 0.5897 2.8509321092255404 17.483497357316704 12.193816303840704 0 0 0
604 1 2 -1.1794 2.879635664923883 17.492557885374907 13.150500834683426 0 0 0
824 1 1 0.5897 3.7276899206045195 14.37525583511221 16.874202680612996 0 0 0
664 1 2 -1.1794 3.1128698778208346 14.730196934676846 21.251511458259916 0 0 0
50 1 1 0.5897 7.410546553964591 15.824896716041016 16.967032925331473 0 0 0
610 1 2 -1.1794 7.412216075475172 17.491509492106623 17.65963096579067 0 0 0
51 1 1 0.5897 8.182618885250038 14.523434826649309 16.92238376500701 0 0 0
452 1 1 0.5897 0.7540665675126352 12.767281371006044 20.546727173411597 0 0 0
125 1 1 0.5897 5.154352117806355 13.422928243199225 18.35428709392928 0 0 0
124 1 2 -1.1794 5.203212349818086 13.424925522916471 17.398380010974744 0 0 0
684 1 1 0.5897 4.455745234833707 13.85580964534641 20.4648794538725 0 0 0
715 1 2 -1.1794 3.09246440462371 17.325486599697008 20.404386932048528 0 0 0
666 1 1 0.5897 3.1120463640686737 15.641172745994345 20.957745913044526 0 0 0
316 1 2 -1.1794 7.415561071258616 14.60850276265892 21.003437566020768 0 0 0
52 1 2 -1.1794 0.7986573569083577 13.545969903360273 17.509037952262638 0 0 0
318 1 1 0.5897 7.36957339881978 15.524405986569347 20.72924728629085 0 0 0
665 1 1 0.5897 2.302830414071177 14.363114383278958 20.897388775153882 0 0 0
584 1 1 0.5897 2.9277105016725087 16.55915884630208 17.29112650205973 0 0 0
683 1 1 0.5897 5.968542678516599 13.795077365650002 20.461987316692216 0 0 0
126 1 1 0.5897 5.952537769525298 13.98571383053952 17.197555093172134 0 0 0
682 1 2 -1.1794 5.192635367135814 13.356269567330669 20.11310665544004 0 0 0
157 1 2 -1.1794 7.344226588004739 17.287970742238763 20.3536039195294 0 0 0
53 1 1 0.5897 0.8705974740592756 13.628749810359981 18.459891583082033 0 0 0
451 1 2 -1.1794 0.7749385647571022 13.663507985994675 20.21129498728012 0 0 0
825 1 1 0.5897 2.213888641446126 14.38633041081918 16.897334901098166 0 0 0
159 1 1 0.5897 7.354966125281942 17.421366514220978 19.405848106460336 0 0 0
583 1 2 -1.1794 2.884567796365314 17.426011059919155 17.694706858828773 0 0 0
716 1 1 0.5897 3.0453679846449493 17.42720162466124 19.45381510030117 0 0 0
117 1 1 0.5897 8.895695936274771 13.841138531588308 20.558827832389994 0 0 0
49 1 2 -1.1794 7.411466777917531 14.958978674132105 16.559163165202055 0 0 0
823 1 2 -1.1794 2.970345669429109 14.897382835014438 16.609417981805677 0 0 0
317 1 1 0.5897 7.317975105236223 14.637732767922502 21.95515893672742 0 0 -1
267 1 1 0.5897 6.025010260008467 21.730004009597607 2.7703766822149833 0 0 0
696 1 1 0.5897 1.4525825726781572 21.85437054791055 2.753153644308445 0 0 0
266 1 1 0.5897 4.513115792199707 21.757715030741426 2.845622473389726 0 0 0
265 1 2 -1.1794 5.279231471722306 21.290661810526043 3.179137356257491 0 0 0
344 1 1 0.5897 1.5007910097306583 18.36558924853837 2.4575841549393305 0 0 0
228 1 1 0.5897 5.3383237688135035 19.58058537143098 2.589532011255493 0 0 0
343 1 2 -1.1794 0.7214835785760321 18.864795797343746 2.2130844516864627 0 0 0
817 1 2 -1.1794 7.414111405556397 22.533367315426258 2.028987621539952 0 0 0
249 1 1 0.5897 5.280722316709141 21.228638985332037 4.973167307694778 0 0 0
226 1 2 -1.1794 5.318740063838482 18.70099337649453 2.212561856678682 0 0 0
187 1 2 -1.1794 3.0716195586157036 22.576715741433894 2.3397845689898613 0 0 0
695 1 1 0.5897 0.6878804070697532 20.547838659285773 2.743491242207879 0 0 0
694 1 2 -1.1794 0.6305850249929189 21.45620973058159 3.0397241600419966 0 0 0
818 1 1 0.5897 8.199373239373386 22.1317503355025 2.40097770258947 0 0 0
321 1 1 0.5897 8.994235678808511 18.19750393599337 2.4511974914566252 0 0 0
189 1 1 0.5897 3.0912105349231456 22.635741818457983 1.3846503996117359 0 0 0
413 1 1 0.5897 0.8196426365494559 21.440296296718167 4.83160838635832 0 0 0
227 1 1 0.5897 4.481993978564709 18.335369194738373 2.4997915221193585 0 0 0
345 1 1 0.5897 0.7101622507601384 18.83865929013304 1.2563508017770513 0 0 0
450 1 1 0.5897 6.729106800207938 17.744635778778246 2.7487760370774996 0 0 0
498 1 1 0.5897 7.413013931067616 22.616438646238993 0.26780461647021275 0 0 0
602 1 1 0.5897 5.263672979713015 18.74654448735089 0.4185648020255779 0 0 0
819 1 1 0.5897 7.409795540139518 23.423291665000292 2.381395714492902 0 -1 0
555 1 1 0.5897 5.208411845473254 20.59479234762019 10.175000646064152 0 0 0
342 1 1 0.5897 0.7121583727718068 18.722040183347634 7.5075356190213505 0 0 0
87 1 1 0.5897 8.20529557562188 22.195043107225885 9.814097255263395 0 0 0
37 1 2 -1.1794 2.9784811225109142 22.75912436479021 9.419098683950335 0 0 0
86 1 1 0.5897 7.50511948000522 22.63940301856221 8.547559234580163 0 0 0
248 1 1 0.5897 4.580247908443195 21.709968965517024 6.225953464846406 0 0 0
32 1 1 0.5897 8.285679204400326 22.117053081526098 6.420076722539767 0 0 0
404 1 1 0.5897 1.4966864492980918 18.34242871223848 9.715227587963168 0 0 0
39 1 1 0.5897 3.7351654475214704 22.307439830122803 9.792872168567841 0 0 0
553 1 2 -1.1794 5.198222590552918 21.495159718467963 10.499667710064585 0 0 0
701 1 1 0.5897 3.0516118598784923 22.768716195724245 7.653150590644763 0 0 0
414 1 1 0.5897 0.8700077616649761 20.489766361105726 6.008753650485951 0 0 0
387 1 1 0.5897 5.0792951362187 19.529500158075102 6.491140882896377 0 0 0
102 1 1 0.5897 5.129420908398823 18.85063951430009 8.623485697442323 0 0 0
700 1 2 -1.1794 3.200988598895736 22.649847678842313 6.71521962934758 0 0 0
385 1 2 -1.1794 5.048588979400902 18.631250722788856 6.820348515152732 0 0 0
702 1 1 0.5897 2.3899614168406105 22.258299569973616 6.390812761710796 0 0 0
38 1 1 0.5897 2.2230615064272903 22.261512986892857 9.732183056751163 0 0 0
101 1 1 0.5897 5.923980088589334 18.44264736041096 9.845810151419188 0 0 0
341 1 1 0.5897 1.4044290502181282 18.270060203359996 6.239352594931442 0 0 0
33 1 1 0.5897 6.772260098883873 22.14202478747769 6.454605868724074 0 0 0
247 1 2 -1.1794 5.349486655470704 21.22447566080604 5.92784207410055 0 0 0
85 1 2 -1.1794 7.447090704347321 22.68882699245992 9.50167623572426 0 0 0
554 1 1 0.5897 5.9793287752321 21.896484561833923 10.118727662815715 0 0 0
340 1 2 -1.1794 0.6440315433879696 18.759328934341838 6.5535345478973195 0 0 0
386 1 1 0.5897 5.826497960704322 18.213472162349785 6.450723741513103 0 0 0
31 1 2 -1.1794 7.54449573144928 22.612746200764793 6.768254521179051 0 0 0
100 1 2 -1.1794 5.11475034416911 18.8795246467411 9.5800950901909 0 0 0
412 1 2 -1.1794 0.9318587189764509 21.417605751705416 5.781894777860104 0 0 0
403 1 2 -1.1794 0.725608016645567 18.735558178439913 9.306335732410966 0 0 0
94 1 2 -1.1794 0.769263131390731 21.29252270316408 10.181722548782579 0 0 0
405 1 1 0.5897 0.7341395869287567 19.645457461667363 9.603295441337053 0 0 0
383 1 1 0.5897 3.6845150266101507 17.96402865241535 10.14002628221632 0 0 0
185 1 1 0.5897 8.087654376185903 17.934494638599165 10.026379971561147 0 0 0
240 1 1 0.5897 3.6438401732833734 17.831608818015816 6.138319868992726 0 0 0
309 1 1 0.5897 8.115896845751447 17.775463361572672 6.120562696142244 0 0 0
380 1 1 0.5897 0.7039419280769853 20.457624506696373 13.302020874398096 0 0 0
88 1 2 -1.1794 5.167336398612491 21.39092106538798 13.195480506256319 0 0 0
381 1 1 0.5897 1.4390582976035955 21.780457053809148 13.262133176985856 0 0 0
90 1 1 0.5897 5.153990357887889 20.4555675608248 13.398239383689537 0 0 0
763 1 2 -1.1794 5.179499580308283 18.780815343635183 13.993052133071526 0 0 0
738 1 1 0.5897 3.6436114190316915 22.238152262267317 13.756126147163137 0 0 0
89 1 1 0.5897 5.2019029889308115 21.428811757691232 12.239698343299253 0 0 0
764 1 1 0.5897 4.408670980937901 18.33400174718132 13.643078007055346 0 0 0
474 1 1 0.5897 5.193377052979805 18.709369829819256 15.764679832879382 0 0 0
765 1 1 0.5897 5.921400527703244 18.274456567906597 13.662171355797383 0 0 0
350 1 1 0.5897 2.7458998825917567 22.495408334777338 15.811220477994192 0 0 0
736 1 2 -1.1794 2.8060800849266707 22.641027281101064 13.98538462466486 0 0 0
787 1 2 -1.1794 7.639040476360522 22.401097380245506 13.94293366101621 0 0 0