LAMMPS data file via write_data, version 30 Jul 2021, timestep = 12000000

1008 atoms
2 atom types
672 bonds
1 bond types
336 angles
1 angle types

-3.0760171934617553 14.686016193017203 xlo xhi
-0.1605254262323612 22.740524426223473 ylo yhi
-0.08211810945446629 19.31211610945327 zlo zhi
-0.08015442960547352 -6.065652009320782 -0.23039363853881373 xy xz yz

Masses

1 1.008
2 15.999

Pair Coeffs # lj/cut/tip4p/long/omp

1 0 0
2 0.21084 3.1668

Bond Coeffs # harmonic/omp

1 450 0.9572

Angle Coeffs # harmonic/omp

1 55 104.52

Atoms # full

122 41 1 0.5897 -2.058910001366463 2.3575118475138845 1.4079607441743676 1 0 0
86 29 1 0.5897 -1.9206035617658805 1.398552617882199 3.9963788681653103 1 0 0
56 19 1 0.5897 -0.9187171569342425 3.5768462971140993 3.1021023973986477 0 0 0
19 7 2 -1.1794 1.1341087868057 2.6651164828630582 0.15953121065940223 0 0 0
123 41 1 0.5897 -2.9789095094582034 2.887980752244311 2.48697850045857 1 0 0
482 161 1 0.5897 -1.3070055732066146 0.17336651026750366 1.1468131423185388 1 1 0
121 41 2 -1.1794 -2.0679105976900574 2.645722237121871 2.3207531925253133 1 0 0
55 19 2 -1.1794 -0.3510394637684211 4.221056343004061 3.5252309994693594 0 0 0
602 201 1 0.5897 -0.4167309911188588 5.216765702819088 0.33783130592686167 1 0 1
158 53 1 0.5897 -4.145600619279059 4.29451107897867 4.121257659319399 1 0 0
114 38 1 0.5897 -3.042429192265442 5.294506049968368 1.8358377871773677 1 0 0
157 53 2 -1.1794 -3.6483732898135717 4.913584604236618 4.655894851790518 1 0 0
163 55 2 -1.1794 -2.2414450026104493 1.293507021011008 0.06909072754264367 1 0 0
101 34 1 0.5897 -2.4011027942306526 4.392550070152281 -0.006924786775132183 1 0 0
165 55 1 0.5897 -3.0441638201162107 0.7725881698414712 0.08995482756826217 1 0 0
603 201 1 0.5897 -0.0660867476144209 3.799478372558641 -0.06304673996700583 1 0 1
135 45 1 0.5897 -1.6681124614686809 3.8517298242762754 6.851324012902249 1 0 0
69 23 1 0.5897 -2.153920140474217 1.0095160790623705 9.033977936802446 0 0 0
134 45 1 0.5897 -2.203832136462551 2.6125843711370624 6.165983557408133 1 0 0
159 53 1 0.5897 -3.2333811262662424 4.371737632796985 5.327074867606786 1 0 0
68 23 1 0.5897 -2.903484713142474 0.1733433593632034 8.018554787395129 0 0 0
124 42 2 -1.1794 -5.0718299009419585 2.2511183905086205 7.28476520685182 1 0 0
133 45 2 -1.1794 -2.4828807345593433 3.395740148123026 6.640559015504178 1 0 0
126 42 1 0.5897 -4.230619906671182 2.699750220241579 7.199736237731752 1 0 0
669 223 1 0.5897 -5.081833614705528 1.3606291056982769 8.979497913802586 1 0 0
67 23 2 -1.1794 -2.049679195035768 0.264886588150286 8.441449008778424 0 0 0
87 29 1 0.5897 -2.9741474131584136 0.8829627330948002 4.953341799832508 1 0 0
98 33 1 0.5897 -3.7692802886503727 5.220776248320969 8.507122599498553 1 0 0
97 33 2 -1.1794 -3.869129688416062 4.8445849988817455 9.38160037566764 1 0 0
606 202 1 0.5897 -5.6425933394854475 4.491772567578023 9.170037482919552 1 0 0
85 29 2 -1.1794 -2.077331277565891 1.2160445165230442 4.922844306061903 1 0 0
513 171 1 0.5897 -3.237953400311717 5.3752649749072985 13.90704894286032 0 0 0
561 187 1 0.5897 -4.055117699330927 3.3699793996541345 12.552902562340858 0 0 0
524 175 1 0.5897 -2.812634598801025 3.563116764342652 9.746466751004986 0 0 0
625 209 2 -1.1794 -5.267540799632573 2.338809579915104 12.02386980014881 1 0 0
627 209 1 0.5897 -6.155846046062366 2.690662954699243 12.082162204335098 1 0 0
559 187 2 -1.1794 -3.353687955474999 3.858710678977154 12.983420752081873 0 0 0
626 209 1 0.5897 -5.208237856193308 1.7154174840247631 12.747811126196478 1 0 0
668 223 1 0.5897 -5.1368405631392 1.443808475205427 10.49015939950216 1 0 0
589 197 2 -1.1794 -5.055062367915767 0.6959071906530977 14.173101781137817 1 0 0
662 221 1 0.5897 -7.209669194612264 4.608326963432605 13.992703538466126 1 0 0
593 198 1 0.5897 -7.119360708148215 0.45960526660005485 14.096737375692909 1 0 0
523 175 2 -1.1794 -2.251184527340346 2.8131089340003115 9.94296887517145 0 0 0
560 187 1 0.5897 -2.9432214706467397 3.223154949705667 13.569819484464453 0 0 0
667 223 2 -1.1794 -5.096876274514703 0.8173460873089802 9.767423269271372 1 0 0
549 183 1 0.5897 -3.8655177507481753 3.752122656773028 16.59400759172253 0 0 0
572 191 1 0.5897 -6.147498895467308 -0.15621228811994986 17.450271663448362 0 0 0
637 213 2 -1.1794 -5.458573846010111 3.0101094555988874 15.899744321560407 1 0 0
164 55 1 0.5897 -8.299700350471397 1.4575620913707232 18.591214810535 1 0 -1
20 7 1 0.5897 -5.23015361149927 1.7524869308407374 18.952311382592303 0 0 -1
630 210 1 0.5897 -8.101013945503322 1.3833759725280872 16.103774354099368 1 0 0
638 213 1 0.5897 -6.228835464042117 2.590631189988951 16.282889244129212 1 0 0
639 213 1 0.5897 -5.810835592875694 3.7427635757535613 15.394349904979787 1 0 0
628 210 2 -1.1794 -7.871487783668407 2.046546751761985 16.754845422325403 1 0 0
571 191 2 -1.1794 -5.39172079518648 0.2532952311691954 17.871391341946314 0 0 0
601 201 2 -1.1794 -6.7147797981360515 4.295743802750153 19.111243010452476 1 0 0
590 197 1 0.5897 -5.025956400117997 1.4041089410335368 14.81654194421684 1 0 0
661 221 2 -1.1794 -6.646866351331483 5.156010181091034 14.540074744218078 1 0 0
591 197 1 0.5897 -4.445953001765873 0.039316957043256134 14.511061530420527 1 0 0
332 111 1 0.5897 -2.1243797342414843 8.81279832179357 1.1071849314792481 1 0 0
290 97 1 0.5897 -3.697492544184826 10.192968833311733 2.8524275583035377 1 0 0
146 49 1 0.5897 -1.0113846190103915 6.234166509929967 1.93247045012082 1 0 0
289 97 2 -1.1794 -2.8335642094739066 9.794640412952567 2.7462789485634547 1 0 0
145 49 2 -1.1794 -0.2191591052270594 6.471674223711991 1.4507177073273876 1 0 0
255 85 1 0.5897 -2.3901653867286625 8.491975000695684 4.046341053364653 1 0 0
147 49 1 0.5897 -0.511126071435406 7.126979634206634 0.8169940925601381 1 0 0
112 38 2 -1.1794 -2.9804009079461364 6.034917661574238 2.4394586713620425 1 0 0
113 38 1 0.5897 -3.1141229838485325 5.650258321501286 3.3056833373415215 1 0 0
187 63 2 -1.1794 0.6403064044386659 10.266864104625174 0.383228148801125 0 0 0
9 3 1 0.5897 -0.7374263202617746 5.693176014226738 4.560174232450895 0 0 0
291 97 1 0.5897 -2.2211442338213985 10.52640650588832 2.8216012450381096 1 0 0
224 75 1 0.5897 -0.18636069887637063 10.955688913211995 3.6909615304084946 0 0 0
188 63 1 0.5897 0.8163721009554932 9.817522741420845 1.2098768423969786 0 0 0
331 111 2 -1.1794 -1.6877836896244434 8.373811557952182 0.37711871350193343 1 0 0
837 279 1 0.5897 -5.397864893388062 8.154448006442681 9.254744575958265 1 0 0
110 37 1 0.5897 -3.912798971559136 6.0552895539780955 6.16483758995553 1 0 0
301 101 2 -1.1794 -2.231161706633516 10.577654679516906 6.300665325192362 1 0 0
237 79 1 0.5897 -1.9136452278887557 8.586365605730617 8.88603251713431 0 0 0
294 98 1 0.5897 -4.7806201542161615 9.780751050139644 8.376669076490773 1 0 0
236 79 1 0.5897 -2.7962109090767138 7.663781623325539 8.072431798597226 0 0 0
292 98 2 -1.1794 -4.860649869613754 10.367204481685778 7.624420375272151 1 0 0
109 37 2 -1.1794 -3.885913098116128 6.436089313160297 7.042698383670173 1 0 0
293 98 1 0.5897 -3.961623760088965 10.491291780297118 7.320280367807852 1 0 0
302 101 1 0.5897 -2.3247892972178135 9.662291991513664 6.036614677607021 1 0 0
235 79 2 -1.1794 -1.8981248648479032 7.770180539568808 8.386019222551937 0 0 0
111 37 1 0.5897 -4.768519512819702 6.778975773516645 7.18271783556739 1 0 0
7 3 2 -1.1794 -0.7044038179026813 6.389678166889683 5.216078653364742 0 0 0
253 85 2 -1.1794 -2.5572211281343042 8.299007150173711 4.968864409976969 1 0 0
257 86 1 0.5897 -4.423159576118293 8.487463564688902 5.054114039147322 1 0 0
303 101 1 0.5897 -1.357994427934694 10.627035397017224 6.689768802034698 1 0 0
254 85 1 0.5897 -2.075458900242398 7.488798789523671 5.135587289709044 1 0 0
258 86 1 0.5897 -4.93449165113563 9.493081718142674 6.063865552141733 1 0 0
793 265 2 -1.1794 -5.597909613118997 9.95921266758799 12.446998984897029 1 0 0
728 243 1 0.5897 -3.1198746267491178 10.994453881907775 13.755147472768028 0 0 0
759 253 1 0.5897 -4.878721455808137 8.874910598209006 13.876746615692085 1 0 0
616 206 2 -1.1794 -5.771607248520864 6.108640019239055 11.998244773739145 1 0 0
649 217 2 -1.1794 -3.3636202474832135 6.9118483356968055 11.129588722164398 1 0 0
836 279 1 0.5897 -4.386501168410756 8.200523366925493 10.380409336431368 1 0 0
651 217 1 0.5897 -4.120051221332014 6.700131181814027 11.676496881451023 1 0 0
795 265 1 0.5897 -5.505309572284708 9.888748789958946 11.496874170334493 1 0 0
794 265 1 0.5897 -4.986812006465504 10.652222776652005 12.697091402104213 1 0 0
650 217 1 0.5897 -2.6743471805959365 7.142769593820882 11.75239238898852 1 0 0
618 206 1 0.5897 -5.9496465562390775 5.465603075058305 11.311811668503228 1 0 0
99 33 1 0.5897 -3.652354529910967 5.561657044039153 9.977595301705803 1 0 0
617 206 1 0.5897 -6.34768287519279 6.845006780456495 11.792647195678361 1 0 0
835 279 2 -1.1794 -4.878038993660951 8.762079276406846 9.780943745231369 1 0 0
663 221 1 0.5897 -6.158027833386672 5.694695653017679 13.918018697193647 1 0 0
512 171 1 0.5897 -3.7325583487378102 6.709109906861361 14.425236608453817 0 0 0
758 253 1 0.5897 -4.916454872975727 8.878172963975596 15.390172457744882 1 0 0
796 266 2 -1.1794 -7.96438233188084 9.915002808518459 17.320283728650015 1 0 0
614 205 1 0.5897 -6.79659142669869 5.415886318106298 17.600194053233732 1 0 0
741 247 1 0.5897 -5.211233095023667 8.359189438631224 18.858421995554174 0 0 0
797 266 1 0.5897 -7.806090628723357 9.43803244342599 16.50553149594299 1 0 0
613 205 2 -1.1794 -7.027261912640321 6.218435712645688 17.13223028744425 1 0 0
739 247 2 -1.1794 -4.874637121330071 7.6958897753541375 18.255798989168323 0 0 0
740 247 1 0.5897 -5.656790637570957 7.316900418180488 17.85473602771548 0 0 0
333 111 1 0.5897 -7.8443193214199045 8.750825539178809 19.03719040704698 1 0 -1
805 269 2 -1.1794 -5.128728002930722 10.31295147087366 16.475949090358746 1 0 0
807 269 1 0.5897 -4.556521605971932 11.005446064593189 16.80656821320446 1 0 0
806 269 1 0.5897 -5.763063013698057 10.170210185600503 17.178369299743604 1 0 0
757 253 2 -1.1794 -4.831627341080717 8.294377613504391 14.63634441260974 1 0 0
762 254 1 0.5897 -6.7305556928045265 8.198032494373996 14.590940279846201 1 0 0
615 205 1 0.5897 -7.01878447591773 5.968284082544919 16.208277331314036 1 0 0
760 254 2 -1.1794 -7.5928078638399485 8.418961960528112 14.943000813724533 1 0 0
315 105 1 0.5897 -0.7995024189108051 13.85750060383212 1.2760418255527672 1 0 0
281 94 1 0.5897 -3.4861086703568613 13.701498474518269 3.500930877709766 1 0 0
223 75 2 -1.1794 -0.7194819764135829 11.707355415516064 3.431850494765353 0 0 0
423 141 1 0.5897 -2.0035890574281674 16.347088001029675 4.017716192093195 1 0 0
225 75 1 0.5897 -0.7939594176622653 12.234515174201896 4.22743310472888 0 0 0
282 94 1 0.5897 -2.58232086845365 14.202940734445644 2.394889592535809 1 0 0
313 105 2 -1.1794 -1.0914392267078306 14.672767172189385 1.684132227906271 1 0 0
314 105 1 0.5897 -0.30277386651963756 15.03489424776067 2.0879798524176616 1 0 0
280 94 2 -1.1794 -3.495489668039915 13.99169190289889 2.5888275922735495 1 0 0
501 167 1 0.5897 -1.7390716581182262 15.952765750881387 0.4679749850798345 1 0 0
771 257 1 0.5897 -0.3259071070706381 11.653473588882923 0.2298663989488608 1 0 1
499 167 2 -1.1794 -2.182659816385267 16.611295924969227 -0.06669857790138327 1 0 0
770 257 1 0.5897 -1.70266631398834 12.207898584738833 -0.06884335401017497 1 0 1
769 257 2 -1.1794 -0.7891578359027949 12.470369292065152 0.04427981402463074 1 0 1
175 59 2 -1.1794 -0.4674653851892243 13.666835548659698 5.45668190572377 0 0 0
327 109 1 0.5897 -4.122533162516847 12.7755319279593 5.800942772274713 1 0 0
403 135 2 -1.1794 -2.1750826250772937 15.424540581693028 8.198270014621855 0 0 0
425 142 1 0.5897 -4.14038775601918 15.686237876509285 4.972784135701149 1 0 0
277 93 2 -1.1794 -4.209390788024088 13.37533882661349 7.4287392777386545 1 0 0
278 93 1 0.5897 -3.6841650398459853 14.172636389521974 7.360524702090609 1 0 0
326 109 1 0.5897 -3.241725872019553 11.759825500423513 5.104655922084134 1 0 0
267 89 1 0.5897 -3.4926300404255155 12.245620872178112 9.005582383151769 1 0 0
405 135 1 0.5897 -2.254757344361057 16.235940065978262 8.699980236730788 0 0 0
422 141 1 0.5897 -1.967283263893939 16.714393333927454 5.4860260643251895 1 0 0
421 141 2 -1.1794 -2.086125525117209 15.971398498047503 4.89421114732859 1 0 0
279 93 1 0.5897 -5.076666889199037 13.681423243764062 7.694027335257431 1 0 0
176 59 1 0.5897 -0.9621497692208685 14.478719082832308 5.5686471543199225 0 0 0
1004 335 1 0.5897 -4.881011597064355 16.445236146910577 8.9638436333924 1 0 0
462 154 1 0.5897 -4.49409760996605 16.77887011276794 6.927041825729253 1 0 0
404 135 1 0.5897 -1.3447017686438851 15.512182769764511 7.730370077220864 0 0 0
755 252 1 0.5897 -1.7300401590697163 14.034543213618186 9.472618341223976 0 0 0
325 109 2 -1.1794 -3.884492991954062 12.448235245839724 4.9334497947674665 1 0 0
786 262 1 0.5897 -6.488282529641283 13.133946371905472 13.248703040995665 1 0 0
817 273 2 -1.1794 -3.773321033325912 14.546575892994271 11.491647618463965 1 0 0
729 243 1 0.5897 -4.113995038649087 12.106344445166808 14.015380862970925 0 0 0
819 273 1 0.5897 -4.3581715815900886 14.426641784110272 12.239793579818478 1 0 0
818 273 1 0.5897 -3.6770828293310265 13.66999982765673 11.119152933641963 1 0 0
784 262 2 -1.1794 -6.365801944410274 13.436779214907304 12.348980964084367 1 0 0
727 243 2 -1.1794 -3.7080003854093846 11.603840248029858 13.308958915604215 0 0 0
773 258 1 0.5897 -6.331962778929411 12.426935999930317 10.98093272360451 1 0 0
1005 335 1 0.5897 -4.776651163853405 15.492321875931195 10.135554349364734 1 0 0
1003 335 2 -1.1794 -5.410403789963624 15.988705301528693 9.617627620545914 1 0 0
266 89 1 0.5897 -2.7779712280376483 11.311783188910221 9.95912605437163 1 0 0
925 309 2 -1.1794 -5.288225991209694 16.09265738475455 14.21144721517219 1 0 0
927 309 1 0.5897 -6.225318126340603 15.959765318731968 14.35404523096812 1 0 0
265 89 2 -1.1794 -3.4554058422207126 11.987346182302117 9.926509765792986 1 0 0
785 262 1 0.5897 -6.8787597843947115 14.243237964144042 12.295283201342503 1 0 0
774 258 1 0.5897 -5.4105280621209 11.789438100036746 9.962811212477998 1 0 0
907 303 2 -1.1794 -5.250414601810884 15.795105855026879 17.979672589841815 0 0 0
680 227 1 0.5897 -4.564043252396118 14.618721325124413 14.73818186237662 0 0 0
829 277 2 -1.1794 -6.626438340558457 12.244429261355313 14.872496518385427 1 0 0
783 261 1 0.5897 -6.890073484263054 13.189880548895372 18.05731850755 1 0 0
781 261 2 -1.1794 -6.850891494969927 13.673279655242139 17.232107815667884 1 0 0
831 277 1 0.5897 -6.207827646691336 11.49718273932586 15.299948754960802 1 0 0
782 261 1 0.5897 -6.2797476190054375 14.418687853320074 17.4176037361725 1 0 0
830 277 1 0.5897 -6.6417871710998435 12.927133964058237 15.54339043280153 1 0 0
679 227 2 -1.1794 -4.1176756351494035 13.825509699763662 15.034699761930094 0 0 0
929 310 1 0.5897 -7.9541026442721385 16.41348560592784 15.528243320146421 1 0 0
909 303 1 0.5897 -4.974165067511758 15.184079623690845 18.662761118313213 0 0 0
908 303 1 0.5897 -4.461839706779626 15.944497647163832 17.458212972954097 0 0 0
500 167 1 0.5897 -8.734207217798478 15.874113284086452 18.676832589981775 1 0 -1
926 309 1 0.5897 -5.053866516268323 16.805716231394797 14.805576942782965 1 0 0
716 239 1 0.5897 -3.9241682239828677 12.988107863641911 16.570312074926072 0 0 0
474 158 1 0.5897 -4.2921122551634205 19.196128411645947 4.189186606319373 1 0 0
495 165 1 0.5897 -3.011837779870027 20.8781795101846 4.381908675069787 1 0 0
448 150 2 -1.1794 -3.166600665402942 21.606633547997074 2.9661012235512554 1 0 0
391 131 2 -1.1794 -0.38579654746514525 19.736879364305288 3.1012352126232083 0 0 0
458 153 1 0.5897 -2.240486464517148 17.233571698768536 1.7252437469274973 1 0 0
483 161 1 0.5897 -1.3949429842333956 22.10888531606137 2.3128027870094447 1 0 0
392 131 1 0.5897 0.37865851900821124 19.797571702417123 2.528455256150984 0 0 0
393 131 1 0.5897 -0.31144387994540956 20.4942884928462 3.6819430356236054 0 0 0
938 313 1 0.5897 -0.7943307584073871 21.24872725647297 0.1959849650491614 1 0 1
459 153 1 0.5897 -1.608119258560126 18.30976677464874 2.582034712134676 1 0 0
481 161 2 -1.1794 -0.8170552659880999 22.499315839489068 1.6572733873639711 1 0 0
457 153 2 -1.1794 -2.3226283492478985 17.672976222125463 2.571718200560459 1 0 0
449 150 1 0.5897 -3.5034043439591556 20.998155852988493 2.308306732940869 1 0 0
939 313 1 0.5897 -0.2138975509429808 19.853326388716138 0.10515213631161324 1 0 1
355 119 2 -1.1794 0.6718208670640471 18.129512484041257 0.48776773739938006 0 0 0
437 146 1 0.5897 -2.7066122609013354 19.606392603606967 0.34337437434885937 1 0 0
450 150 1 0.5897 -3.646894608454849 22.41971270410761 2.8092607323808965 1 0 0
494 165 1 0.5897 -3.4315411783416505 20.94623904995462 5.834898180104893 1 0 0
460 154 2 -1.1794 -4.485041617032545 17.532320211779904 7.51751061840014 1 0 0
471 157 1 0.5897 -2.8385459126529895 18.085380312528113 6.977679393707945 1 0 0
470 157 1 0.5897 -2.1107329905139114 19.194668131053696 6.248853086495603 1 0 0
445 149 2 -1.1794 -4.285723462170214 21.693421361947706 7.242747753313569 1 0 0
446 149 1 0.5897 -3.9452771013079673 21.10052454789919 7.912706450145966 1 0 0
433 145 2 -1.1794 -3.7656999485788294 19.865465750896792 9.390169560799576 1 0 0
469 157 2 -1.1794 -1.988928043165474 18.312612555070483 6.600152660418951 1 0 0
435 145 1 0.5897 -4.661210587687147 19.549478684567944 9.50978337119565 1 0 0
447 149 1 0.5897 -5.226285049416878 21.73577585399129 7.415139328413682 1 0 0
461 154 1 0.5897 -5.087613339701949 18.158795160002764 7.116536606981562 1 0 0
493 165 2 -1.1794 -3.1424042158065557 20.333835607481216 5.15831977464697 1 0 0
343 115 2 -1.1794 -0.45193338806881034 21.726105567717454 5.0517447329427645 0 0 0
345 115 1 0.5897 -1.0928033877040662 22.431863176656492 5.13868804260521 0 0 0
961 321 2 -1.1794 -5.723273377373223 17.685978585469694 12.040583229174926 1 0 0
895 299 2 -1.1794 -3.6774922847308473 19.30153248699643 13.052052058104156 0 0 0
897 299 1 0.5897 -3.2710628485247035 18.837334252375214 13.783918273521627 0 0 0
963 321 1 0.5897 -5.658395033918736 17.301416997202423 11.166404347984262 1 0 0
985 329 2 -1.1794 -3.55300360139116 21.850728235144917 11.075113300071294 1 0 0
896 299 1 0.5897 -4.325339946190226 18.686641621781234 12.707865477536922 0 0 0
998 333 1 0.5897 -6.298301964192802 20.348347327013997 13.531967174629495 1 0 0
434 145 1 0.5897 -3.6653281507633984 20.556090863753973 10.045426731460356 1 0 0
954 318 1 0.5897 -5.086691136386872 21.537117013401822 11.809792983733235 1 0 0
952 318 2 -1.1794 -5.960780641028354 21.25160050012908 12.075443345230909 1 0 0
987 329 1 0.5897 -2.8426923978628684 22.344730553403245 11.484612543961351 1 0 0
848 283 1 0.5897 -3.610775144612447 20.884347649845715 13.960535149545183 0 0 0
953 318 1 0.5897 -6.531176072381292 21.98813384053112 11.855131627810952 1 0 0
941 314 1 0.5897 -6.25835016854948 20.146258157668328 10.564300079884104 1 0 0
962 321 1 0.5897 -5.504330053775842 16.968550310577008 12.635223594361085 1 0 0
859 287 2 -1.1794 -2.1693883698380345 17.81827694919443 9.962724112411559 0 0 0
986 329 1 0.5897 -4.1245020962205565 22.51984499368207 10.69826464379054 1 0 0
997 333 2 -1.1794 -6.738153703127656 20.00485002515606 14.309575269463418 1 0 0
860 287 1 0.5897 -2.8209265186312757 18.512597757788807 9.863977556101077 0 0 0
975 325 1 0.5897 -4.433985570278727 18.713418450717995 16.218593714645813 1 0 0
937 313 2 -1.1794 -6.808346464862662 20.255924513881983 19.01359746277316 1 0 0
964 322 2 -1.1794 -7.561292051780443 17.62074837821344 16.896947737706554 1 0 0
974 325 1 0.5897 -5.782382770263436 18.0458911960679 16.385445585829984 1 0 0
973 325 2 -1.1794 -5.135823498425188 18.290776279102754 15.72355164143602 1 0 0
949 317 2 -1.1794 -7.293796478083722 21.41345374654288 16.654926454942434 1 0 0
950 317 1 0.5897 -6.93645847189852 20.95224143282897 15.896006756784862 1 0 0
951 317 1 0.5897 -6.922349067543845 20.957010323624566 17.409876810384244 1 0 0
999 333 1 0.5897 -6.10952703325747 19.390905115487868 14.68937309917471 1 0 0
965 322 1 0.5897 -8.12688548314166 18.383350771625306 16.774824043374647 1 0 0
573 191 1 0.5897 -4.961903070790637 22.42074794272649 18.215031449883213 0 -1 0
357 119 1 0.5897 -5.645561760765938 17.177886125701754 19.305088375855263 0 0 -1
847 283 2 -1.1794 -3.3863194571545234 21.51382462972781 14.645936133363637 0 0 0
966 322 1 0.5897 -7.739276242723428 17.330810254498342 17.791624111712178 1 0 0
18 6 1 0.5897 5.205871326057242 3.9480406888357127 0.26872829067830456 0 0 0
54 18 1 0.5897 3.4179107272871256 3.218625453909734 2.978034221081893 0 0 0
47 16 1 0.5897 2.1844783918522293 4.766462634295783 1.6483040733766663 0 0 0
46 16 2 -1.1794 2.1831155056131255 4.357269137041172 2.513622358508646 0 0 0
32 11 1 0.5897 1.1909178692866345 1.3802436097970106 3.2067166746094187 0 0 0
71 24 1 0.5897 3.177666295160731 0.5704661105289914 1.7763477692902978 0 0 0
31 11 2 -1.1794 1.4514251550433155 1.0313567828095254 2.3542171069398745 0 0 0
33 11 1 0.5897 0.8268683263752283 0.3267033459417462 2.1821056282638955 0 0 0
52 18 2 -1.1794 4.02706507983115 2.6885986627715153 3.4921656462423023 0 0 0
21 7 1 0.5897 1.207209027705443 2.2238302915543686 1.0057577446969543 0 0 0
70 24 2 -1.1794 3.9712572366533125 0.2947581251461975 1.317590097977792 0 0 0
72 24 1 0.5897 4.521860476536513 -0.08925872824732503 1.9999954247213338 0 0 0
53 18 1 0.5897 4.714829829543815 2.4446390227153985 2.8727142544073927 0 0 0
528 176 1 0.5897 3.887116325416714 1.9455759307354406 0.44137685037755514 0 0 1
48 16 1 0.5897 2.2711556450194017 5.0885247298447 3.1250923983548886 0 0 0
57 19 1 0.5897 0.4841691930006453 4.144387649533606 3.0640653691062845 0 0 0
527 176 1 0.5897 2.907231356546167 3.0178678125376925 0.014569393569529882 0 0 1
45 15 1 0.5897 0.7714404269188342 4.424732234226148 7.026076912748944 0 0 0
58 20 2 -1.1794 2.406122805514082 4.279975639685816 6.335753675319736 0 0 0
60 20 1 0.5897 3.268772683887523 3.97345802011423 6.61534249255102 0 0 0
34 12 2 -1.1794 0.17741052952274217 1.0125425933178784 7.172471211870927 0 0 0
35 12 1 0.5897 0.4718258632583914 1.5800159247348855 7.884981108611961 0 0 0
22 8 2 -1.1794 0.5694814313058827 2.440617811468198 9.501857229161397 0 0 0
36 12 1 0.5897 -0.696835692421252 0.7276497668475002 7.438227896143492 0 0 0
77 26 1 0.5897 0.8879260193789973 1.8173596978743392 5.847618553939847 0 0 0
44 15 1 0.5897 0.010554291211327893 5.068133676541335 8.165898506012644 0 0 0
59 20 1 0.5897 2.08913541556932 3.5975114282873224 5.744043079201543 0 0 0
522 174 1 0.5897 2.4271475006984815 5.128647631424949 9.00744080861483 0 0 0
43 15 2 -1.1794 -0.09766331891262903 4.74101011827296 7.272795417649613 0 0 0
5 2 1 0.5897 3.4374785721616146 0.004506242413774814 4.942587516004384 0 0 0
401 134 1 0.5897 2.721877313943823 0.012091517914307903 8.790923895404818 0 1 0
4 2 2 -1.1794 4.0228915712702875 0.6258987841765581 5.37554854093923 0 0 0
520 174 2 -1.1794 2.5504096720773326 4.339762513893243 9.535374533132645 0 0 0
6 2 1 0.5897 3.9624594246179763 1.4212122886093979 4.846339329385641 0 0 0
78 26 1 0.5897 0.27469133492270714 2.778937377053151 4.852008290836745 0 0 0
76 26 2 -1.1794 1.085903021409095 2.31199600891174 5.052478761116311 0 0 0
552 184 1 0.5897 -1.6918941012754307 4.164071805133136 11.985387404423983 0 0 0
550 184 2 -1.1794 -0.8105283461687711 4.536969515328825 11.968309200444635 0 0 0
536 179 1 0.5897 -1.7021497653756335 1.1911403870373636 12.894339646969353 0 0 0
558 186 1 0.5897 0.6802578172266802 3.639511805183962 12.646923019353327 0 0 0
535 179 2 -1.1794 -1.747176741868802 0.7925751582842055 12.025155137307442 0 0 0
574 192 2 -1.1794 1.0226090655596476 0.2947064687616233 11.215054384885171 0 0 0
537 179 1 0.5897 -2.0799750853055583 1.4888778563648277 11.458855869149206 0 0 0
556 186 2 -1.1794 1.4620813950208769 3.543136085784289 13.190764347787612 0 0 0
576 192 1 0.5897 0.2804719432884424 0.08025907238430996 11.780174751695018 0 0 0
557 186 1 0.5897 1.2780510544999144 2.783455340383044 13.743215481947436 0 0 0
575 192 1 0.5897 1.7712987511655598 -0.13500668218025713 11.628717238155344 0 0 0
23 8 1 0.5897 0.5958435091152494 1.8840434404993474 10.280148730090932 0 0 0
24 8 1 0.5897 1.217488329463582 3.123885305332955 9.673476214247769 0 0 0
587 196 1 0.5897 -0.6347145134540995 5.435571328360614 10.537870310080125 0 0 0
551 184 1 0.5897 -0.7575727702358366 5.064465822018038 12.765388320449174 0 0 0
525 175 1 0.5897 -1.377965515360878 3.087013111600803 9.662637967737647 0 0 0
539 180 1 0.5897 -2.64987244970901 1.6542543942148258 17.49404402595809 0 0 0
582 194 1 0.5897 -2.082921335787865 1.3450881678697726 15.058747980220474 0 0 0
905 302 1 0.5897 -1.520807163235216 -0.17091293672470953 17.350210301220244 0 1 0
564 188 1 0.5897 -1.3167891752040743 3.899360618833012 16.945100256816037 0 0 0
562 188 2 -1.1794 -0.5093935820342796 3.6645962068879943 16.487664405728836 0 0 0
538 180 2 -1.1794 -2.817051961873596 0.8887561695236452 16.944074986897327 0 0 0
581 194 1 0.5897 -1.2052746738410116 2.5785144576160186 15.067986124349222 0 0 0
540 180 1 0.5897 -3.708801025032902 0.6227073977719967 17.167812825526717 0 0 0
563 188 1 0.5897 -0.3269907771482021 4.415240855920025 15.922475900273618 0 0 0
547 183 2 -1.1794 -3.1974187610675067 4.396577784738315 16.827579464636422 0 0 0
548 183 1 0.5897 -3.17804756620248 5.001564733725645 16.086085789622196 0 0 0
84 28 1 0.5897 -2.9607943633996996 4.973065487319765 18.870773672086568 0 0 -1
526 176 2 -1.1794 -2.2562164149537587 2.493264823922658 19.28352102489472 0 0 0
580 194 2 -1.1794 -1.5874802618538064 1.925819294585775 14.481351229368835 0 0 0
29 10 1 0.5897 5.101610561698649 7.066366612738638 1.9152531292560195 0 0 0
245 82 1 0.5897 1.3700959402635444 9.402797973448276 4.12800134372646 0 0 0
240 80 1 0.5897 3.545155251788727 7.4085273855614195 0.5669341464329252 0 0 0
199 67 2 -1.1794 1.3388079319011048 8.473571205337489 2.4932771607725592 0 0 0
238 80 2 -1.1794 3.9003213972742907 8.129570865744107 1.086837719390782 0 0 0
174 58 1 0.5897 3.7200848094908245 9.030684135927604 4.436547626803265 0 0 0
239 80 1 0.5897 3.921838483363185 8.872487771456214 0.48368403089861467 0 0 0
201 67 1 0.5897 2.222026476023342 8.367297299658905 2.13999181166845 0 0 0
220 74 2 -1.1794 3.879227552827059 10.464337148221174 3.1790999907588384 0 0 0
10 4 2 -1.1794 2.0746631912711386 6.372888944810715 4.632442254063614 0 0 0
221 74 1 0.5897 4.499068905245676 10.049037588601404 2.5793963295942492 0 0 0
189 63 1 0.5897 1.4756287883113393 10.669760679075374 0.14653559715276118 0 0 0
222 74 1 0.5897 3.3483645481886084 11.032110436523556 2.6204058379588795 0 0 0
12 4 1 0.5897 1.1339700742107812 6.5373354846816225 4.697591055564334 0 0 0
200 67 1 0.5897 0.8767820802803445 7.6785576169678595 2.22725257532633 0 0 0
82 28 2 -1.1794 2.7522258488659004 5.814699267477442 0.12340176064014724 0 0 0
246 82 1 0.5897 0.8009757669532434 9.40293821019382 5.530845026332292 0 0 0
203 68 1 0.5897 -0.19364022941172143 8.465960116290589 7.716417177905039 0 0 0
64 22 2 -1.1794 2.625803149558214 6.810115744829165 8.302926804719828 0 0 0
202 68 2 -1.1794 0.6986331628160793 8.810640805532884 7.68275277171785 0 0 0
204 68 1 0.5897 1.2549797756961585 8.032768733523612 7.640657605703036 0 0 0
11 4 1 0.5897 2.251797214607395 5.720157866826881 5.309795492355212 0 0 0
172 58 2 -1.1794 3.9403345782169863 8.360198626162008 5.083235146685459 0 0 0
192 64 1 0.5897 0.9735620094813946 9.53661388180912 9.179033551903451 0 0 0
173 58 1 0.5897 3.3296125630279825 7.645041789480655 4.904929541539954 0 0 0
588 196 1 0.5897 -0.9358604377316437 6.393203329177722 9.404654108813853 0 0 0
244 82 2 -1.1794 0.9820694325603023 9.978049375825309 4.78747406585977 0 0 0
65 22 1 0.5897 2.8358749094380933 7.461491159557117 8.97223480681774 0 0 0
8 3 1 0.5897 -0.5056245331674667 5.937813525318414 6.036165332314423 0 0 0
703 235 2 -1.1794 -1.4706142978884378 8.056806232031512 12.873742827466424 0 0 0
744 248 1 0.5897 0.6040704109924246 6.961194243549109 10.839558938440842 0 0 0
724 242 2 -1.1794 0.6388614586075319 10.444335626960392 13.171847239607958 0 0 0
742 248 2 -1.1794 0.929347868472032 7.641951951893423 11.428741635757557 0 0 0
586 196 2 -1.1794 -0.25257382173967713 5.817159687277475 9.747627404799104 0 0 0
743 248 1 0.5897 1.0803683783728282 8.398091796157484 10.86161064700445 0 0 0
704 235 1 0.5897 -0.574333914847307 8.09268283817342 12.539739733916006 0 0 0
705 235 1 0.5897 -1.4667053930023934 8.637825630392657 13.634534847556287 0 0 0
191 64 1 0.5897 1.5529695711773215 10.77982349599879 9.820007549091915 0 0 0
692 231 1 0.5897 -0.7488914327833154 9.915879898194104 10.202176924789882 0 0 0
726 242 1 0.5897 0.17601626578068652 11.07408316168584 12.619125298453346 0 0 0
678 226 1 0.5897 0.6979524105202977 8.768644835022792 14.147728931479273 0 0 0
190 64 2 -1.1794 0.9790186402828907 10.034480830498062 9.996628058000804 0 0 0
693 231 1 0.5897 -1.8109945527643596 9.429351542637221 11.164882557025983 0 0 0
725 242 1 0.5897 1.0903444226784549 10.982283570050045 13.822324411852268 0 0 0
691 231 2 -1.1794 -1.696064614280524 9.815159135131314 10.296474355916724 0 0 0
707 236 1 0.5897 -3.255341061999262 8.183890395596691 17.220860814240904 0 0 0
569 190 1 0.5897 -0.687046944051823 5.954059819519305 18.583522195507275 0 0 0
706 236 2 -1.1794 -2.3745476528797536 8.537698621324054 17.09775709713156 0 0 0
750 250 1 0.5897 -2.302119493819312 9.326640626483497 15.389872855120297 0 0 0
748 250 2 -1.1794 -2.151897889921945 9.967833211287932 14.695269432943002 0 0 0
708 236 1 0.5897 -1.7935286247709419 7.790603335670056 17.24141473932858 0 0 0
515 172 1 0.5897 -1.236947514404604 5.906976021794069 14.4829772175386 0 0 0
568 190 2 -1.1794 -0.5841815992646744 6.7210819985253885 18.020232158592407 0 0 0
695 232 1 0.5897 -2.2857650941660568 10.19440912318371 18.426732688361025 0 0 0
511 171 2 -1.1794 -3.101371957021687 6.013022082890006 14.60777054420464 0 0 0