#include		in.partitions
include		in.temp
variable        temperature equal 263.32
variable	tempDamp equal 100.0
include		in.pressure
variable        pressure equal 6750.0
variable        pressureDamp equal 1000.0 # This is 1 ps
include		in.seed
variable        seed equal 745823

units		real
atom_style	full
read_restart	restart.lmp.${pid}
read_restart	restart.lmp.1
Reading restart file ...
  restart file = 30 Jul 2021, LAMMPS = 30 Jul 2021
  restoring atom style full from restart
  orthogonal box = (0.54022027 1.7278394 0.65906747) to (17.667352 21.901338 21.554128)
  2 by 4 by 4 MPI processor grid
  restoring pair style lj/cut/tip4p/long/omp from restart
  restoring bond style harmonic/omp from restart
  restoring angle style harmonic/omp from restart
  864 atoms
  576 bonds
  288 angles
Finding 1-2 1-3 1-4 neighbors ...
  special bond factors lj:    0        0        0       
  special bond factors coul:  0        0        0       
     2 = max # of 1-2 neighbors
     1 = max # of 1-3 neighbors
     1 = max # of 1-4 neighbors
     2 = max # of special neighbors
  special bonds CPU = 0.002 seconds
  read_restart CPU = 0.008 seconds
include 	in.setup
variable	out_freq equal 1000
variable	out_freq2 equal 10000
variable	out_freq3 equal 1000

timestep	2.0

neigh_modify    delay 7 every 1

include		in.tip4p
# This is TIP4P/Ice

# create groups ###
group ox type 2
288 atoms in group ox
group hy type 1
576 atoms in group hy

# set charges - beside manually ###
set group ox charge -1.1794
Setting atom values ...
  288 settings made for charge
set group hy charge 0.5897
Setting atom values ...
  576 settings made for charge

# ### TIP3P Potential Parameters ###
pair_style lj/cut/tip4p/long/omp 2 1 1 1 0.1577 8.5
pair_coeff 1 1*2 0.000 0.000
pair_coeff 2 2 0.21084 3.1668
bond_style  harmonic
bond_coeff  1 450 0.9572
angle_style harmonic
angle_coeff 1 55 104.52
kspace_style pppm/tip4p/omp 1.0e-5
pair_modify tail yes

thermo          ${out_freq}
thermo          1000
thermo_style    custom step temp pe etotal epair emol press lx ly lz vol pxx pyy pzz pxy pxz pyz enthalpy

restart 	${out_freq3} restart.lmp.${pid} restart2.lmp.${pid}
restart 	1000 restart.lmp.${pid} restart2.lmp.${pid}
restart 	1000 restart.lmp.1 restart2.lmp.${pid}
restart 	1000 restart.lmp.1 restart2.lmp.1


include         in.dump
dump            myDump all atom ${out_freq2} dump.water.${pid}
dump            myDump all atom 10000 dump.water.${pid}
dump            myDump all atom 10000 dump.water.1
dump            myDump2 all dcd ${out_freq2} dump.dcd
dump            myDump2 all dcd 10000 dump.dcd
dump_modify     myDump append yes
dump_modify     myDump2 append yes


variable natoms 	equal  "count(all)"                        # NUMBER ATOMS
variable H      	equal  "enthalpy/v_natoms"                 # ENTHALPY-per-atom
variable Vol      	equal  "vol/v_natoms"                 # volume-per-atom
fix AVG all 		ave/time ${out_freq} 1 ${out_freq} v_Vol v_H file vol_enthalpy.dat
fix AVG all 		ave/time 1000 1 ${out_freq} v_Vol v_H file vol_enthalpy.dat
fix AVG all 		ave/time 1000 1 1000 v_Vol v_H file vol_enthalpy.dat


timer           timeout 23:50:00 every 1000
New timer settings: style=normal  mode=nosync  timeout=23:50:00

fix 		1 all shake 1e-6 200 0 b 1 a 1
       0 = # of size 2 clusters
       0 = # of size 3 clusters
       0 = # of size 4 clusters
     288 = # of frozen angles
  find clusters CPU = 0.000 seconds
fix             2 all nph iso ${pressure} ${pressure} ${pressureDamp}
fix             2 all nph iso 6750 ${pressure} ${pressureDamp}
fix             2 all nph iso 6750 6750 ${pressureDamp}
fix             2 all nph iso 6750 6750 1000
fix             3 all temp/csvr ${temperature} ${temperature} ${tempDamp} ${seed}
fix             3 all temp/csvr 263.32 ${temperature} ${tempDamp} ${seed}
fix             3 all temp/csvr 263.32 263.32 ${tempDamp} ${seed}
fix             3 all temp/csvr 263.32 263.32 100 ${seed}
fix             3 all temp/csvr 263.32 263.32 100 745823

run             250000
PPPM initialization ...
  extracting TIP4P info from pair style
  using 12-bit tables for long-range coulomb (../kspace.cpp:340)
  G vector (1/distance) = 0.37352436
  grid = 24 24 24
  stencil order = 5
  estimated absolute RMS force accuracy = 0.0032461477
  estimated relative force accuracy = 9.7756775e-06
  using double precision FFTW3
  3d grid and FFT values/proc = 3549 432
Last active /omp style is kspace_style pppm/tip4p/omp
Neighbor list info ...
  update every 1 steps, delay 7 steps, check yes
  max neighbors/atom: 2000, page size: 100000
  master list distance cutoff = 10.8154
  ghost atom cutoff = 10.8154
  binsize = 5.4077, bins = 4 4 4
  1 neighbor lists, perpetual/occasional/extra = 1 0 0
  (1) pair lj/cut/tip4p/long/omp, perpetual
      attributes: half, newton on, omp
      pair build: half/bin/newton/omp
      stencil: half/bin/3d
      bin: standard
Per MPI rank memory allocation (min/avg/max) = 10.19 | 10.20 | 10.20 Mbytes
Step Temp PotEng TotEng E_pair E_mol Press Lx Ly Lz Volume Pxx Pyy Pzz Pxy Pxz Pyz Enthalpy 
19000000    282.42704   -3847.1597   -3363.0895   -3847.1597            0    7213.7584    17.127132    20.173499    20.895061    7219.5398    7107.6599    5513.5514     9020.064   -1380.1237   -188.82942   -1665.0324   -2603.5559 
19001000    262.33636    -3878.984   -3429.3484    -3878.984            0    6667.4556    17.198851    20.257975    20.982558    7310.6146    7772.6729    5153.6544    7076.0394   -210.87313     417.0255   -1595.6366   -2718.4789 
19002000    248.95546   -3851.7491   -3425.0479   -3851.7491            0    5536.6494    17.192935    20.251007    20.975341    7303.0737    5020.2955    5397.1957    6192.4569   -1838.0833   -40.711379    244.96648   -2835.3514 
19003000    278.93407    -3898.213   -3420.1295    -3898.213            0    6890.7539    17.112676    20.156471    20.877424    7201.2741    7070.0469    6762.6351    6839.5796    1162.3902    515.14266   -251.30194   -2696.4406 
19004000    255.39959   -3924.1293   -3486.3831   -3924.1293            0    6317.9205    17.112089    20.155781    20.876709    7200.5342    8230.7731    6043.8688    4679.1197   -386.20162    1457.6759    578.73218   -2822.9231 
19005000    274.58352   -3878.1528   -3407.5261   -3878.1528            0     6398.146    17.068969    20.104991    20.824103     7146.238    7035.8991    6436.6275    5721.9115    1091.8487   -166.17356    1002.4816   -2740.7078 
19006000    269.68878   -3902.3774   -3440.1401   -3902.3774            0    6043.9259    17.153923    20.205055    20.927745    7253.4718    7877.9009    7078.2418    3175.6351   -283.37858    356.54414   -1201.1482   -2800.7867 
19007000    259.58898   -3872.9945   -3428.0678   -3872.9945            0    7544.6484    17.115326    20.159593    20.880658    7204.6208    8042.5514    9125.4807    5465.9129   -68.293212    345.85956    47.568033   -2635.3365 
19008000    271.63532   -3903.1477   -3437.5741   -3903.1477            0    5656.3844    17.166531    20.219906    20.943127    7269.4773    4623.9285    4648.9044    7696.3201    2529.6416    208.41761   -1076.3559   -2837.8963 
19009000    263.02969    -3853.615   -3402.7911    -3853.615            0    4768.0746    17.214789    20.276748    21.002003    7330.9579    6075.4636    5195.3368    3033.4235    508.18125    -497.7879     -1332.55   -2893.0148 
19010000    267.43973   -3869.3181   -3410.9356   -3869.3181            0     6772.946     17.14262    20.191742    20.913957    7239.1438    4574.6922     7858.832    7885.3138   -1003.7976   -910.07988   -594.25376   -2695.8785 
19011000    262.61956   -3863.3859   -3413.2649   -3863.3859            0    6757.4781    17.113733    20.157716    20.878714    7202.6085    6412.1364    6557.8102    7302.4877   -783.29584    1221.9877    1371.7162   -2703.4415 
19012000    280.27918    -3863.774   -3383.3851    -3863.774            0    6461.7079    17.178456    20.233952    20.957676    7284.6382    6164.9927    7483.6404    5736.4906    59.550342   -828.09584   -793.08536   -2696.8999 
19013000    258.00049   -3833.2574   -3391.0534   -3833.2574            0     7013.977    17.187728    20.244873    20.968988      7296.44    6691.8527     7195.331    7154.7474     21.94822   -16.152566    1285.2892   -2644.6885 
19014000    249.61819   -3870.4404   -3442.6034   -3870.4404            0    6691.6521    17.150094    20.200545    20.923074    7248.6156    6927.1274    6646.8756    6500.9534    861.43823   -241.22086   -1745.5778   -2735.2046 
19015000     260.5712   -3854.6546   -3408.0445   -3854.6546            0     5534.679    17.158745    20.210735    20.933628    7259.5904    6919.9215    2721.4799    6962.6357   -769.41312   -1724.6827    124.90347   -2822.0676 
19016000    268.16703   -3859.6738   -3400.0447   -3859.6738            0    8243.7369    17.005832    20.030624    20.747075    7067.2303    7451.1645    8211.4599    9068.5862    1660.1736     -517.371   -204.07069   -2550.3767 
19017000    269.99099   -3857.0723    -3394.317   -3857.0723            0    7550.3433    17.055862    20.089553    20.808112     7129.788     7707.491    6603.7955    8339.7435    105.95353   -737.16828    20.139941   -2609.2274 
19018000    253.75972   -3879.7015    -3444.766   -3879.7015            0    5164.6572    17.165923     20.21919    20.942386    7268.7054     4255.323    4734.0302    6504.6183    607.98702    312.70124    843.73922   -2897.2782 
19019000    265.86688   -3864.6951   -3409.0084   -3864.6951            0    7192.0636     17.13082    20.177843    20.899561     7224.205    5929.9964     7251.069    8395.1255   -575.13791    80.539474   -380.44355   -2651.2697 
19020000    256.27901   -3888.6761   -3449.4227   -3888.6761            0    7138.5515    17.111744    20.155374    20.876288    7200.0983    5179.7216    5076.2772    11159.656    227.53761   -955.55126    230.24695   -2699.8316 
19021000    261.35672   -3882.7659   -3434.8094   -3882.7659            0    6965.9061     17.13177    20.178962     20.90072    7225.4069    7591.0791    5434.0408    7872.5985    71.391492   -343.95344   -1258.1838    -2700.776 
19022000    273.36902   -3857.5463   -3389.0012   -3857.5463            0    8420.8261    17.005231    20.029915    20.746342    7066.4805    8680.4687     7602.185    8979.8245   -270.51285    24.575194    1100.2416    -2521.173 
19023000     250.6414   -3870.0351   -3440.4443   -3870.0351            0    8393.8265     17.08002    20.118007    20.837584    7160.1262    9463.8345    9246.7351    6470.9099   -52.372292   -938.91741    239.26976   -2563.9349 
19024000     279.7609    -3844.492   -3364.9914    -3844.492            0     4342.312    17.213864    20.275658    21.000874     7329.776    4913.3785    2949.4658    5164.0917    402.93556   -737.41671    -113.2598   -2900.8101 
19025000    262.10105   -3855.6686   -3406.4363   -3855.6686            0    7446.1398    17.132023     20.17926    20.901028    7225.7269    7631.0082    5378.1507    9329.2605    205.52719    655.88866    1620.0237   -2621.7635 
19026000    279.12765   -3842.9694   -3364.5542   -3842.9694            0    6754.4996    17.095762     20.13655     20.85679    7179.9429    8067.6017    4939.3182     7256.579    2178.1122    736.77059     817.4104   -2657.2763 
19027000    276.17622   -3844.4952   -3371.1386   -3844.4952            0    6928.0356    17.068085     20.10395    20.823024    7145.1275    6472.3651    6397.8493    7913.8923   -480.52095   -510.86166    1834.7502   -2649.2071 
19028000     259.0301    -3850.372   -3406.4033    -3850.372            0    7391.5513     17.15371    20.204805    20.927486    7253.2024     8533.106    7263.6988     6377.849   -1451.8838   -1598.0578    -922.1371   -2624.5212 
19029000    252.59905   -3866.3018   -3433.3556   -3866.3018            0    6808.3155    17.148335    20.198473    20.920928    7246.3855    6647.7341    5640.9564     8136.256   -74.056147    433.02569   -2711.6804   -2713.8454 
19030000    265.10978   -3809.2227   -3354.8336   -3809.2227            0    7436.5466    17.113839    20.157842    20.878843    7202.7428    7589.9591    8372.1044    6347.5763   -587.59282    1763.4734    536.24129   -2573.6644 
19031000    274.50411   -3818.0665   -3347.5758   -3818.0665            0    7799.8206     17.09196    20.132072    20.852152     7175.154    9592.8621    6293.9351    7512.6646   -672.78668   -3231.5283   -718.20625    -2531.385 
19032000    253.63451   -3807.3539    -3372.633   -3807.3539            0    4520.2922    17.208135     20.26891    20.993884    7322.4595    5640.7423    1622.1091    6298.0251   -1386.0929    166.95559    341.18287   -2889.9085 
19033000    264.84735   -3854.2886   -3400.3493   -3854.2886            0    5857.9978    17.200702    20.260154    20.984816    7312.9746    5641.4564    6786.1377    5146.3992    459.72973   -881.12544    1284.0069   -2775.5807 
19034000    263.70048    -3891.893   -3439.9194    -3891.893            0    7685.1184    17.043784    20.075326    20.793377    7114.6518    7510.1496    6948.8834    8596.3223    -1218.277   -1308.8679   -692.07758   -2642.5123 
19035000    261.68233   -3909.4794   -3460.9648   -3909.4794            0    6653.2055    17.078464    20.116174    20.835686    7158.1697    8022.5085    4206.9232    7730.1848   -354.09935    419.07938    334.09009   -2766.4063 
19036000    247.95435   -3857.9626   -3432.9773   -3857.9626            0    8175.3544    16.974647    19.993892     20.70903    7028.4226    6560.7612     8611.459    9353.8429   -264.50101    284.47895   -819.84523   -2594.9844 
19037000    275.08612   -3884.2505   -3412.7623   -3884.2505            0    7705.4438    17.083342    20.121921    20.841638    7164.3058    7012.4425    10093.577    6010.3122   -294.68481   -616.53862    178.87991   -2607.6663 
19038000    260.89926   -3870.4823   -3423.3098   -3870.4823            0    6862.8984     17.08277    20.121247    20.840939    7163.5858    6941.8794    5886.1281    7760.6877   -142.15989   -649.31976   -821.42635   -2706.3185 
19039000    262.54227   -3871.7027   -3421.7143   -3871.7027            0    7592.5339    17.033219    20.062882    20.780488    7101.4297    7628.0058    7387.6243    7761.9716   -1938.4407   -419.85634    161.24605   -2635.3778 
19040000    255.15808   -3891.3623   -3454.0301   -3891.3623            0    6700.7439    17.104124    20.146399    20.866992    7190.4842    5916.0359    7316.3911    6869.8048    250.48834    616.36575   -1365.4804   -2751.3509 
19041000    255.47089   -3882.5867   -3444.7183   -3882.5867            0     3866.883    17.204119     20.26418    20.988985    7317.3342    3981.7476    4434.4405     3184.461     2034.669     129.3755    1186.8137   -3032.0607 
19042000    269.39925   -3906.9964   -3445.2553   -3906.9964            0    5628.5259    17.192383    20.250356    20.974667    7302.3693    4365.8124    5856.8046    6662.9608    212.12444    1274.4031    705.89968    -2845.831 
19043000     261.1123   -3868.3384   -3420.8008   -3868.3384            0    5981.2088    17.129837    20.176685    20.898361    7222.9613    3378.1476    8216.2382    6349.2404    8.9014167   -1174.9686    1034.7126   -2790.7434 
19044000    260.40729   -3857.6142    -3411.285   -3857.6142            0     8304.012    17.021801    20.049433    20.766557    7087.1575    7684.6155     10617.67    6609.7509    471.77597    677.49108     471.9504   -2552.9913 
19045000      262.984   -3911.7361   -3460.9906   -3911.7361            0    7013.3462    17.048867    20.081314    20.799578    7121.0198    8637.1425     4130.593     8272.303   -9.3064386     258.4769    330.74287   -2732.6351 
19046000    276.41829   -3868.6436   -3394.8721   -3868.6436            0    8406.9784    17.033755    20.063514    20.781141    7102.1001    7658.2343    8132.7446    9429.9564    1516.4418   -597.47629    902.51392   -2524.1038 
19047000    259.52963   -3866.1025   -3421.2776   -3866.1025            0    4776.9039    17.189485    20.246942    20.971131    7298.6771    3253.0656    4762.6879    6314.9583    1236.9635    555.82194    118.78115   -2912.8062 
19048000    258.82143   -3857.7214   -3414.1103   -3857.7214            0    6159.5908    17.117726     20.16242    20.883586    7207.6521    7043.5304    3849.1258    7586.1161   -292.44566    2248.6302    349.52262   -2766.6375 
19049000    269.62867   -3851.9866   -3389.8523   -3851.9866            0    6820.5458    17.093177    20.133505    20.853637    7176.6868    5763.9679    8944.3036    5753.3658   -236.02707    -146.1014    1419.2194   -2675.9825 
19050000    267.43517   -3885.5841   -3427.2094   -3885.5841            0    7082.2146    17.100232    20.141815    20.862244    7185.5768    6097.6161    7439.6217    7709.4061    778.31716   -1052.3932    287.24293   -2685.0339 
19051000    276.08637   -3864.1523   -3390.9498   -3864.1523            0    5787.3402    17.104811    20.147208     20.86783    7191.3504    6608.2465    4682.9942    6070.7798    1698.5039    610.39623    -439.8438   -2783.9824 
19052000    253.68364   -3855.5395   -3420.7345   -3855.5395            0    8415.7596    17.080658    20.118759    20.838363    7160.9295    10028.441    8322.7608    6896.0767   -186.73019    -2962.751   -1760.0349   -2541.8362 
19053000    267.70632   -3872.9519   -3414.1125   -3872.9519            0    5388.2659    17.104489    20.146829    20.867437    7190.9438    5478.9529    3262.7283    7423.1166   -56.493223    292.75734    133.17583   -2849.0313 
19054000    260.68499   -3830.9311    -3384.126   -3830.9311            0    6549.7017    17.096946    20.137944    20.858234    7181.4344    6538.9737    6833.5927    6276.5387   -1783.2543    52.226975    611.59691   -2698.1505 
19055000    265.96775   -3869.8121   -3413.9525   -3869.8121            0    6028.3887    17.172767    20.227251    20.950736    7277.4031    6605.8615    4236.8333    7242.4712    1843.2322    -470.1107     1548.084   -2774.1387 
19056000    276.39157   -3856.1119   -3382.3862   -3856.1119            0    6648.7083    17.204905    20.265106    20.989944    7318.3374    5674.0807    8233.2744    6038.7698   -577.34508   -730.63545   -1800.3416   -2672.7666 
19057000    259.39907   -3853.2479   -3408.6468   -3853.2479            0    7267.4861    17.090128    20.129914    20.849917    7172.8471    9062.3822    8869.6327    3870.4435   -759.20019   -206.78303   -508.91852   -2648.4051 
19058000    267.41243    -3881.755   -3423.4192    -3881.755            0    5900.6428    17.156373    20.207941    20.930735    7256.5808    6071.7217    6848.1785    4782.0283    692.81946    55.085045   -1262.6485   -2798.9554 
19059000    258.88703   -3851.7679   -3408.0444   -3851.7679            0    5466.4785     17.10771    20.150622    20.871366     7195.007    5575.2217    5557.2525    5266.9613    630.40536   -1130.9213    1080.1638    -2834.437 
19060000    250.01098   -3888.1676   -3459.6573   -3888.1676            0    6795.5839    17.055956    20.089663    20.808226    7129.9054    7858.2872    5766.1905     6762.274   -342.56734    1183.9563   -826.13263   -2753.0365 
19061000    260.45073   -3872.3921   -3425.9884   -3872.3921            0     6119.713     17.10442    20.146748    20.867353    7190.8572    8016.5573    6947.6995    3394.8823    334.27657    293.13443    344.53585   -2784.2063 
19062000    254.56967   -3832.8172   -3396.4935   -3832.8172            0    6174.1821    17.050234    20.082923    20.801246    7122.7322    5795.3205    7257.6692    5469.5566    916.50209   -1285.9284    1297.4126   -2755.1334 
19063000     270.7406    -3798.484   -3334.4439    -3798.484            0    9085.5438    16.999668    20.023363    20.739555    7059.5482    10155.826     8852.684    8248.1217   -722.01949   -311.52393    1008.4419   -2399.0302 
19064000    258.43998   -3839.1659   -3396.2086   -3839.1659            0    8146.8343    17.041677    20.072844    20.790806    7112.0131    7089.2856     9157.402    8193.8152   -439.55317   -11.567364    932.76885   -2551.2074 
19065000    262.74542   -3870.1963   -3419.8596   -3870.1963            0    7070.8227    17.073049    20.109796    20.829079    7151.3629    8332.0571    5816.9259     7063.485   -437.94854    312.54381    1238.7128   -2682.4061 
19066000    282.96378   -3861.4406   -3376.4504   -3861.4406            0    4593.0559    17.242147    20.308971    21.035378    7365.9638    3457.1114    5252.6051    5069.4513   -226.99834   -91.777976   -806.36287   -2883.0412 
19067000    262.25069   -3899.8228   -3450.3341   -3899.8228            0     6611.979     17.17124    20.225453    20.948873    7275.4622    6844.0998    6160.8346    6831.0026    141.57411   -87.464692   -113.11946   -2748.7691 
19068000    259.66234   -3875.0782   -3430.0258   -3875.0782            0    6003.5673    17.137369    20.185557     20.90755    7232.4931    5901.5975    7446.1469    4662.9575    1098.8714    849.14166   -1741.3642   -2796.7786 
19069000    248.83866   -3859.8084   -3433.3074   -3859.8084            0    5213.0144    17.168506    20.222232    20.945537    7271.9867    4792.3216    4861.5796     5985.142   -1198.7132   -1484.4249   -1001.1519    -2880.444 
19070000    271.56628   -3887.2141   -3421.7588   -3887.2141            0    4202.6974    17.145722    20.195396    20.917741    7243.0744    2742.6565    5860.2921    4005.1436   -308.63237    -265.2635     271.4384    -2977.816 
19071000    269.28804   -3861.0886   -3399.5381   -3861.0886            0    6346.3523    17.102658    20.144671    20.865202    7188.6342     7313.599    6229.3387    5496.1191     231.9386    1188.9364   -1743.0503   -2734.1938 
19072000    276.68334   -3830.6627   -3356.4369   -3830.6627            0    6934.1414    17.180657    20.236545    20.960362    7287.4386    5725.2185    7081.7656    7995.4402    1290.0816   -615.20776   -441.89083   -2619.4776 
19073000    246.30717   -3837.9195   -3415.7574   -3837.9195            0    7772.7666    17.087677    20.127027    20.846926     7169.761    7819.6517    6347.5648    9151.0832     1432.451     -2295.47   -252.35214   -2603.0089 
19074000     257.9733   -3879.8482   -3437.6908   -3879.8482            0    5226.2742    17.129756     20.17659    20.898263     7222.859    2714.4763    5973.2269    6991.1194    486.20534   -140.15844     2364.147   -2887.1656 
19075000    260.54448   -3856.8059   -3410.2415   -3856.8059            0    9018.8874    17.018371    20.045393    20.762373    7082.8746    8830.4457    10337.795    7888.4214    973.52464   -15.581031   -1401.5227   -2478.6224 
19076000     258.8361   -3851.4629   -3407.8267   -3851.4629            0    5202.6367     17.08707    20.126311    20.846186    7168.9968    6767.4293    5502.8951    3337.5858    1824.7035   -1631.9365   -1075.9763   -2863.8782 
19077000    260.37281   -3869.4346   -3423.1645   -3869.4346            0    8360.8889    17.014936    20.041347    20.758182    7078.5867    8421.9218    6852.9165    9807.8284    1331.6146   -542.53438   -1702.8017   -2560.0372 
19078000    280.38615   -3799.3717   -3318.7994   -3799.3717            0    8286.2348    17.054924    20.088447    20.806967    7128.6111    8403.8934    8354.6182     8100.193    694.12285    894.70273    458.25315   -2457.3336 
19079000    267.92175    -3852.291   -3393.0823    -3852.291            0    6382.7661    17.090512    20.130365    20.850384    7173.3295    7381.6125    4340.3705    7426.3154   -1362.2369    -1837.573   -823.84221    -2725.345 
19080000    276.49126    -3815.927   -3342.0305    -3815.927            0    4448.8573    17.200118    20.259467    20.984104    7312.2307    5032.3072    5289.0484    3025.2162     155.9775   -1222.8828    540.31896   -2867.5982 
19081000    259.60393   -3831.1823     -3386.23   -3831.1823            0    8038.0047     17.11047    20.153874    20.874734    7198.4904    6334.4701    9367.3538    8412.1902   -1462.8386   -1778.2642   -784.63585   -2542.3794 
19082000    258.25915   -3870.7634    -3428.116   -3870.7634            0    7290.4913    17.109502    20.152733    20.873552    7197.2678    7361.0325    7060.2594    7450.1819    -216.2902    1337.8826    1586.7597   -2662.8713 
19083000    252.71299   -3845.9774   -3412.8359   -3845.9774            0    7766.3672    17.020667    20.048098    20.765174    7085.7421    6841.2736    9774.5634    6683.2646    293.33494     6.562146   -212.19089   -2610.2729 
19084000     274.0478   -3825.5327   -3355.8241   -3825.5327            0    6259.1668    17.085213    20.124124     20.84392    7166.6595     8260.272    5152.6189    5364.6096   -1397.5469     399.7742    1774.2599   -2701.6262 
19085000    264.55776   -3854.5883   -3401.1454   -3854.5883            0    7062.7045    16.998257    20.021701    20.737834    7057.7905    5800.5409    7117.1667    8270.4059   -345.22784   -124.54385   -1048.7066   -2674.1767 
19086000    265.25937   -3877.5544   -3422.9089   -3877.5544            0    7181.3443    17.149767    20.200161    20.922676     7248.202    8211.2924     6884.598    6448.1423    565.11525   -1204.7575    2.1004792   -2663.7863 
19087000    252.76542   -3870.0883    -3436.857   -3870.0883            0    3797.0977    17.188805    20.246142    20.970302    7297.8112    3803.6078    2232.0061    5355.6793    504.74058    700.40324   -873.87387   -3032.7277 
19088000    268.99752   -3851.0654   -3390.0129   -3851.0654            0    6150.7486    17.111072    20.154583    20.875468    7199.2504    5369.4289     6422.649    6660.1679    366.23245   -1002.2415   -231.79672   -2744.2232 
19089000    256.40511   -3893.5136    -3454.044   -3893.5136            0    6487.9909    17.080003    20.117987    20.837563     7160.105    5491.4481    6028.1661    7944.3586    57.160502    376.15643    237.13911   -2776.5499 
19090000    266.91448   -3869.1523     -3411.67   -3869.1523            0     9364.838    17.011323    20.037091    20.753774    7074.0782     9147.746    8771.9991    10174.769   -213.91302    68.883726   -783.42194   -2445.5167 
19091000    246.34682   -3875.8227   -3453.5927   -3875.8227            0    7381.8037    17.041193    20.072274    20.790216    7111.4075    8001.2464    6818.3313    7325.8335   -163.42209   -1649.1816   -784.35646   -2688.0068 
19092000    270.46635   -3862.4561    -3398.886   -3862.4561            0    6898.3847    17.068471    20.104404    20.823495    7145.6122    8207.0303    4331.9672    8156.1565    -727.2287   -1184.9675   -1312.0584   -2679.9955 
19093000    260.93149   -3879.7071   -3432.4795   -3879.7071            0    7811.0974     17.00756    20.032659    20.749183    7069.3845    6978.2993    8357.3115    8097.6814   -2143.3072    754.06326    661.79668   -2627.1575 
19094000    260.38973   -3848.7293   -3402.4302   -3848.7293            0    6802.7189    17.055831    20.089516    20.808074    7129.7487    7550.9909    6169.2611    6687.9046   -60.579388   -1471.3197    -547.1973    -2695.083 
19095000    274.08528   -3897.4879   -3427.7152   -3897.4879            0    6191.3752    17.060146    20.094598    20.813338    7135.1612    5733.5049    6329.4123    6511.2084    1377.8559    1182.0026   -769.38375   -2783.4468 
19096000    268.52818   -3840.9883   -3380.7402   -3840.9883            0    6745.3019     17.11128    20.154828    20.875722    7199.5126    6356.4856    7141.8121    6737.6081   -282.21386   -135.63917   -1670.9036   -2672.5003 
19097000    260.56174    -3843.494   -3396.9001    -3843.494            0    6298.4708    17.086653     20.12582    20.845677    7168.4718    5911.6353    5435.1374    7548.6396     382.6822    1230.1033    364.54554   -2738.4277 
19098000    250.89834   -3869.9469   -3439.9157   -3869.9469            0    6166.7211    17.163901    20.216808    20.939919    7266.1369    5864.4321    5245.0024    7390.7289   -117.74203    852.65755    183.19653   -2786.4335 
19099000    262.00708    -3864.934   -3415.8628    -3864.934            0    7926.4681    17.136266    20.184258    20.906205    7231.0969    6670.5134    11045.274    6063.6174   -527.21497    484.98179    612.64098   -2579.9523 
19100000    256.59512   -3854.7706   -3414.9754   -3854.7706            0    9017.8581    17.061074    20.095692    20.814471    7136.3263     10289.63    7898.3745    8865.5694   -1293.6721     731.5393   -1484.1658   -2476.4328 
19101000    263.40586   -3885.1378   -3433.6692   -3885.1378            0    5975.3024    17.173088    20.227629    20.951127    7277.8112    6032.5555    5079.0228    6814.3287   -54.622999    672.19626   -112.70313   -2799.4541 
19102000    263.20275   -3831.0692   -3379.9487   -3831.0692            0    4847.6121    17.169622    20.223547    20.946899    7273.4052    5677.5648    4921.2136    3944.0579   -479.82334    787.53911   -1032.6929   -2865.7375 
19103000    267.57513   -3860.9969   -3402.3822   -3860.9969            0    6722.8653    17.159545    20.211677    20.934604    7260.6059    9487.3108    5329.1278    5352.1574   -316.14222   -68.555716   -1049.6105   -2690.5082 
19104000    264.91574   -3870.8456   -3416.7891   -3870.8456            0     6435.066    17.128119    20.174662    20.896265     7220.788     6572.556    5588.1752    7144.4667    521.16041   -760.07067    578.48853   -2739.1266 
19105000     275.5322   -3853.4366   -3381.1838   -3853.4366            0     6710.313    17.132422     20.17973    20.901515    7226.2317    8962.5905    6002.2029    5166.1456    919.26656    246.70098   -272.65594   -2674.0029 
19106000    250.55895   -3872.4024    -3442.953   -3872.4024            0     8464.627    17.126555     20.17282    20.894358    7218.8109     9102.635    8542.5076    7748.7383   -1327.7603    263.79411   -551.89072   -2551.8059 
19107000    270.76422   -3927.1603   -3463.0797   -3927.1603            0    7042.3473    17.110222    20.153581     20.87443    7198.1766    8023.2295    6546.8021    6557.0104   -408.22677     -81.6282    33.819557    -2723.788 
19108000    256.77089   -3871.8854   -3431.7889   -3871.8854            0    6147.1708    17.192737    20.250773    20.975099     7302.821    5642.0696     7404.934    5394.5088   -628.35888   -2098.1198   -593.20678   -2777.0897 
19109000    265.30854   -3907.8769   -3453.1472   -3907.8769            0    5860.0302    17.169321    20.223192    20.946531    7273.0222    6065.1061    5834.8043    5680.1801   -1100.5744   -823.72276   -299.39915   -2831.5763 
19110000    256.69558   -3865.4004    -3425.433   -3865.4004            0    7371.4893    17.054516    20.087968     20.80647    7128.1007    8030.5914    8107.2628    5976.6136    1073.4253   -1346.4577   -1533.5588   -2659.1221 
19111000    252.92252   -3846.2569   -3412.7563   -3846.2569            0    6469.4051    17.093883    20.134336    20.854497     7177.575     5902.305    6543.1478    6962.7625   -11.956097   -913.47388   -363.73515   -2735.5547 
19112000     260.3851   -3875.5854   -3429.2943   -3875.5854            0    7469.7205    17.047477    20.079676    20.797882     7119.277     6509.274    6245.9753    9653.9122    53.519783   -63.185584   -3122.8373    -2653.733 
19113000    259.73194   -3899.7642   -3454.5925   -3899.7642            0    5811.4713    17.126204    20.172406    20.893929    7218.3669    4914.0247    7733.1803    4787.2088   -922.11997   -348.49059    1753.4384   -2842.8045 
19114000    291.08018    -3906.309   -3407.4075    -3906.309            0    6112.5512     17.12426    20.170116    20.891557    7215.9082    7026.1087    7020.1489    4291.3961   -2582.1078   -442.87163    340.09763   -2764.1433 
19115000    260.54744   -3872.8622   -3426.2928   -3872.8622            0    6106.8437    17.174385    20.229157    20.952709    7279.4597    5605.8003    8272.2272    4442.5037    1197.5024    1284.8775     -174.375   -2777.9692 
19116000    257.16079   -3890.0907   -3449.3259   -3890.0907            0    7881.8334    17.146419    20.196217    20.918591    7243.9573    7876.3408    7831.8485    7937.3107   -552.70532    487.77566   -395.92362   -2616.6442 
19117000     256.5255   -3889.2072   -3449.5312   -3889.2072            0    7708.2505    17.111538    20.155132    20.876036    7199.8381    8883.8027    6286.6503    7954.2985   -405.69593    176.42335   -60.012872   -2640.1476 
19118000    259.25782   -3888.3067   -3443.9476   -3888.3067            0    7398.2679    17.126012     20.17218    20.893695    7218.1238    6699.0814    7490.0669    8005.6553   -996.32565    870.72351   -2090.3398   -2665.1399 
19119000     265.3389   -3875.5983   -3420.8165   -3875.5983            0    5094.2984    17.230229    20.294934    21.020839    7350.7007    4887.0113    6232.2495    4163.6343   -262.26141    273.79166   -1513.3571   -2874.6953 
19120000    259.36063   -3874.8973    -3430.362   -3874.8973            0     6219.492     17.17721    20.232485    20.956156    7283.0531    6518.8049    4744.2514    7395.4196     737.6498    1175.2255    726.71854   -2769.7534 
19121000    259.38106   -3866.0129   -3421.4427   -3866.0129            0     6544.877    17.106768    20.149513    20.870217    7193.8187    7324.5493    6775.5028    5534.5789    474.23003    753.39119    1254.3987   -2734.7904 
19122000    288.30155   -3860.0902   -3365.9512   -3860.0902            0    6329.4004     17.13668    20.184746     20.90671    7231.6212    9117.8054    5488.9474    4381.4485     1354.087   -773.46525   -510.25779   -2698.4161 
19123000    259.94485   -3877.4605    -3431.924   -3877.4605            0    5306.0605    17.118436    20.163257    20.884452     7208.549    4478.0673    5209.2141    6230.9001   -305.85914   -1904.9622   -322.05063   -2874.1016 
19124000    275.67097   -3863.3732   -3390.8826   -3863.3732            0    7876.6433    17.123432    20.169142    20.890548    7214.8625      7629.23    8873.3972    7127.3028    26.568215   -2888.8368    1611.9106   -2562.0914 
19125000    276.98571   -3817.7607   -3343.0166   -3817.7607            0    7121.2989     17.06284    20.097771    20.816624    7138.5419    6628.1586    6894.0101     7841.728    251.81426    43.202203   -397.61965   -2601.6302 
19126000    267.21622   -3865.4896   -3407.4901   -3865.4896            0    6320.0335    17.149358    20.199679    20.922177    7247.6836     5082.154    6601.1043    7276.8421     719.3412   -1933.4536    414.80049   -2739.4624 
19127000    266.87074   -3865.5597   -3408.1524   -3865.5597            0    6186.2884    17.144032    20.193405    20.915679    7240.9323    6254.7346    8399.7857    3904.3451   -984.21607    -153.1036    1124.3313   -2754.8706 
19128000    270.91129   -3884.0097    -3419.677   -3884.0097            0    4841.4244    17.169669    20.223602    20.946956    7273.4647    3281.7995    5231.8066    6010.6671   -625.28544    566.62386    702.87399    -2906.118 
19129000    279.05647   -3883.3632   -3405.0699   -3883.3632            0    4241.0514    17.130572    20.177551    20.899258    7223.8913    4895.8196    5706.6333    2120.7013   -765.59548   -493.21437    1226.7756   -2958.2622 
19130000    261.52206   -3875.2377   -3426.9978   -3875.2377            0     8157.475    17.115819    20.160174     20.88126    7205.2436    8514.8293    7641.1676    8316.4281     2366.042   -2132.8052    583.91188   -2569.8014 
19131000    264.00568   -3885.3609   -3432.8642   -3885.3609            0     8137.218    17.045009     20.07677    20.794872    7116.1865     7637.012      9072.89    7701.7518   -61.963421    551.61791   -125.73634   -2588.3652 
19132000    274.62653   -3856.0183   -3385.3178   -3856.0183            0    6550.4687    17.090522    20.130377    20.850397    7173.3423     7919.829    6333.5022     5398.075   -1914.6101   -842.93699    445.38673   -2700.0351 
19133000    250.55071   -3853.6124   -3424.1771   -3853.6124            0    5243.2405    17.074172    20.111119     20.83045    7152.7747    5406.5643    5452.4067    4870.7507    277.02583    243.94265   -1004.4287   -2877.2238 
19134000    265.19182   -3910.3166   -3455.7869   -3910.3166            0    8274.1126    17.066024    20.101522    20.820509     7142.539    8240.7901    8253.8706    8327.6771    421.50781   -1415.9865   -862.80372   -2593.9007 
19135000    239.67622   -3857.7878    -3446.991   -3857.7878            0    6907.6338    17.093041    20.133344     20.85347    7176.5148    7024.9153    6659.8015    7038.1847   -12.255653     123.9377    890.39589   -2724.0235 
19136000    256.56199    -3872.774   -3433.0355    -3872.774            0    8602.0053    17.136079    20.184037    20.905976    7230.8599    9358.6995      8351.29    8096.0265   -301.17074   -468.74581    740.00462   -2525.9139 
19137000    259.60715   -3894.7915   -3449.8337   -3894.7915            0    4688.0984    17.148495    20.198662    20.921124    7246.5894    4566.9126    5199.7423    4297.6402   -859.73101    480.96254    -1051.925   -2954.3764 
19138000    277.09304   -3890.7613   -3415.8333   -3890.7613            0    6257.3266    17.083552    20.122168    20.841894    7164.5697    6887.2973    6109.4019    5775.2807   -1498.6356     302.1192    541.13195   -2762.0183 
19139000    238.21431   -3877.3457   -3469.0546   -3877.3457            0    8415.0871    17.028394    20.057199    20.774601     7095.396    8408.9896    8317.6591    8518.6127    918.32115   -114.95201    1195.7222   -2598.2691 
19140000     255.5687   -3876.1958   -3438.1598   -3876.1958            0    5540.2592    17.130885     20.17792     20.89964    7224.2872    5792.0599    6810.0874    4018.6305   -977.06012    302.87789   -225.63647   -2854.4447 
19141000    255.85202   -3901.1004   -3462.5788   -3901.1004            0     6110.333    17.129387    20.176156    20.897813    7222.3925    6547.2992    6348.2189     5435.481   -1458.6618    384.34478    -32.90836   -2818.9702 
19142000    250.74404   -3857.1849   -3427.4182   -3857.1849            0    7613.5526    16.996766    20.019945    20.736015    7055.9335    8462.1885    8918.1682     5460.301    772.29874    350.37892    1155.3618   -2643.9566 
19143000    242.26647   -3840.9325   -3425.6961   -3840.9325            0    7640.3981    17.067666    20.103456    20.822512    7144.6009    6690.1763    9037.0872    7193.9308    642.10557   -612.81938   -1090.8241    -2629.592 
19144000    246.79306   -3852.3064   -3429.3116   -3852.3064            0    5397.2475     17.16693    20.220376    20.943614    7269.9842    5869.6338    4458.2064    5863.9022    606.15896   -719.21109   -417.69531    -2857.067 
19145000    268.00339   -3841.4425   -3382.0939   -3841.4425            0     5250.922    17.100327    20.141926    20.862359    7185.6958    4857.2802    4386.2192    6509.2666    510.23277   -1887.7508    739.64792   -2831.8182 
19146000    260.22595   -3878.8633   -3432.8449   -3878.8633            0    5159.4654    17.145957    20.195673    20.918028    7243.3722    6259.4944    3469.7855    5749.1164    298.63492    919.39676     751.4624   -2887.8137 
19147000     261.5609   -3917.3179   -3469.0114   -3917.3179            0    7571.5589    17.094132     20.13463    20.854802    7177.8898    7574.7459    8695.1167     6444.814    190.15679    -36.44822    324.03204   -2676.4043 
19148000    246.08645   -3888.8009   -3467.0171   -3888.8009            0    7509.8534    17.166556    20.219935    20.943158    7269.5092    9381.8233    6081.1085    7066.6284    177.84591    -1040.843   -590.12236    -2670.835 
19149000    278.23358   -3867.9949   -3391.1121   -3867.9949            0    7135.1424    17.146263    20.196033      20.9184    7243.7593    6680.2756    7384.4586    7340.6931   -1332.8118   -373.90956   -1030.6859   -2637.3357 
19150000     248.0933   -3858.0169   -3432.7935   -3858.0169            0    7061.0472    17.124022    20.169836    20.891267     7215.608    7208.6498    7359.0986    6615.3933    340.63492    2061.7791    572.13443   -2689.7436 
19151000    254.61029   -3821.5001   -3385.1068   -3821.5001            0    5431.2365    17.155737    20.207192    20.929959    7255.7733    4021.3474     6558.354    5714.0081    2.3709154    261.86261   -1287.4942   -2810.3841 
19152000    258.43492   -3884.2278   -3441.2792   -3884.2278            0    7548.2421    17.093458    20.133835    20.853978    7177.0397    7800.2007    6980.7902    7863.7356   -544.88956   -276.49723   -190.23164   -2651.2064 
19153000    256.34502    -3844.176   -3404.8094    -3844.176            0    8695.3949    17.103049    20.145133     20.86568    7189.1281    9241.6599    7836.6089     9007.916   -252.86348   -1809.5083   -2664.8374   -2493.1315 
19154000    253.03919   -3882.7946   -3449.0941   -3882.7946            0    6944.3953     17.06524    20.100598    20.819552    7141.5545    9180.9279    5119.3866    6532.8713   -275.09026   -169.71751   -1198.1538   -2725.8197 
19155000    260.02697   -3895.3438   -3449.6665   -3895.3438            0    5247.0394     17.13881    20.187255    20.909308    7234.3181    5351.8135    4039.1633    6350.1415    1419.5947    -723.4609   -405.90331    -2896.077 
19156000    246.94149   -3907.5447   -3484.2954   -3907.5447            0    5789.8518    17.094848    20.135472    20.855674    7178.7906    5945.0605    6746.3509    4678.1442   -257.82825    419.72029   -1347.4705   -2878.1252 
19157000    253.52191     -3889.16   -3454.6322     -3889.16            0    8011.5487    17.089321    20.128962    20.848931    7171.8299    7904.5383    5526.9483    10603.159   -525.29552      402.602   -853.05733    -2616.674 
19158000    253.34965   -3889.3246    -3455.092   -3889.3246            0     7232.541    17.111732     20.15536    20.876273    7200.0831    6351.7863    8052.9881    7292.8485   -148.18997   -491.83011   -1423.6233    -2695.633 
19159000    257.02996   -3868.2895    -3427.749   -3868.2895            0    9055.9922    17.028019    20.056757    20.774144    7094.9277    9691.4483    8029.5285    9446.9998   -1579.2266    232.70323   -1405.7656   -2490.7052 
19160000    275.39254   -3828.1813   -3356.1679   -3828.1813            0    6314.5707    17.112874    20.156706    20.877667     7201.525    5106.3221    7127.4789    6709.9111    876.75752    -864.3604   -110.91577   -2692.9684 
19161000    253.95477   -3859.7516   -3424.4819   -3859.7516            0    5561.5428    17.135108    20.182893    20.904791    7229.6304    6816.8041    5600.4803    4267.3441    23.580171    1487.8118    1251.6447   -2838.0909 
19162000    246.55293   -3843.5785   -3420.9953   -3843.5785            0    8672.7939    17.098398    20.139655    20.860006    7183.2649    7631.4962    10084.877    8302.0083   -1276.2917   -454.28129    -2159.596   -2512.4286 
19163000    269.25788   -3859.7042   -3398.2054   -3859.7042            0    9085.7852     17.07369    20.110552    20.829862    7152.1695    8299.5521    8081.8356    10875.968    394.83505    -194.2982   -1110.2881   -2450.4939 
19164000    257.91451    -3864.093   -3422.0364    -3864.093            0    7800.6637     17.11308    20.156948    20.877918    7201.7846    9071.4424    6387.5742    7942.9744   -345.04685   -391.96225   -1293.1792   -2602.7277 
19165000    260.53239   -3872.0521   -3425.5085   -3872.0521            0    6465.5202    17.095991    20.136819    20.857069    7180.2315    6420.7223    6315.6195    6660.2187    375.75116    136.65633   -423.15108   -2748.4631 
19166000    264.20982   -3854.3108   -3401.4642   -3854.3108            0    7454.6882    17.165959    20.219232     20.94243    7268.7514    7257.0419    8398.3901    6708.6326    870.91904    590.89192    -400.7584    -2611.213 
19167000    238.82787    -3848.238   -3438.8952    -3848.238            0    7465.3242    17.097674    20.138802    20.859123    7182.3523    9702.4949    6617.5169    6075.9609    17.321623   -301.82768   -1809.9935    -2656.923 
19168000    280.26612   -3863.9933   -3383.6268   -3863.9933            0    7040.1528     17.16417    20.217125    20.940247    7266.4782    6623.0731    7102.2418    7395.1435   -677.92963   -1240.8768   -329.04341   -2637.5527 
19169000    267.26456   -3848.5931   -3390.5108   -3848.5931            0    6992.6421    17.206047    20.266451    20.991337    7319.7948     7875.204    5046.6224    8056.0998   -681.29269   -910.74205    721.36555   -2644.0344 
19170000    254.58073   -3861.2811   -3424.9384   -3861.2811            0    8212.9031    17.118215    20.162996    20.884182    7208.2689    11374.008    5937.1464    7327.5549   -113.31464    655.46619    -244.4211   -2561.5553 
19171000    258.43617     -3820.97   -3378.0192     -3820.97            0    6874.3367     17.06944    20.105546    20.824677    7146.8296    6829.8146    5857.6694    7935.5262    130.98988   -1316.0661    605.41732   -2661.5127 
19172000    259.35421   -3816.4055   -3371.8813   -3816.4055            0    7475.9821    17.115746    20.160088     20.88117     7205.151    7534.0869     6730.546    8163.3133    299.43821   -448.74225   -3795.3918    -2586.307 
19173000    261.71979   -3870.5363   -3421.9575   -3870.5363            0     6637.317    17.170288    20.224332    20.947712    7274.2521    6544.3875     7547.783    5819.7805   -198.68961    1000.9815   -1210.4975   -2717.8211 
19174000    256.64655   -3887.6361   -3447.7526   -3887.6361            0    6988.9484    17.088453     20.12794    20.847873    7170.7375    8361.9182    4989.3118    7615.6151    299.50097    2046.1399   -1987.8886   -2716.8634 
19175000    263.20866    -3850.389   -3399.2584    -3850.389            0    7325.4103    17.075353    20.112511    20.831891    7154.2595    8113.2268    6775.3304    7087.6737    329.79544    286.75054   -260.60952   -2634.9431 
19176000    272.82495   -3898.5651   -3430.9525   -3898.5651            0    7285.7942    17.078906    20.116695    20.836225    7158.7258    8161.8948    7794.1112    5901.3767    1717.0545   -309.63773    1322.3418   -2670.2961 
19177000    271.82454   -3846.0356   -3380.1376   -3846.0356            0    7696.0949    17.032181     20.06166    20.779221    7100.1317    7477.9269    7247.8396    8362.5184    -361.6575   -820.01947    769.54655   -2583.2213 
19178000    257.14665   -3816.9731   -3376.2326   -3816.9731            0    5470.0875    17.135369    20.183201     20.90511    7229.9615    4969.8657    6100.9703    5339.4265     1287.389    867.59979    1068.8666    -2799.458 
19179000    261.26488   -3851.5304   -3403.7313   -3851.5304            0    7265.3546    17.108544    20.151605    20.872383     7196.059    6014.3964    6556.1997    9225.4678   -448.85722   -1162.7792    692.88888   -2641.2532 
19180000    261.64367   -3890.7972   -3442.3489   -3890.7972            0    5833.5654    17.126589    20.172859    20.894398    7218.8527    6632.8621    4992.5676    5875.2664    -821.6817   -290.51103    236.59571   -2828.1937 
19181000     256.2977   -3850.5661   -3411.2806   -3850.5661            0    7721.0302    17.161613    20.214113    20.937128    7263.2316    7458.3673    7745.4107    7959.3126    1563.0922   -6.4445739    1388.0877   -2593.4167 
19182000    281.81623   -3867.9157   -3384.8923   -3867.9157            0    7760.7123    17.201445     20.26103    20.985722    7313.9224    6487.9996    9878.6813     6915.456     1749.538   -1322.8344    224.16238   -2557.0877 
19183000     258.5742   -3884.6433   -3441.4559   -3884.6433            0     6446.779    17.162469    20.215121    20.938172    7264.3183    7714.8571    6772.9502    4852.5296    523.96066    984.66504     993.9705   -2758.4672 
19184000    260.69901   -3879.5395   -3432.7103   -3879.5395            0    6385.1157    17.081088    20.119266    20.838888    7161.4705    7836.2595    5686.8011    5632.2866   -559.33123    676.56117    874.81536   -2765.8316 
19185000    280.11833   -3875.2207   -3395.1075   -3875.2207            0    5580.5902    17.202898    20.262742    20.987496    7315.7768    6273.5632      5181.02    5287.1875      1025.26    97.698566    848.41814    -2799.697 
19186000    258.94644   -3830.1009   -3386.2755   -3830.1009            0    8278.5442    17.027083    20.055655    20.773002    7093.7578    8905.2755    8825.6742    7104.6827     524.2843   -498.47204   -235.03517   -2529.8173 
19187000    243.76624   -3862.4785   -3444.6715   -3862.4785            0    3781.9933    17.136762    20.184842     20.90681    7231.7252    3846.9709    3532.0299     3966.979   -696.79106    1721.0509    149.31675    -3045.795 
19188000    271.13978   -3854.4612   -3389.7369   -3854.4612            0    6650.5984    17.127859    20.174356    20.895948    7220.4597    5820.4373    7735.8483    6395.5097   -507.98158     42.47296   -1076.4987   -2689.4089 
19189000    254.16592   -3890.6479   -3455.0162   -3890.6479            0    3233.0416    17.234209    20.299622    21.025695    7355.7955    3525.3584    3994.1067    2179.6598    -172.6794    1249.5202   -93.732277   -3108.1861 
19190000     261.3258   -3827.8959   -3379.9924   -3827.8959            0    8937.9327     17.09725    20.138302    20.858605    7181.8173     8447.617     8500.469     9865.712   -750.81958    425.02402   -406.25773   -2443.8384 
19191000    258.87975   -3837.6213   -3393.9103   -3837.6213            0    5875.2601    17.129583    20.176386    20.898051    7222.6396    5530.3201    5914.8171    6180.6431   -347.86637    261.67402   -478.33164    -2775.041 
19192000    264.95975   -3845.6091   -3391.4772   -3845.6091            0    6537.0394    17.029137    20.058074    20.775508    7096.3253    6508.7276    7103.0775    5999.3132    70.773605    -39.30965    640.11418   -2714.9418 
19193000    260.12663   -3827.4206   -3381.5724   -3827.4206            0     7080.154    16.992729     20.01519    20.731089    7050.9066    8447.6685    7659.5405    5133.2532    1268.8137    871.09446    206.66611   -2653.5185 
19194000    270.33808   -3868.1775   -3404.8273   -3868.1775            0    7127.2334    17.036983    20.067316     20.78508    7106.1385     6801.697    5556.9238    9023.0793    300.61659    2504.8646   -319.73255   -2666.1911 
19195000    270.41454   -3893.7125   -3430.2312   -3893.7125            0    6028.1903    17.040393    20.071332     20.78924    7110.4064    4947.2197    7370.2457    5767.1055     275.6018    364.49357   -602.24743     -2805.12 
19196000    257.30281   -3874.1247   -3433.1165   -3874.1247            0    4641.8896    17.112385    20.156129    20.877069     7200.907    4373.7832    5046.7586    4505.1272   -88.545807     1289.307    717.20427   -2945.6352 
19197000    255.52409   -3831.6169   -3393.6574   -3831.6169            0    8049.7481    17.020751    20.048197    20.765277     7085.847    10240.928    6921.4222     6986.894   -151.26104   -893.41552   -95.932297   -2561.7979 
19198000    265.23039    -3846.475   -3391.8791    -3846.475            0    4302.1914    17.092179    20.132329    20.852418    7175.4291    4411.3455    4391.9735    4103.2551   -946.03842   -1434.3563    988.95902   -2941.6708 
19199000    265.05148   -3825.2058   -3370.9167   -3825.2058            0    7259.9625    17.102504     20.14449    20.865015    7188.4405    7431.2699    7044.3397    7304.2778   -318.30354   -1067.2081   -681.27543    -2609.811 
19200000    256.06826   -3856.9362    -3418.044   -3856.9362            0    6098.4812    17.152321    20.203168    20.925791      7251.44    7008.0729    6192.3007    5095.0701   -244.35473    680.17546   -266.71446   -2773.1002 
19201000    257.58523   -3850.5195   -3409.0272   -3850.5195            0    6743.6373    17.153329    20.204356    20.927022    7252.7193    6616.2813    7059.9145    6554.7161    331.79827      216.976    1812.7072   -2695.7293 
19202000    262.30272   -3837.8861   -3388.3082   -3837.8861            0    7844.8981    17.047252    20.079411    20.797608     7118.996    6561.3116    8175.4787    8797.9039   -731.06305    1299.7013    920.48217   -2573.8253 
19203000    249.29335    -3874.025   -3446.7447    -3874.025            0    8167.3865    17.093873    20.134325    20.854485     7177.563    7772.5611    9634.8066    7094.7919    96.387823    662.48776    -657.3759    -2591.804 
19204000    259.71554   -3853.7918   -3408.6482   -3853.7918            0     6694.527    17.052837     20.08599    20.804422    7125.9954    7705.6953    5541.1566     6836.729   -205.00661    118.49529    1806.4886   -2712.9173 
19205000    247.44828   -3866.5334   -3442.4155   -3866.5334            0    6675.2571    17.070737    20.107074     20.82626    7148.4589    6020.2026    7369.9176    6635.6513   -1127.6321   -807.19539   -536.52733   -2746.5003 
19206000    260.18847   -3871.6591    -3425.705   -3871.6591            0    8139.8433    17.052109    20.085132    20.803533    7125.0826    7567.2048    9249.5495    7602.7756    239.39487    -960.2007     1476.392   -2579.8774 
19207000    263.44192   -3869.0117   -3417.4813   -3869.0117            0    6456.6785    17.123079    20.168725    20.890117     7214.416    5873.1179    7687.0009    5809.9166    623.11778   -1598.5793   -865.44453   -2738.1428 
19208000    267.15831   -3856.4656   -3398.5654   -3856.4656            0    7713.6813    17.097527    20.138628    20.858943    7182.1665     8408.428    7023.6555    7708.9604   -1910.8586    -59.63758   -490.69361   -2590.5995 
19209000    256.97123   -3865.2522   -3424.8123   -3865.2522            0    7520.7984    17.081334    20.119555    20.839187    7161.7792    7946.3906    6887.5673    7728.4372    835.01285    860.52993    862.91558   -2639.2859 
19210000    269.84048   -3854.4366   -3391.9392   -3854.4366            0    8140.5904    17.068577    20.104529    20.823624    7145.7454    8860.6476    7736.3134    7824.8103    -140.4058   -800.64207   -1618.1016   -2543.5809 
19211000    264.34198   -3868.9463   -3415.8732   -3868.9463            0    7804.9963    17.029347    20.058321    20.775763    7096.5875    8699.0748    6552.6448    8163.2692   -1285.7809   -201.14971    585.32283   -2608.0838 
19212000     265.6894   -3876.7418   -3421.3592   -3876.7418            0    6135.3053    17.167013    20.220473    20.943715    7270.0897    7116.7656    5845.5299    5443.6205   -56.743548    426.19026    177.96598   -2770.8524 
19213000    272.00516   -3855.7643   -3389.5567   -3855.7643            0     8508.765    17.154448    20.205674    20.928386     7254.138    8357.3248     10364.59    6804.3802   -39.475781    977.02809    635.70379    -2489.379 
19214000    256.72229   -3854.9774   -3414.9642   -3854.9774            0    6759.2426    17.064597    20.099842    20.818769    7140.7484    6079.7581    7299.9382    6898.0315   -76.097785    583.08182    1141.6911   -2711.0534 
19215000    246.66774   -3909.6204   -3486.8403   -3909.6204            0    7012.1635    17.159703    20.211864    20.934798    7260.8073    8267.8827    5752.3813    7016.2265    580.56189   -1465.4466   -547.40774   -2744.3123 
19216000    249.92674   -3857.0468   -3428.6809   -3857.0468            0    6245.7515    17.134867     20.18261    20.904498    7229.3258     4661.247     7181.971    6894.0365    -1430.942   -406.99173    442.04703    -2770.177 
19217000    262.21171   -3869.4363   -3420.0144   -3869.4363            0    5763.2551    17.099342    20.140766    20.861157    7184.4544    3152.3424    7429.8866    6707.5362   -214.62205    1865.6993   -198.61233   -2816.1527 
19218000    259.58182   -3832.9699   -3388.0556   -3832.9699            0     6632.446    17.112306    20.156037    20.876974     7200.808    5310.1132    6272.3946    8314.8302    1067.9535   -1631.0094   -2435.1992     -2691.54 
19219000    271.28497   -3856.3679   -3391.3948   -3856.3679            0    6423.9683    17.159403    20.211511    20.934432    7260.4267    5729.2741    6236.5821    7306.0487    348.48002   -1557.0883    1458.7246   -2711.1872 
19220000    257.15662    -3891.207   -3450.4494    -3891.207            0    8882.2121    17.003281    20.027619    20.743964    7064.0508     9377.604    8993.8924      8275.14    265.18311    372.69077   -310.31076   -2535.3867 
19221000     254.0693   -3848.3144   -3412.8483   -3848.3144            0    5728.6239    17.110364    20.153748    20.874604    7198.3558    6796.3256    6796.3851    3593.1609   -620.77761    434.86922   -1640.3766   -2811.4538 
19222000    252.18132   -3868.5284   -3436.2983   -3868.5284            0    6284.9026    17.055062    20.088611    20.807136    7128.7853    5197.2352    6409.4495    7248.0231   -23.047122   -853.95349    42.968142    -2782.882 
19223000    254.58402   -3850.9025   -3414.5542   -3850.9025            0    8944.1707    16.916016    19.924833    20.637501    6955.8449    9789.4481    8544.7793    8498.2847   -722.71529   -1247.7448   -1149.3998   -2507.2229 
19224000    266.32481   -3858.2307   -3401.7591   -3858.2307            0    6901.7905    17.063981    20.099115    20.818017    7139.9742    6305.7356    5829.5979    8570.0382   -235.29346   -946.24902    241.99819   -2683.0812 
19225000    250.61995   -3855.5898   -3426.0357   -3855.5898            0     6782.114    17.052888    20.086049    20.804483    7126.0587    6933.7358    7799.9307    5612.6754   -842.56352    925.34571   -791.67249    -2721.196 
19226000    273.78577   -3857.5606   -3388.3011   -3857.5606            0    7691.3391    17.055089    20.088642    20.807168     7128.818    5627.0408    9055.0346    8391.9419   -131.79424    545.08131   -508.59218   -2588.6595 
19227000    274.59268   -3786.4311   -3315.7886   -3786.4311            0    5564.9192    17.193703    20.251911    20.976277    7304.0517    5901.2203    4964.2326    5829.3046   -577.34306    -341.5512    117.70098   -2723.0018 
19228000    275.92901   -3829.7982   -3356.8653   -3829.7982            0    7484.3936    17.106653    20.149377    20.870077    7193.6734    8242.0363    6142.4453    8068.6992    1453.9934    1420.4854       379.55     -2571.66 
19229000    262.56742    -3830.405   -3380.3735    -3830.405            0    6829.7073    17.155892    20.207374    20.930148    7255.9699    6257.9823    6964.8153    7266.3244   -592.27095    100.14377    538.81851   -2657.6478 
19230000     262.8691   -3815.4591   -3364.9105   -3815.4591            0    6561.8074    17.172832    20.227328    20.950815    7277.4859    5962.0336    7616.0846    6107.3042   -80.886538    350.45406    246.87148   -2668.4752 
19231000    277.56058   -3866.3727   -3390.6433   -3866.3727            0    6356.5723    17.169513    20.223418    20.946766    7273.2668    7372.6883    6220.1482    5476.8803   -511.70497    235.49112    1594.2744   -2716.3818 
19232000    259.17752   -3848.4255   -3404.2041   -3848.4255            0    7841.1232    17.129644    20.176458    20.898126    7222.7174    9859.0504    7595.5073    6068.8119   -724.88692   -1571.5834    1186.6447   -2578.2521 
19233000    249.26352   -3855.1173   -3427.8881   -3855.1173            0    5302.2678    17.211596    20.272986    20.998107    7326.8786    5742.3165    5202.9467    4961.5402   -116.47874    966.76104   -208.02189   -2861.3143 
19234000    271.22916   -3846.5166   -3381.6391   -3846.5166            0     9723.372    17.082654     20.12111    20.840798      7163.44    9752.3493    11096.739    8321.0275    614.56348   -122.79921    787.11387   -2365.8246 
19235000    262.09923   -3879.2675   -3430.0384   -3879.2675            0    7176.4401    17.069061    20.105099    20.824214    7146.3531    7179.7227    9241.5516     5108.046   -906.57057    107.00217   -231.59234   -2682.0938 
19236000     267.9871   -3886.1423   -3426.8216   -3886.1423            0    5864.7404    17.202395    20.262149    20.986882    7315.1348    5093.8959    7063.6123    5436.7131   -796.96999   -365.99937  -0.13912099   -2801.1491 
19237000    270.69805   -3864.8901    -3400.923   -3864.8901            0    8110.5375    17.100592    20.142238    20.862682    7186.0299    6895.1964    9809.1847    7627.2316     370.6012    588.90362   -1424.3622   -2550.9315 
19238000    258.75556    -3831.355   -3387.8568    -3831.355            0    6136.6492    17.093724    20.134149    20.854304    7177.3754    5880.8977     7991.365    4537.6849   -336.33512    372.08138   -54.811457   -2745.5052 
19239000    264.14165   -3870.4433   -3417.7135   -3870.4433            0    7440.5912    17.041348    20.072457    20.790404    7111.6014    7861.4816    6454.7029    8005.5891   -526.98355   -137.77955    808.33852   -2646.0095 
19240000    269.20285   -3868.1989   -3406.7944   -3868.1989            0    8082.9517    17.026858     20.05539    20.772727    7093.4769    7829.7622    6830.8921    9588.2009    604.36997    53.008721    1807.0197   -2570.6043 
19241000    248.18389    -3871.325   -3445.9463    -3871.325            0    6494.9117     17.13592     20.18385    20.905782    7230.6583    7764.3704    4936.6016    6783.7632    335.26095    1132.9634    2613.7538   -2761.0466 
19242000    269.09148   -3876.4257   -3415.2121   -3876.4257            0    5395.7678    17.147991    20.198069    20.920509    7245.9504    6905.0513    3535.8674    5746.3847   -91.117443    2422.4144   -1320.5339   -2845.0156 
19243000     260.9961   -3836.4792   -3389.1409   -3836.4792            0    8409.9813    17.088244    20.127695    20.847618    7170.4752     8791.955    8404.2996    8033.6894   -1309.3132    1284.6268    226.66664   -2509.6753 
19244000    266.07449   -3863.4503   -3407.4077   -3863.4503            0     9231.611    17.119659    20.164697    20.885944    7210.0935    10674.751    9324.2089    7695.8733   -482.72237   -147.44584    347.30602    -2436.687 
19245000    261.16319   -3835.6091   -3387.9843   -3835.6091            0    6204.4352     17.16399    20.216913    20.940027    7266.2498    4710.7407    8078.1292    5824.4357    669.37159   -391.84121   -82.138142   -2730.4954 
19246000    261.06567   -3851.8689   -3404.4113   -3851.8689            0    5136.9643    17.138964    20.187436    20.909496    7234.5132    4470.0357    6242.8725    4697.9846    2450.7328    209.34321   -396.60915   -2862.4207 
19247000    259.55094   -3852.7459   -3407.8844   -3852.7459            0    7331.5886    17.124025    20.169839     20.89127    7215.6112    5052.8462     8058.059    8883.8605    132.59124   -812.03573   -743.07967   -2636.3646 
19248000    272.34271    -3830.599   -3363.8129    -3830.599            0    7077.6285    17.135275    20.183091    20.904996    7229.8426      4782.15    7443.7684    9006.9671    -761.8452    86.345645   -591.36721   -2617.5489 
19249000    246.55001   -3861.1388   -3438.5605   -3861.1388            0    8612.3368    17.112092    20.155784    20.876713    7200.5378    7115.8359    9186.8626    9534.3119   -1430.3855   -474.85047    1177.5418   -2534.1578 
19250000    282.03043   -3854.3815    -3370.991   -3854.3815            0     5125.018    17.169428    20.223318    20.946662    7273.1586    4979.8813    5072.8354    5322.3373     128.5648    12.999697    760.21642   -2827.3724 
Loop time of 374.137 on 64 procs for 250000 steps with 864 atoms

Performance: 115.466 ns/day, 0.208 hours/ns, 668.204 timesteps/s
192.1% CPU use with 32 MPI tasks x 2 OpenMP threads

MPI task timing breakdown:
Section |  min time  |  avg time  |  max time  |%varavg| %total
---------------------------------------------------------------
Pair    | 25.759     | 31.914     | 39.451     |  52.1 |  8.53
Bond    | 0.84813    | 1.0632     | 1.3979     |  13.6 |  0.28
Kspace  | 167.5      | 173.46     | 179.82     |  24.9 | 46.36
Neigh   | 3.8425     | 4.2068     | 4.4729     |  10.7 |  1.12
Comm    | 74.01      | 78.383     | 83.587     |  29.5 | 20.95
Output  | 0.52467    | 0.52503    | 0.52661    |   0.0 |  0.14
Modify  | 69.838     | 72.636     | 75.136     |  16.4 | 19.41
Other   |            | 11.95      |            |       |  3.19

Nlocal:        27.0000 ave          32 max          22 min
Histogram: 4 4 1 0 3 6 3 3 3 5
Nghost:        2557.03 ave        2593 max        2533 min
Histogram: 3 2 7 6 4 4 3 0 1 2
Neighs:        8487.66 ave       10748 max        6127 min
Histogram: 2 3 3 3 3 4 5 6 2 1

Total # of neighbors = 271605
Ave neighs/atom = 314.35764
Ave special neighs/atom = 2.0000000
Neighbor list builds = 14286
Dangerous builds = 0

unfix		3
unfix		2
unfix		1

write_data	data.final.${pid}
write_data	data.final.1
System init for write_data ...
PPPM initialization ...
  extracting TIP4P info from pair style
  using 12-bit tables for long-range coulomb (../kspace.cpp:340)
  G vector (1/distance) = 0.37332013
  grid = 24 24 24
  stencil order = 5
  estimated absolute RMS force accuracy = 0.0032701028
  estimated relative force accuracy = 9.8478176e-06
  using double precision FFTW3
  3d grid and FFT values/proc = 3549 432
Last active /omp style is kspace_style pppm/tip4p/omp
WARNING: Not all mixed pair coeffs generated from mixing. Use write_data with 'pair ij' option to store all pair coeffs. (../write_data.cpp:312)

write_restart   restart.lmp.${pid}
write_restart   restart.lmp.1
System init for write_restart ...
PPPM initialization ...
  extracting TIP4P info from pair style
  using 12-bit tables for long-range coulomb (../kspace.cpp:340)
  G vector (1/distance) = 0.37332013
  grid = 24 24 24
  stencil order = 5
  estimated absolute RMS force accuracy = 0.0032701028
  estimated relative force accuracy = 9.8478176e-06
  using double precision FFTW3
  3d grid and FFT values/proc = 3549 432
Last active /omp style is kspace_style pppm/tip4p/omp
Total wall time: 0:06:14
