LAMMPS data file via write_data, version 30 Jul 2021, timestep = 15000000

864 atoms
2 atom types
576 bonds
1 bond types
288 angles
1 angle types

0.02243906662154771 18.18513333338096 xlo xhi
1.117961526671369 22.51121627332258 ylo yhi
0.027375608878863034 22.185820191117045 zlo zhi

Masses

1 1.00794
2 15.9994

Pair Coeffs # lj/cut/tip4p/long/omp

1 0 0
2 0.21084 3.1668

Bond Coeffs # harmonic/omp

1 450 0.9572

Angle Coeffs # harmonic/omp

1 55 104.52

Atoms # full

369 1 1 0.5897 4.394899364296951 4.869592652852975 4.893983300881246 3 7 0
367 1 2 -1.1794 3.70459471175438 4.307923685667157 4.541350340022134 3 7 1
297 1 1 0.5897 3.112348065231949 1.7083885420385778 0.8416125329823099 3 2 1
311 1 1 0.5897 2.262970224359779 5.242217259046822 1.4308225042637561 2 -3 4
310 1 2 -1.1794 2.4240256826515476 4.716285930360323 0.6473621734128314 2 -3 4
268 1 2 -1.1794 0.02625720658179631 1.4573482823870867 1.2300010337159337 6 8 7
312 1 1 0.5897 2.4808976158930185 3.816724902832791 0.969676297128304 2 -3 4
218 1 1 0.5897 3.8168078303399926 1.7772798167339054 2.865160142542083 3 -2 -2
368 1 1 0.5897 3.1883556465092613 4.886060293814653 3.9795813601531695 3 7 1
295 1 2 -1.1794 2.706610301574974 2.218793904809569 1.542470969869346 3 2 1
296 1 1 0.5897 1.8431715590998576 1.822287303432487 1.6591482003220996 3 2 1
219 1 1 0.5897 4.177066796941864 2.6457678618297806 4.051798029426944 3 -2 -2
132 1 1 0.5897 4.317342871800514 4.91952006319878 0.7959256327491842 -4 -2 -3
217 1 2 -1.1794 4.376153176653119 1.8041133996988865 3.6415287638680507 3 -2 -2
23 1 1 0.5897 0.42014153060481835 3.049872957445184 2.5791144468878633 -4 3 2
520 1 2 -1.1794 2.263474382914673 6.124590259124353 2.9635805707393854 -7 1 -2
24 1 1 0.5897 0.04652653583432098 3.4610520280561246 3.9874764590997036 -4 3 2
374 1 1 0.5897 0.9472531725389766 4.355301562901184 8.372523673576131 5 5 0
252 1 1 0.5897 1.1945208432811043 5.59595811637855 6.127293834141536 2 1 0
375 1 1 0.5897 1.6615308910051414 5.124571591115781 9.463476143072421 5 5 0
9 1 1 0.5897 3.28263040566778 3.5516293926898648 8.175144682149142 1 1 -3
250 1 2 -1.1794 1.4676222401773893 4.6796599094477696 6.173629437553719 2 1 0
373 1 2 -1.1794 1.6031629586712153 4.2571581570879005 9.062810586097328 5 5 0
639 1 1 0.5897 0.613661358424704 3.2183643995567297 10.353029837198909 -6 -3 9
126 1 1 0.5897 3.505111128125211 1.5207371089580706 6.911815663863027 0 4 4
637 1 2 -1.1794 0.06044835008378739 2.8922640283504366 11.062923334702969 -6 -3 9
251 1 1 0.5897 2.251370650957551 4.634829139845858 5.625853929743136 2 1 0
7 1 2 -1.1794 4.097769134317114 3.1684096440049303 7.85101726734 1 1 -3
8 1 1 0.5897 4.442926780790004 2.6741091966700754 8.594583541514178 1 1 -3
776 1 1 0.5897 0.2844658822927223 3.378518227279044 6.109057268541516 5 -3 -2
358 1 2 -1.1794 1.1255955896297631 1.4621380063866325 13.268334051117336 0 -2 -2
629 1 1 0.5897 3.2201286353524536 5.056057889295326 12.775040514790014 -4 -5 3
273 1 1 0.5897 2.477063638347927 4.368262093423252 14.28256751383986 -2 3 4
272 1 1 0.5897 1.8444285249626957 3.767288820649029 15.51980461986103 -2 3 4
271 1 2 -1.1794 2.34647208481629 3.5365407563831943 14.738113919847269 -2 3 4
360 1 1 0.5897 1.6165386537229784 2.145080007915629 13.725393105058576 0 -2 -2
628 1 2 -1.1794 2.7866554391195772 5.707046486775903 13.326990021851104 -4 -5 3
359 1 1 0.5897 0.7201793711990142 1.9129382525234884 12.527558220002495 0 -2 -2
308 1 1 0.5897 4.060078496639883 2.8299855744129285 14.953981576449596 1 4 0
630 1 1 0.5897 3.500822544771232 6.24333863861826 13.67156853845347 -4 -5 3
172 1 2 -1.1794 4.30064141710448 3.911491519646577 11.791516854855933 0 -1 -1
323 1 1 0.5897 3.4113194857242393 3.3487190001976272 19.554716371126432 1 3 -1
289 1 2 -1.1794 0.7570683123127522 5.789382725617023 20.91594470379315 -7 -4 -8
431 1 1 0.5897 3.287313752200113 1.6857574554505308 21.024933465138016 -7 -4 -2
383 1 1 0.5897 1.4226613110759578 2.655941320435785 19.175293161972313 -8 -2 -2
322 1 2 -1.1794 2.81969532409747 3.1110286356900345 20.268730102251222 1 3 -1
382 1 2 -1.1794 0.5963111738403323 2.5919165434694786 18.696346553368755 -8 -2 -2
324 1 1 0.5897 2.8575215180609863 3.855260335559178 20.869586780257336 1 3 -1
765 1 1 0.5897 1.857794688126521 5.914402545787997 19.375029609863127 -4 -1 -3
228 1 1 0.5897 1.527554392945426 5.145124014672154 17.276679081047483 5 -4 -1
291 1 1 0.5897 1.3131851375973826 5.54154448061426 21.65467551722777 -7 -4 -8
763 1 2 -1.1794 2.5339793859715996 5.7322170516181545 18.722408862377105 -4 -1 -3
227 1 1 0.5897 0.6664655682149758 3.900014211867778 17.25554743243975 5 -4 -1
226 1 2 -1.1794 0.8741552513645029 4.685462194297134 16.74928557093754 5 -4 -1
725 1 1 0.5897 4.497554896519905 3.0319298335092375 17.13030220796985 2 -1 1
627 1 1 0.5897 0.5622059457059173 10.361231918120987 1.0734488786996532 -6 -3 -1
704 1 1 0.5897 3.5426412133274017 11.102341836591066 3.9769642303024115 3 -6 0
771 1 1 0.5897 4.155721121652004 8.790303437975014 2.8760113614707974 5 2 1
521 1 1 0.5897 1.3900322666880813 6.484254236723068 3.1187273847557235 -7 1 -2
835 1 2 -1.1794 0.8727027469162455 8.697098010443698 0.5774986449543206 5 1 3
522 1 1 0.5897 2.8045991303455384 6.88761573200166 2.760324329307141 -7 1 -2
625 1 2 -1.1794 0.3250255185949 11.244611404187603 1.3557871776562154 -6 -3 -1
769 1 2 -1.1794 4.120690687045555 7.999593850273078 2.337601543669123 5 2 1
530 1 1 0.5897 3.753984186242859 9.04840617821689 5.198519742077366 -5 0 -3
609 1 1 0.5897 0.481711398511576 7.540113351340927 5.314833544620461 10 -1 4
703 1 2 -1.1794 4.143061804747845 10.359925803684883 4.045218292893829 3 -6 0
837 1 1 0.5897 1.8086143987769479 8.8710663795996 0.47676594925356164 5 1 3
849 1 1 0.5897 3.8696220476101493 9.001123400132247 0.7866362212801654 4 -1 6
626 1 1 0.5897 1.1006812173648801 11.7730806978784 1.1676158143527886 -6 -3 -1
203 1 1 0.5897 2.5736048193100665 7.629206613363687 9.670546106882908 -5 -2 1
413 1 1 0.5897 4.5282940191410175 9.022996746764626 9.282005528720191 0 -4 1
607 1 2 -1.1794 0.7849876752423589 7.609013103699713 6.2201540625472465 10 -1 4
72 1 1 0.5897 4.302520434676137 9.577152314404668 7.301040268289534 2 -1 -4
202 1 2 -1.1794 1.7325055335110535 7.173436267091669 9.636050985514315 -5 -2 1
204 1 1 0.5897 1.1752568982939333 7.738224994952515 9.100451723137535 -5 -2 1
529 1 2 -1.1794 3.6901820705183614 8.50738209032832 5.985649716765357 -5 0 -3
608 1 1 0.5897 1.6678106353548843 7.972477615634335 6.150519564476334 10 -1 4
531 1 1 0.5897 4.2803512346925485 7.772123709688436 5.819987971143479 -5 0 -3
412 1 2 -1.1794 4.322960026941215 8.400625366666143 9.979742962961371 0 -4 1
700 1 2 -1.1794 3.813320060817475 11.418909370155248 16.205863887445457 5 -1 -1
475 1 2 -1.1794 0.9178926099985619 9.983882066140033 15.749290458043529 5 -1 -4
591 1 1 0.5897 3.497659455911969 10.911253367342301 11.56801924349475 0 4 1
589 1 2 -1.1794 3.9503289812629836 10.221212529276732 12.053058490430429 0 4 1
256 1 2 -1.1794 3.2514722649095176 9.240976081045007 14.538873100769077 -2 -2 3
457 1 2 -1.1794 0.9270747061465762 7.406121863676207 12.289819641561424 1 1 -6
476 1 1 0.5897 1.6290524423539217 9.515590164899342 15.311919757657492 5 -1 -4
257 1 1 0.5897 3.484317950728969 9.984758963829611 15.094659934978356 -2 -2 3
258 1 1 0.5897 3.4757363850587586 9.524283226568285 13.652427148951626 -2 -2 3
458 1 1 0.5897 1.5756598030310416 6.812662772233911 12.66863298726288 1 1 -6
459 1 1 0.5897 1.251329288464996 7.584025270472822 11.406890992736637 1 1 -6
590 1 1 0.5897 4.08769111286621 9.52601945178385 11.409498532184022 0 4 1
243 1 1 0.5897 4.284785460357 7.823806659439664 14.385911191912097 1 -2 -1
477 1 1 0.5897 0.28966427240814857 9.300926040815781 15.984318339937511 5 -1 -4
510 1 1 0.5897 0.1763461009199071 11.516601029321878 14.894091698940965 3 -4 2
730 1 2 -1.1794 1.6508106432909975 10.200755008309526 18.423902243689863 4 0 -4
573 1 1 0.5897 3.4692813936350717 8.623831191932936 20.410526220008144 5 -1 -5
572 1 1 0.5897 2.69984898437528 8.787531483646037 19.116948843690132 5 -1 -5
836 1 1 0.5897 0.48889376612967383 8.95630183464557 21.898182388493645 5 1 2
848 1 1 0.5897 4.02815271324232 10.251174539908915 22.105791354200715 4 -1 5
571 1 2 -1.1794 3.447292553364966 8.328454967373563 19.500243610218124 5 -1 -5
732 1 1 0.5897 0.8991034403866963 9.960056744909664 18.965516316850884 4 0 -4
764 1 1 0.5897 3.0720520979499146 6.523778636234935 18.706908188147885 -4 -1 -3
847 1 2 -1.1794 3.622584317303541 9.384083108645804 22.103264391637428 4 -1 5
731 1 1 0.5897 1.3358063703463632 10.114249458849878 17.52409203295944 4 0 -4
147 1 1 0.5897 4.561723593967785 9.982779787712444 17.112086879291127 -2 3 -6
146 1 1 0.5897 4.545051748112262 8.979777689042322 18.246045694766266 -2 3 -6
437 1 1 0.5897 2.9688311678543178 15.286543248324625 1.8198051139079088 -3 1 3
652 1 2 -1.1794 2.73066295130494 12.945369732733646 4.951986802348054 -2 0 -3
403 1 2 -1.1794 1.7227603861874892 14.949023966151222 3.0806049084263076 7 -4 2
279 1 1 0.5897 4.302395181429468 16.878839403000704 4.807273131107497 0 -1 -1
436 1 2 -1.1794 3.793253650618696 15.203304217127608 1.3405053724051148 -3 1 3
3 1 1 0.5897 2.7146410362392706 13.946629946417865 0.7309384106206267 2 -2 1
404 1 1 0.5897 1.576438387533041 15.79528035772164 3.50344748957454 7 -4 2
438 1 1 0.5897 4.420757451122857 14.89455592462612 1.9941456327974187 -3 1 3
442 1 2 -1.1794 0.5640528552459018 15.975894589423593 0.6012907844990557 4 4 -3
653 1 1 0.5897 2.543106948512293 13.697729174915324 4.390607857006967 -2 0 -3
443 1 1 0.5897 0.5746954525321307 15.50689192537018 1.4357089841535113 4 4 -3
1 1 2 -1.1794 2.174511494486457 13.209296011932155 0.4464502296250683 2 -2 1
277 1 2 -1.1794 4.3402248397616505 16.04639935407055 5.278414943536736 0 -1 -1
500 1 1 0.5897 4.2497331848762 16.798688126173587 0.5203825261345608 -1 -2 -1
405 1 1 0.5897 0.9812337027719782 14.410815904113303 3.357783914440938 7 -4 2
429 1 1 0.5897 3.641609185377032 12.4056516618986 0.07405725710063038 -1 -1 -1
34 1 2 -1.1794 3.8338331281397937 12.83701876184152 7.909832552971245 -6 2 -2
419 1 1 0.5897 1.7077427857267404 13.187704237283864 7.205708077160088 -5 0 5
420 1 1 0.5897 0.4815315926027191 13.210456816268678 8.093444837967786 -5 0 5
300 1 1 0.5897 2.0962464079314884 16.187176761498048 8.399060089226323 -2 2 -1
418 1 2 -1.1794 0.8006183362992706 13.491933945975742 7.235949869649595 -5 0 5
238 1 2 -1.1794 0.8211037645283916 16.364827698532544 6.937165953443408 -3 -8 0
773 1 1 0.5897 3.3319552526916896 12.912875625247127 9.722276348062916 6 -2 3
772 1 2 -1.1794 3.108260060981469 12.598877421387824 10.598459085051168 6 -2 3
381 1 1 0.5897 1.236425652857558 12.929137644533679 10.128652686969865 7 2 -1
240 1 1 0.5897 0.7116531595353914 15.415858494045255 6.875291227280912 -3 -8 0
239 1 1 0.5897 0.9297720449262024 16.6534780565729 6.030955345193202 -3 -8 0
298 1 2 -1.1794 2.7253386542402915 16.216932480603163 9.11996073549485 -2 2 -1
379 1 2 -1.1794 0.318246786951239 13.056718992549664 9.889859904965972 7 2 -1
36 1 1 0.5897 4.472836946788034 13.514426369433691 7.68814295533255 -6 2 -2
299 1 1 0.5897 3.18551657883962 17.04813484394122 9.002766026687796 -2 2 -1
440 1 1 0.5897 1.3894783619299529 16.09007928023275 10.320233293076782 -2 4 -6
35 1 1 0.5897 4.293283429837581 12.012406735454283 7.750856257552375 -6 2 -2
120 1 1 0.5897 0.034668231245778 11.905493580322776 6.120205506990754 2 -2 -2
439 1 2 -1.1794 0.7750958328452803 16.31239071102207 11.019857282624443 -2 4 -6
654 1 1 0.5897 3.292804975604753 13.295783758408023 5.643051481284392 -2 0 -3
76 1 2 -1.1794 4.189171496259584 17.072466348260527 13.421346775609159 -7 -3 -6
166 1 2 -1.1794 1.5536369014683054 14.072514161601624 13.059952997838058 -2 1 0
167 1 1 0.5897 2.49711212299809 13.921071837219122 13.002908745152203 -2 1 0
249 1 1 0.5897 0.9860266769648057 16.300509158031055 15.349724653984781 -1 -1 -6
247 1 2 -1.1794 0.572220284830939 15.767751924875084 16.028916953566224 -1 -1 -6
509 1 1 0.5897 0.35064096329756245 12.738677073002378 14.017512589204186 3 -4 2
168 1 1 0.5897 1.3439251955292977 14.578710548498341 12.27501967616487 -2 1 0
77 1 1 0.5897 3.2842270803555147 17.123158873057733 13.729312362841004 -7 -3 -6
588 1 1 0.5897 1.9981954198167942 14.24568165027231 16.59829961710422 -3 -1 4
805 1 2 -1.1794 4.266572757836227 14.497820808524175 12.455192595538701 6 0 -5
806 1 1 0.5897 4.083669732607168 15.352524840496855 12.845527334983336 6 0 -5
702 1 1 0.5897 4.302395975499354 12.014825921889967 15.638392155704862 5 -1 -1
774 1 1 0.5897 3.614777445478691 13.155941077057593 11.189611499322853 6 -2 3
2 1 1 0.5897 1.8034155619546626 13.492065311522682 21.769035275333128 2 -2 0
587 1 1 0.5897 2.1742395980594593 13.607078676257103 17.959701382006536 -3 -1 4
333 1 1 0.5897 0.24762826357929146 16.967750886202804 17.39202189493015 -1 -1 -2
594 1 1 0.5897 1.0250982792592136 13.138263485401168 19.605971420954038 1 -3 -1
592 1 2 -1.1794 1.950281373814113 12.894388550573156 19.575855137206542 1 -3 -1
593 1 1 0.5897 1.9565291667689355 12.025681674721188 19.173787293841578 1 -3 -1
26 1 1 0.5897 4.245321315530329 14.606366118178515 17.39703968196985 -4 4 5
586 1 2 -1.1794 2.6456173629633217 13.807993413824605 17.15113015537941 -3 -1 4
427 1 2 -1.1794 4.540157571151894 12.12273885472246 22.06248437532126 -1 -1 -2
701 1 1 0.5897 3.2927494152685837 11.994379171950197 16.76638117524365 5 -1 -1
91 1 2 -1.1794 1.7186417661814617 18.64390975044901 0.7163993997099826 -1 -4 -1
499 1 2 -1.1794 4.388968699815279 17.737851076090262 0.39813685047181563 -1 -2 -1
18 1 1 0.5897 0.9703278523113631 20.08844642524535 3.5996321537225064 -1 2 1
93 1 1 0.5897 2.609806993932511 18.552628294895108 0.3789894376065534 -1 -4 -1
144 1 1 0.5897 0.8904653689962932 19.90188994346102 1.6578560095635981 4 -1 4
456 1 1 0.5897 1.0235482044708026 18.087531710942503 4.256559877077231 4 2 0
16 1 2 -1.1794 1.6069363483849775 19.838264883624575 4.269314373959065 -1 2 1
539 1 1 0.5897 3.4969262904082803 19.043959789682482 4.442656591053848 0 0 1
17 1 1 0.5897 1.4205376569827937 20.41952442159631 5.0067089668734415 -1 2 1
142 1 2 -1.1794 0.14968511046568156 20.32128277643221 2.0956738151751026 4 -1 4
92 1 1 0.5897 1.4495828722553898 17.75006358102088 0.9285549098540893 -1 -4 -1
538 1 2 -1.1794 4.322987140152385 18.56132434817259 4.474754127451867 0 0 1
269 1 1 0.5897 0.09062640656849394 22.01806520045936 1.6980893509370234 6 7 7
125 1 1 0.5897 3.555109379269648 22.389004990621892 5.49263246932267 0 3 4
454 1 2 -1.1794 0.6562190057624607 17.205912435973097 4.192023878775408 4 2 0
293 1 1 0.5897 0.8861428091982124 20.797738520354333 7.724652668978918 0 -4 0
294 1 1 0.5897 1.639761389182703 20.527065415255453 9.009544314147664 0 -4 0
179 1 1 0.5897 4.0492225097232755 20.23317205548607 9.597927980818792 -8 2 -1
859 1 2 -1.1794 0.803139573661246 21.614945236230287 6.201245229240936 -5 -2 1
178 1 2 -1.1794 3.4948877203453366 20.997952670275662 9.753339341673655 -8 2 -1
292 1 2 -1.1794 0.7747928164217595 20.445349334060595 8.607691248172479 0 -4 0
180 1 1 0.5897 3.158692512525269 20.874263759317017 10.64107475929809 -8 2 -1
861 1 1 0.5897 1.7221602585309028 21.83282484541192 6.357045224162116 -5 -2 1
124 1 2 -1.1794 3.5227438376672238 22.10192829503237 6.405262096628083 0 3 4
816 1 1 0.5897 4.5492970500269 22.462905707574595 9.89308579062318 -7 5 -2
860 1 1 0.5897 0.3988141883309849 22.445507991419806 5.950184052148484 -5 -2 1
301 1 2 -1.1794 2.089247557767995 20.293957118859385 15.947013946006376 2 5 4
768 1 1 0.5897 1.9865998101615217 20.01498454149714 12.182847698043492 0 1 4
672 1 1 0.5897 4.377413389707635 20.20768301042932 12.545182286707142 3 -1 -3
766 1 2 -1.1794 2.5728458741091913 20.75724405977619 12.330187173854242 0 1 4
264 1 1 0.5897 0.7563222632527359 17.848348211617296 11.764420185455274 2 -4 5
752 1 1 0.5897 2.0326672016215626 18.245736833825273 14.95681533091814 5 2 3
753 1 1 0.5897 1.233964110153331 18.061853433973113 13.68386361148162 5 2 3
767 1 1 0.5897 2.0000078383711375 21.45678904214219 12.644565918396992 0 1 4
303 1 1 0.5897 2.9555782657329823 20.680994144727098 15.820248405597528 2 5 4
480 1 1 0.5897 0.4357340993102566 21.203104774132953 15.527970084987034 -2 3 -7
262 1 2 -1.1794 0.7117880744621111 18.731104504956626 12.13199106583274 2 -4 5
751 1 2 -1.1794 1.660981718910605 17.57233046855715 14.386976071457976 5 2 3
479 1 1 0.5897 0.03479144672677492 22.081964129812953 14.362210774728752 -2 3 -7
425 1 1 0.5897 4.055803705745145 17.92009708262321 18.658704126988454 7 -4 -1
148 1 2 -1.1794 1.6967307001961125 20.27767428815611 20.645526425972214 -7 0 6
461 1 1 0.5897 1.7386187657576382 18.397148724912274 18.044206734232645 2 2 0
460 1 2 -1.1794 2.5655513794582534 18.858391701499198 18.184858763929 2 2 0
462 1 1 0.5897 2.415749675641296 19.385768830285368 18.969574203977867 2 2 0
149 1 1 0.5897 0.8473748587185909 20.508549611983103 20.2691898131658 -7 0 6
150 1 1 0.5897 1.4886274289593469 19.660486649262808 21.347033006244757 -7 0 6
432 1 1 0.5897 2.6929824926552954 21.698261471938142 21.205141727677507 -7 -5 -2
430 1 2 -1.1794 3.4588128705711685 22.227725938614146 21.427716769201467 -7 -5 -2
331 1 2 -1.1794 0.02615314257313628 17.80938103409336 17.79069324194548 -1 -1 -2
302 1 1 0.5897 2.155183394662813 19.8252235220468 16.779048815585835 2 5 4
810 1 1 0.5897 8.19720432665162 3.514764815259834 0.14202325191187243 5 -2 -2
618 1 1 0.5897 6.752115309504218 1.8721030593286752 0.9675991741771348 -4 5 1
130 1 2 -1.1794 5.266373904372831 5.040539778596933 0.8288718990611343 -4 -2 -3
616 1 2 -1.1794 6.737052347581075 2.5488269097505194 0.2907117933720377 -4 5 1
631 1 2 -1.1794 7.0263903414807425 2.2169237224930907 3.475393922624903 2 6 5
632 1 1 0.5897 6.085598801575853 2.1160734153324974 3.330235524058149 2 6 5
617 1 1 0.5897 5.895183250499799 2.9886602705413408 0.40973891702749765 -4 5 1
482 1 1 0.5897 6.323411372633754 6.1957811126371 1.914482290095445 -2 3 -3
555 1 1 0.5897 8.81793742447335 2.572381634193031 3.036601332253699 -5 -3 3
135 1 1 0.5897 7.372617716326093 3.0898032495115686 5.115112052157656 0 -6 -4
134 1 1 0.5897 7.916651007082014 4.443067062236206 5.521211897773847 0 -6 -4
196 1 2 -1.1794 8.434228021881427 6.204147082639781 5.281016606746541 -4 4 -1
809 1 1 0.5897 9.007460790801508 4.688890913472285 0.6490379119462745 5 -2 -2
633 1 1 0.5897 7.328188818507569 1.3397154025004885 3.711544644395985 2 6 5
808 1 2 -1.1794 9.074770408750862 3.896288186353161 0.11649776922822956 5 -2 -2
265 1 2 -1.1794 5.422479795851993 6.3867420603560205 5.4122759201699715 -1 -3 1
815 1 1 0.5897 6.030781544978422 1.3753788593005931 9.830524416536928 -7 6 -2
406 1 2 -1.1794 6.25689141145186 4.980324003171879 7.72586563445665 -9 -2 3
417 1 1 0.5897 6.442534993701107 5.9514897221175715 9.382937104650182 -1 -1 -2
408 1 1 0.5897 6.918148333548179 4.3846249266688275 7.373373673387993 -9 -2 3
407 1 1 0.5897 5.447652420574476 4.468993075934878 7.723655068969031 -9 -2 3
416 1 1 0.5897 6.465226615276341 5.979944722087886 10.896481539002812 -1 -1 -2
266 1 1 0.5897 5.768859284763066 6.042938797614559 6.235782838625681 -1 -3 1
133 1 2 -1.1794 7.659799969389323 3.5924911882761124 5.877463706574219 0 -6 -4
814 1 2 -1.1794 5.1854494797192565 1.7676768063895314 10.049332378194176 -7 6 -2
197 1 1 0.5897 8.987207218334714 6.251948716287935 6.06094713711109 -4 4 -1
468 1 1 0.5897 8.9426084744159 2.4756698233556547 6.374240890877909 2 -4 5
392 1 1 0.5897 6.442827305638392 5.687756109392202 13.471914914154459 8 -2 2
692 1 1 0.5897 6.639923498616336 2.5160946833031783 14.465394344835396 4 0 0
393 1 1 0.5897 6.93553497945007 4.266148601601696 13.303047173219035 8 -2 2
691 1 2 -1.1794 7.562857832464072 2.760664285530683 14.396776556376427 4 0 0
785 1 1 0.5897 8.759113640391762 1.8011685052365847 13.03525490931391 7 5 3
693 1 1 0.5897 7.843813275383584 2.8938454550027464 15.302158075111377 4 0 0
307 1 2 -1.1794 4.855967584818822 2.456673117338905 15.33283748201558 1 4 0
173 1 1 0.5897 4.778046220796111 3.170969250081527 11.417288352856183 0 -1 -1
391 1 2 -1.1794 6.593647876134349 5.012361337565963 12.810486130696066 8 -2 2
309 1 1 0.5897 4.740028535362543 1.5100795059646572 15.250050450038662 1 4 0
174 1 1 0.5897 4.9681072414695455 4.418256268801925 12.25413408388184 0 -1 -1
117 1 1 0.5897 7.798317133685831 1.8957040675889534 20.929985517840873 -3 -8 -1
223 1 2 -1.1794 8.357049489448839 3.0257044486274554 17.17806097235562 2 2 -8
330 1 1 0.5897 5.906007437481008 4.511225252469587 18.085108390294568 -1 6 -4
726 1 1 0.5897 5.392751161767457 2.463574360750558 18.21094068764716 2 -1 1
328 1 2 -1.1794 6.641912453138758 5.088623683270443 18.288563827235386 -1 6 -4
787 1 2 -1.1794 5.839808346143654 6.313585691970982 20.5529845920858 5 -2 4
788 1 1 0.5897 6.1334289749201885 5.738185950515309 19.846555479535304 5 -2 4
329 1 1 0.5897 6.6227695517415945 5.753501578809416 17.60015048615336 -1 6 -4
724 1 2 -1.1794 4.797386687056632 3.1898848080130215 18.025558337080184 2 -1 1
115 1 2 -1.1794 8.437131213290867 1.6314076606235124 20.267836532938002 -3 -8 -1
225 1 1 0.5897 7.93744005436203 3.870604227158452 17.3406061647785 2 2 -8
116 1 1 0.5897 8.454568257162151 2.359838313929352 19.646996181796347 -3 -8 -1
131 1 1 0.5897 5.475520681968347 5.5172855901964875 22.183988291467823 -4 -2 -4
47 1 1 0.5897 6.921211122242384 11.622286042850543 3.8119675138680216 5 -3 -2
153 1 1 0.5897 7.908123786398858 9.57395991020387 4.721880457054072 -1 1 2
770 1 1 0.5897 4.9325082279194365 7.5347863330518665 2.5406984929552907 5 2 1
46 1 2 -1.1794 6.925175015507298 11.27100401630624 4.702424934253976 5 -3 -2
151 1 2 -1.1794 8.457560401754016 8.791364199083457 4.766553540578106 -1 1 2
705 1 1 0.5897 4.955766314095132 10.738592133969103 4.380601090495557 3 -6 0
198 1 1 0.5897 8.35911171107823 7.111101602325639 4.9841110164664135 -4 4 -1
267 1 1 0.5897 6.199499910655529 6.6104253479308035 4.899821111059378 -1 -3 1
481 1 2 -1.1794 6.739687024699152 6.907045789609318 2.401487440262886 -2 3 -3
483 1 1 0.5897 7.678211125577187 6.767534515919272 2.274771905130534 -2 3 -3
812 1 1 0.5897 7.833247124044603 8.620052282156514 8.49114021623531 -4 7 -4
813 1 1 0.5897 7.955846977698423 8.889677810163668 7.006409435640501 -4 7 -4
811 1 2 -1.1794 7.392277614311903 9.056311329361115 7.762036948070337 -4 7 -4
414 1 1 0.5897 5.035158269226224 7.7617380349328124 9.948742589085311 0 -4 1
70 1 2 -1.1794 4.717101653329262 10.076628302885672 8.004586525042804 2 -1 -4
71 1 1 0.5897 5.65495325781857 9.926881714242354 7.8847986142011965 2 -1 -4
707 1 1 0.5897 8.397634706547283 10.62920568851826 8.50186179563576 0 -4 -8
834 1 1 0.5897 8.486448513490172 7.145564283787099 10.555806386573641 1 -2 1
706 1 2 -1.1794 8.567117470053784 11.56872233446615 8.572086133362083 0 -4 -8
415 1 2 -1.1794 6.605960910809425 6.531419426811935 10.126791066022736 -1 -1 -2
832 1 2 -1.1794 9.07482316231905 7.7769923232250395 10.969863377129712 1 -2 1
68 1 1 0.5897 5.529325737577802 10.494809094913968 12.515268257915011 2 -3 -2
89 1 1 0.5897 8.432612561313462 8.529545603209991 12.560296553818024 4 0 3
88 1 2 -1.1794 8.353612471355369 9.012167759385914 13.383200262044005 4 0 3
67 1 2 -1.1794 6.346791358088335 10.828148534325898 12.885382910532007 2 -3 -2
90 1 1 0.5897 7.545542826280075 9.516635980556448 13.288931403556267 4 0 3
241 1 2 -1.1794 4.883136981265947 7.08084219404964 14.306406670734509 1 -2 -1
242 1 1 0.5897 5.413290906488383 7.11335822997273 15.102783383577117 1 -2 -1
69 1 1 0.5897 6.752575969291108 11.317174522244986 12.169465043792949 2 -3 -2
747 1 1 0.5897 9.009287455237535 8.789138665910912 15.127106460875103 -3 1 -7
745 1 2 -1.1794 8.951362513467018 8.84828898215818 16.080787396344316 -3 1 -7
187 1 2 -1.1794 6.7546954021361 7.165543834960842 16.460716035497928 -3 7 3
188 1 1 0.5897 7.673359222910167 7.43335251080523 16.434641745381064 -3 7 3
780 1 1 0.5897 6.128283903590125 10.38056535969505 19.162341723518182 -1 1 -4
189 1 1 0.5897 6.2848769217797225 7.94751735463059 16.75075568997868 -3 7 3
798 1 1 0.5897 8.954828154644067 10.017947043506162 17.47582388080698 2 1 -3
541 1 2 -1.1794 7.646269880790508 8.33568572894717 20.609599899988993 -8 1 0
145 1 2 -1.1794 5.102180711442153 9.323585110674358 17.547663841064207 -2 3 -6
778 1 2 -1.1794 6.857818140497465 10.655049984218396 19.718024004412676 -1 1 -4
543 1 1 0.5897 7.181689714637066 9.112517103270388 20.29802920278745 -8 1 0
542 1 1 0.5897 6.964917512058386 7.669720955223711 20.702369926844472 -8 1 0
779 1 1 0.5897 7.621985552623664 10.626748637109051 19.142197703784632 -1 1 -4
796 1 2 -1.1794 8.9976425107575 10.788457550443498 18.04224515930117 2 1 -3
789 1 1 0.5897 5.34587017632742 7.00397251455952 20.110574292359043 5 -2 4
830 1 1 0.5897 8.878595977294417 9.46263159101188 21.608527353098307 6 1 2
528 1 1 0.5897 6.357971127903308 15.009675037661179 3.421572601362575 -2 -4 2
527 1 1 0.5897 5.91365501950401 13.6863479464794 2.835342143274412 -2 -4 2
278 1 1 0.5897 4.703426755831575 15.42804318883279 4.644333142763158 0 -1 -1
862 1 2 -1.1794 6.6108703799233774 12.263014283246548 1.7512410958021438 1 2 4
526 1 2 -1.1794 5.63632477670397 14.38079878578349 3.4330106090237056 -2 -4 2
335 1 1 0.5897 7.800539004558508 16.785658807843987 3.771405507663945 -1 1 5
334 1 2 -1.1794 7.230628003161562 16.60929034038979 3.0227826818650576 -1 1 5
232 1 2 -1.1794 9.044422999753351 12.671880723645227 0.2668624676042324 -2 -1 1
863 1 1 0.5897 7.421722153488037 12.422264534184064 1.2680197283732597 1 2 4
864 1 1 0.5897 5.960371186014645 12.077364672277229 1.0739504671734148 1 2 4
321 1 1 0.5897 9.045573450012807 15.8017926053829 2.4488853961165433 1 -1 1
48 1 1 0.5897 6.995037817010365 12.042677366391663 5.264537702937218 5 -3 -2
612 1 1 0.5897 5.290774418426785 15.629606642857555 6.831007392481835 3 9 2
56 1 1 0.5897 6.195962813919531 15.80935785905039 10.693203896314856 -2 2 1
211 1 2 -1.1794 7.390190423710934 13.316654578376378 6.434064730932093 6 2 1
610 1 2 -1.1794 5.470137673684256 15.024235684343923 7.5505239723670945 3 9 2
611 1 1 0.5897 6.275683780188184 14.576290483565842 7.292118067882921 3 9 2
111 1 1 0.5897 6.277212319670608 12.699165001258514 10.037939952349609 3 -2 -8
212 1 1 0.5897 7.828315809738521 12.790483496551277 7.103065212401506 6 2 1
213 1 1 0.5897 8.09796489613282 13.618818364010735 5.864779512229259 6 2 1
109 1 2 -1.1794 6.942169527589191 12.277793538925728 10.582568149043512 3 -2 -8
55 1 2 -1.1794 5.962770887117756 14.983603049501987 10.268840460560622 -2 2 1
57 1 1 0.5897 5.6916055197635345 15.235634438593491 9.38606869197268 -2 2 1
110 1 1 0.5897 7.589845655489563 11.948875397914838 9.959142612314745 3 -2 -8
471 1 1 0.5897 8.719537371647265 16.558890430668974 6.119419004963471 -1 -4 6
314 1 1 0.5897 8.187285754308919 14.098587975146975 10.861166007007737 1 -1 0
313 1 2 -1.1794 9.065575718113198 14.457744717874625 10.987480730357479 1 -1 0
317 1 1 0.5897 8.17355246333305 14.930002864015 16.618843469068917 -5 -5 2
824 1 1 0.5897 5.1420918271446 13.629208737481983 13.848149273551877 -3 5 0
823 1 2 -1.1794 5.458130181789808 13.089071766772118 14.572525628966956 -3 5 0
347 1 1 0.5897 5.587121626794191 16.477354239705576 16.17686214239955 -7 5 -1
318 1 1 0.5897 7.329042527767475 14.531939782949955 15.427000682441221 -5 -5 3
825 1 1 0.5897 5.927184778161104 12.37011067803321 14.148938202091252 -3 5 0
807 1 1 0.5897 4.872293971184972 14.686076512087547 11.738248628006907 6 0 -5
316 1 2 -1.1794 8.237463103029317 14.640350627314787 15.708703796591939 -5 -5 3
78 1 1 0.5897 4.716883896439377 17.115942315868075 14.218825171499844 -7 -3 -6
346 1 2 -1.1794 5.830602222878115 17.118313620400002 15.508859232794517 -7 5 -1
749 1 1 0.5897 8.667264533126367 16.705843379634075 13.74150357760414 4 10 1
101 1 1 0.5897 9.029409805558442 13.091746302968135 15.916818853127918 4 -5 -2
315 1 1 0.5897 9.058285903589193 14.80101626820145 11.881046989354202 1 -1 0
426 1 1 0.5897 4.869391090568331 16.674166163380107 18.37965322654021 7 -5 -1
428 1 1 0.5897 4.799218331541846 12.605275726552986 21.277380671121158 -1 -1 -2
81 1 1 0.5897 6.707356600881584 14.117871408571828 20.549982923256966 1 3 -6
516 1 1 0.5897 8.355343356200457 15.612015101300868 21.5651924813233 -3 -2 1
79 1 2 -1.1794 6.112150255906101 13.589673652798506 20.017938936718473 1 3 -6
25 1 2 -1.1794 5.038891625259549 15.080560323329909 17.645466756621875 -4 4 5
667 1 2 -1.1794 8.350380147951352 15.769232991994144 18.318728898269217 -7 -6 -2
27 1 1 0.5897 5.329401655847525 14.655940092146055 18.452725949905442 -4 4 5
514 1 2 -1.1794 8.186637585191345 14.851722615770486 21.008568096056695 -3 -2 1
515 1 1 0.5897 8.478063685826035 14.103435766651673 21.529607655494438 -3 -2 1
669 1 1 0.5897 8.107840143191014 15.643135049365485 19.236117933398912 -7 -6 -2
80 1 1 0.5897 6.583771487316532 12.769394329618349 19.87286436274407 1 3 -6
533 1 1 0.5897 8.979351716093174 18.068902470865062 0.9905519752293244 -6 -3 -2
350 1 1 0.5897 8.765642504852242 20.697035526601567 4.785877970889143 -9 7 0
686 1 1 0.5897 6.378366785626638 19.671590114790277 2.0241877437548537 7 -9 -5
349 1 2 -1.1794 8.023653524270983 21.084823167402885 4.321757847260461 -9 7 0
534 1 1 0.5897 7.843052243637389 17.692143221460086 0.06368205343272576 -6 -3 -2
687 1 1 0.5897 5.345120983703026 18.63433770573128 1.638638554931456 7 -9 -5
356 1 1 0.5897 8.144961710797428 21.259525972434247 0.7875120294550716 0 -6 4
685 1 2 -1.1794 5.867990651081588 18.94337572974268 2.3785280526473502 7 -9 -5
355 1 2 -1.1794 7.2490809191988035 21.160500601881694 1.1098812980927817 0 -6 4
351 1 1 0.5897 7.293162330437624 21.015264325516156 4.936473599358016 -9 7 0
540 1 1 0.5897 4.757033037221452 18.77325965901511 3.648300685718328 0 0 1
532 1 2 -1.1794 8.706638264260413 17.40333021247826 0.3588728018019759 -6 -3 -2
857 1 1 0.5897 8.73131875385054 19.698525241025845 2.822111325620442 1 1 -6
357 1 1 0.5897 6.714363631621226 21.10066751095416 0.3181560196337512 0 -6 4
336 1 1 0.5897 6.860238477296698 17.462576825685268 2.7968474986837024 -1 1 5