LAMMPS data file via write_data, version 30 Jul 2021, timestep = 18500000

864 atoms
2 atom types
576 bonds
1 bond types
288 angles
1 angle types

0.5442360913915572 17.663336308607974 xlo xhi
1.7325694979869901 21.896608302017178 ylo yhi
0.6639667603071064 21.54922903968657 zlo zhi

Masses

1 1.00794
2 15.9994

Pair Coeffs # lj/cut/tip4p/long/omp

1 0 0
2 0.21084 3.1668

Bond Coeffs # harmonic/omp

1 450 0.9572

Angle Coeffs # harmonic/omp

1 55 104.52

Atoms # full

668 1 1 0.5897 8.647586719526325 3.060662156496628 5.714174992322694 -7 -5 -4
711 1 1 0.5897 4.043800302724687 5.936287604758939 0.7591342616608306 1 1 2
357 1 1 0.5897 6.317459173574122 2.6897295867328666 5.2386269337646265 7 2 2
816 1 1 0.5897 1.4059244349515114 2.104705878232145 4.5443775190702596 -3 8 -6
109 1 2 -1.1794 4.152090404111071 4.372352465218308 3.4464250169448314 -1 3 -14
706 1 2 -1.1794 7.796231986622312 5.531936127778551 1.705174749514895 -4 -1 -6
470 1 1 0.5897 3.184056089640197 4.00902355881203 1.805839067465381 6 4 2
814 1 2 -1.1794 1.685965581601177 1.9969256369231436 5.453353216267352 -3 8 -6
469 1 2 -1.1794 2.775733105167813 4.2935774754306015 0.9881720564445329 6 4 2
707 1 1 0.5897 7.186670672543259 5.291709395472874 1.0073185024156894 -4 -1 -6
419 1 1 0.5897 1.850121620285974 6.128693029884537 3.96305259650154 -5 -5 4
356 1 1 0.5897 5.11962917039399 2.9963405854951737 4.365010627748044 7 2 2
418 1 2 -1.1794 1.5180333639072932 5.2682625609778055 4.219293633382234 -5 -5 4
333 1 1 0.5897 0.8790497645307602 3.418297158043602 1.0561230809220024 1 -5 -4
111 1 1 0.5897 4.649712303819797 5.183977550152665 3.5460202398166594 -1 3 -14
105 1 1 0.5897 6.449800289761889 5.563612429355851 5.020625412401321 2 -2 2
388 1 2 -1.1794 5.869508913677588 6.725795003595014 3.130753730069508 1 5 8
708 1 1 0.5897 8.291715307633034 6.268899286208203 1.3478823269448572 -4 -1 -6
355 1 2 -1.1794 5.481016345483347 2.3273263602131613 4.946495160534224 7 2 2
514 1 2 -1.1794 5.604126491796698 1.869522580466708 1.1165985121795887 -5 -4 4
200 1 1 0.5897 8.682697963637638 4.041818399002957 1.9652968408087546 3 -9 0
110 1 1 0.5897 3.3369237779187864 4.5306826320669575 3.922578942311852 -1 3 -14
389 1 1 0.5897 6.6117814040736524 6.3710079118939 2.641420806944887 1 5 7
420 1 1 0.5897 1.9671206678393898 5.072872712317141 5.0417557738593395 -5 -5 4
390 1 1 0.5897 5.15907176457863 6.769690167825426 2.4907312581787924 1 5 8
103 1 2 -1.1794 6.000473734155207 5.4966809032006445 5.863190680359924 2 -2 2
611 1 1 0.5897 7.097085474514817 4.006991980252746 9.792447051386876 6 -1 -3
462 1 1 0.5897 3.7544011631550727 6.531595113289676 7.323748139309465 -3 2 -5
372 1 1 0.5897 7.831601994001999 6.725884300327905 8.169987358292026 7 4 -4
632 1 1 0.5897 2.5582705563554335 3.2426590955760743 9.521332014998809 14 11 4
488 1 1 0.5897 2.9788823648110987 4.536330552592028 7.2951067306581105 3 -5 0
487 1 2 -1.1794 3.2650278824079217 4.858494223366245 6.44033028765066 3 -5 0
22 1 2 -1.1794 5.999298729185615 3.9880323302195757 8.301880111871574 -5 2 0
574 1 2 -1.1794 2.8193281917208575 1.8225133704053305 10.925849436182517 1 6 0
23 1 1 0.5897 5.289483255160242 3.3741450757432077 8.11324411106277 -5 2 0
489 1 1 0.5897 4.22004767234578 4.800452112810215 6.469407148015233 3 -5 0
24 1 1 0.5897 6.510685660948471 4.019433039168641 7.493293917479143 -5 2 0
667 1 2 -1.1794 7.8828638045423585 3.026758734417215 6.288918799897425 -7 -5 -3
279 1 1 0.5897 8.514251568179809 5.532118906084503 6.398826338964435 3 -2 0
633 1 1 0.5897 1.5318584052612059 4.297913812842811 9.167873710299535 14 11 4
610 1 2 -1.1794 7.8438356421772495 4.109462661564988 10.382533670607167 6 -1 -3
104 1 1 0.5897 6.228428542695957 6.30546969972261 6.321651756700399 2 -2 2
631 1 2 -1.1794 2.229355637541671 3.763271143253597 8.788487686368892 14 11 4
510 1 1 0.5897 8.65009739433228 5.62114872215326 9.759269761178182 2 0 6
411 1 1 0.5897 0.9055761744382529 2.3095940086934093 7.972163021500944 6 0 -5
362 1 1 0.5897 4.773032408832295 2.032276597455839 6.459177113433968 2 0 0
363 1 1 0.5897 3.399783188058233 2.478748734131043 6.91404747851816 2 0 0
394 1 2 -1.1794 0.5505212491773284 5.700330940251819 9.764355514122757 6 -2 0
669 1 1 0.5897 8.215429153586093 2.663369611791957 7.109675868008978 -7 -5 -3
361 1 2 -1.1794 4.211434696095134 2.083763024847056 7.232645984153416 2 0 0
108 1 1 0.5897 5.150107299479579 6.546091958245034 10.330107340199673 -3 -2 2
623 1 1 0.5897 8.958605890582454 2.798811794860265 9.318228002423998 4 6 5
435 1 1 0.5897 4.596569301478479 2.0106228267222996 11.032345062750808 0 4 -5
434 1 1 0.5897 5.3753650905139985 3.307465637132108 11.093020353762542 0 4 -5
693 1 1 0.5897 8.424198880175283 1.9336726549424414 15.12727526943527 2 -1 1
676 1 2 -1.1794 8.564618857920712 2.0790947018280366 12.147282997090425 11 6 -2
787 1 2 -1.1794 1.0423560912621457 3.9365560480570707 12.552213414129763 5 -2 4
76 1 2 -1.1794 9.009658837318733 6.265987078939147 13.833549659384785 -2 -7 -5
423 1 1 0.5897 7.931260538876523 3.8397965050315923 16.0317547769126 -1 2 4
321 1 1 0.5897 3.2591327162373043 5.48810130577691 14.885446475181107 5 0 3
80 1 1 0.5897 5.927255348413967 4.564622075053151 13.763035365660977 7 4 -4
348 1 1 0.5897 5.182892254336228 5.40336713236014 12.130312365932575 -3 2 -6
78 1 1 0.5897 8.226773342832178 5.7324120422308145 13.696918024203267 -2 -7 -5
81 1 1 0.5897 5.920128408509746 6.059292869528187 14.003753901096857 7 4 -4
79 1 2 -1.1794 6.324836027640135 5.381745244887697 13.46205865038138 7 4 -4
205 1 2 -1.1794 2.0045866602177123 6.419126299825503 13.274783373058522 -5 6 -3
788 1 1 0.5897 1.4973917455191623 3.273115889743581 13.070943258878971 5 -2 4
741 1 1 0.5897 5.5149416276533385 2.463728737429966 13.097394396690074 4 2 2
789 1 1 0.5897 1.2398574342133606 4.762967914518914 12.993043355208712 5 -2 4
739 1 2 -1.1794 5.403517512819202 2.922254574890485 13.930252111202496 4 2 2
720 1 1 0.5897 3.1543959106378163 2.6196188601021624 14.409674124464955 0 5 4
347 1 1 0.5897 3.7161516037161313 5.216007707822401 11.80538428404248 -3 2 -6
320 1 1 0.5897 4.011864216680275 4.635311879653122 15.884537643727791 5 0 3
319 1 2 -1.1794 3.1697742298734695 4.709816005614181 15.435504179185777 5 0 3
113 1 1 0.5897 1.187903739073256 4.400946053036543 15.556562941222284 -3 3 3
575 1 1 0.5897 2.747410539193285 1.8284861238874333 11.88035659484741 1 6 0
346 1 2 -1.1794 4.593458520222779 5.094162225890795 11.44239037759421 -3 2 -6
691 1 2 -1.1794 7.530275844485118 2.042457976628337 15.451846777530028 2 -1 1
740 1 1 0.5897 6.168178052451671 2.669321967503599 14.447661640630072 4 2 2
718 1 2 -1.1794 2.5826463447630332 2.075671812433355 13.867917483500682 0 5 4
612 1 1 0.5897 7.655411799235841 3.5198466561094763 11.112714892152002 6 -1 -3
433 1 2 -1.1794 5.470351725115828 2.361519109656183 11.204546471161013 0 4 -5
664 1 2 -1.1794 5.391884411385398 4.30211193637807 16.979859509575768 2 2 6
304 1 2 -1.1794 7.4144632206880345 3.097691646831727 18.799400067907783 8 -4 -11
725 1 1 0.5897 3.0810654896063148 4.791624700668253 18.949599033270673 5 -5 3
421 1 2 -1.1794 8.17205348815741 4.5818178242064045 16.586498593656337 -1 2 4
171 1 1 0.5897 5.727083715821355 2.2227280542115952 18.516505404305477 -1 5 -3
781 1 2 -1.1794 6.206056289779078 4.441165443730393 20.810848367193508 -8 2 -3
726 1 1 0.5897 4.460915228336345 4.573050646434021 18.366274741657904 5 -5 3
154 1 2 -1.1794 1.335209889147237 4.805163380191834 18.66435212085836 5 4 -6
783 1 1 0.5897 5.467662262356771 4.8325585124829775 20.344081038333165 -8 2 -3
155 1 1 0.5897 1.1178450845676802 5.2175455992587825 17.828298257839357 5 4 -6
724 1 2 -1.1794 4.003544865090804 5.007638328277206 19.086161586963144 5 -5 3
577 1 2 -1.1794 2.744045766747265 2.1695374270055754 20.081828339746913 3 1 -3
665 1 1 0.5897 6.2731893585586835 4.54648760503437 16.697213020730295 2 2 6
156 1 1 0.5897 0.792071968334896 5.2628317829366775 19.306085741685294 5 4 -6
422 1 1 0.5897 8.094286072268385 4.248377489784803 17.480412410041644 -1 2 4
471 1 1 0.5897 2.985090317814057 3.6008573913395496 21.246863890322174 6 4 1
305 1 1 0.5897 7.7185223051067195 2.2787633999606265 19.19083125660171 8 -4 -11
306 1 1 0.5897 7.250455634946101 3.674133188804508 19.545834052855277 8 -4 -11
666 1 1 0.5897 5.485524822970784 3.409636575103175 17.313081218538706 2 2 6
782 1 1 0.5897 5.817821213834471 3.7304995930738043 21.321251083192458 -8 2 -3
170 1 1 0.5897 4.238648769107146 2.3145752794622023 18.777541611147676 -1 5 -3
169 1 2 -1.1794 4.878118737770059 1.9666195050827078 18.156024950326383 -1 5 -3
578 1 1 0.5897 1.8735952433244036 2.175041415873827 19.683573269704794 3 1 -3
564 1 1 0.5897 0.6009465447123397 3.159344994644023 18.888880698196644 2 -3 1
752 1 1 0.5897 7.4264809434333285 6.589717689388284 19.064723524820344 2 -3 0
29 1 1 0.5897 4.003768162491388 8.121701390396428 5.119438909216129 -7 6 7
369 1 1 0.5897 6.757841155960636 8.69414372948095 2.981762399984598 3 9 -5
102 1 1 0.5897 4.746619140021048 9.743326493097165 3.076933686193653 5 -4 0
101 1 1 0.5897 3.7853805889340713 10.40521212479506 4.041274274763398 5 -4 0
367 1 2 -1.1794 6.707015478759652 9.407020509561368 2.344940567509325 3 9 -4
90 1 1 0.5897 1.0813463387325177 8.695640208314106 1.2880550192689142 4 -5 1
786 1 1 0.5897 8.880907493757482 7.364660332598322 4.813254690240787 4 7 4
589 1 2 -1.1794 6.493567666412344 10.670250854837942 5.3065400266983875 7 2 4
329 1 1 0.5897 4.463279998127536 11.367406414086922 1.9054706817971765 1 5 0
368 1 1 0.5897 7.274825768300261 10.08949721877758 2.702846944961185 3 9 -4
328 1 2 -1.1794 4.5343992798060215 11.551430309052757 0.9687979910415239 1 5 0
47 1 1 0.5897 1.8853179563304823 8.066943585018432 4.64197319365611 4 -3 3
785 1 1 0.5897 8.382127375597989 8.676343136065142 5.381517376019861 4 7 4
710 1 1 0.5897 3.353030360225419 7.24279466609351 1.0877728502432744 1 1 2
48 1 1 0.5897 2.939199067046752 8.418532046484554 3.613507197273721 4 -3 3
100 1 2 -1.1794 3.8363079334459704 10.02639777401501 3.1636580009952597 5 -4 0
590 1 1 0.5897 6.1961263268701945 11.283653171975356 4.6345687930160295 7 2 4
784 1 2 -1.1794 8.628451048199892 8.252421924671111 4.559332002394351 4 7 4
28 1 2 -1.1794 4.946496785010744 8.254744583217391 5.218643817996821 -7 6 7
46 1 2 -1.1794 2.5229695625028965 7.6731622804754345 4.046478899473033 4 -3 3
52 1 2 -1.1794 2.9141627931380287 11.12433123268832 5.657346438332991 0 0 -1
30 1 1 0.5897 5.34351286690629 7.557549381979928 4.696555285779354 -7 6 7
591 1 1 0.5897 5.912480457529241 9.914970260781764 5.2161727846232315 7 2 4
94 1 2 -1.1794 8.439342699760822 11.614390985361258 3.1109810672973652 -9 -2 -2
709 1 2 -1.1794 4.216138204249907 6.830018445967885 1.0555093174302783 1 1 2
209 1 1 0.5897 7.696633354713645 11.766115764465951 1.394161592946718 -2 -6 7
53 1 1 0.5897 2.211363023618296 11.47734060441566 5.111689501613747 0 0 -1
330 1 1 0.5897 5.465925291736457 11.44837203645827 0.7740171654588067 1 5 0
380 1 1 0.5897 2.34384531147776 8.673939551495481 7.55971900837773 3 -3 -1
566 1 1 0.5897 1.975398289707547 6.867703520310636 10.31405613900951 -2 1 -4
379 1 2 -1.1794 1.7130327909920233 9.363048723380945 7.351173176559556 3 -3 -1
801 1 1 0.5897 8.379348831719103 10.721798898288169 8.854250091492906 -1 -1 5
61 1 2 -1.1794 2.7913650423358654 10.363987220955039 10.014952283689068 -1 1 3
460 1 2 -1.1794 3.49583401228413 7.425007227048947 7.5501158125069345 -3 2 -5
381 1 1 0.5897 1.6865648806394935 9.909828399551536 8.13643250326041 3 -3 -1
800 1 1 0.5897 8.230037357388314 11.276772916963393 10.254888453913503 -1 -1 5
84 1 1 0.5897 4.172634101474595 9.879249151249955 9.000729654880093 -6 1 -6
413 1 1 0.5897 7.397727399003454 9.873190996085016 6.675425652729844 3 1 4
412 1 2 -1.1794 8.033376389576675 9.498436987198065 7.285180649069615 3 1 4
62 1 1 0.5897 3.250436830420093 11.18401203756482 10.196914045171209 -1 1 3
83 1 1 0.5897 5.367639600473749 9.002228722558247 9.308635846054974 -6 1 -6
370 1 2 -1.1794 6.977944989809733 7.009159823435512 7.842408494478388 7 4 -4
565 1 2 -1.1794 2.5813091153963064 7.433150063266695 10.793032205080687 -2 1 -4
82 1 2 -1.1794 5.081953183616845 9.722220602100645 8.746255327567436 -6 1 -6
371 1 1 0.5897 6.402238404322284 6.968322849055846 8.60606587556586 7 4 -4
414 1 1 0.5897 7.677482728721229 8.637068639544093 7.5035611788423715 3 1 4
461 1 1 0.5897 4.245960845945131 7.963269703659796 7.297410870337859 -3 2 -5
567 1 1 0.5897 3.434437782084157 7.2638438454015795 10.393304044152512 -2 1 -4
106 1 2 -1.1794 5.419883208029932 7.414058019262866 10.02988840462406 -3 -2 2
441 1 1 0.5897 0.6250616855634163 8.026356565093534 7.704149223448018 -4 3 -1
843 1 1 0.5897 5.843218912563434 11.510699750836059 8.228654413454015 -7 2 -1
63 1 1 0.5897 2.7504077562824047 9.918954101876514 10.861448938260242 -1 1 3
468 1 1 0.5897 6.051298875397874 10.970422338415053 10.528042240912356 0 0 7
799 1 2 -1.1794 8.867394911706239 11.162442356637701 9.549912688346552 -1 -1 5
509 1 1 0.5897 9.099148211168627 7.0090399613615935 10.164401775896518 2 0 6
54 1 1 0.5897 2.534029963631255 10.345727575814312 6.064240277392361 0 0 -1
107 1 1 0.5897 5.548900226405687 7.9168191418587455 10.834165777010456 -3 -2 2
558 1 1 0.5897 5.904273946830251 10.220044226227374 15.44870257317572 1 1 2
376 1 2 -1.1794 4.739954102934654 7.265799235862097 14.921256357653325 7 8 -1
32 1 1 0.5897 2.357252133464923 9.640366508688864 13.736364134831248 2 7 3
467 1 1 0.5897 6.597215295354337 11.509491917939869 11.833184068979312 0 0 7
206 1 1 0.5897 2.1347712625121575 6.860655572103598 12.435502167216537 -5 6 -3
455 1 1 0.5897 8.695296334601974 8.907571231088426 15.716185467142394 3 -1 -1
748 1 2 -1.1794 1.7923268723870154 8.355213403442228 15.205958440893886 -2 6 0
33 1 1 0.5897 2.037153569588102 10.534478287338626 12.557334916827259 2 7 3
696 1 1 0.5897 5.424446892410308 9.587024250455638 12.993194731092709 0 -4 -2
377 1 1 0.5897 5.475629627723008 7.4407902041815595 15.50815591961347 7 8 -1
190 1 2 -1.1794 2.8883073303115534 11.05724302576043 15.279680043194311 2 3 -6
557 1 1 0.5897 6.0748147752409825 11.395988557281703 14.510536479355254 1 1 2
749 1 1 0.5897 2.5475574354284825 7.885028840342506 15.559269336289551 -2 6 0
191 1 1 0.5897 3.4978873872441394 10.596086026193868 15.855932412766185 2 3 -6
695 1 1 0.5897 4.007041103709664 9.140231278348535 12.704463771653657 0 -4 -2
694 1 2 -1.1794 4.902858591988405 8.812268496320788 12.783463790818084 0 -4 -2
556 1 2 -1.1794 6.221478956144548 10.452311958506712 14.57592423179167 1 1 2
456 1 1 0.5897 8.21687243061385 10.043120482022774 14.836603685744748 3 -1 -1
628 1 2 -1.1794 8.409147622302132 8.531655609509428 11.64868513892482 -2 -2 3
378 1 1 0.5897 4.8452836747443655 7.897186949319466 14.209540956391347 7 8 -1
454 1 2 -1.1794 8.971599347788267 9.745307455212536 15.34451954660159 3 -1 -1
192 1 1 0.5897 2.0210419828176827 10.7948774457195 15.588426363365997 2 3 -6
630 1 1 0.5897 7.844253999801124 9.296324474035057 11.537043836599642 -2 -2 3
31 1 2 -1.1794 2.266813817157068 9.633142782290653 12.78345014422254 2 7 3
77 1 1 0.5897 8.865875494092627 7.045066430074269 13.29629890431459 -2 -7 -5
750 1 1 0.5897 1.1386103971742543 8.318501295493524 15.904261779508298 -2 6 0
802 1 2 -1.1794 7.339545483298887 7.6348042215074745 16.027616825482973 8 4 -1
207 1 1 0.5897 1.8324626870793153 7.127912460687434 13.89469664323392 -5 6 -3
804 1 1 0.5897 7.610224818371617 6.776943262292925 15.700379558937584 8 4 -1
771 1 1 0.5897 0.7116178794966868 8.989933792720535 11.968882442052202 4 1 2
466 1 2 -1.1794 6.73598954559316 10.82309643629821 11.180578950596255 0 0 7
129 1 1 0.5897 2.2073526111658652 11.650092826526446 19.19145078260425 -3 0 -10
402 1 1 0.5897 3.5295470930343282 9.352881089261519 19.75273477811134 2 1 1
803 1 1 0.5897 7.212353845437672 7.504004184613483 16.96730319602443 8 4 -1
364 1 2 -1.1794 5.688072021988863 8.856494755165244 20.677283126096512 6 4 7
89 1 1 0.5897 2.075100075425197 8.879136890022266 21.04596284055667 4 -5 0
265 1 2 -1.1794 3.448797602807413 7.7357374532867755 18.61039351918074 -6 0 0
210 1 1 0.5897 7.667488318128433 11.312837478646241 20.83522536185896 -2 -6 6
266 1 1 0.5897 2.5487000828358313 7.7183266737920775 18.28512954952646 -6 0 0
401 1 1 0.5897 3.7869282763799923 10.605574172176857 20.56299401373937 2 1 1
457 1 2 -1.1794 8.383722386280121 9.73335498973122 19.87383071917916 -3 3 -3
249 1 1 0.5897 5.122356463103602 10.181766093690266 17.47059406249123 -5 2 -4
751 1 2 -1.1794 6.657682578341142 6.985616420836591 18.65423386713107 2 -3 0
400 1 2 -1.1794 3.102669336669256 10.146331526070188 20.075993134578248 2 1 1
88 1 2 -1.1794 1.5407835203133962 8.216404323172984 21.483698810449937 4 -5 0
248 1 1 0.5897 4.211158638000649 8.973404692252796 17.512822776940865 -5 2 -4
267 1 1 0.5897 3.653155172046102 6.820034561986023 18.80016639982066 -6 0 0
543 1 1 0.5897 7.002278380735365 11.25273899240348 18.390269445723327 -13 6 4
542 1 1 0.5897 6.210689938222257 10.263689072195064 19.219266986537782 -13 6 4
459 1 1 0.5897 8.563102908552269 8.887521570570971 20.284575496797686 -3 3 -3
753 1 1 0.5897 6.217187084649005 7.449091094942109 19.366587683464957 2 -3 0
541 1 2 -1.1794 6.1113757461570675 11.040374274083408 18.66863335132642 -13 6 4
858 1 1 0.5897 8.819955348009525 11.283896072993109 16.616034207886447 -2 0 -3
247 1 2 -1.1794 4.575056771577404 9.626593836324034 16.9151070404912 -5 2 -4
366 1 1 0.5897 5.087735588505266 8.179672160201811 20.990050033047957 6 4 7
49 1 2 -1.1794 9.101691420518298 7.480685345906534 21.482744591004796 5 -2 -4
365 1 1 0.5897 6.176659416972002 9.122486192446939 21.456321939893137 6 4 7
177 1 1 0.5897 0.567746355782166 10.90368208863924 17.11484986585382 -4 -4 5
458 1 1 0.5897 8.848880058635512 9.697713607100273 19.037983037277733 -3 3 -3
403 1 2 -1.1794 6.338380457427641 16.188500428694297 3.6789596183408504 9 -3 -4
96 1 1 0.5897 8.235705502535797 12.529444491997195 3.3046104081604866 -9 -2 -2
219 1 1 0.5897 0.7884540016971184 15.512209052233603 4.872654415481586 4 -2 2
604 1 2 -1.1794 0.6108550406883979 16.133754712362276 2.3133593098299796 -3 2 -1
714 1 1 0.5897 9.034082569058825 14.660853534368217 3.4423092889636258 1 1 3
38 1 1 0.5897 4.642063785188741 13.141538991111167 3.6002072118142956 -4 -5 -3
605 1 1 0.5897 0.7116841966656647 15.191467374832973 2.1784159295005328 -3 2 -1
405 1 1 0.5897 6.092130664147454 16.221689664351253 4.603373287374646 9 -3 -4
476 1 1 0.5897 2.853190383005506 13.650889888668193 2.2704743075017877 4 -5 -3
477 1 1 0.5897 2.2588517495888905 13.291666711799097 3.6157362066067322 4 -5 -3
404 1 1 0.5897 7.011916905331843 15.509805604939077 3.634235242722731 9 -3 -4
713 1 1 0.5897 8.271463636688694 13.99867337373803 4.570109805174699 1 1 3
756 1 1 0.5897 6.956963510606402 15.147229266711243 1.192690972634347 -8 -5 -5
146 1 1 0.5897 5.019707481559037 13.292030600961485 5.626278257942797 -2 3 -4
475 1 2 -1.1794 2.932023380240765 13.835354887992125 3.2064445395512164 4 -5 -3
712 1 2 -1.1794 8.203268480876568 14.230254264414018 3.643826941256327 1 1 3
755 1 1 0.5897 6.544579589395695 13.744798992186809 0.7987770737499776 -8 -5 -5
39 1 1 0.5897 6.079419335136311 13.423502360423022 3.21739268051818 -4 -5 -3
754 1 2 -1.1794 6.190526633229995 14.581058049101289 1.101426151413346 -8 -5 -5
243 1 1 0.5897 3.4156101612668084 15.866332256684593 3.3437832914248617 4 -3 5
37 1 2 -1.1794 5.53139913816315 12.800157812495481 3.694267442985252 -4 -5 -3
544 1 2 -1.1794 1.002817797997758 11.88379518224386 3.9404849514209523 -4 7 5
242 1 1 0.5897 4.594483879400559 16.812113154675394 3.2553356125054624 4 -3 5
241 1 2 -1.1794 3.6426524656552624 16.79618439060514 3.3555505148342584 4 -3 5
85 1 2 -1.1794 8.947387005920774 15.491427228720587 0.874669559369741 4 10 4
3 1 1 0.5897 4.934779779925568 15.75745708863086 0.7330136700951897 3 -10 6
532 1 2 -1.1794 5.483893271052573 16.47058691472354 6.189375599001245 -4 -2 0
416 1 1 0.5897 5.863492397277306 14.999272117949582 10.18821120522218 2 -4 -1
535 1 2 -1.1794 4.140019353886634 15.727199264077166 10.572079853712427 5 6 4
780 1 1 0.5897 8.527011288741221 14.86633896969504 10.671586664647863 -2 2 1
580 1 2 -1.1794 3.8911147647934983 12.689667345567397 10.931211525936675 5 -1 1
417 1 1 0.5897 6.435645994327511 13.728699603408426 9.596049194143081 2 -4 -1
173 1 1 0.5897 8.269885675083177 14.119162497056571 6.621191776110071 9 -1 -2
506 1 1 0.5897 2.0281453966523264 15.7259837033871 8.288036139094313 6 1 -2
570 1 1 0.5897 0.7036130368415203 13.529957624518648 8.81738000408768 5 4 1
145 1 2 -1.1794 4.930382707885931 13.86303636543 6.389337035434212 -2 3 -4
841 1 2 -1.1794 6.051471897166242 12.434563299423676 8.36790407738497 -7 2 -1
539 1 1 0.5897 1.9460778252506203 12.999247903129538 7.077964703862024 -10 -3 2
842 1 1 0.5897 5.595640559033931 12.89242685449258 7.661606589350503 -7 2 -1
174 1 1 0.5897 7.587872804243115 12.78013893717667 6.437088672385472 9 -1 -2
505 1 2 -1.1794 2.5550347820791885 16.515764730910394 8.410252900242856 6 1 -2
547 1 2 -1.1794 8.286063766633582 15.44697549439887 7.906711253379663 8 1 -1
538 1 2 -1.1794 1.8736285015148695 13.935433372279109 7.264013861614946 -10 -3 2
172 1 2 -1.1794 8.26796425297869 13.340913495917084 6.063869923219115 9 -1 -2
537 1 1 0.5897 3.4889095666573913 15.958012523479029 9.909417534992816 5 6 4
415 1 2 -1.1794 6.690231067514096 14.543826959957277 10.028609941494741 2 -4 -1
549 1 1 0.5897 8.153286943442776 16.394345759061828 7.873004277739912 8 1 -1
534 1 1 0.5897 5.36977838398481 15.521366330965037 6.236660903120839 -4 -2 0
582 1 1 0.5897 3.867080460535314 13.535584551782348 10.48385074364858 5 -1 1
540 1 1 0.5897 1.3207726997997447 14.277638267881803 6.561501306376435 -10 -3 2
548 1 1 0.5897 7.673967274769906 15.142539699074774 8.57674051665187 8 1 -1
147 1 1 0.5897 3.9920586063171126 13.865651575637632 6.578593522409451 -2 3 -4
569 1 1 0.5897 0.5643006897411311 14.188344439647688 10.173561299920404 5 4 1
533 1 1 0.5897 5.734370505072314 16.726709136307605 7.077034809592484 -4 -2 0
134 1 1 0.5897 2.5208360410203983 16.816450396783214 6.348176453711029 -1 -8 0
735 1 1 0.5897 6.418039197878626 13.882338886008537 15.303447344412977 1 2 -2
136 1 2 -1.1794 6.258148820853729 15.684019839303621 14.97738048688487 12 -13 1
524 1 1 0.5897 7.203089660304255 13.21493871527339 13.145778357253294 -2 2 4
137 1 1 0.5897 6.399890540790628 15.9838366363201 14.079434985389783 12 -13 1
8 1 1 0.5897 3.593417782090509 12.48309855000961 14.032854347683017 8 5 3
7 1 2 -1.1794 3.7530705275604004 13.354851062076666 13.671119061304813 8 5 3
494 1 1 0.5897 3.494102340845912 15.761622103689172 13.927534081933699 4 -1 0
581 1 1 0.5897 3.8054559149420637 12.906626455290384 11.859581601936895 5 -1 1
198 1 1 0.5897 8.088236952823042 15.606889168878912 15.834796869504837 -2 -4 -4
733 1 2 -1.1794 6.185401298935842 13.065022872491342 15.744109619019598 1 2 -2
493 1 2 -1.1794 3.4748281165958432 16.595134957820388 13.457244648538028 4 -1 0
168 1 1 0.5897 2.0793110856181007 13.07490507098537 15.895569753622732 1 0 3
9 1 1 0.5897 4.700815842765402 13.47210955275697 13.736904767609262 8 5 3
523 1 2 -1.1794 6.4389386934137764 13.006124886066157 12.608378023110053 -2 2 4
525 1 1 0.5897 6.50063516282665 13.601941735675167 11.861719807019968 -2 2 4
138 1 1 0.5897 5.445425684030212 16.111480955230903 15.247657186742549 12 -13 1
275 1 1 0.5897 1.4586026758684345 12.76679114638935 11.55967700626514 -5 1 4
536 1 1 0.5897 3.90968130012013 16.262513152958185 11.331476615517918 5 6 4
117 1 1 0.5897 8.941099149367858 14.580292874790272 13.815278443373597 -8 2 3
323 1 1 0.5897 3.099512040077311 16.520221399094247 16.0873173584014 8 2 -1
167 1 1 0.5897 1.4225419870606633 13.244260870923723 14.542019378639807 1 0 3
274 1 2 -1.1794 1.1860326457122035 12.201260971748455 12.282282166080988 -5 1 4
115 1 2 -1.1794 8.796995866632049 13.64495277956024 13.959092095272556 -8 2 3
166 1 2 -1.1794 1.2978274103795866 13.430889012078092 15.4726148800439 1 0 3
71 1 1 0.5897 0.6212620931535522 16.73445823025351 16.078750583053004 15 -4 0
734 1 1 0.5897 5.427991171074573 13.290720601363155 16.284200250885277 1 2 -2
529 1 2 -1.1794 6.434306467196293 16.803162002882736 12.419245688952715 2 -3 -7
584 1 1 0.5897 3.544643458144032 14.66081633666126 16.995363009751173 -2 -10 2
119 1 1 0.5897 7.120852583222425 13.99741572974522 18.720916683115945 5 -4 -2
588 1 1 0.5897 5.4023768121253575 12.56526888518881 19.396909490366724 2 5 3
196 1 2 -1.1794 8.732560243000108 15.604912694855267 16.542698481070353 -2 -4 -4
1 1 2 -1.1794 4.490581003115988 16.53603370991274 21.28240221579501 3 -10 5
585 1 1 0.5897 4.408107473612693 13.78459355354952 17.877785274377707 -2 -10 2
118 1 2 -1.1794 7.872722634572301 14.573192995374804 18.86044550804131 5 -4 -2
160 1 2 -1.1794 2.043044457896121 15.819676337847927 19.674507155782038 3 5 0
583 1 2 -1.1794 3.7213180848004237 13.745358935494737 17.212157469296145 -2 -10 2
120 1 1 0.5897 7.500696926968773 15.455101754155883 18.87220074126388 5 -4 -2
587 1 1 0.5897 5.2105912393442155 13.739607064670343 20.332944507990682 2 5 3
358 1 2 -1.1794 0.5896871521864036 15.339346911075786 17.248623824484127 8 7 -8
2 1 1 0.5897 3.733588110822395 16.194010384003985 20.80669341886354 3 -10 5
272 1 1 0.5897 2.1285302354974887 13.739469335592812 20.61877107726565 -6 3 4
586 1 2 -1.1794 5.137526951677508 13.484981167510915 19.413104066203154 2 5 3
128 1 1 0.5897 2.5623383374919455 12.851773481794767 18.34177139966095 -3 0 -10
86 1 1 0.5897 9.100861721765037 14.708509970576342 21.230963550535172 4 10 3
161 1 1 0.5897 1.3197531416513848 16.096953388385842 20.23686537019733 3 5 0
197 1 1 0.5897 8.29226185952897 15.15972804655113 17.266735988757553 -2 -4 -4
271 1 2 -1.1794 2.3911568745063985 13.487509831047012 21.504110458090395 -6 3 4
322 1 2 -1.1794 3.9548091840254114 16.413570339742783 16.503702703687672 8 2 -1
162 1 1 0.5897 1.6187829714461555 15.497010531708588 18.879400689717713 3 5 0
857 1 1 0.5897 7.786021938460137 12.385245788792645 16.515825509380996 -2 0 -3
273 1 1 0.5897 3.098013617295392 12.855289250567399 21.373988635905356 -6 3 4
127 1 2 -1.1794 1.8177146752230693 12.393849329291443 18.731794661401658 -3 0 -10
360 1 1 0.5897 0.678579580857652 14.696162595895473 16.54525233711148 8 7 -8
856 1 2 -1.1794 8.417694912778387 11.992519338504346 17.118354619131615 -2 0 -3
208 1 2 -1.1794 7.243354237547818 11.912442471833296 21.449118021439013 -2 -6 6
498 1 1 0.5897 0.7790693203107069 12.062346675544635 21.369044835426585 8 -1 0
512 1 1 0.5897 0.7570528182662191 20.5803975989346 3.1105127830931436 4 2 3
307 1 2 -1.1794 3.0859753205579117 19.70331484078298 5.662135137943302 2 1 -7
224 1 1 0.5897 0.7951248933459751 17.91268241436495 3.135384072291182 5 -1 -5
260 1 1 0.5897 8.272864637701069 20.856129203864935 4.333403372867517 3 -2 8
836 1 1 0.5897 7.7267093182976145 17.472826382449743 4.428712438923911 0 1 -5
571 1 2 -1.1794 5.625826392342755 18.763544231556633 1.837283677220448 3 1 -3
627 1 1 0.5897 5.667535695193927 20.547196449362694 4.3380523694343385 -5 -5 4
625 1 2 -1.1794 5.666274178777717 19.611957196754645 4.542034762574799 -5 -5 4
309 1 1 0.5897 2.6606387044766837 18.848175216428668 5.597837742603136 2 1 -7
335 1 1 0.5897 2.9662507697074796 19.681547568272055 2.076085423230988 0 -3 6
133 1 2 -1.1794 2.0485221790262482 17.16328266436949 5.591271357719214 -1 -8 0
572 1 1 0.5897 6.545389034607729 18.50789897636881 1.910345682119992 3 1 -3
308 1 1 0.5897 3.9161443687857256 19.5939256137484 5.198312597155402 2 1 -7
626 1 1 0.5897 5.602567641872465 19.18054967728024 3.6899070000023912 -5 -5 4
743 1 1 0.5897 8.266205067133406 20.363293138264083 2.379486923938698 1 -1 2
336 1 1 0.5897 2.8976782717237817 18.169996165421022 2.0256234358608287 0 -3 6
334 1 2 -1.1794 2.5894454900379653 18.957148644551197 1.576542432463821 0 -3 6
742 1 2 -1.1794 7.743692632316017 21.157127365858486 2.4939173030478274 1 -1 2
573 1 1 0.5897 5.229254384277481 18.080947347979475 1.2959170839992251 3 1 -3
282 1 1 0.5897 2.4394997009726334 21.422684676732462 2.8148950579166945 -6 -3 0
280 1 2 -1.1794 3.3691830664798377 21.21489906007372 2.720888845261927 -6 -3 0
259 1 2 -1.1794 8.830113156156752 20.49217122014717 5.021363069144994 3 -2 8
815 1 1 0.5897 2.1482061881620425 21.32279961313112 5.4642845697838975 -3 7 -6
516 1 1 0.5897 6.28351788208471 21.542403192212983 1.5786526692288603 -5 -5 4
820 1 2 -1.1794 8.35852487018153 18.34011245207362 1.866269385008863 -1 3 7
261 1 1 0.5897 8.831237129143856 19.549404426529726 4.855619244304796 3 -2 8
744 1 1 0.5897 8.292900348945977 21.85850927019631 2.1436054600869263 1 -1 2
835 1 2 -1.1794 8.592121703289195 17.703097693101903 4.766827358593151 0 1 -5
837 1 1 0.5897 8.526949083097888 17.55940844059591 5.710964856007927 0 1 -5
281 1 1 0.5897 3.766047650433409 21.514980859376642 3.5386785448199682 -6 -3 0
821 1 1 0.5897 9.038971298110962 17.835909493717583 2.3124382691409355 -1 3 7
822 1 1 0.5897 8.656952998815186 18.395157788933375 0.9583976838939097 -1 3 7
225 1 1 0.5897 0.5938840569006081 18.2932040252489 4.586842783648146 5 -1 -5
511 1 2 -1.1794 0.8247189783899036 21.5289104292939 3.000800969691064 4 2 3
515 1 1 0.5897 4.805028870788252 21.8659389461028 1.6162336414770402 -5 -5 4
135 1 1 0.5897 2.634113105436488 17.006436227586214 4.85048551958333 -1 -8 0
807 1 1 0.5897 4.412881591456248 19.326971329854008 10.53817424260584 4 -5 -5
482 1 1 0.5897 6.846786609187116 20.662772975926107 8.877168425681695 -4 -2 -4
486 1 1 0.5897 1.2107282104359542 19.2388443119715 7.697497938619841 -1 7 -1
214 1 2 -1.1794 4.316876445595955 19.973990933166085 8.755898310865975 1 -4 6
485 1 1 0.5897 2.587816638788281 19.27856022205182 8.32524013530929 -1 7 -1
216 1 1 0.5897 4.941680017273328 19.41262726682178 8.2968031888336 1 -4 6
481 1 2 -1.1794 7.085229405608748 20.744674443602133 9.80060057534118 -4 -2 -4
228 1 1 0.5897 0.8301100845578016 19.925296562082043 9.827658682124799 5 -5 -2
721 1 2 -1.1794 8.142154499668237 18.32152164287217 10.876993579999048 6 0 -2
598 1 2 -1.1794 5.803898475016594 17.606132963402437 9.00723273353348 3 -3 -3