LAMMPS data file via write_data, version 30 Jul 2021, timestep = 40500000

864 atoms
2 atom types
576 bonds
1 bond types
288 angles
1 angle types

0.1761255701023785 18.03144682989807 xlo xhi
0.20551437819985985 23.423663421806946 ylo yhi
0.10257293768066233 22.110622862314226 zlo zhi

Masses

1 1.00794
2 15.9994

Atoms # full

707 1 1 0.5897 2.841386574618049 1.913920707331809 3.7698087785054675 0 0 0
706 1 2 -1.1794 2.8817722807716364 1.8452198112656055 2.8159409525066974 0 0 0
30 1 1 0.5897 5.163363316508748 3.867960545374593 2.265605832237515 0 0 0
708 1 1 0.5897 2.0754957015283493 2.2614371055849523 2.511015453827481 0 0 0
29 1 1 0.5897 4.410764477747007 2.558669637987487 2.1592300524796557 0 0 0
28 1 2 -1.1794 5.218325155696194 2.9922001505926064 1.8831801310025145 0 0 0
495 1 1 0.5897 8.194156068842293 2.352489029295011 2.698769109755446 0 0 0
1 1 2 -1.1794 0.5904436984814503 3.1532072047445587 2.0285633403349257 0 0 0
494 1 1 0.5897 6.681619216605249 2.292891457768453 2.727790459901761 0 0 0
493 1 2 -1.1794 7.462755266427111 1.8755765090930963 3.091065677493155 0 0 0
846 1 1 0.5897 7.380992862246319 1.9101279236315833 4.80826385357359 0 0 0
3 1 1 0.5897 0.6787360764347291 4.0000824395687165 2.4658533447184703 0 0 0
136 1 2 -1.1794 5.147168479459174 5.518858544031375 2.9268879386222877 0 0 0
137 1 1 0.5897 5.183067299237816 5.50081113608042 3.8832320407297813 0 0 0
597 1 1 0.5897 0.7966768549932074 5.795376633931773 4.024257224780692 0 0 0
595 1 2 -1.1794 0.8587838592113881 5.726076973299912 3.0716005340720107 0 0 0
20 1 1 0.5897 0.7863987148488396 3.1903142095910324 0.15901525396798372 0 0 0
819 1 1 0.5897 7.40996186987594 0.22538192820575834 2.363610474116025 0 0 0
668 1 1 0.5897 5.334036552351167 2.9269798502247393 0.14751218841074104 0 0 0
487 1 2 -1.1794 2.864687562488886 1.90847194362378 5.578818261053612 0 0 0
419 1 1 0.5897 8.74556358213182 2.7254922208179218 6.401051591686288 0 0 0
685 1 2 -1.1794 5.237037135089804 5.665490580264754 5.678761701742385 0 0 0
673 1 2 -1.1794 2.9569649183449034 1.9187675362354013 10.478349188032777 0 0 0
181 1 2 -1.1794 0.9359447737825182 5.746562363000779 5.812915562642582 0 0 0
274 1 2 -1.1794 5.1184154893350335 3.2009017459819153 9.533638324198407 0 0 0
82 1 2 -1.1794 5.080594897074651 3.129517664020845 6.7665449745019055 0 0 0
84 1 1 0.5897 5.841307271603475 2.6957228556281705 6.379986060583149 0 0 0
112 1 2 -1.1794 0.9065292568507023 5.769704466713317 10.276144608777908 0 0 0
176 1 1 0.5897 9.013874118901024 2.823540999261984 9.747695726607022 0 0 0
83 1 1 0.5897 4.3273861842117425 2.6954052469353886 6.36590258092322 0 0 0
183 1 1 0.5897 0.8505496898982078 4.823829049115012 6.052678137549649 0 0 0
489 1 1 0.5897 2.8861187219847553 1.0254998886380187 5.947753739307025 0 0 0
675 1 1 0.5897 3.047795002828068 1.0226262673133433 10.154470896080001 0 0 0
785 1 1 0.5897 0.7196310077928592 3.205465558389924 7.611666941524691 0 0 0
356 1 1 0.5897 7.407260326807234 1.1134325588674399 10.026075307885558 0 0 0
676 1 2 -1.1794 5.381075205854759 5.790699078105973 10.46903670526825 0 0 0
686 1 1 0.5897 5.213829606634865 4.794260156552977 6.074533075519358 0 0 0
355 1 2 -1.1794 7.5535872873084 2.0106290874174433 10.32583566821616 0 0 0
276 1 1 0.5897 5.915856712130037 2.767891401146481 9.838409803712885 0 0 0
488 1 1 0.5897 2.128388594565603 2.3342552046134712 6.017978909327708 0 0 0
845 1 1 0.5897 7.376674097720531 1.0300085680333535 6.040016988840679 0 0 0
674 1 1 0.5897 3.653366050305281 2.4051665931954824 10.037070732613929 0 0 0
844 1 2 -1.1794 7.309204673565399 1.943499621202002 5.762172735876666 0 0 0
34 1 2 -1.1794 0.7903133708163276 3.1166970902582483 9.409157819928312 0 0 0
678 1 1 0.5897 5.400764357516268 4.903400423492221 10.110525384225886 0 0 0
784 1 2 -1.1794 0.7372166618110596 3.1958861374797554 6.654688614452167 0 0 0
35 1 1 0.5897 0.8160781428848609 3.9956858476888075 9.787217073072943 0 0 0
36 1 1 0.5897 1.544615195387439 2.6686108559886725 9.791955801644749 0 0 0
275 1 1 0.5897 5.141322724782995 3.1035550058803256 8.581689033496538 0 0 0
166 1 2 -1.1794 3.307772051307906 2.055391649993872 13.281356383077565 0 0 0
167 1 1 0.5897 3.24657625970032 2.0310570386354065 12.326436257227307 0 0 0
457 1 2 -1.1794 5.459387844660541 3.4406560410838862 14.22752790103981 0 0 0
458 1 1 0.5897 6.202144702902747 2.969910730393002 13.849359231844838 0 0 0
459 1 1 0.5897 4.689422079027732 2.96792223197851 13.911350749823677 0 0 0
762 1 1 0.5897 5.305840224021842 5.0725347028966725 13.57830642476343 0 0 0
594 1 1 0.5897 8.318775422799067 2.3706307171641945 13.36231968119331 0 0 0
168 1 1 0.5897 2.53032882484037 2.5397244214277763 13.559381224439376 0 0 0
71 1 1 0.5897 5.454875780698349 3.34599427748922 16.010239640535744 0 0 0
592 1 2 -1.1794 7.513533193878776 1.9423495160911735 13.071699692434319 0 0 0
466 1 2 -1.1794 0.8905371201709822 3.334080614884149 13.876108117745716 0 0 0
593 1 1 0.5897 7.596254882985255 1.0403974075156968 13.38131204826145 0 0 0
468 1 1 0.5897 0.8483149756716702 3.308189285312991 14.832013704868327 0 0 0
365 1 1 0.5897 0.7418980532361822 5.031048899559472 13.2138807957728 0 0 0
761 1 1 0.5897 5.294045471391907 5.8471644092102935 12.277666539246464 0 0 0
357 1 1 0.5897 7.578514872332182 1.943687527402536 11.280355270877894 0 0 0
760 1 2 -1.1794 5.246276112335468 5.960884299037386 13.226876154014702 0 0 0
364 1 2 -1.1794 0.6730302773509416 5.949482551625684 12.953203903815515 0 0 0
113 1 1 0.5897 0.8459200642711733 5.879950662585013 11.225028821337862 0 0 0
737 1 1 0.5897 3.0075591624997355 0.43105162360406707 13.858822548447465 0 1 0
323 1 1 0.5897 7.406862033035973 0.33694282314882473 17.11575631493172 0 1 0
133 1 2 -1.1794 0.764427314173402 3.176672128598455 16.63965227153044 0 0 0
289 1 2 -1.1794 3.126287119587244 2.0150478224369097 17.62539328432839 0 0 0
277 1 2 -1.1794 5.414004699867207 5.9693925834491814 17.816232384987792 0 0 0
42 1 1 0.5897 7.677638789216468 0.8698328061423605 20.762665794670763 0 0 0
669 1 1 0.5897 4.560685371759616 2.583969882966465 20.90009539017825 0 0 0
569 1 1 0.5897 2.2335685820896685 2.337713772217366 20.67144105368415 0 0 0
72 1 1 0.5897 4.651628960937805 2.936941336567512 17.22654367765341 0 0 0
41 1 1 0.5897 6.9416456998841305 2.1917375590291566 20.70973671301271 0 0 0
278 1 1 0.5897 5.451975159862063 5.073138988086139 17.482309100910793 0 0 0
142 1 2 -1.1794 5.096539965867005 5.65496963418781 20.523496526161367 0 0 0
291 1 1 0.5897 2.355737766128376 2.4465850203771864 17.25616784651284 0 0 0
755 1 1 0.5897 7.757780670340663 1.885848306736936 18.64887569540916 0 0 0
756 1 1 0.5897 6.8951217445127275 2.4507680331607298 17.54044201990722 0 0 0
143 1 1 0.5897 5.207795927054445 4.721707682584307 20.70476695729506 0 0 0
290 1 1 0.5897 3.0236357426751037 1.0941295001036866 17.38541542226884 0 0 0
570 1 1 0.5897 2.9819005083978425 1.9309073846797051 19.419873873097607 0 0 0
134 1 1 0.5897 0.7555069079100245 4.045426308608127 17.041399299317018 0 0 0
568 1 2 -1.1794 3.006395761789119 1.8575901529646273 20.373935345378825 0 0 0
667 1 2 -1.1794 5.370228660396011 2.9963392190921123 21.201575272965464 0 0 0
648 1 1 0.5897 0.6095625451401286 5.820553300653319 19.516460237156203 0 0 0
19 1 2 -1.1794 0.7911278092305342 3.2038404132749534 21.2099838359369 0 0 0
40 1 2 -1.1794 7.738265033430498 1.7561926884646448 20.406429686986876 0 0 0
646 1 2 -1.1794 0.565667019243532 5.759307197771083 20.470679476150277 0 0 0
144 1 1 0.5897 5.1302534341081705 5.719747696330411 19.569095156982186 0 0 0
70 1 2 -1.1794 5.468737271785208 3.3628109690630072 16.967178984560682 0 0 0
754 1 2 -1.1794 7.693249320216596 1.9456224765641743 17.695736541645495 0 0 0
21 1 1 0.5897 0.7064774557841014 4.129780490919819 20.9826390500704 0 0 0
571 1 2 -1.1794 0.8717461902074689 5.637125961058273 17.713805467520277 0 0 0
81 1 1 0.5897 3.0804610914768618 0.226047805334197 21.08882101825489 0 1 0
123 1 1 0.5897 3.069292881244376 8.765147920256108 2.889860738284677 0 0 0
121 1 2 -1.1794 3.0338473386660403 9.675411547337399 3.1837663490068806 0 0 0
122 1 1 0.5897 3.074402884810293 9.621067437496034 4.138549973952052 0 0 0
44 1 1 0.5897 1.5209253025898624 10.517533061894886 2.509807474304961 0 0 0
218 1 1 0.5897 5.918969772689404 10.699353062820242 2.421759149728235 0 0 0
417 1 1 0.5897 8.099342191640748 6.703070133405478 2.4289372993377296 0 0 0
219 1 1 0.5897 4.411599893853623 10.610460333679091 2.5317339835522112 0 0 0
254 1 1 0.5897 2.9615514688491156 7.104317365899538 1.3001067754188464 0 0 0
415 1 2 -1.1794 7.269974768133101 7.074758522234746 2.1284346553377196 0 0 0
217 1 2 -1.1794 5.113504429310717 11.14934492843391 2.1667426905189644 0 0 0
66 1 1 0.5897 7.320198158642028 9.762470716164485 3.8424018629563417 0 0 0
65 1 1 0.5897 7.205688161054452 8.82309005629151 2.6607493608449304 0 0 0
64 1 2 -1.1794 7.336614056975695 9.744259209039509 2.885526461921037 0 0 0
253 1 2 -1.1794 3.049297736035154 7.133463589128479 2.2528201173670164 0 0 0
255 1 1 0.5897 2.2894407050651195 6.651042486429865 2.5786648833310917 0 0 0
416 1 1 0.5897 6.608743399757784 6.439304147918774 2.4027387997818845 0 0 0
43 1 2 -1.1794 0.7304901850905382 10.926943945549237 2.157829073648212 0 0 0
138 1 1 0.5897 4.377126377396314 6.050666940281751 2.725629691346047 0 0 0
162 1 1 0.5897 7.338149115947054 7.025406559614995 0.3362131700003194 0 0 1
396 1 1 0.5897 0.8555853097995897 10.939029871366031 0.3745697149824914 0 0 0
773 1 1 0.5897 8.88699478980162 10.529512291934806 2.3552235147281633 0 0 0
712 1 2 -1.1794 7.353116875203059 9.787833381450938 5.55546375389998 0 0 0
363 1 1 0.5897 5.179749177516991 10.967825212931519 0.3519085837020808 0 0 1
793 1 2 -1.1794 3.016294125114539 9.490525209368695 6.012003750120748 0 0 0
649 1 2 -1.1794 3.184398813755339 7.193429112423395 9.62998336653905 0 0 0
165 1 1 0.5897 8.900013080520147 6.24556917811339 6.069710139439607 0 0 0
528 1 1 0.5897 8.304694335844616 6.591208779890296 9.632259475342765 0 0 0
794 1 1 0.5897 2.226699060108805 9.985902491417326 6.229801169453159 0 0 0
10 1 2 -1.1794 3.1187210910789864 6.921384921558394 6.944273964833606 0 0 0
13 1 2 -1.1794 0.9212565560499373 11.143230547015044 9.445457292949976 0 0 0
145 1 2 -1.1794 7.390616917221266 7.13481991940311 6.475815389672469 0 0 0
714 1 1 0.5897 7.415148048013062 8.888741957077015 5.877966423716607 0 0 0
527 1 1 0.5897 7.539482183997181 7.895772393980471 9.565170423391315 0 0 0
713 1 1 0.5897 8.092471940458367 10.24008587698059 5.961802545896065 0 0 0
551 1 1 0.5897 0.842299735671916 11.071657374957038 7.684540993912567 0 0 0
257 1 1 0.5897 3.1019331731467576 8.858371684726372 10.179561491033102 0 0 0
687 1 1 0.5897 4.475154772653436 6.115380588425079 6.044038044323698 0 0 0
820 1 2 -1.1794 7.564726765355415 9.56134305951811 10.123287784346754 0 0 0
580 1 2 -1.1794 5.354596510365561 11.038765319733416 9.538653704157221 0 0 0
146 1 1 0.5897 6.614807158389011 6.623949483923419 6.244683796640811 0 0 0
677 1 1 0.5897 6.158795410135306 6.213857639268354 10.105189760909802 0 0 0
15 1 1 0.5897 1.7068397192680085 10.732886530946494 9.80708105944981 0 0 0
114 1 1 0.5897 1.688165431253757 6.262767959272296 10.026693357181289 0 0 0
11 1 1 0.5897 2.338496334919934 6.516133194845588 6.56570527525116 0 0 0
258 1 1 0.5897 3.831117910893644 10.179524122733646 10.058037340228916 0 0 0
822 1 1 0.5897 8.344403889074119 10.041714372031182 9.844648596004523 0 0 0
577 1 2 -1.1794 5.195871385560286 10.962982191342084 6.782296948594718 0 0 0
550 1 2 -1.1794 0.7820759392022714 10.98239946995169 6.7334284222948595 0 0 0
795 1 1 0.5897 3.738151840180354 10.066512368577664 6.263884655548819 0 0 0
578 1 1 0.5897 5.9404281743564225 10.520623909947998 6.37457214523572 0 0 0
12 1 1 0.5897 3.097093742289458 7.824759848591966 6.628582385563451 0 0 0
147 1 1 0.5897 7.389754186386058 7.152791936418912 7.432835358102406 0 0 0
650 1 1 0.5897 3.1229168768784623 7.1035021357505626 8.679012756372337 0 0 0
581 1 1 0.5897 6.1069005061558626 10.49289566387007 9.767457864885406 0 0 0
651 1 1 0.5897 3.9721034151005785 6.703849029623073 9.866910556393496 0 0 0
526 1 2 -1.1794 7.506580804266166 6.983303564648404 9.277887788333246 0 0 0
256 1 2 -1.1794 3.028244753142294 9.786747914217488 10.400705517129582 0 0 0
582 1 1 0.5897 5.339093467267792 11.037059073245969 8.581593284173119 0 0 0
821 1 1 0.5897 7.569926788999454 9.628548958245995 11.078099023183816 0 0 0
828 1 1 0.5897 7.560784096687999 7.209478639222984 14.93725206923168 0 0 0
261 1 1 0.5897 1.0462484859262773 11.007715811449028 14.967417660829271 0 0 0
332 1 1 0.5897 3.0551640894424974 8.080216317020824 13.669843480658994 0 0 0
797 1 1 0.5897 3.1550334728712954 9.787944804871291 12.179693471878538 0 0 0
796 1 2 -1.1794 3.2557582941348473 9.806267476466394 13.131391300981628 0 0 0
798 1 1 0.5897 2.4619725189603088 10.237159570250641 13.448463201876333 0 0 0
722 1 1 0.5897 4.763734255823979 10.661895049469585 13.705896792418635 0 0 0
259 1 2 -1.1794 1.0294923733061185 11.067480946219238 14.012244592686105 0 0 0
721 1 2 -1.1794 5.534486009748361 11.10452503452896 14.061302282001838 0 0 0
723 1 1 0.5897 5.493994481152581 10.93786629814671 15.003001432670903 0 0 0
331 1 2 -1.1794 2.8882858009747667 7.184704671024482 13.963829564304735 0 0 0
225 1 1 0.5897 3.06489570396166 6.972739948613294 15.847521573813715 0 0 0
826 1 2 -1.1794 7.603566665477279 7.170151434783449 13.981829528540718 0 0 0
475 1 2 -1.1794 7.60724219601193 9.737636159049055 12.905361403846445 0 0 0
476 1 1 0.5897 6.890926174579001 10.239847563883309 13.293893409270582 0 0 0
477 1 1 0.5897 7.552046696407689 8.87823939858806 13.323221514413577 0 0 0
827 1 1 0.5897 6.791542204312808 6.734360177890343 13.722983018667085 0 0 0
333 1 1 0.5897 3.654582004409633 6.690042063358194 13.673331745977887 0 0 0
366 1 1 0.5897 1.4720064472613057 6.355085477860246 13.289982016510226 0 0 0
851 1 1 0.5897 9.034208080626085 6.249223769153471 13.371128235528847 0 0 0
260 1 1 0.5897 0.2595477447101473 10.560961831225864 13.753566658777588 0 0 0
446 1 1 0.5897 0.8896922263668292 11.706333018557533 17.053325571298934 0 0 0
362 1 1 0.5897 5.338359251406379 11.71887135095665 21.05511552407711 0 0 0
520 1 2 -1.1794 7.527401861742467 7.277094658092997 16.691415585681384 0 0 0
680 1 1 0.5897 4.646695309663632 10.412800833215584 17.101450299939863 0 0 0
679 1 2 -1.1794 5.4704361232961976 10.832435843821079 16.853130958228306 0 0 0
445 1 2 -1.1794 0.9107094580494168 10.80643957072412 16.727806996763896 0 0 0
279 1 1 0.5897 4.594370382240663 6.320644671337968 17.46820052281892 0 0 0
647 1 1 0.5897 1.36922806415318 6.1808729064346295 20.775427654796204 0 0 0
287 1 1 0.5897 9.067506765805982 10.417437990440058 21.055764015494542 0 0 0
160 1 2 -1.1794 7.359542763255498 6.96035818296106 21.38952758939694 0 0 0
5 1 1 0.5897 3.6472728142950435 6.6069926946435 21.172709089238865 0 0 0
6 1 1 0.5897 2.9006114583919342 7.923362532721014 21.13278377084776 0 0 0
140 1 1 0.5897 6.700176586383071 9.939549763676713 20.832712742209157 0 0 0
688 1 2 -1.1794 3.0619378576414142 9.602410024597097 20.39285021283328 0 0 0
394 1 2 -1.1794 0.9095547831562188 10.920410899160744 21.42713513800175 0 0 0
711 1 1 0.5897 8.92607504563309 6.3163556422749885 17.349658035660802 0 0 0
521 1 1 0.5897 6.72958794244964 6.900186744494575 17.06253862604513 0 0 0
689 1 1 0.5897 3.832873927568359 10.027286612408545 20.768919938794816 0 0 0
690 1 1 0.5897 2.3223675409706788 10.116077833799562 20.717606242434087 0 0 0
223 1 2 -1.1794 3.1117939410495676 6.8890056837408205 16.79988787911704 0 0 0
626 1 1 0.5897 3.107338604745262 9.582644523557445 18.592691074165277 0 0 0
4 1 2 -1.1794 2.8674794786693316 7.04558433429591 21.513078956343982 0 0 0
224 1 1 0.5897 3.1394248471293738 7.791001440063358 17.119031779394582 0 0 0
141 1 1 0.5897 7.473053025203871 8.63956829961712 20.900858746192814 0 0 0
522 1 1 0.5897 7.604151521379212 8.135079337583837 17.108774016772227 0 0 0
161 1 1 0.5897 6.540415483532406 6.521182129908414 21.1604968121882 0 0 0
361 1 2 -1.1794 5.295568916886471 10.834655294740895 21.419181218282695 0 0 0
627 1 1 0.5897 2.3557462811140963 9.937080859153673 17.3272265135628 0 0 0
8 1 1 0.5897 7.640337000638842 9.662618172982171 18.78785452000676 0 0 0
625 1 2 -1.1794 3.1620822371097836 9.525897200417004 17.63875642261351 0 0 0
9 1 1 0.5897 6.956973398580789 10.13029940425213 17.52048324844314 0 0 0
139 1 2 -1.1794 7.513757906697454 9.5265179256866 20.543248365736122 0 0 0
572 1 1 0.5897 1.6414042224438985 6.111329993438472 17.399087701846835 0 0 0
7 1 2 -1.1794 7.7580421929034475 9.714444083690402 17.83934182186546 0 0 0
462 1 1 0.5897 8.822567811252718 6.110474816323228 20.72940464265788 0 0 0
681 1 1 0.5897 5.3571539159501 11.749650288108421 17.102327886599934 0 0 0
200 1 1 0.5897 5.18522609446394 13.56313359635057 5.097116078724967 0 0 0
173 1 1 0.5897 4.521134876522004 14.06329464605801 2.7877053085505192 0 0 0
172 1 2 -1.1794 5.213768420158835 13.611751051779743 3.270036654406983 0 0 0
293 1 1 0.5897 3.051115232399996 16.598052822902424 2.6542438628669687 0 0 0
558 1 1 0.5897 3.1524705195522182 14.86624410588333 1.0667684506078041 0 0 0
556 1 2 -1.1794 3.1767654125577907 14.918930343513562 2.022196191404004 0 0 0
557 1 1 0.5897 2.424787853089252 14.401412583444584 2.3102795886753533 0 0 0
478 1 2 -1.1794 7.406432909305228 14.742163085837761 2.067064167000699 0 0 0
174 1 1 0.5897 5.232762074593363 12.73136750323111 2.894826769356238 0 0 0
479 1 1 0.5897 8.186525435146045 14.299971036255931 2.4020493273858636 0 0 0
449 1 1 0.5897 7.544376697561739 16.378070820924947 2.636732306437934 0 0 0
480 1 1 0.5897 6.675701105210762 14.300531079685538 2.4998207837586177 0 0 0
373 1 2 -1.1794 0.9651898219437592 13.536830687653817 2.847110455922835 0 0 0
374 1 1 0.5897 0.9172306617053303 13.577089323256859 3.802248972810243 0 0 0
308 1 1 0.5897 7.60373220917168 17.233597285145215 4.696635675368688 0 0 0
294 1 1 0.5897 2.910557916957425 17.414915233412543 3.921063078391017 0 0 0
317 1 1 0.5897 7.480942632188167 14.708054255403614 0.28416273679578813 0 0 0
448 1 2 -1.1794 7.578734751387545 17.29525332305368 2.908410177985925 0 0 0
45 1 1 0.5897 0.7673157516346809 11.830025138454115 2.47294939236696 0 0 0
655 1 2 -1.1794 0.7921268810029812 13.547014498641454 5.584246768336478 0 0 0
292 1 2 -1.1794 2.9356318733444 17.495108311623646 2.9675693139226715 0 0 0
59 1 1 0.5897 9.028902618502643 14.080619585063781 10.124167063880607 0 0 0
552 1 1 0.5897 0.7960349841728015 11.881958907133548 6.406609150403519 0 0 0
184 1 2 -1.1794 7.282290270570244 17.58439873198936 10.240065052003326 0 0 0
238 1 2 -1.1794 2.8898531433032337 17.38270407898417 5.680689108372866 0 0 0
517 1 2 -1.1794 7.480250856149884 14.74784379492272 6.840901994415836 0 0 0
813 1 1 0.5897 2.4249249866662206 14.430097919187196 9.919763574912484 0 0 0
656 1 1 0.5897 1.5039467333407996 14.02554492212047 6.009216419598659 0 0 0
17 1 1 0.5897 2.9594862651275946 14.98181153460282 7.759844708458346 0 0 0
382 1 2 -1.1794 3.0255526989211092 17.50482372293277 10.408028448567817 0 0 0
201 1 1 0.5897 5.928184216285927 14.000836637147408 6.341439606785935 0 0 0
456 1 1 0.5897 5.431706958948355 12.730842634550635 10.305521025591247 0 0 0
519 1 1 0.5897 8.307290281375385 14.34827231040651 6.571358906596044 0 0 0
378 1 1 0.5897 7.565012994065689 14.898952786657444 8.582505723902457 0 0 0
18 1 1 0.5897 3.6616908830592028 14.412853037794717 6.545307903512363 0 0 0
239 1 1 0.5897 2.9388500334889582 16.499970954733826 6.047563028345011 0 0 0
811 1 2 -1.1794 3.156724164308097 14.911325643293328 9.533532062790025 0 0 0
307 1 2 -1.1794 7.5226705743705224 17.267386357991654 5.649787523573458 0 0 0
16 1 2 -1.1794 2.8748894496812056 14.888962634697554 6.8109334970624955 0 0 0
199 1 2 -1.1794 5.1529139073376085 13.519269387482364 6.052751884712398 0 0 0
186 1 1 0.5897 7.447406226818851 16.685895301068463 9.954305868764841 0 0 0
454 1 2 -1.1794 5.427971307705893 13.674833705990798 10.463904896228057 0 0 0
376 1 2 -1.1794 7.664496615566394 14.94941799371978 9.533172267968462 0 0 0
518 1 1 0.5897 7.491713979056858 15.616932837725155 6.439935871294623 0 0 0
812 1 1 0.5897 3.9373072928769313 14.462199851143096 9.85798212309466 0 0 0
384 1 1 0.5897 3.069233002316611 16.623790216096815 10.036426368362633 0 0 0
377 1 1 0.5897 6.923092705729792 14.45225806840813 9.878767989319506 0 0 0
766 1 2 -1.1794 0.8612448366204891 13.674812665080573 10.45433572834886 0 0 0
14 1 1 0.5897 0.9339105386503211 12.034556972773938 9.794156989411904 0 0 0
579 1 1 0.5897 5.2717191712173355 11.873351963317111 6.496481839867819 0 0 0
429 1 1 0.5897 5.978251985330125 14.161568027387199 13.463364282659137 0 0 0
232 1 2 -1.1794 2.879788555122699 15.046225824451918 13.966404186529815 0 0 0
234 1 1 0.5897 2.826233599129107 14.985691334259075 14.920176191176667 0 0 0
606 1 1 0.5897 3.099467877683743 16.72967846400706 13.49755332276771 0 0 0
427 1 2 -1.1794 5.165287183511188 13.7340500733684 13.193882231455762 0 0 0
233 1 1 0.5897 3.6735544358605634 14.561772940333945 13.739378849853997 0 0 0
639 1 1 0.5897 1.3494170173516138 14.178084227577083 13.451092935566827 0 0 0
428 1 1 0.5897 5.269929213828398 12.823601453581631 13.470198688159742 0 0 0
297 1 1 0.5897 8.195401948468389 14.564394125884707 13.610667056775396 0 0 0
296 1 1 0.5897 7.451859996430599 14.977750538067546 14.862943262979186 0 0 0
295 1 2 -1.1794 7.454690211990934 15.090309998320116 13.912400844897466 0 0 0
270 1 1 0.5897 7.421400052701364 16.721416485724426 13.249249638517574 0 0 0
638 1 1 0.5897 0.814548569667875 12.769436738652264 13.597784050582952 0 0 0
637 1 2 -1.1794 0.6019888273055714 13.624733758048809 13.224281379720871 0 0 0
455 1 1 0.5897 5.3631111621826495 13.758298305266974 11.415239707182005 0 0 0
269 1 1 0.5897 7.382981662505541 17.57906960133161 12.002335370585557 0 0 0
767 1 1 0.5897 0.7495764241198724 13.62091315262523 11.403459064344712 0 0 0
605 1 1 0.5897 3.1944435646493186 17.5797084153794 12.248445508274159 0 0 0
610 1 2 -1.1794 7.475759494046571 17.39763391727393 17.687024873150346 0 0 0
584 1 1 0.5897 2.995169341285067 16.797440430795653 17.368786386761553 0 0 0
49 1 2 -1.1794 7.318816709723617 14.845105629732952 16.67319428345845 0 0 0
823 1 2 -1.1794 3.017738625869549 15.010025378759982 16.686831417813853 0 0 0
452 1 1 0.5897 0.9138826579387759 12.585903589335452 20.760822724382585 0 0 0
716 1 1 0.5897 3.0409082264838054 17.506341816143895 19.43757735819645 0 0 0
664 1 2 -1.1794 3.1436028127650655 14.775084181423026 21.281740871607692 0 0 0
53 1 1 0.5897 0.8591712719278406 13.46654161752428 18.584551132701908 0 0 0
683 1 1 0.5897 6.0838740280004595 13.861139287066681 20.738895744019842 0 0 0
117 1 1 0.5897 9.018349539620624 13.845510608935555 20.678068620633933 0 0 0
50 1 1 0.5897 7.415992546212151 15.73063178724913 17.02335708936382 0 0 0
665 1 1 0.5897 2.381090285099087 14.32387738069673 20.91940468504903 0 0 0
715 1 2 -1.1794 2.9762260150954924 17.397359569917263 20.386338539489138 0 0 0
52 1 2 -1.1794 0.8920147943254944 13.43769596782032 17.628362204826523 0 0 0
825 1 1 0.5897 2.2968870338397207 14.450672865299518 16.97628070160079 0 0 0
124 1 2 -1.1794 5.147308437761374 13.414937719102747 17.52474292533586 0 0 0
51 1 1 0.5897 8.097770329248995 14.37969425546301 16.97801410884777 0 0 0
125 1 1 0.5897 5.21075376114008 13.422027056028293 18.479799402139605 0 0 0
666 1 1 0.5897 3.077622830403109 15.667833406398298 20.94283196402133 0 0 0
159 1 1 0.5897 7.499005793570192 17.29705301530604 19.444963819909233 0 0 0
684 1 1 0.5897 4.570356169535843 13.851450097929588 20.70254392682466 0 0 0
824 1 1 0.5897 3.8081836911183746 14.527513597262995 16.929059825053304 0 0 0
451 1 2 -1.1794 0.8941252996354399 13.45511625512077 20.360442432539397 0 0 0
682 1 2 -1.1794 5.338278641301919 13.377221269598053 20.38365161187315 0 0 0
126 1 1 0.5897 5.885833944944574 13.94851147397429 17.231208315171035 0 0 0
316 1 2 -1.1794 7.5585556357021115 14.654953257016274 21.339655406790893 0 0 0
318 1 1 0.5897 7.544997142893036 15.56608152902965 21.046609618912903 0 0 0
157 1 2 -1.1794 7.426447508967658 17.241866586257764 20.397801081365223 0 0 0
267 1 1 0.5897 6.07472976896471 21.645959907427724 2.7874309461723636 0 0 0
696 1 1 0.5897 1.477460698562146 21.74230137698023 2.6447572332782046 0 0 0
266 1 1 0.5897 4.564227124864688 21.54987843756375 2.8234900355932235 0 0 0
265 1 2 -1.1794 5.358122305433337 21.11306523867696 3.132070513687088 0 0 0
228 1 1 0.5897 5.318336466540872 19.47749973931999 2.3978477118646655 0 0 0
343 1 2 -1.1794 0.6885541312305073 18.774915292017305 2.142443010913549 0 0 0
249 1 1 0.5897 5.287122499053365 21.141260629240215 4.914969157411832 0 0 0
226 1 2 -1.1794 5.26317155944132 18.600261929725725 2.0188693536184066 0 0 0
187 1 2 -1.1794 3.103525579702862 22.402262613979083 2.1499730087674513 0 0 0
818 1 1 0.5897 8.192496370783886 22.14768379622398 2.3448835760065943 0 0 0
189 1 1 0.5897 3.16885181536513 22.472984983905725 1.197637254221796 0 0 0
344 1 1 0.5897 1.4670368215794158 18.33844830453703 2.488499275467977 0 0 0
817 1 2 -1.1794 7.3876114031901805 22.550705818577356 2.019260046276778 0 0 0
345 1 1 0.5897 0.7987571091473931 18.744265694859187 1.1921127027339509 0 0 0
413 1 1 0.5897 0.6311129343527013 21.285244115011075 4.7942518683027195 0 0 0
695 1 1 0.5897 0.6412133539670422 20.48055599361642 2.669883469710096 0 0 0
227 1 1 0.5897 4.442891338276174 18.242976694490224 2.359145943500897 0 0 0
694 1 2 -1.1794 0.65643108965004 21.384918432800596 2.983118526469177 0 0 0
498 1 1 0.5897 7.4225521555015455 22.470087520042824 0.2750991544859716 0 0 0
450 1 1 0.5897 6.738558196045095 17.65968900496462 2.6298440867177466 0 0 0
321 1 1 0.5897 8.993347406686649 18.313508719437152 2.3787298478937755 0 0 0
602 1 1 0.5897 5.279641380708762 18.437997707633805 0.25997794772476257 0 0 0
188 1 1 0.5897 2.9982308869383045 23.3047718975401 2.450978816393241 0 0 0
248 1 1 0.5897 4.458872762162809 21.614833821451228 6.090410526998699 0 0 0
31 1 2 -1.1794 7.46918562594107 22.564035694948856 6.725553794473367 0 0 0
39 1 1 0.5897 3.8053282131290547 22.15607415246017 9.693407078546041 0 0 0
555 1 1 0.5897 5.181058583206751 20.44893689880601 9.956434324198694 0 0 0
86 1 1 0.5897 7.4135645038410445 22.555616514258816 8.518398877413274 0 0 0
185 1 1 0.5897 8.043310138780312 18.077433864411077 9.933382020762798 0 0 0
240 1 1 0.5897 3.711506057717666 17.79768933066142 5.943326401207584 0 0 0
386 1 1 0.5897 6.007121988984425 18.082483611887163 6.167285207685406 0 0 0
385 1 2 -1.1794 5.208088567537148 18.508506643024752 6.4776808815903975 0 0 0
309 1 1 0.5897 8.300609355764097 17.74367325018818 5.9400576001351135 0 0 0
94 1 2 -1.1794 0.8758267032048033 21.35647004969325 10.324493287933011 0 0 0
32 1 1 0.5897 8.23608494982647 22.072501789752344 6.431358429790705 0 0 0
383 1 1 0.5897 3.7780490892710348 17.961502097072582 10.031880259017324 0 0 0
101 1 1 0.5897 5.909212466731905 18.405837250252077 9.530358245961947 0 0 0
342 1 1 0.5897 0.8080343085348871 18.774964083692375 7.6214787803447575 0 0 0
387 1 1 0.5897 5.2990313316735485 19.420173654926415 6.200541266689077 0 0 0
100 1 2 -1.1794 5.103657316301674 18.854092061372697 9.272582533866732 0 0 0
702 1 1 0.5897 2.160029066753472 22.14920684870929 6.287583253244194 0 0 0
554 1 1 0.5897 5.942739806199888 21.756842046672965 9.990355236859342 0 0 0
414 1 1 0.5897 0.6196209611836945 20.473218979243057 6.071883132177134 0 0 0
87 1 1 0.5897 8.142216233087307 22.238939885211238 9.807076610082941 0 0 0
340 1 2 -1.1794 0.7850750380918416 18.835999579589647 6.666514324444871 0 0 0
247 1 2 -1.1794 5.249712679218253 21.122058265928892 5.871233133899674 0 0 0
404 1 1 0.5897 1.5882690248479947 18.365195088660357 9.769592599386362 0 0 0
85 1 2 -1.1794 7.32799363835099 22.612767388937883 9.470039901564805 0 0 0
38 1 1 0.5897 2.292425482147512 22.2074320101436 9.668198457868833 0 0 0
33 1 1 0.5897 6.722322460610622 22.050661909367697 6.417449824010908 0 0 0
405 1 1 0.5897 0.8644234698803844 19.69469364944299 9.749638047213129 0 0 0
341 1 1 0.5897 1.5601927003768683 18.354928894333938 6.376590541555592 0 0 0
700 1 2 -1.1794 2.9729511443537353 22.57278373401376 6.56333692704623 0 0 0
102 1 1 0.5897 5.0462362931927816 18.719394506696766 8.32665421335802 0 0 0
403 1 2 -1.1794 0.8352763700331235 18.811387376364706 9.382034168611396 0 0 0
701 1 1 0.5897 2.9343999767682516 22.566449224317182 7.519730783855605 0 0 0
37 1 2 -1.1794 3.070775499113817 22.663426572018942 9.347990926951397 0 0 0
553 1 2 -1.1794 5.1748889076194535 21.31829552357236 10.356921788536875 0 0 0
412 1 2 -1.1794 0.6256868210400743 21.373688588419867 5.747334976728998 0 0 0
88 1 2 -1.1794 5.154836568282906 21.669219311638045 13.073589905045493 0 0 0
381 1 1 0.5897 1.6117362347487338 21.833691393180565 13.352707095770908 0 0 0
90 1 1 0.5897 5.2115772252214985 20.77322287385254 13.405532101208717 0 0 0
763 1 2 -1.1794 5.4015459494144915 19.113312652895225 14.008802022109402 0 0 0
738 1 1 0.5897 3.761275754377898 22.33825429052765 13.786329449259567 0 0 0
89 1 1 0.5897 5.063792144417476 21.568789515378917 12.12604788797757 0 0 0
736 1 2 -1.1794 2.9487649743928905 22.727397479186095 14.109894131624579 0 0 0
789 1 1 0.5897 6.752314835248898 22.23319642828079 13.64151270915818 0 0 0
765 1 1 0.5897 6.15972208743923 18.667556044319106 13.630969655218149 0 0 0
787 1 2 -1.1794 7.578697847293636 22.574876233420312 13.983055085972092 0 0 0
503 1 1 0.5897 1.6179932424316417 18.33854105858171 13.728617631417986 0 0 0
764 1 1 0.5897 4.651272871806138 18.5871113083888 13.732233911317316 0 0 0
474 1 1 0.5897 5.3690380859818365 18.92288187704378 15.800432601457995 0 0 0
350 1 1 0.5897 2.892377071046829 22.648413498972886 15.959410017513877 0 0 0
788 1 1 0.5897 7.438815496053298 22.64122771861573 14.92764222478299 0 0 0
380 1 1 0.5897 0.878398241632754 20.50942031589038 13.331330406552503 0 0 0
379 1 2 -1.1794 0.8240225223954097 21.410020892244546 13.011670902671359 0 0 0
502 1 2 -1.1794 0.76122278474033 18.713353323345274 13.933001738279096 0 0 0