LAMMPS data file via write_data, version 30 Jul 2021, timestep = 28750000

864 atoms
2 atom types
576 bonds
1 bond types
288 angles
1 angle types

0.6668706374050082 17.5407017625756 xlo xhi
1.8770167944662255 21.75216100551617 ylo yhi
0.8135806200030338 21.39961517998552 zlo zhi

Masses

1 1.00794
2 15.9994

Pair Coeffs # lj/cut/tip4p/long/omp

1 0 0
2 0.21084 3.1668

Bond Coeffs # harmonic/omp

1 450 0.9572

Angle Coeffs # harmonic/omp

1 55 104.52

Atoms # full

287 1 1 0.5897 1.7969099464901166 4.169462283007681 5.231512055122265 6 4 -3
288 1 1 0.5897 1.4919243768889234 3.359771103560143 3.989079894114468 6 4 -3
172 1 2 -1.1794 2.7786723216097036 5.0064087814391245 1.8577058124753594 0 1 -2
173 1 1 0.5897 2.6358047687484794 4.518287496905533 2.6686852667212637 0 1 -2
421 1 2 -1.1794 3.1544479329237194 6.7168642270643115 5.75930053954744 -8 4 7
286 1 2 -1.1794 2.0371488701339096 4.078473062786761 4.309350587385666 6 4 -3
423 1 1 0.5897 3.6729089822126717 5.929028946308865 5.595380279815096 -8 4 7
527 1 1 0.5897 1.43757196388564 5.984187015862942 4.1827507995992494 -5 -4 1
96 1 1 0.5897 3.462443109266261 6.813806553206395 1.9664335250582716 0 4 2
174 1 1 0.5897 1.9624570407766875 4.902955155942126 1.3683332000992094 0 1 -2
633 1 1 0.5897 3.3216054826004626 2.597462135271031 5.095910808312101 -2 0 3
631 1 2 -1.1794 3.691315278741704 1.9539602576493624 5.700541506515989 -2 0 3
526 1 2 -1.1794 0.7970654783283305 6.649892535380998 3.9318479657115675 -5 -4 1
13 1 2 -1.1794 4.6060439349722895 3.126500695969434 7.885160131394536 0 -6 -2
158 1 1 0.5897 3.3853457900040262 4.813710547528277 8.242778679631378 -1 0 -1
134 1 1 0.5897 1.4047187321173533 4.798740191414197 7.385011063222726 -1 -3 2
159 1 1 0.5897 2.9833576461647042 5.898305474500191 9.219638595572668 -1 0 -1
157 1 2 -1.1794 2.72193015661188 5.486599220993607 8.395924085978479 -1 0 -1
14 1 1 0.5897 4.15056691740911 2.4682810643595587 7.36010053002181 0 -6 -2
15 1 1 0.5897 4.381047158378386 2.9094731463313352 8.789942826314963 0 -6 -2
558 1 1 0.5897 3.2695684825673137 2.578456534990401 11.04972851803026 3 -1 4
556 1 2 -1.1794 3.7358884328309037 2.2652467149436544 10.274601368393247 3 -1 4
690 1 1 0.5897 0.8382706985297566 5.590436231517808 10.072851239056968 6 -4 5
858 1 1 0.5897 1.353301563770086 2.235471741170835 6.745757696611764 -4 -1 -6
178 1 2 -1.1794 3.4048213138125174 6.714950080007508 10.778147040456599 -9 -1 1
133 1 2 -1.1794 0.7339352444780328 4.4431985305007355 6.801924021976978 -1 -3 2
422 1 1 0.5897 3.174104590188466 6.823527010886323 6.710411096602514 -8 4 7
720 1 1 0.5897 3.567468019906175 4.523480658076707 14.639862038393934 4 4 -1
718 1 2 -1.1794 4.341066413290747 4.199389650441845 14.178492733526078 4 4 -1
347 1 1 0.5897 1.5955407717980221 2.9838778282287723 12.477473209344586 -1 7 0
729 1 1 0.5897 1.8632744169757829 5.847405912172519 15.699875207889459 -1 2 3
719 1 1 0.5897 4.039108650225048 4.043779988665554 13.28353038209837 4 4 -1
348 1 1 0.5897 1.8470411010276209 4.377763115155513 11.94260798143953 -1 7 0
728 1 1 0.5897 1.5534024678529295 4.846151829220877 14.607310073136023 -1 2 3
346 1 2 -1.1794 2.271372432881454 3.6585480467947193 12.410615401082282 -1 7 0
727 1 2 -1.1794 2.1099189787661805 4.981647375216852 15.374308348478381 -1 2 3
179 1 1 0.5897 4.086753396553176 6.13490755557761 11.117073395830522 -9 -1 1
661 1 2 -1.1794 4.183319767906241 6.07308883426727 17.962710076430696 -1 -6 0
767 1 1 0.5897 1.4925189567937918 3.7830398322869145 18.528138736531936 -4 4 -5
662 1 1 0.5897 3.7294983927182903 5.2383002230659965 18.07923238272431 -1 -6 0
499 1 2 -1.1794 4.683734024395464 3.806690907916491 20.78307102819244 0 4 -4
431 1 1 0.5897 3.9300982903350197 3.2723649688065386 18.738908199678747 -10 3 0
803 1 1 0.5897 0.8763311801007054 2.274956069028058 16.767518398459664 7 0 -8
768 1 1 0.5897 1.7723983957570086 5.032629779581557 19.335860262674725 -4 4 -5
766 1 2 -1.1794 2.0694065876480963 4.1316397889222625 19.207867621683736 -4 4 -5
289 1 2 -1.1794 1.4349466767003003 6.630736974721 19.850766107540665 -7 -4 -5
802 1 2 -1.1794 0.7247482595165027 3.170014975940507 17.071253444049333 7 0 -8
251 1 1 0.5897 2.087233676839995 2.501162014374181 20.348393042211768 4 2 6
430 1 2 -1.1794 4.5516804797602335 2.8405701425934087 18.152779065221722 -10 3 0
501 1 1 0.5897 4.71534507771267 2.880600700948781 21.023381207607496 0 4 -4
500 1 1 0.5897 3.8240896071457033 4.103095185390258 21.082277444935343 0 4 -4
804 1 1 0.5897 1.1458583136507285 3.7217382865327124 16.41196983890795 7 0 -8
859 1 2 -1.1794 2.313454869647684 9.930284396629194 4.987412845034332 -8 1 4
32 1 1 0.5897 2.791073031808729 10.304919717560445 2.8301514210203154 3 5 7
31 1 2 -1.1794 2.4483424382854304 9.987664381575046 1.9945400758203407 3 5 7
30 1 1 0.5897 1.1581867961823185 8.809668022990287 1.679168157275701 -9 -3 1
33 1 1 0.5897 3.037320357819503 9.274124727779906 1.7489270034160174 3 5 7
164 1 1 0.5897 4.658152105890527 7.885704493264311 5.063596265125209 2 1 1
28 1 2 -1.1794 0.7173957874032124 7.965597367442949 1.5811875531146549 -9 -3 1
94 1 2 -1.1794 4.052898476140979 7.566816751240486 1.9927453673410829 0 4 2
95 1 1 0.5897 4.203509796136845 7.721214518436673 2.9254223912662445 1 4 2
860 1 1 0.5897 1.776974208976213 9.154422316201419 5.150448741706268 -8 1 4
492 1 1 0.5897 1.2130812462035867 11.434367697481196 5.633883298581807 4 7 5
861 1 1 0.5897 2.899070622331618 9.98023447223736 5.743030615240642 -8 1 4
29 1 1 0.5897 0.7709973076372671 7.564705374914261 2.44882029654833 -9 -3 1
62 1 1 0.5897 1.0292295942871619 7.3673604230443965 5.952664634371435 0 1 4
438 1 1 0.5897 3.1754195117909947 9.314177236761845 10.0654625115895 -1 8 2
437 1 1 0.5897 2.053413152473734 9.830905045162936 9.190083790357015 -1 8 2
384 1 1 0.5897 4.159062635757886 8.059711055871162 8.36730615590098 -9 -1 0
171 1 1 0.5897 1.3515931037133737 8.062006417316182 9.648479482200742 -5 3 1
436 1 2 -1.1794 2.696484116856792 9.125116116376102 9.25847600132336 -1 8 2
679 1 2 -1.1794 4.217120084564954 11.483401408410495 6.8979816515635255 -14 -4 0
382 1 2 -1.1794 4.78209116321141 7.878099116749729 7.663593894699148 -9 -1 0
93 1 1 0.5897 1.6720929323044016 8.611011671172257 12.829179231950954 -2 -6 5
369 1 1 0.5897 1.4534593551228578 11.147141622405448 12.30036182301446 6 1 -6
595 1 2 -1.1794 3.7012967931281584 9.274154991565583 14.865374006439874 -1 -4 1
596 1 1 0.5897 3.8384122163788406 10.087770405640804 14.37999926612538 0 -4 1
566 1 1 0.5897 1.1735568553383104 11.30132448866361 15.55226312845374 -3 1 -11
91 1 2 -1.1794 2.2076024998839197 7.8467972796869985 13.042626938806807 -2 -6 5
36 1 1 0.5897 4.531584894461334 10.453556494940981 11.932049441909111 -6 2 -2
92 1 1 0.5897 2.9308676557927056 8.198076004118242 13.562102308867019 -2 -6 5
368 1 1 0.5897 0.7947874132359533 10.613230208688773 13.554670843268237 6 1 -5
34 1 2 -1.1794 4.556855793516128 9.813323932452914 11.22083198160386 -6 2 -2
507 1 1 0.5897 2.7317311908700614 8.138905075730406 15.94860743437912 -3 5 -3
367 1 2 -1.1794 0.9485539476559006 10.405026500386082 12.63306284424914 6 1 -5
35 1 1 0.5897 4.769743464575996 8.98505394150543 11.650953338953432 -6 2 -2
597 1 1 0.5897 4.551310065781134 9.08598096595407 15.263445638337975 -1 -4 1
180 1 1 0.5897 2.9941224101468427 7.084869398733306 11.559708173856745 -9 -1 1
748 1 2 -1.1794 4.41031038251284 11.740227757368155 13.412406145249589 -4 4 3
818 1 1 0.5897 3.584938974692736 9.048358790616252 18.99018144613075 9 -1 2
448 1 2 -1.1794 3.3840858693064346 10.324351779235958 17.77411344548722 2 -1 -9
538 1 2 -1.1794 0.8503850386010804 10.459445470120125 18.836396438616575 1 -2 0
817 1 2 -1.1794 3.6385052770770554 8.30038600038376 19.585180598670565 9 -1 2
51 1 1 0.5897 0.8041386375425321 7.8469222693395695 17.32839302555407 9 -4 -2
450 1 1 0.5897 3.8894662051243682 11.090965931875193 18.044844680974638 2 -1 -9
449 1 1 0.5897 2.957642685933395 10.593158848296042 16.960313874312092 2 -1 -9
506 1 1 0.5897 3.06339729966753 7.046948578800644 16.94352469169378 -3 5 -3
540 1 1 0.5897 1.7434501599655214 10.714910108371507 18.605031018125665 1 -2 0
290 1 1 0.5897 1.017633970863423 6.852484682334411 20.683255305982275 -7 -4 -5
291 1 1 0.5897 2.2545468845420036 7.1253143661183636 19.853906932019118 -7 -4 -5
819 1 1 0.5897 3.949760204423683 7.579726400804549 19.03734468778434 9 -2 2
539 1 1 0.5897 0.6906525566284745 9.66168941083528 18.33196605123074 1 -2 0
505 1 2 -1.1794 2.340757696900946 7.411047149790639 16.432053118932824 -3 5 -3
147 1 1 0.5897 4.173747390939052 13.406924953013323 3.9086713147403396 1 -2 -8
145 1 2 -1.1794 3.9510040036184386 12.481874510714212 4.013656707243321 1 -2 -8
478 1 2 -1.1794 2.1729214893033184 15.611427870899417 3.7445970586165895 1 1 0
146 1 1 0.5897 3.053689521008953 12.412567364738724 3.6874873058729687 1 -2 -8
722 1 1 0.5897 0.8702370090742068 13.344078590060825 3.3526551108293883 8 -5 1
480 1 1 0.5897 2.9968245485451255 16.08104013935997 3.874984081865409 1 1 0
721 1 2 -1.1794 1.308758487471148 12.547944282410148 3.0522865550452054 8 -5 1
723 1 1 0.5897 1.316566631872681 12.623689316642047 2.0980487524090417 8 -5 1
479 1 1 0.5897 2.0511207259753235 15.111734458923186 4.551951664380163 1 1 0
454 1 2 -1.1794 4.439849915501496 16.753952917508663 4.459448275235792 -6 6 -1
274 1 2 -1.1794 2.2465036122387954 14.269068821055118 6.232634833634202 2 8 0
837 1 1 0.5897 2.7773804399567688 15.704825020438053 8.676763625293166 4 2 1
74 1 1 0.5897 2.522704944790191 12.439655235540304 10.837854081688352 2 5 6
757 1 2 -1.1794 4.3560855453495275 16.587192329235307 7.73501680718217 5 -2 4
836 1 1 0.5897 3.0402550640273343 15.319541590233554 10.11714312052941 4 2 1
202 1 2 -1.1794 2.565140400857019 12.280268262251848 9.032665975811078 -5 1 -2
835 1 2 -1.1794 2.3367221759980445 15.559921052989676 9.514139945137744 4 2 1
737 1 1 0.5897 0.7900044506007751 14.653103418874979 8.939815412140144 3 -4 0
276 1 1 0.5897 1.982146249207852 15.103848585209947 6.619444926229776 2 8 0
680 1 1 0.5897 4.227998659350846 12.213806482469991 6.279317561621901 -14 -4 0
275 1 1 0.5897 3.202727585077366 14.276260428964374 6.276697869624753 2 8 0
204 1 1 0.5897 3.163651992438692 11.912169912527713 8.382529629795656 -5 1 -2
203 1 1 0.5897 1.9838233158547445 12.849675298194619 8.528484291880169 -5 1 -2
509 1 1 0.5897 4.654103640173794 14.208358299345857 10.842530012164517 4 -2 3
491 1 1 0.5897 1.2032234425764154 12.903244548046102 6.000623966078779 4 7 5
490 1 2 -1.1794 0.8081985797103136 12.062558781250356 6.232044099469961 4 7 5
75 1 1 0.5897 1.6487838978929468 13.332474163034231 11.693035134831325 2 5 6
578 1 1 0.5897 1.4911049355006192 14.594936479654855 14.208307279214937 4 3 -6
834 1 1 0.5897 3.6421448669923677 15.299732935140979 14.519743603676016 6 -3 1
73 1 2 -1.1794 2.3078505920314383 12.640467809383177 11.748823376253934 2 5 6
100 1 2 -1.1794 2.25845450350689 16.419410481237403 13.805640973922703 9 -6 -5
59 1 1 0.5897 4.638045424947659 16.39988644507359 11.834330914995228 8 0 -3
150 1 1 0.5897 3.676637049553825 12.234603958213432 15.23102118126708 -1 -7 2
577 1 2 -1.1794 1.0301890597297996 13.861902485324098 14.616454267958833 4 3 -6
148 1 2 -1.1794 2.8563801455019426 12.245598229503415 15.724432931157105 -1 -7 2
149 1 1 0.5897 2.320166689816076 12.904984158784979 15.283926415436781 -1 -7 2
750 1 1 0.5897 3.743769745074009 12.2247768298856 12.925284967635395 -4 4 3
832 1 2 -1.1794 3.9588257495153027 14.679828431390863 15.176847501024044 6 -3 1
256 1 2 -1.1794 0.7119280048518767 14.835794167125444 11.788509339181676 -4 5 0
510 1 1 0.5897 3.347719078885904 13.871840500637402 11.529814488908574 4 -2 3
508 1 2 -1.1794 3.991294557823116 14.573264067786305 11.428962714683367 4 -2 3
258 1 1 0.5897 1.1223123626790699 15.434381382050297 11.164305039178714 -4 5 0
102 1 1 0.5897 2.0241693915868497 16.778773214191347 12.949877972819737 9 -6 -5
746 1 1 0.5897 4.407216595314643 12.86214478078064 19.23466743200631 2 3 -5
621 1 1 0.5897 3.5072028010210206 14.016204442733486 20.477383412696625 4 -3 3
398 1 1 0.5897 4.203548214329933 16.419193764778065 18.43259983689707 1 4 -7
678 1 1 0.5897 2.1170844651687135 14.782479404559615 17.926565495111753 -5 -1 -9
429 1 1 0.5897 2.1544428053304427 12.48744099327049 20.611941232530366 -1 -4 -2
677 1 1 0.5897 2.922929170339747 15.41467327645608 16.811580617536276 -5 -1 -9
676 1 2 -1.1794 2.6523101996358434 15.548784212164978 17.71995132630755 -5 -1 -9
427 1 2 -1.1794 1.2990147835616703 12.821472948367317 20.882161067014106 -1 -4 -2
747 1 1 0.5897 4.362652410731725 12.047283737068506 20.50992297176962 2 3 -5
745 1 2 -1.1794 3.8028531478747314 12.409322870340686 19.822950040551383 2 3 -5
428 1 1 0.5897 0.7686348607939935 12.037101889959173 21.022980750142214 -1 -4 -2
200 1 1 0.5897 1.155916586461868 13.295395351932987 19.183819522563883 0 -2 0
199 1 2 -1.1794 0.8194882249198325 13.581793266768285 18.334592441511667 0 -2 0
619 1 2 -1.1794 3.5538575852609378 14.907529171004954 20.823439097716555 4 -3 3
282 1 1 0.5897 4.464063100041348 13.572593215033274 16.79509663913474 0 -7 -4
620 1 1 0.5897 4.337236274965036 14.910686695147252 21.373616911534878 4 -3 3
341 1 1 0.5897 0.9190574000621947 14.892702649248143 21.279103262850363 6 4 -1
824 1 1 0.5897 1.9522132580934086 20.500346531929665 3.448676721068968 4 -3 7
554 1 1 0.5897 3.3697917879383756 21.273179768292064 1.0618744240358529 -6 -5 7
825 1 1 0.5897 3.2821815938362984 19.85021767995774 3.131263483176966 4 -3 7
447 1 1 0.5897 1.274579835168089 16.876951031693388 3.0298423885016144 4 -3 -3
456 1 1 0.5897 4.762308694800824 16.902084662636078 5.348513144976374 -6 6 -1
452 1 1 0.5897 2.6867981085010824 19.13687541191134 5.141837079519862 4 -4 1
823 1 2 -1.1794 2.39380520372248 19.651292030190145 3.4272050754482675 4 -3 7
445 1 2 -1.1794 0.7291004048768732 17.629221631712852 2.7997989851281133 3 -3 -3
446 1 1 0.5897 1.200838082240557 18.384269079565996 3.1515753710790158 3 -3 -3
826 1 2 -1.1794 2.978651310854839 17.63598761417952 1.0466465397797529 4 4 0
632 1 1 0.5897 4.331691027038707 21.347694712657102 5.176588998509829 -2 -1 3
353 1 1 0.5897 4.699783943370024 18.02333603790328 1.8934686914051435 7 3 -3
553 1 2 -1.1794 4.295837514939935 21.216219681870932 1.2976269415475579 -6 -5 7
827 1 1 0.5897 2.0982352656531136 17.68017809254947 1.4198933472947828 4 4 0
455 1 1 0.5897 4.861070653487934 17.434900329985066 3.9348132893192713 -6 6 -1
581 1 1 0.5897 2.7266621718740076 19.208160133409702 8.764959954585162 -4 -1 3
582 1 1 0.5897 4.159005800509245 19.19340773931809 9.255300050800003 -4 -1 3
41 1 1 0.5897 1.9167013962417636 17.518190913208578 6.498495944867736 -4 -2 6
580 1 2 -1.1794 3.427061973199952 19.78302958560265 9.073728851655657 -4 -1 3
857 1 1 0.5897 1.801367523829142 20.664528302298795 6.762433243365054 -4 -2 -6
845 1 1 0.5897 1.209619747234567 18.131180380528285 9.842329778057445 4 -2 2
557 1 1 0.5897 3.3886222960585117 21.261034077885352 10.124605557518631 3 -2 4
453 1 1 0.5897 3.786981819434727 18.79538401555878 6.12428783447173 4 -4 1
856 1 2 -1.1794 1.0746570374389435 21.234817375601246 7.013499617961044 -4 -2 -6
129 1 1 0.5897 0.9839383315825303 21.228091825558465 10.787584157652283 4 -1 -7
846 1 1 0.5897 0.9156411926183311 17.866825423635802 8.3808520697953 4 -2 2
40 1 2 -1.1794 1.2946385002081644 16.839533938545102 6.760827974652488 -4 -2 6
758 1 1 0.5897 4.664651565622407 17.482244361352357 7.593467907046255 5 -2 4
451 1 2 -1.1794 2.835021087516445 18.85804214779651 6.045535931795666 4 -4 1
3 1 1 0.5897 1.2043779381813913 19.829574055651264 15.80199613999603 5 -2 5
101 1 1 0.5897 1.9261868101222754 17.06036630501184 14.434236605109719 9 -6 -5
359 1 1 0.5897 2.680359337505067 21.126518540471707 12.986838918297154 1 -2 -5
358 1 2 -1.1794 3.318285138090613 21.14732771827969 13.700264626964207 1 -2 -5
360 1 1 0.5897 2.7885912289828214 21.113730485616394 14.496916470556531 1 -2 -5
127 1 2 -1.1794 1.399226314142361 20.678408176963966 11.452221204638093 4 -1 -7
1 1 2 -1.1794 1.2134564285021154 20.749111450807458 15.53606255447141 5 -2 5
263 1 1 0.5897 4.570879485429613 18.096559019345815 15.380908370908358 5 1 4
319 1 2 -1.1794 1.491820141635537 17.944668083838586 15.844617061299768 4 -2 -3
128 1 1 0.5897 0.6686043913728805 20.300278208225773 11.941687483716953 4 -1 -7
108 1 1 0.5897 4.545665550864124 19.932588398923645 13.777813076431208 7 0 2
324 1 1 0.5897 2.088276453122189 18.90941097018181 11.503119220757007 8 -5 -2
322 1 2 -1.1794 2.096222935761554 17.95261565930051 11.473954119990914 8 -5 -2
323 1 1 0.5897 3.0245717092516 17.721173440457413 11.442184798761545 8 -5 -2
58 1 2 -1.1794 4.757543622304485 17.307073701471076 11.553058716338855 8 0 -3
250 1 2 -1.1794 1.7506337823764284 21.658609971770804 20.885014773003224 4 1 6
271 1 2 -1.1794 4.545494492014434 19.57440588306142 19.62409332225257 0 -2 0
828 1 1 0.5897 2.98563135563533 16.82128713555495 21.130095806523478 4 4 -1
706 1 2 -1.1794 3.6507409332444674 20.454944483761814 17.047273608002612 2 -6 -12
645 1 1 0.5897 1.0067484818444783 19.216752395871257 18.918259961100333 1 1 1
264 1 1 0.5897 4.074978665578389 18.83220870866668 16.607792314345126 5 1 4
708 1 1 0.5897 2.767824230371052 20.528070341776232 17.409871149414833 2 -6 -12
643 1 2 -1.1794 1.2023920398804173 20.118601286152536 18.66376387811092 1 1 1
707 1 1 0.5897 4.060989550466571 21.297478891553695 17.242720248981477 2 -6 -12
321 1 1 0.5897 2.3182109407443185 17.82649868063087 16.313096985395404 4 -2 -3
252 1 1 0.5897 1.5560554032498013 20.961390214978966 20.25860998947636 4 1 6
273 1 1 0.5897 4.244198354585146 19.77092827890729 18.73698632596452 0 -2 0
864 1 1 0.5897 1.3371931478538936 16.818519046798816 18.672910005743425 0 -7 4
272 1 1 0.5897 4.068981717940953 18.78113090530512 19.869179109604634 0 -2 0
320 1 1 0.5897 0.8760985672254976 17.365895220804493 16.2943725284892 4 -2 -3
262 1 2 -1.1794 4.2625267117593255 17.954106827375348 16.275923078487324 5 1 4
862 1 2 -1.1794 0.7111364928232028 17.228802120634732 19.269649038193307 0 -7 4
555 1 1 0.5897 4.628590471475832 20.478039406797254 21.37298094569966 -6 -5 6
144 1 1 0.5897 5.8906105842882335 4.978359005944396 5.367400658408116 -3 1 8
270 1 1 0.5897 7.13459410143375 2.755394712464182 1.9328894000528287 5 -2 3
207 1 1 0.5897 7.811067853879416 6.452217218477499 5.741799151372263 -9 5 -3
786 1 1 0.5897 5.316827349415723 4.021061647155444 1.9227280161963798 1 11 5
655 1 2 -1.1794 8.557388583325581 5.798819459129854 2.784787446123642 -3 6 -4
784 1 2 -1.1794 5.571925530055013 3.5387589798213472 2.7092816366545103 1 11 5
785 1 1 0.5897 5.265392330455546 4.083121406715647 3.4345821601751805 1 11 5
531 1 1 0.5897 8.854116651939133 2.6874251832473433 4.509742392559858 -2 0 -6
205 1 2 -1.1794 7.219757679902055 6.272726604155875 5.010712110003097 -9 5 -3
529 1 2 -1.1794 8.953502864393872 3.6358349459490924 4.426101687784606 -2 0 -6
656 1 1 0.5897 7.848485075133104 5.82469110168349 2.1419829386060316 -3 6 -4
530 1 1 0.5897 8.646702427905442 3.984061765170561 5.26333708513744 -2 0 -6
657 1 1 0.5897 8.594564140398804 4.884055382283535 3.0644068430615548 -2 6 -4
206 1 1 0.5897 7.79657690080476 6.18233660971224 4.252104454355624 -9 5 -3
268 1 2 -1.1794 7.945412430430315 2.5459679108292708 1.46913497280957 5 -2 3
440 1 1 0.5897 5.579460501059913 6.589678914330375 1.171154865504897 1 0 2
142 1 2 -1.1794 5.004801716797609 4.649578647576094 5.521105909756003 -3 1 8
439 1 2 -1.1794 6.391783604295018 6.188446389059089 0.8621069301324643 1 0 2
309 1 1 0.5897 5.761780446152763 4.897482841423226 8.951488902398312 -1 6 -3
474 1 1 0.5897 7.1353479347061715 6.423540623490856 9.958558904265843 0 3 1
471 1 1 0.5897 8.47447125445689 3.6935879505322817 8.270876503623484 9 -5 7
798 1 1 0.5897 7.9534948618275925 3.252500802804652 10.436071502967977 2 -3 -2
469 1 2 -1.1794 8.6184115862063 4.287540150620861 7.53407215610161 9 -5 7
308 1 1 0.5897 6.7614954434380925 5.158666747568661 7.844874652405906 -1 6 -3
307 1 2 -1.1794 6.141605818618085 5.6009492580528395 8.424951056481248 -1 6 -3
796 1 2 -1.1794 7.903206968926116 2.663455573274148 9.683171367515163 2 -3 -2
472 1 2 -1.1794 7.668863562178298 6.743272641033087 10.686246372802408 0 3 1
143 1 1 0.5897 5.121769061948413 3.9205119284731955 6.130323824752593 -3 1 8
470 1 1 0.5897 9.057123962187521 5.046080220453501 7.919439651307779 9 -5 7
797 1 1 0.5897 8.558746800500085 1.9891242285792872 9.861809449477468 2 -3 -2
780 1 1 0.5897 5.988270194792288 1.8919893179987408 7.570069690647114 -3 4 -5
473 1 1 0.5897 8.341949884283437 6.072702959747538 10.803138052630787 0 3 1
293 1 1 0.5897 7.21282840917222 3.3038732085818907 15.000697105005674 -3 1 1
304 1 2 -1.1794 6.075693897097705 6.164351605481356 14.97387680848265 5 1 -6
305 1 1 0.5897 6.885545965670396 5.9697348314960195 14.502050590402902 5 1 -6
345 1 1 0.5897 5.703158056107782 3.9221621413095056 11.665152404356167 6 0 1
294 1 1 0.5897 8.457998040849409 4.142463025130618 15.19701679429512 -3 1 1
343 1 2 -1.1794 5.534294395735657 4.837788326188132 11.442722236982034 6 0 1
847 1 2 -1.1794 8.665617749685715 4.194785610781111 11.745918077064204 9 -2 5
292 1 2 -1.1794 7.936893773141169 3.70754470391725 14.52199691626128 -3 1 1
849 1 1 0.5897 8.346072351779828 4.054856039134893 12.63735588879599 9 -2 5
225 1 1 0.5897 5.091594104211434 2.7291814329403845 15.15295100161006 2 2 -7
223 1 2 -1.1794 5.837413958465944 2.413124931706773 15.663075397543324 2 2 -7
306 1 1 0.5897 5.527275245235951 5.391532841916096 14.838281875130473 5 1 -6
385 1 2 -1.1794 5.589010610171166 2.187590227174009 12.177224833675698 -3 -3 4
387 1 1 0.5897 5.090637267623459 2.0446683892397948 11.372521386973267 -3 -3 4
483 1 1 0.5897 8.873223315669138 1.9388936443715283 14.00238322791861 -8 2 1
344 1 1 0.5897 6.401331675187043 5.242800200283687 11.418860086532675 6 0 1
386 1 1 0.5897 4.922838704196948 2.3203055952014586 12.851732159957347 -3 -3 4
269 1 1 0.5897 7.959382872386645 3.149007692657368 21.311867289318954 5 -2 2
587 1 1 0.5897 7.40869414324337 4.955298523678698 18.519081139152355 -4 1 4
224 1 1 0.5897 5.791678402080145 2.903331640558733 16.48402913349299 2 2 -7
586 1 2 -1.1794 6.937565243756111 5.365366829690792 17.793646040610554 -4 1 4
716 1 1 0.5897 8.334678705339002 5.414129131317511 16.823570694650147 6 -8 -6
588 1 1 0.5897 6.988667572164876 6.30403682415825 17.97435201334444 -4 1 4
123 1 1 0.5897 8.12350016164875 2.180068878340303 17.291113631436986 -1 2 5
432 1 1 0.5897 5.348615488461744 2.7470950190923396 18.674802914219125 -10 3 0
208 1 2 -1.1794 8.47417651449328 4.180175584939659 19.954367139689527 -6 -3 2
663 1 1 0.5897 5.035605058640806 5.834105702569118 17.598219553885116 -1 -6 0
441 1 1 0.5897 6.1057452796397325 5.438309914879831 20.92675627847995 1 0 1
121 1 2 -1.1794 8.950369320322098 2.4006806230399507 16.86214069197076 -1 2 5
209 1 1 0.5897 9.089634225692842 4.8332642531276315 20.287600214587645 -6 -3 2
210 1 1 0.5897 9.029572592181914 3.479386253358585 19.612619708631918 -6 -3 2
350 1 1 0.5897 5.455398852942722 11.364705963885797 4.345826435120536 -14 -2 -5
349 1 2 -1.1794 6.167543419621154 10.726765923452403 4.393241954973424 -14 -2 -5
351 1 1 0.5897 5.731979073164075 9.876188172116013 4.336925969330304 -14 -2 -5
163 1 2 -1.1794 5.276380206993443 8.233716182563855 4.420911794307457 2 1 1
237 1 1 0.5897 7.5542166095486145 8.65316365948798 1.818585896112494 -4 -3 -5
424 1 2 -1.1794 6.052735014867972 9.255251575765557 0.846389223146374 9 0 1
312 1 1 0.5897 5.661462338815163 10.986266804674758 1.377355342672591 -7 8 1
111 1 1 0.5897 7.882682566647227 10.488449402828222 4.319879962185608 1 -4 -7
165 1 1 0.5897 6.080984967077495 7.73639936984097 4.5681012833366745 2 1 1
235 1 2 -1.1794 8.453692867000935 8.484185350858095 2.0992487928450525 -4 -3 -5
236 1 1 0.5897 8.501477857003886 7.532593896209881 2.191826069306084 -4 -3 -5
109 1 2 -1.1794 8.782287078220099 10.164258627499244 4.364547976258242 1 -4 -7
110 1 1 0.5897 8.87824884747212 9.61465591819346 3.5866631888109 1 -4 -7
425 1 1 0.5897 5.336327667305014 8.622549033041764 0.8993703837087669 9 0 1
283 1 2 -1.1794 6.856217400797927 9.575281933361914 7.846842140850052 5 -3 -7
733 1 2 -1.1794 8.284393432505741 9.40041200588672 10.122912674464176 -1 0 -7
681 1 1 0.5897 5.1393420898299365 11.328331293042007 7.102468593894521 -14 -4 0
734 1 1 0.5897 8.314797518489481 8.637107848076948 10.699808268990477 -1 0 -7
674 1 1 0.5897 8.014475705859724 8.00725758367745 7.290164111837976 -3 2 -5
284 1 1 0.5897 6.08603703223171 9.0081325148942 7.885810870639248 5 -3 -7
285 1 1 0.5897 7.284646021694377 9.456825629588359 8.694654397730828 5 -3 -7
8 1 1 0.5897 5.424603723517041 11.279920941935806 10.064720268500277 1 -3 0
673 1 2 -1.1794 8.816997445550902 7.559165887405538 7.022699473101093 -3 2 -5
383 1 1 0.5897 5.284212790410866 7.125314469440993 7.975966823260969 -9 -1 0
9 1 1 0.5897 6.732804630941145 11.731493880270952 10.678643771134134 1 -3 0
245 1 1 0.5897 7.507931570332637 11.6287705963071 7.480628549318417 -7 -1 -4
339 1 1 0.5897 8.265168363835667 10.839610721524055 11.104480381569088 1 3 0
80 1 1 0.5897 6.565631037405461 9.45139676938614 13.246066122271596 -5 5 -9
231 1 1 0.5897 6.471948685265212 7.51865372245472 12.159111122723521 0 8 4
634 1 2 -1.1794 8.661912317824155 7.2799907296904856 13.9623697571726 -10 1 0
495 1 1 0.5897 7.36474722920315 11.551071672150009 16.026706087323454 -2 -3 3
338 1 1 0.5897 7.911072673265992 11.170916037434946 12.538725930061192 1 3 0
229 1 2 -1.1794 5.771189670429977 7.857036262346711 12.716601116783119 0 8 4
81 1 1 0.5897 6.802332958971355 10.265276282427717 14.500566510737771 -5 5 -9
79 1 2 -1.1794 7.220153009742385 9.997125955163677 13.682106230338869 -5 5 -9
636 1 1 0.5897 8.299987518656472 8.121864326114615 14.23915833247945 -10 1 0
337 1 2 -1.1794 8.301626520888263 11.546099344893973 11.749386898325314 1 3 0
639 1 1 0.5897 5.909969264949813 7.546280042930655 16.16848980357033 -12 -4 5
230 1 1 0.5897 5.712569656852474 7.228714375741082 13.436416458262652 0 8 4
493 1 2 -1.1794 6.5027992251651705 11.187835212335868 16.230326220716535 -2 -3 3
638 1 1 0.5897 6.6082945709769065 8.642334527919463 16.945161865438894 -12 -4 5
637 1 2 -1.1794 5.776348643748549 8.17342424130325 16.879259199400856 -12 -4 5
685 1 2 -1.1794 6.140415864262415 10.450906616686707 18.996555652114427 4 -8 -8
607 1 2 -1.1794 7.594732599793171 7.722937133119274 19.415485765152027 11 1 -3
687 1 1 0.5897 7.067485385906447 10.633254761063158 19.150336402206587 4 -8 -8
686 1 1 0.5897 6.1259767702038195 9.560473282502961 18.645450035748958 4 -8 -8
608 1 1 0.5897 7.127369212172924 7.398538518282392 20.185351993610876 11 1 -3
426 1 1 0.5897 6.10403014464805 9.482549960669118 20.503951177804048 9 -1 0
609 1 1 0.5897 8.052091646142122 8.505120096424035 19.724298169442516 11 1 -3
494 1 1 0.5897 6.5510766182959985 10.96146923667893 17.15919274036445 -2 -3 3
516 1 1 0.5897 8.94316104996527 11.536152667620335 19.388327599931824 -4 -1 -4
652 1 2 -1.1794 8.81307019804723 8.80921534072467 16.63641323537329 -4 3 1
514 1 2 -1.1794 8.544679227087153 11.739623314151142 18.542062202905186 -4 -1 -4
277 1 2 -1.1794 8.851374300598199 9.815027523844806 20.38529056451644 -3 0 -2
278 1 1 0.5897 8.804837974991568 9.376546064784616 21.234951067112153 -3 0 -2
317 1 1 0.5897 8.720118151125748 15.641451129627155 1.589494237560615 -5 -2 -1
408 1 1 0.5897 8.227061713013624 12.686756805080492 1.5883601574499504 -4 -1 4
461 1 1 0.5897 8.17598362150692 13.121768895593716 4.410501581817203 9 3 -2
407 1 1 0.5897 6.899805508278935 12.45788720536646 0.89682633494254 -4 -1 4
462 1 1 0.5897 7.207720792519355 12.813902461323144 5.53296536626685 9 3 -2
56 1 1 0.5897 5.3259842123935295 15.34008198471301 3.6975299505339354 -8 -1 4
55 1 2 -1.1794 5.858531719801816 14.716720773766523 3.2033678990654786 -8 -1 4
57 1 1 0.5897 6.411763445708212 14.297953479442084 3.8628683873117375 -8 -1 4
336 1 1 0.5897 7.444010321235775 16.434732337120295 5.772223831703322 8 -4 4
311 1 1 0.5897 5.026559690582502 11.99681456844419 2.308995171233357 -7 8 1
161 1 1 0.5897 6.332524560439179 15.47047128823942 1.328388317643045 -3 8 3
460 1 2 -1.1794 7.501331861126744 13.521793984052408 4.959331183702068 9 3 -2
310 1 2 -1.1794 5.31533140698491 11.878383278863199 1.4040304108100061 -7 8 1
316 1 2 -1.1794 8.896212950869478 16.455444013151165 2.06146535893768 -5 -2 0
773 1 1 0.5897 4.910314099266288 15.100492062202097 6.732918907953719 6 -1 0
90 1 1 0.5897 7.0369785129801175 15.490462399284183 8.371914015946139 7 -2 2
772 1 2 -1.1794 4.919286812290651 14.161269310886127 6.548159495560655 6 -1 0
89 1 1 0.5897 6.9852559462455925 15.402339833193418 9.88248469819886 7 -2 2
774 1 1 0.5897 5.551789942515783 13.80045207253665 7.16954909642312 6 -1 0
88 1 2 -1.1794 6.4263135283332 15.477771176713718 9.109000818735003 7 -2 2
7 1 2 -1.1794 6.001863154290113 12.039555820406521 10.142729683803843 1 -3 0
186 1 1 0.5897 8.517977244677331 13.405849546688225 8.28382182839875 -2 8 4
246 1 1 0.5897 6.614648381076326 12.309896678657724 8.495674059278683 -7 -1 -4
244 1 2 -1.1794 7.058188185501863 12.454612968042838 7.659787295531967 -7 -1 -4
759 1 1 0.5897 4.982419635364249 16.21254471770385 8.354450150218515 5 -2 4
334 1 2 -1.1794 7.25548017382779 15.803633082557374 6.466866617325093 8 -4 4
335 1 1 0.5897 7.467111882772473 14.952981864200792 6.082209182934583 8 -4 4
513 1 1 0.5897 9.048987371162635 13.160831046258549 15.331925917797223 3 3 -8
749 1 1 0.5897 5.167896942505095 12.32517015256776 13.42928207282496 -4 4 3
152 1 1 0.5897 7.157195915937783 13.161750104317628 14.309989574180097 3 -3 0
696 1 1 0.5897 7.310667528138231 16.062716237932896 12.08334661520605 3 -7 4
226 1 2 -1.1794 8.82989509473217 14.875803443541889 16.060634272276083 4 1 2
151 1 2 -1.1794 6.388681241664942 13.67386937893591 14.058050629768529 3 -3 1
694 1 2 -1.1794 7.263917396909491 15.1872194489781 11.699061285451966 3 -7 4
153 1 1 0.5897 6.654304979890544 14.12751681929816 13.258044434898615 3 -3 1
511 1 2 -1.1794 8.613795231617324 12.402058772375362 14.943044929725282 3 3 -8