LAMMPS data file via write_data, version 30 Jul 2021, timestep = 41000000

1008 atoms
2 atom types
672 bonds
1 bond types
336 angles
1 angle types

-3.0692900041008375 14.679289003655045 xlo xhi
-0.07012555109081653 22.650124551080722 ylo yhi
0.08417644709672878 19.14582155290483 zlo zhi
-0.20914105984787243 -6.635860718104293 0.1502380291118739 xy xz yz

Masses

1 1.008
2 15.999

Pair Coeffs # lj/cut/tip4p/long/omp

1 0 0
2 0.21084 3.1668

Bond Coeffs # harmonic/omp

1 450 0.9572

Angle Coeffs # harmonic/omp

1 55 104.52

Atoms # full

21 7 1 0.5897 1.1830174534999536 2.303321172563174 0.9597038912285667 0 0 0
55 19 2 -1.1794 -0.6036401480463818 4.389560518006034 3.3889261989419963 0 0 0
56 19 1 0.5897 -1.1355414312821406 3.8197277312740336 2.8333886151871805 0 0 0
57 19 1 0.5897 0.22116232926291168 4.486656471715941 2.9130842271091506 0 0 0
121 41 2 -1.1794 -2.354101271168412 2.5228061180260872 2.377319975191907 1 0 0
122 41 1 0.5897 -2.3362634109445133 2.056710839203232 1.5414511876483836 1 0 0
86 29 1 0.5897 -2.270962052321617 1.5695633060672385 4.003007839821688 1 0 0
31 11 2 -1.1794 1.3923069687999776 1.0336835857234568 2.352981996492514 0 0 0
32 11 1 0.5897 1.161047317356596 1.4495456632674901 3.183524424412262 0 0 0
123 41 1 0.5897 -3.2554252502625816 2.834522516943896 2.45908682740637 1 0 0
46 16 2 -1.1794 1.787267464806547 4.813452695153287 2.3519498009810342 0 0 0
33 11 1 0.5897 0.656737255359622 0.45135079567590997 2.1630982690928016 0 0 0
71 24 1 0.5897 3.0909185869682974 0.555993688642833 2.0232244762908635 0 0 0
158 53 1 0.5897 -4.321454460092778 4.585693589875718 4.321834845267907 1 0 0
6 2 1 0.5897 3.5367763391166864 1.6110500642384702 4.718870920551703 0 0 0
47 16 1 0.5897 1.9741187684305626 5.270240519773574 1.5317670474393374 0 0 0
53 18 1 0.5897 4.572001108221345 2.8456254648280113 3.132798604278493 0 0 0
16 6 2 -1.1794 5.419268630859131 4.760149364492269 0.5053926554573807 0 0 0
48 16 1 0.5897 2.0517614515963203 5.429389480690477 3.035273751057549 0 0 0
52 18 2 -1.1794 3.778927903346636 3.097029744645078 3.6061065537541923 0 0 0
78 26 1 0.5897 0.10282605480030682 3.054453554928765 4.469791580365762 0 0 0
54 18 1 0.5897 3.253085595418975 3.5685750834083345 2.9599772049109783 0 0 0
602 201 1 0.5897 -0.5732009644947049 5.202085827765289 0.3649954135165228 1 0 1
70 24 2 -1.1794 3.872802772109985 0.4052640619469754 1.4920840486048965 0 0 0
527 176 1 0.5897 4.084195295305647 1.8272379364968205 0.46004202027754826 0 0 1
18 6 1 0.5897 4.963366951104588 3.9288686460940054 0.37336854656851126 0 0 0
482 161 1 0.5897 -1.0199325322037227 0.02091524990483451 1.0292160846454077 1 1 0
76 26 2 -1.1794 0.7571541494550775 2.3971573909055888 4.706820439388709 0 0 0
134 45 1 0.5897 -2.2237182083490428 2.670145364014143 5.9526662993850845 1 0 0
135 45 1 0.5897 -1.7279667990447023 3.881595438245437 6.713366944305759 1 0 0
60 20 1 0.5897 2.9824162414182815 3.710181159434101 6.738911399475493 0 0 0
34 12 2 -1.1794 0.2597452278859138 1.280030525136521 7.2239856416840045 0 0 0
35 12 1 0.5897 0.36256562173705387 1.9349887516986102 7.914443860226264 0 0 0
36 12 1 0.5897 -0.6068226279305722 0.9035870480564582 7.377369497721217 0 0 0
159 53 1 0.5897 -3.218473759221366 4.563000635787726 5.358607559369828 1 0 0
669 223 1 0.5897 -5.07267710327538 1.737255361446701 9.01019621110086 1 0 0
124 42 2 -1.1794 -4.969610478101316 2.5218211181250036 7.425838664891594 1 0 0
58 20 2 -1.1794 2.307655096080701 4.152868560797054 6.224076022070557 0 0 0
59 20 1 0.5897 1.9217247061978746 3.460035811972727 5.688057201750236 0 0 0
522 174 1 0.5897 2.1948864999725997 5.419914798753433 9.045848693089317 0 0 0
43 15 2 -1.1794 -0.26116532450351393 4.934055247316391 7.1735735600534 0 0 0
126 42 1 0.5897 -4.150350928931628 2.9642204901846014 7.2038452278034555 1 0 0
45 15 1 0.5897 0.667746317560165 4.7571350681036675 7.025167514313459 0 0 0
133 45 2 -1.1794 -2.5255268680133556 3.400422240246508 6.492950854153519 1 0 0
22 8 2 -1.1794 0.3225548928705426 2.836479834316638 9.519961548037609 0 0 0
85 29 2 -1.1794 -2.3135900043905266 1.18415860166193 4.878181057038667 1 0 0
401 134 1 0.5897 2.4484507273344427 0.24626661268289107 8.841352203976012 0 1 0
98 33 1 0.5897 -3.9878369774396085 5.2391935267156065 8.47859428850246 1 0 0
77 26 1 0.5897 0.4063196983609467 1.9824717595749877 5.494975980748583 0 0 0
69 23 1 0.5897 -2.4716658808267065 1.3389640499826636 8.70798082744035 0 0 0
67 23 2 -1.1794 -2.274312433247887 0.611379332094349 8.11809539126071 0 0 0
44 15 1 0.5897 -0.3050922592088279 5.242447916247533 8.078666720553397 0 0 0
157 53 2 -1.1794 -3.7810131235727837 5.159664605956344 4.864730488029979 1 0 0
5 2 1 0.5897 3.1155056724337316 0.19785791004043718 5.061809923157965 0 0 0
87 29 1 0.5897 -3.24989283807526 1.11479691193651 5.064445323894523 1 0 0
4 2 2 -1.1794 3.7224823622550085 0.8909149394779078 5.321616935033886 0 0 0
68 23 1 0.5897 -3.1280650440562177 0.33213679889147973 7.787434663589023 0 0 0
97 33 2 -1.1794 -4.04036142284856 4.743448703858579 9.295772473894942 1 0 0
11 4 1 0.5897 2.434813995075009 5.544977830252074 5.119243983414032 0 0 0
520 174 2 -1.1794 2.3650687342569645 4.6692313616576255 9.614964199130686 0 0 0
24 8 1 0.5897 0.9792995751849354 3.5277371296784 9.604166207732524 0 0 0
574 192 2 -1.1794 0.6475034653878642 0.6830915567898692 11.288860477380428 0 0 0
986 329 1 0.5897 -4.488182183805568 0.12282498864139008 10.755819918603523 1 1 0
560 187 1 0.5897 -4.643087362130816 3.933812858600932 12.886282399180715 0 0 0
576 192 1 0.5897 -0.06791063711940026 0.745636683140467 11.921659692642336 0 0 0
23 8 1 0.5897 0.5759668325222616 2.1837855339078547 10.172761347526686 0 0 0
523 175 2 -1.1794 -2.427063750089267 2.6433367254514875 9.992976284710585 0 0 0
627 209 1 0.5897 -6.555975872507886 2.9583237641504465 12.08515385258488 1 0 0
524 175 1 0.5897 -3.0022091167035256 3.350906822533109 9.701530905715956 0 0 0
535 179 2 -1.1794 -2.0723725399240287 1.1752551668754239 12.285371911370706 0 0 0
536 179 1 0.5897 -2.1361258807468086 1.703345019906945 13.081175669172207 0 0 0
537 179 1 0.5897 -2.294885679614036 1.7801218871128561 11.577568234442635 0 0 0
662 221 1 0.5897 -7.436469796710225 4.4206762426463015 13.997808954951699 1 0 0
625 209 2 -1.1794 -5.627914612307803 2.7251432811979543 12.061733665230918 1 0 0
556 186 2 -1.1794 0.6019411024584196 3.6035557198555144 13.073853555622666 0 0 0
561 187 1 0.5897 -3.5418196340436108 3.8773242944002604 13.92359029285316 0 0 0
668 223 1 0.5897 -5.52416137514472 1.8433958170006544 10.45127721515889 1 0 0
558 186 1 0.5897 -0.18301567429202503 3.9529260865561415 12.651858695340186 0 0 0
559 187 2 -1.1794 -4.025320536337803 4.486284874808033 13.365224425371474 0 0 0
550 184 2 -1.1794 -1.5710099272974096 4.980755519651688 12.093176984342877 0 0 0
552 184 1 0.5897 -2.4655264401066503 4.709389980661896 12.299012866240442 0 0 0
626 209 1 0.5897 -5.524543620392024 2.0806739737822233 12.761969115264641 1 0 0
557 186 1 0.5897 0.29939753498831134 2.819490089210638 13.532142623629806 0 0 0
551 184 1 0.5897 -1.3293219714681968 5.571642977401988 12.806413106369115 0 0 0
99 33 1 0.5897 -3.7983435829749883 5.373458220302152 9.974584437860127 1 0 0
663 221 1 0.5897 -6.660445328224991 5.685916715717875 13.69948792971123 1 0 0
525 175 1 0.5897 -1.54684535287365 2.938010942097002 9.75941266193044 0 0 0
589 197 2 -1.1794 -5.551106216816101 1.0658412846695864 14.22266816591163 1 0 0
575 192 1 0.5897 1.327900274695252 0.18697155011444816 11.744127618927488 0 0 0
667 223 2 -1.1794 -5.390085184198694 1.211779350840412 9.744625839513148 1 0 0
587 196 1 0.5897 -1.0831874493393645 5.59941093650568 10.497723071546607 0 0 0
606 202 1 0.5897 -5.8292911891961285 4.80291967605384 9.655635868958996 1 0 0
987 329 1 0.5897 -3.4175002522994187 0.039593637297047846 11.822920480835085 1 1 0
508 170 2 -1.1794 0.6116488977377701 1.1129556958901017 14.378055905613932 0 0 0
547 183 2 -1.1794 -3.537136050898688 4.908819171178832 17.037003855294543 0 0 0
581 194 1 0.5897 -2.694385655490686 2.084367999112551 15.235794900531266 0 0 0
526 176 2 -1.1794 -2.6790608632947626 2.7691201387110134 18.9987489987844 0 0 0
630 210 1 0.5897 -8.26793917429093 1.9909943249890474 15.923827981415235 1 0 0
582 194 1 0.5897 -1.7419466426633088 3.2481476889736216 15.06130213139876 0 0 0
563 188 1 0.5897 -0.8360695313819075 4.959225573458517 15.597271444085072 0 0 0
639 213 1 0.5897 -5.7524663812449 3.936049667696097 15.339047975049358 1 0 0
20 7 1 0.5897 -5.657754306232052 2.018760439520435 18.585781268020156 0 0 -1
538 180 2 -1.1794 -3.173170491664389 1.22326166384766 16.78886818668792 0 0 0
539 180 1 0.5897 -2.889026821602932 1.8565815431722352 17.44798776881035 0 0 0
661 221 2 -1.1794 -6.944607248746712 5.124513563480302 14.42084135700446 1 0 0
540 180 1 0.5897 -4.102288579535451 1.0856094041181712 16.973148684349177 0 0 0
638 213 1 0.5897 -6.376849693262772 2.9715265106373496 16.324859167154493 1 0 0
549 183 1 0.5897 -4.2495982270156265 4.30204631427427 16.835868716790948 0 0 0
562 188 2 -1.1794 -0.9183932066529881 4.238512172371856 16.221884347525275 0 0 0
580 194 2 -1.1794 -2.3015807920563676 2.6476209684315886 14.568929081700484 0 0 0
564 188 1 0.5897 -1.7086082566489171 4.443305427738642 16.7216829142504 0 0 0
637 213 2 -1.1794 -5.538675936718381 3.216154738231946 15.932705612435637 1 0 0
164 55 1 0.5897 -8.436891743716007 1.7564831090359334 18.24904142934932 1 0 -1
628 210 2 -1.1794 -8.017088620885803 2.550430943073151 16.658923256059246 1 0 0
590 197 1 0.5897 -5.430621210725967 1.7100440878686283 14.920349130461236 1 0 0
165 55 1 0.5897 -9.356164456442674 0.6923939575840486 18.809925917906746 1 0 -1
571 191 2 -1.1794 -5.660160200387644 0.46905217734701654 17.683749699259366 0 0 0
548 183 1 0.5897 -3.624631292299492 5.605781227021538 16.38665723825588 0 0 0
629 210 1 0.5897 -8.660520790078959 3.259159403221356 16.651683240792487 1 0 0
614 205 1 0.5897 -7.452103462070471 5.7302289281248395 17.40831211542863 1 0 0
601 201 2 -1.1794 -7.418862184525865 4.607835886761613 18.862720958860123 1 0 0
528 176 1 0.5897 -3.6155924704400153 2.9544054842575234 19.067943211780936 0 0 0
19 7 2 -1.1794 -5.430010813194979 2.7787525916315556 19.121351415575504 0 0 -1
101 34 1 0.5897 -9.229842608785853 4.648733721369344 19.03363073433851 1 0 -1
603 201 1 0.5897 -6.712089359775115 3.9814770976099956 19.01920209807109 1 0 0
163 55 2 -1.1794 -8.720296746171279 1.358156853743922 19.072001469195897 1 0 -1
593 198 1 0.5897 -7.505760928234229 0.6285285325341345 14.414350669828945 1 0 0
591 197 1 0.5897 -4.906958684282611 0.38352692882454836 14.412095215106955 1 0 0
289 97 2 -1.1794 -2.6449190876296473 10.051667103630185 2.5595841746315737 1 0 0
255 85 1 0.5897 -2.3010303537771746 8.886099862161037 3.9875576229537515 1 0 0
146 49 1 0.5897 -1.3154596406917118 6.475364526283551 1.869810510752946 1 0 0
147 49 1 0.5897 -0.9847443971386558 7.415455547584926 0.7301104349016372 1 0 0
332 111 1 0.5897 -2.1655482214315507 9.36586505264289 0.947297318653666 1 0 0
145 49 2 -1.1794 -0.6114119792799637 6.717225299510235 1.2681550431157558 1 0 0
112 38 2 -1.1794 -3.0431004079469766 6.440097837671661 2.5214937723113438 1 0 0
291 97 1 0.5897 -3.4978243324971405 10.420630141675309 2.7890159466481443 1 0 0
290 97 1 0.5897 -2.0203512797371657 10.749121915259881 2.758891147040269 1 0 0
188 63 1 0.5897 0.8534240003624038 9.753499477412127 1.3372927496520346 0 0 0
200 67 1 0.5897 0.49612625776805874 7.7600883317976255 2.1743157132638813 0 0 0
9 3 1 0.5897 -0.5888196048028158 5.87442670217258 4.328723103258407 0 0 0
12 4 1 0.5897 1.420725620040935 6.571987678580904 4.661958753589191 0 0 0
222 74 1 0.5897 3.121999173263812 11.212809997748073 3.0695788164447455 0 0 0
10 4 2 -1.1794 2.3191330215524975 6.277029678215421 4.513358012101941 0 0 0
199 67 2 -1.1794 0.9940735435386125 8.465477330695933 2.587522965433638 0 0 0
113 38 1 0.5897 -3.1278937640583906 5.984647783721201 3.3591455080054495 1 0 0
220 74 2 -1.1794 3.749862059136264 10.678463028177912 3.556015302786769 0 0 0
245 82 1 0.5897 0.8415784050755368 9.4141622257282 4.119886769064721 0 0 0
221 74 1 0.5897 4.52747505688034 10.654671419506855 2.9984188210006253 0 0 0
239 80 1 0.5897 3.7679452893488046 8.891663250593124 1.4081139519196144 0 0 0
240 80 1 0.5897 3.4179367046015656 7.4339675504699585 1.1964160145514746 0 0 0
187 63 2 -1.1794 0.9462329996184771 10.327762681867755 0.5770819121907598 0 0 0
238 80 2 -1.1794 3.683749859916861 8.058297982203905 1.8715650425267982 0 0 0
201 67 1 0.5897 1.9088371187921656 8.199002179850934 2.4958384679974306 0 0 0
114 38 1 0.5897 -3.3429991690957856 5.804671633491967 1.8714435829951956 1 0 0
174 58 1 0.5897 3.6104635123570024 9.104244265827486 4.573679169560281 0 0 0
189 63 1 0.5897 1.8917146977841766 10.423303869653223 0.46258739235442325 0 0 0
331 111 2 -1.1794 -1.9441880291000047 8.857701579740056 0.16690850182924194 1 0 0
696 232 1 0.5897 4.25963545489423 11.075995235128714 0.2962850969068163 0 0 1
694 232 2 -1.1794 3.733413029782075 10.276594940734556 0.2782829420159201 0 0 1
224 75 1 0.5897 -0.27663622731563375 11.217839099930591 3.8975174373079304 0 0 0
82 28 2 -1.1794 2.482022210839247 6.2514382395622 0.13663233643704464 0 0 0
244 82 2 -1.1794 0.7291114961854497 10.084035326410056 4.794346632782353 0 0 0
191 64 1 0.5897 0.5553611924207558 9.829540065532706 8.804146217697587 0 0 0
8 3 1 0.5897 -0.471037421363949 6.1857834447669395 5.805568014466325 0 0 0
109 37 2 -1.1794 -4.16531067920658 6.572360404150033 7.236492955307213 1 0 0
111 37 1 0.5897 -5.087307058415854 6.788928170705612 7.375170025444174 1 0 0
293 98 1 0.5897 -3.9079323624007607 10.400321795938469 7.176431054171917 1 0 0
65 22 1 0.5897 2.4634467296140548 7.506503367677263 8.63939517059556 0 0 0
292 98 2 -1.1794 -4.847049105721646 10.302359399918771 7.333358749519515 1 0 0
254 85 1 0.5897 -1.688367047711111 7.8504061809319206 4.906394121107538 1 0 0
246 82 1 0.5897 0.4895772938950582 9.594388030151732 5.5811974730778475 0 0 0
294 98 1 0.5897 -4.906557157634486 9.952665460316839 8.222427522764681 1 0 0
837 279 1 0.5897 -6.04702521111499 8.391955574325886 8.98751478034921 1 0 0
64 22 2 -1.1794 2.1793568546938378 6.88425489871707 7.969790450920984 0 0 0
110 37 1 0.5897 -4.1433242151256735 6.157526765378461 6.374130675147289 1 0 0
202 68 2 -1.1794 0.3975027604388046 8.805436590090789 7.162039132609841 0 0 0
203 68 1 0.5897 -0.4062101250393493 8.410035788413769 7.499500756355164 0 0 0
204 68 1 0.5897 1.0594935895282465 8.1202992861098 7.255389179765149 0 0 0
588 196 1 0.5897 -1.2847649582462126 6.5984156609229485 9.378094755191782 0 0 0
235 79 2 -1.1794 -1.940277169290198 7.8097121488029 8.286211255644798 0 0 0
236 79 1 0.5897 -2.7225336536603537 7.440841821853957 7.876048766611082 0 0 0
237 79 1 0.5897 -2.262683370354552 8.558596724027565 8.787743055243078 0 0 0
302 101 1 0.5897 -2.0655930075061733 10.040807911878689 5.930313196404134 1 0 0
301 101 2 -1.1794 -2.380061295770681 10.821492999027926 6.3863438116847595 1 0 0
172 58 2 -1.1794 3.81728703941617 8.399965255527734 5.188168601290399 0 0 0
7 3 2 -1.1794 -0.4427429555509472 6.595604504126286 4.9409692151774 0 0 0
66 22 1 0.5897 2.989874052631116 6.598504999859299 7.548355282981968 0 0 0
173 58 1 0.5897 3.220806286838071 7.690355637713562 4.949572810195355 0 0 0
257 86 1 0.5897 -4.227421480876934 8.537216296500599 4.928041081023742 1 0 0
228 76 1 0.5897 1.8773327176491037 11.123759245551486 5.762346448917548 0 0 0
258 86 1 0.5897 -5.121311277558368 9.240272399524942 5.927309972041917 1 0 0
303 101 1 0.5897 -1.583877526951425 11.288523356621514 6.639694106596446 1 0 0
253 85 2 -1.1794 -2.4040918867286694 8.483561781449444 4.84988883710701 1 0 0
618 206 1 0.5897 -6.588211935857858 6.001350528404667 11.354808167529995 1 0 0
794 265 1 0.5897 -5.252898895545465 10.655292644948139 12.24794312665145 1 0 0
586 196 2 -1.1794 -0.6427527782701121 5.988941665141896 9.742408312628095 0 0 0
750 250 1 0.5897 -3.1159235269356955 10.701495477460766 13.99284173540154 0 0 0
742 248 2 -1.1794 0.44707162124818467 7.8299609155192105 11.39348566596179 0 0 0
724 242 2 -1.1794 0.6406297752645909 10.798122911629022 12.738263380621015 0 0 0
616 206 2 -1.1794 -6.414553283851373 6.6310220099945045 12.054543605932299 1 0 0
693 231 1 0.5897 -2.467276438879756 9.657773592764075 10.718712220781372 0 0 0
649 217 2 -1.1794 -3.9188769013946 6.839765464659912 11.03814124103819 1 0 0
650 217 1 0.5897 -3.321130499026785 7.336230826157803 11.597126403748769 1 0 0
651 217 1 0.5897 -4.730781820720297 6.78699450602669 11.542306907149674 1 0 0
795 265 1 0.5897 -5.773908048253956 9.685610755504722 11.208596629619331 1 0 0
744 248 1 0.5897 0.23903494068479025 7.1688464308020485 10.733241467919761 0 0 0
793 265 2 -1.1794 -5.872532015922751 9.935748144038392 12.127250884481008 1 0 0
513 171 1 0.5897 -3.862324181492121 6.0555411831234665 14.248638345480352 0 0 0
759 253 1 0.5897 -5.708132366989819 8.848391260448796 13.599492988389123 1 0 0
703 235 2 -1.1794 -2.0846277516302862 8.520891395120977 12.219853140489535 0 0 0
704 235 1 0.5897 -1.1916245659179383 8.231843870906253 12.032215866083765 0 0 0
705 235 1 0.5897 -2.0077752921489473 9.028664997610035 13.027631819499318 0 0 0
743 248 1 0.5897 0.5338321886874491 8.64466341173181 10.898412104746072 0 0 0
678 226 1 0.5897 0.39526936622212183 9.234505828398852 13.815704838404718 0 0 0
836 279 1 0.5897 -4.902034639675676 8.267078113662592 9.970059117439211 1 0 0
835 279 2 -1.1794 -5.538072958033539 8.893477492047435 9.624455997958057 1 0 0
726 242 1 0.5897 -0.03651649167171378 11.228958061419357 12.216549879685912 0 0 0
192 64 1 0.5897 0.8448279612550103 10.91722093518563 9.816660069400251 0 0 0
617 206 1 0.5897 -7.0757027996424045 7.31265024097321 11.933618656034627 1 0 0
691 231 2 -1.1794 -2.4224423179690078 10.031831510948754 9.838745402264134 0 0 0
190 64 2 -1.1794 0.3672317949986752 10.095295945703821 9.704255083308999 0 0 0
692 231 1 0.5897 -1.4963480222798107 10.23831022853601 9.712698260954635 0 0 0
797 266 1 0.5897 -6.9443776024114285 10.738211900188237 16.87847836263228 1 0 0
695 232 1 0.5897 -2.8652248674004444 10.13544090926512 18.42892845814987 0 0 0
741 247 1 0.5897 -6.007031493904432 8.947278404588895 18.31150252490358 0 0 0
613 205 2 -1.1794 -7.446168413292664 6.510269037194564 16.85344681037906 1 0 0
740 247 1 0.5897 -6.187982552248515 7.733285504722934 17.425190123667832 0 0 0
568 190 2 -1.1794 -1.3333926618055214 7.095170482335264 17.829928806558705 0 0 0
333 111 1 0.5897 -8.343676562896594 9.66480700522936 18.573602479880265 1 0 -1
677 226 1 0.5897 0.3472258539531934 9.170144072396416 15.327474348146449 0 0 0
758 253 1 0.5897 -5.484425636329684 9.350853114235365 15.009954357787647 1 0 0
570 190 1 0.5897 -0.5045978467110244 6.939028742396975 17.37727567424323 0 0 0
569 190 1 0.5897 -1.4388015868241553 6.337617503528319 18.40556389656473 0 0 0
749 250 1 0.5897 -2.765390255696608 9.924094455343424 15.243811089770881 0 0 0
798 266 1 0.5897 -8.087154978836683 9.833577572310618 16.469097561418756 1 0 0
511 171 2 -1.1794 -3.645452645744742 6.714812060929802 14.90788403062268 0 0 0
796 266 2 -1.1794 -7.847849553003488 10.512639232071342 17.099878703546956 1 0 0
706 236 2 -1.1794 -3.0598549894337985 9.106190604430209 16.843025954431198 0 0 0
707 236 1 0.5897 -3.9458288498677447 8.855787973691584 17.10477313278526 0 0 0
708 236 1 0.5897 -2.524779655774206 8.33760442678199 17.041406951626648 0 0 0
739 247 2 -1.1794 -5.5184168601283865 8.31643510230672 17.782762261716705 0 0 0
83 28 1 0.5897 -4.711936179964111 7.053398167669655 18.773813680876167 0 0 -1
512 171 1 0.5897 -4.2907792276029255 7.409139341522358 14.774368130509428 0 0 0
805 269 2 -1.1794 -5.395019344083638 10.942771844560262 15.925174502389247 1 0 0
615 205 1 0.5897 -7.182223979385043 6.189324226783902 15.991157844994879 1 0 0
762 254 1 0.5897 -7.529816770760587 8.480883755334451 14.759533650761508 1 0 0
676 226 2 -1.1794 0.45259366189906025 8.622484694852139 14.549520782093959 0 0 0
748 250 2 -1.1794 -2.3928923330790433 10.244096767620798 14.422195579720986 0 0 0
515 172 1 0.5897 -1.8903960169045693 6.591850181168934 14.554173909087874 0 0 0
516 172 1 0.5897 -0.46730566873293444 7.105567573827006 14.502483569208872 0 0 0
757 253 2 -1.1794 -5.6284747248799825 8.550130822804626 14.505571304986198 1 0 0
84 28 1 0.5897 -3.907395241024645 5.801670495293112 18.494347382704554 0 0 -1
514 172 2 -1.1794 -0.9857651421586464 6.304028098568711 14.431602719995123 0 0 0
280 94 2 -1.1794 -3.395929128372111 13.965597372348475 2.610350278799079 1 0 0
281 94 1 0.5897 -3.3783376998781174 13.539085153536867 3.4671327064694917 1 0 0
282 94 1 0.5897 -2.5264401474048346 14.35507912379249 2.5182899307501763 1 0 0
500 167 1 0.5897 -1.7715108862555673 15.947456269012312 0.5059982585284781 1 0 0
367 123 2 -1.1794 1.0627387287280223 16.464684021305914 2.68883883699204 0 0 0
369 123 1 0.5897 1.024567001391656 16.842723983498978 3.5673936185096697 0 0 0
313 105 2 -1.1794 -0.9443996617311332 14.951766175272866 1.7728193840585427 1 0 0
315 105 1 0.5897 -0.6132259503804249 14.194603816405209 1.2897658618726164 1 0 0
180 60 1 0.5897 2.052929003171326 13.746253113930242 3.9717173816343387 0 0 0
223 75 2 -1.1794 -0.6822487177523637 11.909168784592994 3.374128807039184 0 0 0
225 75 1 0.5897 -0.8114049755973447 12.631331824878345 3.9890214206093284 0 0 0
314 105 1 0.5897 -0.17933929118254355 15.295593035087274 2.2340052801961803 1 0 0
184 62 2 -1.1794 5.380277484316423 12.495714135746875 0.5837300715450997 0 0 0
423 141 1 0.5897 -2.450833522495091 16.671189807373885 4.083064968704804 1 0 0
216 72 1 0.5897 0.9654861389836649 12.35421767224762 2.544749805932011 0 0 0
368 123 1 0.5897 1.9577546011514748 16.135037478482403 2.608117325586684 0 0 0
406 136 2 -1.1794 3.5738984400448013 15.652272222640434 2.0986551462598815 0 0 0
407 136 1 0.5897 4.376158867796953 15.188761822352529 2.3391665088731486 0 0 0
215 72 1 0.5897 2.054907822027767 12.963701477409334 1.6883260327094973 0 0 0
252 84 1 0.5897 2.9039786360538065 14.666103264285837 0.8922932679139719 0 0 0
408 136 1 0.5897 3.8672343911198697 16.35471659800595 1.5182836243551456 0 0 0
214 72 2 -1.1794 1.9086174981564596 12.515921035783508 2.5216127769559527 0 0 0
250 84 2 -1.1794 2.455439674655982 14.041728892177618 0.32200696094636916 0 0 0
269 90 1 0.5897 -3.416693350914034 12.788334574860274 1.1281262637487575 1 0 0
770 257 1 0.5897 -1.5065576211677 12.318737058744073 0.09895077625524154 1 0 1
771 257 1 0.5897 -0.080610950590561 11.851773576208863 0.3003862236659227 1 0 1
178 60 2 -1.1794 1.9493590058773718 14.120534760202426 4.846598897111636 0 0 0
404 135 1 0.5897 -1.7714440445156137 15.981308955874931 7.692458029362083 0 0 0
326 109 1 0.5897 -3.227585286649865 12.024067828491846 5.408479943328055 1 0 0
340 114 2 -1.1794 3.6115304605562972 16.31873183460364 5.3356840185223025 0 0 0
327 109 1 0.5897 -3.991796392945351 13.302408356162802 5.6805155062501065 1 0 0
405 135 1 0.5897 -2.664736912756874 16.45529747211834 8.819022836388193 0 0 0
211 71 2 -1.1794 -0.30575876909519417 12.388494396184452 7.374764887707052 0 0 0
227 76 1 0.5897 1.3473623058849666 12.070737442499636 6.817962936660311 0 0 0
213 71 1 0.5897 -0.4861185613877317 13.009035038336 6.668538230844772 0 0 0
212 71 1 0.5897 -0.5650843786955781 12.850374752690497 8.172036417609943 0 0 0
756 252 1 0.5897 -1.5845852970367735 14.538282455176917 9.06702860310635 0 0 0
232 78 2 -1.1794 1.8505170153341481 14.53275337201802 8.218295381538152 0 0 0
341 114 1 0.5897 3.1368163194032848 15.50666857856165 5.1582814851797085 0 0 0
234 78 1 0.5897 1.3014631674697963 15.141253576070623 7.723683219673051 0 0 0
370 124 2 -1.1794 0.002494569104428468 16.41412177164535 7.246643282545402 0 0 0
179 60 1 0.5897 2.135179184151637 13.394220425651127 5.4418500518565605 0 0 0
277 93 2 -1.1794 -4.457554813473747 13.890164366474677 7.365773129022628 1 0 0
278 93 1 0.5897 -3.928381825559984 14.639329327913353 7.63962903325869 1 0 0
754 252 2 -1.1794 -0.9918053724160063 13.94516499071909 9.528756155923507 0 0 0
425 142 1 0.5897 -4.1554209449464725 15.896584303859912 5.065381085577274 1 0 0
403 135 2 -1.1794 -2.5398667612068757 15.731263609368554 8.205447440264036 0 0 0
175 59 2 -1.1794 -0.7551078439654573 13.982417203789323 5.185574255401399 0 0 0
267 89 1 0.5897 -3.908460748620748 12.678328658164816 8.701929575647554 1 0 0
279 93 1 0.5897 -5.349104536120155 14.116617525849867 7.6304586658303055 1 0 0
690 230 1 0.5897 1.7151222272594344 13.079794247730211 9.3032610031897 0 0 0
226 76 2 -1.1794 2.1512779991765933 11.814049291030333 6.366275204044887 0 0 0
176 59 1 0.5897 -1.2312701054549853 14.79755435755747 5.026832817998859 0 0 0
233 78 1 0.5897 2.6681979312867767 14.49009637755869 7.722591190385326 0 0 0
1004 335 1 0.5897 -5.47761259228812 16.95310814967614 9.066897183958437 1 0 0
371 124 1 0.5897 0.0967772000847531 17.0198221220532 7.981833093117354 0 0 0
325 109 2 -1.1794 -3.695527537904039 12.73437324692716 4.969311190536331 1 0 0
372 124 1 0.5897 0.102700675151985 16.963243750690104 6.4690001915777815 0 0 0
177 59 1 0.5897 0.15898789982717432 14.198826210461972 5.001846732569583 0 0 0
462 154 1 0.5897 -5.014892997738574 17.003701996738535 6.8672808184897844 1 0 0
266 89 1 0.5897 -3.333913370833336 11.566232547665928 9.553649718831188 1 0 0
265 89 2 -1.1794 -3.9528148197040465 12.296091474183914 9.5784021993965 1 0 0
421 141 2 -1.1794 -2.3108424090235724 16.27862837351538 4.944809381255186 1 0 0
773 258 1 0.5897 -6.58645320211809 12.895418036652313 10.692500720080819 1 0 0
728 243 1 0.5897 -3.1547307840046974 12.040292444769381 12.268787194222462 0 0 0
755 252 1 0.5897 -0.4230499602117348 14.522709129467199 10.037885890379938 0 0 0
718 240 2 -1.1794 -1.3837222681417138 12.331315948199808 11.664460825491826 0 0 0
912 304 1 0.5897 0.9706440134712322 15.23789854623222 11.634446714626112 0 0 0
720 240 1 0.5897 -1.303094662131521 12.943631188670814 12.395786053098044 0 0 0
872 291 1 0.5897 -2.3288779978230174 17.042533980741148 11.40853479127708 0 0 0
871 291 2 -1.1794 -2.0996613597825258 16.45126827821842 12.125627923974188 0 0 0
831 277 1 0.5897 -7.518370069140329 12.17755720629533 14.121487643185962 1 0 0
784 262 2 -1.1794 -6.281184348182523 14.002865679735281 12.059154995387551 1 0 0
729 243 1 0.5897 -4.088304567392541 12.743788537229012 13.23076528382841 0 0 0
911 304 1 0.5897 -0.3934161357902992 15.887367520862133 11.73172497997539 0 0 0
910 304 2 -1.1794 0.3548526177690374 15.782638274086185 11.144123698802623 0 0 0
1005 335 1 0.5897 -4.964987557713343 15.9128063863937 10.040170092041587 1 0 0
727 243 2 -1.1794 -3.951509192421915 11.909028130120975 12.782660515159371 0 0 0
719 240 1 0.5897 -1.259447009979647 12.871764824269398 10.884222791503772 0 0 0
786 262 1 0.5897 -6.361616405198861 13.565944665506153 12.907044996786288 1 0 0
817 273 2 -1.1794 -3.8405088067709543 14.619093011167609 11.00495084300663 1 0 0
818 273 1 0.5897 -4.633935975099772 14.465538708550117 11.517837399660378 1 0 0
819 273 1 0.5897 -3.7172875361304847 13.811533980903631 10.505965848858779 1 0 0
873 291 1 0.5897 -2.6078118151147827 15.658275480717432 11.954657425998658 0 0 0
725 242 1 0.5897 0.8315499424069897 11.417788062887176 13.44241910468995 0 0 0
682 228 2 -1.1794 -1.2053814205984086 14.03071238653061 13.91247095708294 0 0 0
846 282 1 0.5897 0.2663337196432698 16.969026930171673 13.952742116736346 0 0 0
1003 335 2 -1.1794 -5.7475206129170795 16.4139565675168 9.810363240809954 1 0 0
688 230 2 -1.1794 1.8816527910219518 12.389064869400755 9.944771899532707 0 0 0
785 262 1 0.5897 -7.015391149568009 14.616589071941181 12.034694194486496 1 0 0
774 258 1 0.5897 -5.758024041233826 12.14988702014048 9.66791357066332 1 0 0
925 309 2 -1.1794 -5.8825332652982345 16.094808515998942 14.342867202589607 1 0 0
917 306 1 0.5897 -2.5296961203020008 17.069531533523772 13.754090790522161 0 0 0
680 227 1 0.5897 -2.8947495304311186 14.239239002407299 14.289640040128305 0 0 0
684 228 1 0.5897 -0.6830449878842098 14.820489592521215 14.052831684909155 0 0 0
679 227 2 -1.1794 -3.8363779458908933 14.219352444553113 14.460269837650696 0 0 0
683 228 1 0.5897 -0.9831724920493681 13.461795233644347 14.649567352387843 0 0 0
717 239 1 0.5897 -2.8167293485919798 12.788226579186826 16.7007607328172 0 0 0
783 261 1 0.5897 -8.566605778615326 14.383713333995042 16.80497682969007 1 0 0
844 282 2 -1.1794 0.3638426443620162 16.157503593647093 14.451056702992172 0 0 0
681 227 1 0.5897 -3.9159559694273387 13.802928363943243 15.318489244510477 0 0 0
830 277 1 0.5897 -7.08999418774091 13.23928694733679 15.112060127858157 1 0 0
732 244 1 0.5897 -0.46995844095519157 11.783643860766336 16.397605588099786 0 0 0
715 239 2 -1.1794 -3.7446476418465426 12.924629707673464 16.891951154725177 0 0 0
716 239 1 0.5897 -3.7500749541811738 13.453633733876485 17.689678301793897 0 0 0
874 292 2 -1.1794 -3.405760729927043 16.24913717929202 16.9464284966498 0 0 0
907 303 2 -1.1794 -5.906654024650312 15.73647162090502 17.918522361076157 0 0 0
875 292 1 0.5897 -3.259185778243988 16.573396936654163 16.057825978197414 0 0 0
876 292 1 0.5897 -2.6772561450513805 15.649073826532508 17.106262127974468 0 0 0
736 246 2 -1.1794 -1.3668669342198285 14.681611900570593 17.784608732876578 0 0 0
909 303 1 0.5897 -5.096393252313528 15.836987205115246 17.41899070616018 0 0 0
781 261 2 -1.1794 -7.691840195144438 14.025031667346093 16.655405965396966 1 0 0
782 261 1 0.5897 -7.4932583293131065 13.53568948720561 17.453806525928826 1 0 0
730 244 2 -1.1794 -1.208512395617011 12.259614839935496 16.01770826283746 0 0 0
908 303 1 0.5897 -6.478746983752236 15.224002905563054 17.347265790711866 0 0 0
185 62 1 0.5897 -1.3773830520417683 13.288219014981859 18.9460794643243 0 0 -1
251 84 1 0.5897 -4.871472109311469 14.704199392990242 18.963637170478854 0 0 -1
738 246 1 0.5897 -0.648935047349644 14.329065550189695 17.258786351489256 0 0 0
927 309 1 0.5897 -5.602588714225899 16.867515698515966 14.833628529544821 1 0 0
737 246 1 0.5897 -0.9460290433071208 15.300985267243556 18.38087627008676 0 0 0