LAMMPS data file via write_data, version 30 Jul 2021, timestep = 22000000

972 atoms
2 atom types
648 bonds
1 bond types
324 angles
1 angle types

0.09164869819598387 19.908352301802793 xlo xhi
0.0822246565817828 19.91777634341448 ylo yhi
0.12862562555870838 20.571372374451542 zlo zhi

Masses

1 1.008
2 15.999

Pair Coeffs # lj/cut/tip4p/long/omp

1 0 0
2 0.21084 3.1668

Bond Coeffs # harmonic/omp

1 450 0.9572

Angle Coeffs # harmonic/omp

1 55 104.52

Atoms # full

4 2 2 -1.1794 4.241506306348135 1.3242013520307718 3.274088281481978 0 0 0
17 6 1 0.5897 4.5479114552692055 4.445000338666886 2.8358609372129537 0 0 0
22 8 2 -1.1794 2.181817225130419 0.8046976658453324 4.828291028943391 0 0 0
10 4 2 -1.1794 1.4941585381510347 4.228197340063931 4.103871396111021 0 0 0
11 4 1 0.5897 1.3004201934575472 3.4697755109354187 3.552919912951685 0 0 0
12 4 1 0.5897 2.444630750399098 4.207084585477642 4.215698193467095 0 0 0
16 6 2 -1.1794 4.1744601064737035 4.058967799369658 3.6281580320057025 0 0 0
18 6 1 0.5897 4.0824605940947745 3.1288076687171746 3.421602980174531 0 0 0
23 8 1 0.5897 2.8658680801804675 0.9114991531281683 4.1672849262031075 0 0 0
31 11 2 -1.1794 0.7202403778289864 2.2395498612088107 2.457508455818346 0 0 0
33 11 1 0.5897 1.4072390755072428 2.2600565434252857 1.791264544329454 0 0 0
5 2 1 0.5897 4.320938875663506 0.6266744156480175 2.6233894690220145 0 0 0
6 2 1 0.5897 4.913902457322494 1.122867207458466 3.9249496523756213 0 0 0
236 79 1 0.5897 0.8777231322895933 0.40090289631115283 2.1769171688244087 0 1 0
2 1 1 0.5897 2.592375319682241 3.4414070486391837 0.2712434086168898 0 0 0
3 1 1 0.5897 3.6107830890195545 2.472440665187338 0.8334651621669771 0 0 0
1 1 2 -1.1794 2.6896640602930892 2.5413034764878546 0.5821785993341813 0 0 0
356 119 1 0.5897 1.8275042613923658 2.3151979715119335 8.325820112064774 0 0 0
330 110 1 0.5897 4.31700438305674 0.5856258352495957 9.32745592117069 0 0 0
325 109 2 -1.1794 2.869471539559971 2.3659516899750983 6.915149890860663 0 0 0
326 109 1 0.5897 2.6848174308376604 1.8584912152585142 6.124828214511751 0 0 0
327 109 1 0.5897 3.7815965068529014 2.163071389059111 7.122967068526146 0 0 0
561 187 1 0.5897 1.2191795612278629 0.458632994037635 8.89623296907917 0 1 0
355 119 2 -1.1794 1.140327605213087 2.2206071844715263 8.985430785869067 0 0 0
27 9 1 0.5897 2.583904824650373 4.284579499176798 6.725421052365257 0 0 0
342 114 1 0.5897 4.455214370541742 4.523691029054661 9.921354610748883 0 0 0
328 110 2 -1.1794 4.207877008415095 1.3589401108361738 9.880961867627859 0 0 0
335 112 1 0.5897 1.2932709341651456 3.3485976905946524 10.277830660219198 0 0 0
341 114 1 0.5897 4.255242090290313 3.073625946252657 10.307954416692139 0 0 0
357 119 1 0.5897 0.3274170066376817 2.39912530339452 8.512556546341555 0 0 0
102 34 1 0.5897 0.43719628511654507 0.9316093657761403 5.349585345971078 1 0 0
683 228 1 0.5897 4.2620080504020015 2.5690890474852353 14.42997728680812 0 0 0
334 112 2 -1.1794 1.4786155011464304 4.090131654356265 10.854078182780018 0 0 0
346 116 2 -1.1794 2.1756979888822663 0.6022771824923692 11.717035159229887 0 0 0
347 116 1 0.5897 1.2547968319367244 0.7846510889307398 11.529882889729901 0 0 0
348 116 1 0.5897 2.6482942390844832 0.955167689361435 10.963147513677782 0 0 0
350 117 1 0.5897 2.7635480409700635 4.184335442591085 13.66840275178187 0 0 0
649 217 2 -1.1794 2.506012247860355 2.4615603614111956 13.99061128559992 0 0 0
650 217 1 0.5897 2.357533313208093 1.8426548339525046 13.275674990636482 0 0 0
651 217 1 0.5897 1.7955464488056412 2.2893010432089986 14.608539800904614 0 0 0
336 112 1 0.5897 2.433859404579547 4.118014568284703 10.909641388947872 0 0 0
329 110 1 0.5897 4.657143008778034 1.1358147620988954 10.696184332030592 0 0 0
340 114 2 -1.1794 4.275743200696433 3.9584208805435876 10.672681146745212 0 0 0
405 135 1 0.5897 0.3455137342841752 4.64829473035525 12.116017419052644 1 0 0
652 218 2 -1.1794 4.208986737461766 1.1345202266087522 17.242330480794063 0 0 0
653 218 1 0.5897 3.338139554325729 0.8452514945898718 17.514897770831293 0 0 0
654 218 1 0.5897 4.38528281324103 0.6423448899442002 16.440515074157215 0 0 0
658 220 2 -1.1794 1.4131973007301515 4.226102911984057 17.473743875396625 0 0 0
659 220 1 0.5897 0.6557997709842509 4.25124572854108 18.058544284778506 0 0 0
664 222 2 -1.1794 4.019624715695799 3.85901964348169 17.552701326390217 0 0 0
665 222 1 0.5897 3.079549733089125 4.035595203608213 17.59031528106804 0 0 0
666 222 1 0.5897 4.0815941163586125 2.9089388993058245 17.453484694884335 0 0 0
670 224 2 -1.1794 1.7190828436980994 1.004431477602619 18.66134232622026 0 0 0
671 224 1 0.5897 1.940735664637002 1.6183918970855933 19.3614659386612 0 0 0
672 224 1 0.5897 0.7633589095550631 0.9535455655357006 18.680383285720183 0 0 0
681 227 1 0.5897 0.9156270890768419 2.8078715990173646 16.49234870372076 0 0 0
679 227 2 -1.1794 0.6328759601778974 2.145936347669916 15.861348357602207 0 0 0
660 220 1 0.5897 1.252909964115355 4.928256104135597 16.843218735992505 0 0 0
884 295 1 0.5897 0.6274676332442368 0.3733208574886307 15.625746444590103 0 1 0
110 37 1 0.5897 1.983614673464172 9.258479043809787 0.9308097325705458 0 0 0
141 47 1 0.5897 0.9785017484441474 8.036156934055308 2.458920518469824 0 0 0
139 47 2 -1.1794 0.6985616631715664 8.919015999058585 2.2170312123487284 0 0 0
114 38 1 0.5897 3.0444172474851654 7.7076616461104415 3.9715008084980177 0 0 0
111 37 1 0.5897 3.4429173238470825 9.261254973671047 0.5275860268591178 0 0 0
14 5 1 0.5897 4.423361635310047 5.7118793521417714 0.8773019973564878 0 0 0
15 5 1 0.5897 4.697824764947583 6.698780932137516 1.9920439946272395 0 0 0
19 7 2 -1.1794 0.9568905447565321 6.146964927564708 2.3332391974972095 0 0 0
20 7 1 0.5897 1.1167101927128438 5.5148997322278746 3.0341016782392645 0 0 0
112 38 2 -1.1794 3.8346992462537717 7.873259378756984 3.4573660817286735 0 0 0
674 225 1 0.5897 2.122389749661796 5.624451042067607 0.951043918512028 0 0 1
13 5 2 -1.1794 5.002699479162235 5.8699694831263525 1.622690655501641 0 0 0
140 47 1 0.5897 0.9220818836256373 9.458052486281709 2.9757927098449986 0 0 0
126 42 1 0.5897 4.244051532650276 9.646054782854186 3.403745701138091 0 0 0
132 44 1 0.5897 0.7465766562760465 7.368427814671763 5.215245178479024 0 0 0
113 38 1 0.5897 4.555373296825246 7.6457522096135015 4.044867236862762 0 0 0
130 44 2 -1.1794 1.7038261492378564 7.365790276564221 5.218834892827543 0 0 0
109 37 2 -1.1794 2.5620830499926326 9.409083744264718 0.18319077430054367 0 0 0
673 225 2 -1.1794 2.654332172181273 5.379753929441949 0.1938088128064308 0 0 1
26 9 1 0.5897 1.7770447131882214 5.328718126029705 7.467610735742167 0 0 0
464 155 1 0.5897 1.3899889093435278 8.696291926848813 8.55207475931905 0 0 0
344 115 1 0.5897 0.7268822544111095 5.413823575447994 9.48435802083597 0 0 0
437 146 1 0.5897 4.0312999592693295 7.703721635310627 9.714342709604853 0 0 0
339 113 1 0.5897 3.7687396302424205 5.729032785503123 7.915796857163038 0 0 0
435 145 1 0.5897 2.0860517342949656 8.781750487762626 6.4396595139997865 0 0 0
433 145 2 -1.1794 2.423388623079475 9.249578190261513 7.203544763656952 0 0 0
463 155 2 -1.1794 0.672054618981388 8.401739219386181 9.112523823608282 0 0 0
345 115 1 0.5897 0.7195328189227707 6.758244657486846 8.788257908162883 0 0 0
337 113 2 -1.1794 4.420601551559928 5.9162364644680006 8.591295094284034 0 0 0
343 115 2 -1.1794 0.542600596936806 5.82895082174372 8.641796696940789 0 0 0
468 156 1 0.5897 4.2110925551098175 9.183477746035944 7.414097027346932 0 0 0
131 44 1 0.5897 1.9398738488838205 6.564495711547659 5.68629350911988 0 0 0
443 148 1 0.5897 0.8166461606427075 9.809512534115887 10.22618247510852 0 0 0
25 9 2 -1.1794 2.4990598805159254 5.230299764756437 6.846895168800226 0 0 0
757 253 2 -1.1794 2.6397927633147065 9.20710064340727 14.057124482100058 0 0 0
351 117 1 0.5897 3.520544050514643 5.34884256441824 14.27089060167015 0 0 0
668 223 1 0.5897 1.3855364425082846 5.903351739363506 14.70417708990389 0 0 0
759 253 1 0.5897 2.5626396280244768 8.624200483355306 13.301806404193457 0 0 0
349 117 2 -1.1794 2.8947541828004093 5.1285152467448185 13.580893866742578 0 0 0
454 152 2 -1.1794 2.1317552950211716 7.32799478818805 12.199306336275134 0 0 0
455 152 1 0.5897 2.7616556451448093 7.383540856674167 11.480704556684817 0 0 0
456 152 1 0.5897 2.338256621000016 6.501614214115679 12.636063572771581 0 0 0
792 264 1 0.5897 4.569615989587387 9.162961116245825 14.247879087765925 0 0 0
436 146 2 -1.1794 4.2015141240121805 8.135358606792074 10.551559565409358 0 0 0
533 178 1 0.5897 0.3866705347075623 7.581272175162104 12.014626344742892 1 0 0
438 146 1 0.5897 4.079690226773522 9.067363921077673 10.37026895741936 0 0 0
762 254 1 0.5897 4.980600168079091 7.884391361649359 18.003022533522614 0 0 0
788 263 1 0.5897 1.0083620867745813 9.484596693689092 16.677457041703935 0 0 0
858 286 1 0.5897 0.3558312817258261 7.181642041829527 18.714014151090964 1 0 0
779 260 1 0.5897 2.193576897473384 8.04735567429983 19.477664190744868 0 0 0
780 260 1 0.5897 2.722562169042243 7.620277081339246 18.125032299349325 0 0 0
675 225 1 0.5897 2.370810714714996 5.9742835940628325 19.942000815212864 0 0 0
760 254 2 -1.1794 4.324171277954388 8.036758900661589 17.323205952878435 0 0 0
761 254 1 0.5897 4.259958989145512 8.989820956136692 17.260870468049163 0 0 0
778 260 2 -1.1794 2.084136235239458 7.382773422366499 18.797525318733015 0 0 0
787 263 2 -1.1794 1.004474004843023 8.694712923916574 16.136760822722533 0 0 0
669 223 1 0.5897 0.9265049106949426 6.971826706306072 15.673524087844815 0 0 0
663 221 1 0.5897 4.324945677153123 6.704819663648178 16.21460239860734 0 0 0
662 221 1 0.5897 4.37111405452769 5.197719525334062 16.351302776028195 0 0 0
667 223 2 -1.1794 0.8596112989144724 6.03409598231141 15.493183555261501 0 0 0
789 263 1 0.5897 1.6627234251678247 8.862378637266147 15.462335164470325 0 0 0
661 221 2 -1.1794 4.469343920146679 5.903169930034319 15.711814316254326 0 0 0
222 74 1 0.5897 4.088020935236047 13.79789641460459 2.4883925369696236 0 0 0
118 40 2 -1.1794 1.6110531694688148 10.730214980312622 4.0249575240772195 0 0 0
119 40 1 0.5897 2.5554203560559303 10.652464671586365 3.889103978548313 0 0 0
120 40 1 0.5897 1.3624394609442911 11.51609241170986 3.538253767274774 0 0 0
123 41 1 0.5897 4.188730165431504 12.227493762995575 0.6467113135254539 0 0 0
783 261 1 0.5897 1.8691125681881027 12.46522548876972 0.47244839609674905 0 0 1
124 42 2 -1.1794 4.274937582842752 10.598722971814654 3.492021880169895 0 0 0
240 80 1 0.5897 2.3249407240804856 13.764709415701226 4.201157886552166 0 0 0
127 43 2 -1.1794 0.7303831755786332 12.688209991294459 2.192040641583197 0 0 0
129 43 1 0.5897 0.8505609577840694 13.626915454327342 2.336037315659584 0 0 0
238 80 2 -1.1794 1.6389787223776455 13.808366302524362 4.86735668523216 0 0 0
220 74 2 -1.1794 3.8044477478451655 14.106783738412313 3.3488448834603957 0 0 0
122 41 1 0.5897 4.449935795339245 11.779922479667489 2.069119115207233 0 0 0
125 42 1 0.5897 4.853099260175252 10.751877797839953 4.239343430034915 0 0 0
121 41 2 -1.1794 4.7476041449290545 12.400873901106992 1.4042301544583078 0 0 0
133 45 2 -1.1794 2.2776595187135924 12.018366034954175 6.773360016452331 0 0 0
134 45 1 0.5897 1.5808385901262232 12.254378576544308 7.385726219309145 0 0 0
135 45 1 0.5897 3.085983536530084 12.265514014989208 7.222616709705681 0 0 0
573 191 1 0.5897 0.7494864293909133 14.5353197508558 9.112682689261588 0 0 0
445 149 2 -1.1794 4.362606368975543 12.528715388882272 8.409312953163475 0 0 0
239 80 1 0.5897 1.8450248289339077 13.094646986663625 5.471030996060459 0 0 0
450 150 1 0.5897 4.051818732466533 11.439349755655869 9.798346255411397 0 0 0
451 151 2 -1.1794 0.6107126701840674 12.619847672543035 8.855579876282887 0 0 0
453 151 1 0.5897 0.7811216779054339 11.937110820402507 9.504497937594444 0 0 0
446 149 1 0.5897 4.293346726503748 13.342521858170564 8.908525386988737 0 0 0
434 145 1 0.5897 2.2754725754776413 10.173951822236434 7.003569738283991 0 0 0
544 182 2 -1.1794 4.211588348648218 14.560836281799546 10.245671034677887 0 0 0
188 63 1 0.5897 0.32346100162716884 11.061749052139302 5.344351560580588 1 0 0
769 257 2 -1.1794 4.45129176137071 12.461825676655666 15.078255419048984 0 0 0
758 253 1 0.5897 2.547131507414545 10.087014492564977 13.691772334023408 0 0 0
457 153 2 -1.1794 2.4045878467869795 11.816836396496422 13.40943441181695 0 0 0
458 153 1 0.5897 1.6796825884556543 11.919610288203511 14.0260524902887 0 0 0
459 153 1 0.5897 3.1868101717058837 12.019762353420541 13.922508870230228 0 0 0
449 150 1 0.5897 4.4076252575644395 11.131116728335574 11.237158639575895 0 0 0
546 182 1 0.5897 4.927894923705427 14.601907667644413 10.87930611445132 0 0 0
562 188 2 -1.1794 2.058016506713784 14.164738991319844 11.813262800289783 0 0 0
563 188 1 0.5897 2.2172014623574015 13.319594148383388 12.233539186048652 0 0 0
444 148 1 0.5897 1.9554354405407668 10.710332051561643 10.65496275305294 0 0 0
442 148 2 -1.1794 1.0086180168307821 10.595794597956392 10.737259465601523 0 0 0
545 182 1 0.5897 3.421878062538426 14.481790856127288 10.780845652447416 0 0 0
642 214 1 0.5897 0.2497595833142362 14.26684031087988 11.676921186707322 1 0 0
564 188 1 0.5897 2.203336939182138 14.80868045834067 12.506386778517118 0 0 0
448 150 2 -1.1794 3.866284752046265 10.825735106950939 10.509185276819188 0 0 0
766 256 2 -1.1794 1.3012882907932797 10.959000577777752 17.681221162845066 0 0 0
965 322 1 0.5897 0.11729523238745815 14.221780458658923 18.819568190440943 1 0 0
768 256 1 0.5897 0.9959996954617392 11.602216060180988 17.04142377516155 0 0 0
772 258 2 -1.1794 4.226565437490666 11.002849408877488 17.360483940093985 0 0 0
773 258 1 0.5897 3.2955528059306163 11.121279378689081 17.548982129730856 0 0 0
774 258 1 0.5897 4.356135141857909 11.429720928235325 16.51360836469386 0 0 0
782 261 1 0.5897 2.3778200565438685 11.245991778244537 20.175755845175065 0 0 0
767 256 1 0.5897 0.6164497328750185 10.941911658120942 18.349780808620196 0 0 0
869 290 1 0.5897 3.4113343936397444 14.329561976452458 17.346279284794086 0 0 0
886 296 2 -1.1794 1.870239291476013 14.199962080084005 18.426262973532 0 0 0
888 296 1 0.5897 2.0240593192944654 13.375597391525474 18.88785671706033 0 0 0
781 261 2 -1.1794 2.519859383900098 12.187924427595739 20.270288152206106 0 0 0
868 290 2 -1.1794 4.271134747389029 14.54119044170916 16.982562131836286 0 0 0
771 257 1 0.5897 4.299317958395653 13.224169037615573 15.636835783263708 0 0 0
777 259 1 0.5897 0.8185415314433935 13.493075047114464 15.52735150037816 0 0 0
887 296 1 0.5897 2.162024462151684 14.875783888643515 19.03814797496863 0 0 0
775 259 2 -1.1794 0.6737646483595355 12.54860507968213 15.469412574210777 0 0 0
870 290 1 0.5897 4.893311229855243 14.225807333478631 17.6380333545607 0 0 0
247 83 2 -1.1794 1.0474104369543054 15.366663353096632 2.0931845847552655 0 0 0
248 83 1 0.5897 1.1718759325403807 16.052744157374722 2.7489559619327544 0 0 0
890 297 1 0.5897 1.8844815290962678 18.874292517713105 0.49600150731146997 0 0 1
235 79 2 -1.1794 0.9158457993031665 19.31979100600959 1.9037842854361449 0 0 0
226 76 2 -1.1794 1.6225291045554902 17.38623092305841 3.7993548810902604 0 0 0
227 76 1 0.5897 1.4317622988071648 18.087699591982936 3.176600024893175 0 0 0
228 76 1 0.5897 0.9848428229164459 17.50963346075171 4.502481380132943 0 0 0
249 83 1 0.5897 1.610941046312228 15.626360245875034 1.364337115905967 0 0 0
230 77 1 0.5897 4.008086397605137 18.892537176723398 0.9301780334322604 0 0 0
232 78 2 -1.1794 4.254293428384967 16.814473670763384 3.435488384374024 0 0 0
233 78 1 0.5897 4.489790026276436 17.39762772507411 2.713891597704905 0 0 0
234 78 1 0.5897 3.3506325301486823 17.048243137236767 3.647841860978244 0 0 0
221 74 1 0.5897 3.9095129059415314 15.057434283769009 3.3092197882562044 0 0 0
229 77 2 -1.1794 4.578280435410404 18.86255518588393 1.6984346042885983 0 0 0
219 73 1 0.5897 3.5459865344209107 15.858844497637547 0.2344232040149964 0 0 0
555 185 1 0.5897 4.450106381431188 18.894153677590474 7.655309981618876 0 0 0
553 185 2 -1.1794 4.885321182677642 18.89466901932592 8.507812850387825 0 0 0
559 187 2 -1.1794 1.2070524797377826 19.361966408925547 8.679082997662743 0 0 0
241 81 2 -1.1794 2.7211953314029853 18.570974290818427 6.51990140004926 0 0 0
242 81 1 0.5897 2.7871644662380466 17.6188088480116 6.44660577664092 0 0 0
243 81 1 0.5897 2.0516328537263906 18.714371982002476 7.188767734463316 0 0 0
541 181 2 -1.1794 2.372389254089059 15.84753757652139 6.634391386789538 0 0 0
542 181 1 0.5897 1.8206466188776989 15.807905336642602 7.415560575949767 0 0 0
572 191 1 0.5897 1.1469850052531059 15.892207214171105 9.653968040409795 0 0 0
571 191 2 -1.1794 0.7631577023445194 15.465687165140029 8.887810664162021 0 0 0
576 192 1 0.5897 4.154117530989531 15.423290007879142 7.241699391932571 0 0 0
558 186 1 0.5897 4.635370903644899 17.76340139597339 9.946744585505238 0 0 0
543 181 1 0.5897 1.9697386023089587 15.229204977124953 6.024631769576668 0 0 0
551 184 1 0.5897 1.5777588966322718 18.299968733389914 10.167626768252088 0 0 0
24 8 1 0.5897 2.434297934905709 19.852378820884166 5.309762187835368 0 -1 0
560 187 1 0.5897 0.2984234651623936 19.183947313950963 8.436101982252003 0 0 0
885 295 1 0.5897 1.4810557610393695 19.245882717636515 14.828182459824623 0 0 0
866 289 1 0.5897 3.579052664882558 16.04818711622366 14.172231760879871 0 0 0
879 293 1 0.5897 4.286800820012596 18.845988087256274 14.933361292439589 0 0 0
867 289 1 0.5897 2.1114188277992945 15.871123267984625 14.499120906368335 0 0 0
550 184 2 -1.1794 1.6946972877020783 17.58332281744296 10.791341214042273 0 0 0
552 184 1 0.5897 2.6364570843000346 17.56489386774508 10.961917536055138 0 0 0
565 189 2 -1.1794 2.864266040226432 18.77821835025929 13.818207015545026 0 0 0
566 189 1 0.5897 2.7342407305415803 17.838038783135808 13.69370418627323 0 0 0
567 189 1 0.5897 2.5873581380456576 19.17055116182219 12.99019368053953 0 0 0
865 289 2 -1.1794 2.7064895174399073 16.08404358550631 13.780232340645952 0 0 0
556 186 2 -1.1794 4.559688702558714 17.264921395572372 10.760385817963382 0 0 0
621 207 1 0.5897 0.4180422194715513 17.74853309666295 11.932015952594096 1 0 0
557 186 1 0.5897 4.3651662883329365 16.371412462415094 10.47730215085723 0 0 0
881 294 1 0.5897 3.161322617674601 17.23629792968517 17.7777870144914 0 0 0
897 299 1 0.5897 0.8679499358488202 15.841927881766198 16.358108977206964 0 0 0
878 293 1 0.5897 4.769256502754718 18.085352443464974 16.1501320371491 0 0 0
882 294 1 0.5897 4.178773377993561 16.240301427249396 17.263066232282572 0 0 0
880 294 2 -1.1794 4.078035999874559 17.158768617591136 17.51327542523859 0 0 0
874 292 2 -1.1794 1.328304528374117 17.386717245562448 17.513115975022615 0 0 0
875 292 1 0.5897 0.707352234032452 17.587508211177177 18.21337432819256 0 0 0
876 292 1 0.5897 1.2431504043343908 18.11705112871476 16.900222364210787 0 0 0
889 297 2 -1.1794 2.5216690361699734 18.72640017967174 20.23991535388617 0 0 0
891 297 1 0.5897 2.336600171347434 19.411523076567377 19.597562095596302 0 0 0
895 299 2 -1.1794 0.8582480576201786 15.206424901389084 15.642372778760482 0 0 0
218 73 1 0.5897 2.6556705121882493 16.97083691663026 20.164375768215702 0 0 -1
217 73 2 -1.1794 2.6624416420964354 16.032210205216103 20.352167512769725 0 0 -1
883 295 2 -1.1794 0.7873865108879198 19.27530171647049 15.487140543211291 0 0 0
877 293 2 -1.1794 4.985245559797419 18.829187245912234 15.587698514994033 0 0 0
69 23 1 0.5897 6.847252571060618 2.293066694152815 1.9150548950595032 0 0 0
273 91 1 0.5897 7.705810090474801 0.20950293995085292 2.0490100924811316 0 1 0
68 23 1 0.5897 8.318201286730577 2.402932670884923 1.5738368184626848 0 0 0
67 23 2 -1.1794 7.721172891300468 2.137528018373951 2.273383339520535 0 0 0
46 16 2 -1.1794 8.139989426473527 4.211377106902018 3.903616353500494 0 0 0
47 16 1 0.5897 7.920725234961031 3.4062915188766487 3.4345224637555196 0 0 0
48 16 1 0.5897 7.505302871289586 4.252729492570145 4.618958570966444 0 0 0
29 10 1 0.5897 7.054144188114135 0.7116269535018271 5.040548551356385 0 0 0
34 12 2 -1.1794 5.44663185618511 2.5548766834072603 0.7915959621260492 0 0 0
53 18 1 0.5897 9.912562996286784 4.129828939837672 3.7154894901462208 0 0 0
41 14 1 0.5897 9.895003302962937 1.1737633419109115 3.940005792515851 0 0 0
9 3 1 0.5897 5.4033343812151 4.370733813673196 4.892249727002129 0 0 0
28 10 2 -1.1794 6.123194059235187 0.5209252170151562 5.155969352159639 0 0 0
36 12 1 0.5897 5.609020457970507 3.3832198135890432 0.3401662538740844 0 0 0
35 12 1 0.5897 5.619977290571307 1.8837181767173041 0.13147302711077558 0 0 0
8 3 1 0.5897 5.801828327512428 3.7074061026034397 6.193417928162405 0 0 0
391 131 2 -1.1794 7.566126644568272 2.092546222969828 8.94949135539442 0 0 0
393 131 1 0.5897 7.659062359053868 1.139963040565696 8.932284953180972 0 0 0
358 120 2 -1.1794 5.566223578345872 2.279378228772986 7.165290106158357 0 0 0
361 121 2 -1.1794 9.365762489978682 2.985936927055362 6.931478217401632 0 0 0
392 131 1 0.5897 8.180220637705453 2.405634266534272 8.285315444621776 0 0 0
362 121 1 0.5897 9.16283501688963 3.8292369938140256 6.526540622336498 0 0 0
7 3 2 -1.1794 6.032722292374457 4.431042627406623 5.61090321877617 0 0 0
359 120 1 0.5897 6.1078485138026535 2.1025154733108105 7.934442838717761 0 0 0
360 120 1 0.5897 5.813861019167756 1.6015008459800844 6.536456179350214 0 0 0
59 20 1 0.5897 9.020392331373692 1.5446800855552272 6.011395765999785 0 0 0
371 124 1 0.5897 7.603725721453561 3.3727716417569473 10.274517066931008 0 0 0
58 20 2 -1.1794 8.735594006957715 0.9431890483804353 5.323402442328141 0 0 0
352 118 2 -1.1794 5.605807865361811 0.8474552428544614 12.21137000727919 0 0 0
353 118 1 0.5897 6.517257347938553 1.0076686656147724 11.966575617946674 0 0 0
370 124 2 -1.1794 7.725782474617549 4.202899249690202 10.73527309595196 0 0 0
684 228 1 0.5897 5.439839253822167 3.33272744280435 13.862821777062729 0 0 0
372 124 1 0.5897 7.110631695460155 4.1635714019296834 11.467580536761618 0 0 0
685 229 2 -1.1794 8.98989397671613 2.7533355656309193 13.85593766066982 0 0 0
382 128 2 -1.1794 8.2944029184884 0.9275912400697244 11.804354122653898 0 0 0
383 128 1 0.5897 8.515532749826694 1.5261856476572118 12.517823809563518 0 0 0
384 128 1 0.5897 9.090404125519532 0.8811458089216121 11.274704045106356 0 0 0
331 111 2 -1.1794 5.896579606858142 4.545403836050695 12.711683536310723 0 0 0
686 229 1 0.5897 8.420871136559887 2.504778198189979 14.58441740668054 0 0 0
354 118 1 0.5897 5.477044778461949 1.362841926572253 13.007626503461132 0 0 0
386 129 1 0.5897 8.990215155889882 4.628872659085566 13.860559533190001 0 0 0
332 111 1 0.5897 5.179178423122823 4.344524265305265 12.110639512163527 0 0 0
687 229 1 0.5897 9.865681716133611 2.7979289280745907 14.239781759782382 0 0 0
682 228 2 -1.1794 5.218259138198803 2.562764306336272 14.386593236615393 0 0 0
377 126 1 0.5897 9.555373864221682 3.859786082287434 10.515338189810373 0 0 0
717 239 1 0.5897 6.598048811013919 2.1503704205770426 15.384769989288422 0 0 0
657 219 1 0.5897 6.970253286135142 4.287209695157493 18.92290563624053 0 0 0
707 236 1 0.5897 9.07914784486404 0.2598256091159108 19.009899967157303 0 0 0
38 13 1 0.5897 9.10352476180883 2.131842493513273 19.707936941727922 0 0 -1
655 219 2 -1.1794 6.128378159844387 4.469865971622354 19.340266088096907 0 0 0
676 226 2 -1.1794 6.124530665907654 0.8252001905684474 19.144283682291206 0 0 0
715 239 2 -1.1794 7.433781167563846 2.134836582822745 15.851266406446335 0 0 0
694 232 2 -1.1794 8.204774740859008 4.110687169334853 17.709535555143702 0 0 0
695 232 1 0.5897 7.939767518097283 3.384931304912734 17.14444079355701 0 0 0
716 239 1 0.5897 7.610358368814687 1.205270716531732 15.996437901934247 0 0 0
706 236 2 -1.1794 8.784312230936717 0.9771673660795244 18.448853745817242 0 0 0
708 236 1 0.5897 7.835196690928547 1.0027528529578262 18.570791913484484 0 0 0
696 232 1 0.5897 7.868592724926363 4.891996900719306 17.270387485972073 0 0 0
677 226 1 0.5897 5.471255071925001 0.9084446840878083 18.449645668296572 0 0 0
710 237 1 0.5897 9.249547164891784 4.5021831256782985 20.414419990219535 0 0 0
656 219 1 0.5897 5.4762914142093475 4.175884199517758 18.704177448559822 0 0 0
702 234 1 0.5897 9.946034523029168 4.119635326296773 17.51884732333161 0 0 0
37 13 2 -1.1794 9.330575214760602 2.637353530169901 20.488408711638428 0 0 -1
143 48 1 0.5897 5.942331072624944 8.79187474677924 1.446307711820861 0 0 0
176 59 1 0.5897 7.589666911515752 7.856516731064717 2.4078747210619116 0 0 0
711 237 1 0.5897 8.875671815407278 5.740245493062503 0.7587345106645447 0 0 1
57 19 1 0.5897 7.882054576676032 5.446673986589041 2.652099999993374 0 0 0
175 59 2 -1.1794 7.528879304811601 8.809942958986838 2.3476994274449323 0 0 0
55 19 2 -1.1794 7.679527644032028 6.106188534526807 1.9885560986524262 0 0 0
56 19 1 0.5897 6.7874400567840505 5.899737157827412 1.7094509310473618 0 0 0
177 59 1 0.5897 8.240278272181289 9.059020446323462 1.757647231946776 0 0 0
166 56 2 -1.1794 8.520069205773906 7.774077947577146 5.0932622015530375 0 0 0
142 48 2 -1.1794 5.237849834516261 8.823254152642788 0.7990138492617203 0 0 0
149 50 1 0.5897 9.93989256457205 8.036340109354647 3.791802565645633 0 0 0
145 49 2 -1.1794 9.307975297211952 9.315070017944253 0.3903168885253585 0 0 0
466 156 2 -1.1794 5.157277576913517 9.041755455475153 7.445833443256082 0 0 0
501 167 1 0.5897 6.4514177155845 8.526125963268528 8.847525364477033 0 0 0
380 127 1 0.5897 7.307244991393659 6.65300596396032 8.805087254703253 0 0 0
61 21 2 -1.1794 9.154926005290337 5.6228411567163725 6.609597420060068 0 0 0
499 167 2 -1.1794 7.355228600677319 8.399023606601359 9.136160918912315 0 0 0
168 56 1 0.5897 8.628065795681616 8.512304328495171 5.692952878667224 0 0 0
137 46 1 0.5897 5.787488956786388 6.362811160080284 5.496154967851724 0 0 0
467 156 1 0.5897 5.319267919181693 8.356838383501321 6.797051879927479 0 0 0
500 167 1 0.5897 7.474304355750898 9.036756357677053 9.839982942910122 0 0 0
470 157 1 0.5897 8.397734601696408 9.223078990991219 7.823647403803853 0 0 0
379 127 2 -1.1794 7.1797399952844385 5.743497652742939 8.535150136161763 0 0 0
62 21 1 0.5897 8.43656301037289 5.594178864548338 7.241567984911124 0 0 0
469 157 2 -1.1794 8.877774438923973 9.603254258508683 7.087944568052229 0 0 0
338 113 1 0.5897 5.259196615973115 5.705634559947014 8.18059625824665 0 0 0
63 21 1 0.5897 9.944439628394633 5.691483360349859 7.146492679739358 0 0 0
136 46 2 -1.1794 5.835466526383986 7.3172521261957915 5.440633708122858 0 0 0
167 56 1 0.5897 8.912007610450242 7.031743393081179 5.553297289081399 0 0 0
471 157 1 0.5897 9.79571521774693 9.402571503729725 7.270867196657793 0 0 0
138 46 1 0.5897 6.760416032745762 7.501951305021752 5.277272330019677 0 0 0
381 127 1 0.5897 7.3540474116992245 5.231936755718727 9.325184387742544 0 0 0
385 129 2 -1.1794 8.941735565004462 5.5498184268330935 14.117162807902227 0 0 0
794 265 1 0.5897 9.12103214853301 8.385501081544035 13.29216329415988 0 0 0
491 164 1 0.5897 9.167480937536254 7.639436974819486 11.101723509402785 0 0 0
791 264 1 0.5897 5.985153608795408 9.064934153269887 14.77589749416062 0 0 0
333 111 1 0.5897 5.9948891818627486 5.496136373372795 12.658841570014888 0 0 0
793 265 2 -1.1794 9.354454005345952 8.954241441818882 14.025850046685079 0 0 0
790 264 2 -1.1794 5.484905768723112 9.246155649093627 13.98019984515845 0 0 0
387 129 1 0.5897 8.944417801408871 6.030160100013014 13.289228683080443 0 0 0
460 154 2 -1.1794 6.037086146862753 7.158976999334948 12.36278754042187 0 0 0
461 154 1 0.5897 5.811027829315818 7.778063318462602 13.056964758848101 0 0 0
492 164 1 0.5897 7.8693011493968035 7.249872116504353 11.776317738662193 0 0 0
490 164 2 -1.1794 8.817848037323929 7.254018630493227 11.90511524229937 0 0 0
462 154 1 0.5897 5.4775629331935525 7.408434489426705 11.627294565838136 0 0 0
795 265 1 0.5897 9.16988651500687 9.839405620223182 13.71160463398166 0 0 0
824 275 1 0.5897 7.983574950437497 8.751490812192174 15.327304596525511 0 0 0
814 272 2 -1.1794 8.911217112364884 7.47030309014474 18.724326684153606 0 0 0
786 262 1 0.5897 7.114846801251035 7.4254909198515415 18.9314076848418 0 0 0
815 272 1 0.5897 9.059736364055759 6.652549442273993 19.199221680887046 0 0 0
825 275 1 0.5897 7.357298837657657 7.7608829599863824 16.285675492744687 0 0 0
785 262 1 0.5897 6.160761202182241 6.347903285642414 19.401146911124417 0 0 0
823 275 2 -1.1794 7.30897431841191 8.673842974507988 16.001950383606584 0 0 0
816 272 1 0.5897 9.072114031032466 8.15661573328113 19.371899710786522 0 0 0
784 262 2 -1.1794 6.201597714903315 7.277723521924948 19.177351248886026 0 0 0
703 235 2 -1.1794 7.217689027013017 6.08278442821544 16.265858199820865 0 0 0
804 268 1 0.5897 7.7520466887280985 9.864193296073564 17.168636357885497 0 0 0
709 237 2 -1.1794 9.41628867174309 5.443189102032152 20.469563266597774 0 0 0
144 48 1 0.5897 5.514841706747978 8.215554679256085 20.556036519647936 0 0 -1
704 235 1 0.5897 6.2943207992820795 6.117456596550009 16.01580503615249 0 0 0
705 235 1 0.5897 7.673835788089176 5.825226553545156 15.464721828568901 0 0 0
154 52 2 -1.1794 8.174046483088015 10.770276768700954 4.198608580689325 0 0 0
285 95 1 0.5897 7.681366944025889 14.396997673861073 2.3506603584478483 0 0 0
156 52 1 0.5897 9.12200090147212 10.893393671038478 4.147874900008351 0 0 0
163 55 2 -1.1794 7.640275669652458 12.629964443674933 2.1784238618050535 0 0 0
164 55 1 0.5897 6.728993847679945 12.613497097696115 1.8857869821880375 0 0 0
165 55 1 0.5897 7.656933395274246 12.055419946135247 2.943833535160194 0 0 0
819 273 1 0.5897 8.57130298342322 12.350351714446681 0.5929482070915755 0 0 1
276 92 1 0.5897 9.334740193684132 14.122111291254832 4.52593823056588 0 0 0
155 52 1 0.5897 8.000256980446885 10.012256012975751 3.640493457996966 0 0 0
246 82 1 0.5897 5.134362714291106 14.054276907329282 4.586696458406411 0 0 0
275 92 1 0.5897 7.869003055937513 14.032522804430766 4.894339397097998 0 0 0
244 82 2 -1.1794 5.843270664802125 13.783261560414271 5.170035668951969 0 0 0
117 39 1 0.5897 5.742250501369706 10.406456496860072 6.3707284356451455 0 0 0