LAMMPS data file via write_data, version 30 Jul 2021, timestep = 18250000

972 atoms
2 atom types
648 bonds
1 bond types
324 angles
1 angle types

0.03541552728367847 19.964585472708592 xlo xhi
0.12308643299853195 19.876914566997378 ylo yhi
0.04599455747294279 20.65400344252457 zlo zhi

Masses

1 1.008
2 15.999

Pair Coeffs # lj/cut/tip4p/long/omp

1 0 0
2 0.21084 3.1668

Bond Coeffs # harmonic/omp

1 450 0.9572

Angle Coeffs # harmonic/omp

1 55 104.52

Atoms # full

18 6 1 0.5897 4.291426896541114 3.2542548663989566 3.457962673145474 0 0 0
22 8 2 -1.1794 1.7541636044359372 0.9180065262163526 4.870005320709256 0 0 0
16 6 2 -1.1794 4.062574066384187 4.167623790708837 3.6296742496069077 0 0 0
12 4 1 0.5897 2.197443287573091 4.402146741566247 3.9777681222341172 0 0 0
31 11 2 -1.1794 1.1405074186947042 2.0311036734958305 2.0030316340189955 0 0 0
11 4 1 0.5897 1.212502679505196 3.447469846051824 3.3372023537563753 0 0 0
33 11 1 0.5897 1.7185135961855509 2.1415179743583477 1.2480372388272143 0 0 0
10 4 2 -1.1794 1.2602954478276132 4.229390724438951 3.887126905944523 0 0 0
23 8 1 0.5897 2.5656822793077056 1.0946963527355407 4.3940477615694205 0 0 0
236 79 1 0.5897 1.3109829257952164 0.2700188403475323 1.8029337489105581 0 1 0
4 2 2 -1.1794 4.291821976835707 1.3368125544158695 3.704482731287953 0 0 0
17 6 1 0.5897 4.365582747145593 4.64065578553413 2.8546653109176177 0 0 0
32 11 1 0.5897 0.26142972221580474 2.185480305967036 1.6569917002542305 0 0 0
5 2 1 0.5897 4.190886894405836 0.9275237115994048 2.845118695235421 0 0 0
3 1 1 0.5897 3.5535552649971573 2.362343269287756 0.1595029545834618 0 0 0
342 114 1 0.5897 4.625270747479216 4.056552089278565 9.758754249141248 0 0 0
355 119 2 -1.1794 0.8541490769610112 2.3110322363437485 9.109168417138608 0 0 0
356 119 1 0.5897 1.504714539279193 2.5188892750757583 8.438444136887835 0 0 0
325 109 2 -1.1794 2.6330287204244374 2.601555996390951 7.002881193657353 0 0 0
326 109 1 0.5897 2.343516463473261 1.8915747675425143 6.42992520492848 0 0 0
327 109 1 0.5897 3.5729949899016353 2.455460030508674 7.110005536808785 0 0 0
341 114 1 0.5897 4.151283013962239 2.658651334613587 10.094541146920875 0 0 0
330 110 1 0.5897 4.1381525000139066 0.22714447545242292 9.409551903246648 0 0 0
27 9 1 0.5897 2.9372433262609383 4.550615482251684 6.575756844691199 0 0 0
561 187 1 0.5897 1.1248524887172342 0.377143900216415 8.977075833896688 0 1 0
328 110 2 -1.1794 3.742015310247511 0.8171825986816176 10.050750581514958 0 0 0
335 112 1 0.5897 1.2821033256770282 3.5461805216929987 10.227965863626173 0 0 0
348 116 1 0.5897 2.285099629789205 0.9201489563160755 11.103208855863903 0 0 0
350 117 1 0.5897 2.634063044048601 4.63603444345655 13.790369348984798 0 0 0
650 217 1 0.5897 2.105878228951482 2.438429844394335 13.292254776428523 0 0 0
651 217 1 0.5897 1.9244361370802143 2.685093655017937 14.774869222124954 0 0 0
334 112 2 -1.1794 1.5571847226142006 4.2713524397484495 10.788835474011336 0 0 0
346 116 2 -1.1794 1.746378064351313 1.0642313856026941 11.88122563607869 0 0 0
347 116 1 0.5897 0.8487533790146525 0.9189855909569936 11.581962518749593 0 0 0
649 217 2 -1.1794 2.5619608676636805 2.769769412917091 14.065852817465746 0 0 0
336 112 1 0.5897 2.503208695505084 4.157874384140012 10.881272430306783 0 0 0
683 228 1 0.5897 4.185757253031242 2.3764939053840606 14.569189768398653 0 0 0
340 114 2 -1.1794 4.250914629397164 3.5342089547607762 10.468120172437024 0 0 0
405 135 1 0.5897 0.22551343838674118 4.689104221642157 11.955019193992547 1 0 0
329 110 1 0.5897 4.266778111829846 0.6984178301026498 10.842460349165767 0 0 0
567 189 1 0.5897 2.4113592916813906 0.15839766831429358 13.247919840556222 0 1 0
671 224 1 0.5897 0.7615285384792437 0.8832770596423943 18.3630222213024 0 0 0
653 218 1 0.5897 3.26222855859475 1.2061948276363272 17.41503626496481 0 0 0
666 222 1 0.5897 4.512639362652678 3.1171233699747645 17.706867148884506 0 0 0
670 224 2 -1.1794 1.698456640423893 0.6886962633417831 18.38915579322766 0 0 0
659 220 1 0.5897 1.108543050606805 4.470375283303332 18.276082064106753 0 0 0
654 218 1 0.5897 4.424691843354279 0.8102541366618126 16.529574225652382 0 0 0
664 222 2 -1.1794 4.518339648386952 4.069680721339379 17.800082975038762 0 0 0
681 227 1 0.5897 0.7561825652559266 3.1948329327620146 16.265884965617687 0 0 0
652 218 2 -1.1794 4.205791735975777 1.3253985768930856 17.30604808214973 0 0 0
672 224 1 0.5897 2.0509113722168957 1.2926065063101815 19.0428068596795 0 0 0
665 222 1 0.5897 3.5930926186572005 4.314621132104948 17.817625535075052 0 0 0
658 220 2 -1.1794 1.7232757634824578 4.5103102537361925 17.543405915331576 0 0 0
679 227 2 -1.1794 0.6241879530370986 2.3798752112298898 15.781585736203935 0 0 0
884 295 1 0.5897 0.385514813139649 0.5702477217044921 15.868954614875804 0 1 0
2 1 1 0.5897 2.5940064237101357 3.2962540433533 20.061194112243577 0 0 -1
1 1 2 -1.1794 2.7334832669652496 2.3735474375391163 20.27388463514026 0 0 -1
673 225 2 -1.1794 2.383153839593954 5.234234305156061 0.10923677058474389 0 0 1
139 47 2 -1.1794 1.1224355182496863 8.836595315911683 1.8617295373028306 0 0 0
113 38 1 0.5897 4.5239719421178215 7.799230580467348 4.136486621951785 0 0 0
20 7 1 0.5897 0.9886994253101945 5.493132656797048 2.790431690167136 0 0 0
112 38 2 -1.1794 3.715602767382402 7.973223830071116 3.654226828239571 0 0 0
126 42 1 0.5897 3.874549359848397 9.819537183657598 3.8632411862518916 0 0 0
19 7 2 -1.1794 0.7583232928203688 6.079854971109742 2.070114506085631 0 0 0
141 47 1 0.5897 1.1439863782217354 7.93603941966288 2.1851432131694093 0 0 0
140 47 1 0.5897 1.3809805670717137 9.368141107146272 2.614594059169195 0 0 0
114 38 1 0.5897 3.04248399699115 7.487338051837605 4.130738253231881 0 0 0
110 37 1 0.5897 2.295219168401866 9.34624618380031 0.6952028264971705 0 0 0
13 5 2 -1.1794 4.51957533007509 6.029280016566917 1.7069479525949536 0 0 0
14 5 1 0.5897 3.7699539741511785 5.855052040557576 1.137733751169494 0 0 0
15 5 1 0.5897 4.201744641620065 6.684107861922196 2.3285340401882606 0 0 0
674 225 1 0.5897 1.739246519695356 5.536845491328548 0.7496054193421003 0 0 1
130 44 2 -1.1794 1.6662885920033934 7.455031201702983 5.129494427490331 0 0 0
132 44 1 0.5897 0.7250071455608847 7.287776499999733 5.080364489961349 0 0 0
111 37 1 0.5897 3.7010245164941367 9.415242823956344 0.13737765981220917 0 0 0
433 145 2 -1.1794 2.728775728123937 9.270704653474539 7.193185047635821 0 0 0
343 115 2 -1.1794 0.9679926188649157 5.950827877656951 8.767690292849949 0 0 0
435 145 1 0.5897 2.292609447020688 8.918182923696149 6.417468252266334 0 0 0
26 9 1 0.5897 2.0519144850508493 5.477139313685563 7.381737355518145 0 0 0
345 115 1 0.5897 0.896390568167178 6.850310660921663 9.08691139003938 0 0 0
337 113 2 -1.1794 4.833548118615399 5.523556479374433 8.706706111380232 0 0 0
468 156 1 0.5897 4.393517558358186 9.11743714517621 7.35535502835801 0 0 0
344 115 1 0.5897 1.2091639290620522 5.440387045183765 9.540646213929575 0 0 0
437 146 1 0.5897 4.072138961063593 6.855394318872208 9.687679950016921 0 0 0
464 155 1 0.5897 1.484018460328562 8.901334473909936 8.415990128191444 0 0 0
463 155 2 -1.1794 0.8011369739561992 8.716395041850728 9.060775899298438 0 0 0
339 113 1 0.5897 4.182283883662378 5.522527460225213 8.00516227777018 0 0 0
25 9 2 -1.1794 2.800752580503239 5.474447543520492 6.785463382473792 0 0 0
436 146 2 -1.1794 3.650289811535595 7.443206366754878 10.314356050356787 0 0 0
438 146 1 0.5897 3.875443266908514 8.3216977459336 10.00829485141983 0 0 0
131 44 1 0.5897 2.011683728828998 6.731539325115612 5.652402689994508 0 0 0
668 223 1 0.5897 1.3541753709738618 6.004215771446119 15.134400943723877 0 0 0
792 264 1 0.5897 4.87419582567522 9.11062445198876 14.44962092014893 0 0 0
454 152 2 -1.1794 1.714705202933437 7.723869818179019 12.360202751355262 0 0 0
455 152 1 0.5897 2.1898618121755025 7.648130795946223 11.532737070804842 0 0 0
456 152 1 0.5897 2.0731712340382678 7.025261841731911 12.90755276557519 0 0 0
349 117 2 -1.1794 2.7929779558513386 5.568007333324109 13.93945834514232 0 0 0
759 253 1 0.5897 2.6246844268124345 8.849496086495382 13.472571459755589 0 0 0
789 263 1 0.5897 1.552788018966664 8.782587792682063 15.32062196976943 0 0 0
351 117 1 0.5897 3.6746996373920897 5.604810991894495 14.310388643747594 0 0 0
757 253 2 -1.1794 3.031528180910636 9.296676610786177 14.214690604701318 0 0 0
462 154 1 0.5897 4.885383396107964 7.286397702513133 11.534587828877997 0 0 0
675 225 1 0.5897 2.195445459030221 5.743754385342584 19.928983496167888 0 0 0
780 260 1 0.5897 2.5535068298182098 7.616186394263675 18.235591265112312 0 0 0
778 260 2 -1.1794 1.8830504205439362 7.511493630751342 18.910757421105238 0 0 0
787 263 2 -1.1794 0.7467955827784128 8.742323117224018 15.835503763690477 0 0 0
779 260 1 0.5897 2.098982596966461 8.173003554189068 19.56797735793932 0 0 0
760 254 2 -1.1794 4.192403163533974 7.95233347994217 17.14881877591457 0 0 0
761 254 1 0.5897 4.411297512632199 8.858290456771023 16.93102556279601 0 0 0
663 221 1 0.5897 4.997959150249808 6.810296439384843 15.835421445390828 0 0 0
788 263 1 0.5897 0.9216734728475613 9.293244642876184 16.598431999291293 0 0 0
660 220 1 0.5897 1.3851489581278527 5.209819260921081 16.98436031184982 0 0 0
762 254 1 0.5897 4.94797239551782 7.635269784042035 17.64370511724929 0 0 0
669 223 1 0.5897 0.5419818594218213 6.981478738594048 15.957304062382002 0 0 0
667 223 2 -1.1794 0.5296893915860661 6.088364991634298 15.613444538164886 0 0 0
109 37 2 -1.1794 2.813843842267352 9.746258771422944 20.605158501957796 0 0 -1
125 42 1 0.5897 4.629081682759584 10.949515234794784 4.530783688241258 0 0 0
222 74 1 0.5897 4.203816441105728 14.512640044912143 2.4224246388450816 0 0 0
119 40 1 0.5897 1.0635729963930651 11.069776886571844 3.3937836469021097 0 0 0
240 80 1 0.5897 2.685477698067574 14.086329958067513 4.4635299662859484 0 0 0
121 41 2 -1.1794 4.966879405448392 12.439531002135467 1.7065784118116567 0 0 0
118 40 2 -1.1794 1.3950760062025318 10.472099402371674 4.063897278795883 0 0 0
127 43 2 -1.1794 0.7703137713281245 12.32173723530939 2.189171866230825 0 0 0
120 40 1 0.5897 2.3438616986349756 10.598484769966882 4.050171565615284 0 0 0
129 43 1 0.5897 0.9441896682072657 13.218776560852907 2.474065566459655 0 0 0
783 261 1 0.5897 1.8618569296347305 12.570301259892242 0.8479242462467371 0 0 1
122 41 1 0.5897 4.674630971621135 11.90535427584293 2.4451272734281617 0 0 0
220 74 2 -1.1794 3.9508406317513134 14.538788904209069 3.3452225413169403 0 0 0
124 42 2 -1.1794 4.006108801872617 10.766899274166 3.827332009844168 0 0 0
123 41 1 0.5897 4.2193283084627895 12.451983254151324 1.1087910529134604 0 0 0
317 106 1 0.5897 0.17843125374965788 14.243677406748189 5.175481578744142 1 0 0
781 261 2 -1.1794 2.638712255375695 12.466273149298631 0.29836233225145037 0 0 1
782 261 1 0.5897 2.646652932107991 11.53746770008125 0.06745253593321365 0 0 1
133 45 2 -1.1794 2.553604363741443 11.912305406395214 6.965323933949605 0 0 0
134 45 1 0.5897 1.7960279344925154 12.270364687014387 7.428104473627614 0 0 0
135 45 1 0.5897 3.298726520146163 12.116452874270252 7.530521334775097 0 0 0
451 151 2 -1.1794 0.7302133841832206 12.821964153420652 8.866891315696755 0 0 0
450 150 1 0.5897 4.601513863179481 10.710784578875586 9.448421002166333 0 0 0
434 145 1 0.5897 2.7014525922929016 10.21989087344889 7.073251147472335 0 0 0
446 149 1 0.5897 4.759907302234955 13.042128774495911 9.367673640249702 0 0 0
453 151 1 0.5897 1.008780821874146 12.171992414713712 9.511960103057868 0 0 0
445 149 2 -1.1794 4.702898892381508 12.411633860322684 8.64977451346809 0 0 0
239 80 1 0.5897 2.551129505980962 13.250159478820795 5.718329774732518 0 0 0
448 150 2 -1.1794 4.339352902981206 10.066707271910772 10.10610263107472 0 0 0
443 148 1 0.5897 1.1881849240768103 10.004858393923023 10.139355390425282 0 0 0
573 191 1 0.5897 1.241241884404416 14.611897881809986 9.076317532750966 0 0 0
238 80 2 -1.1794 2.1682755691698232 14.000866325343004 5.264450038730455 0 0 0
564 188 1 0.5897 2.228849014501789 13.626683308107863 12.232669514855822 0 0 0
546 182 1 0.5897 3.608241118457477 14.349095547705902 11.142189565223704 0 0 0
769 257 2 -1.1794 4.594061695499079 12.336153631490138 15.007225901090594 0 0 0
758 253 1 0.5897 2.933594494150621 10.227956832370229 14.01666517510527 0 0 0
457 153 2 -1.1794 2.6481107906977295 11.910657183580899 13.081655957105506 0 0 0
458 153 1 0.5897 2.125908310247111 11.92735315473055 13.883723132879458 0 0 0
459 153 1 0.5897 3.5543902770465916 11.971287297925008 13.383928923558418 0 0 0
562 188 2 -1.1794 2.013681854236328 14.463172471026894 11.820322919200422 0 0 0
444 148 1 0.5897 2.4654628523612057 10.66986095546703 10.606749802624826 0 0 0
544 182 2 -1.1794 4.417378101558457 14.264564234619378 10.637706057646982 0 0 0
512 171 1 0.5897 0.07417810372811857 10.894426084794137 11.650099373414623 1 0 0
442 148 2 -1.1794 1.5239952462641344 10.817897838293902 10.516638745472838 0 0 0
642 214 1 0.5897 0.1369975055881542 13.994997698942868 12.202913294591418 1 0 0
775 259 2 -1.1794 1.0411008396234596 12.362506894243834 15.411450806093894 0 0 0
449 150 1 0.5897 4.644387221805773 10.433346751702423 10.935976679004343 0 0 0
776 259 1 0.5897 0.17938202054109453 12.113213857278389 15.07729999082721 0 0 0
771 257 1 0.5897 4.418861999648142 13.165740598066616 15.451268898969905 0 0 0
886 296 2 -1.1794 2.3106568351931713 14.463182845005276 18.56247693415026 0 0 0
766 256 2 -1.1794 1.8541281440855457 10.739032264691886 17.68529419235727 0 0 0
772 258 2 -1.1794 4.607815621805519 10.637252616649675 17.20344132376801 0 0 0
768 256 1 0.5897 1.666998516105419 11.340588292940316 16.96468009543495 0 0 0
773 258 1 0.5897 3.7128584058559806 10.420698158753396 17.465125742346594 0 0 0
767 256 1 0.5897 1.2925492357782344 11.038813156569299 18.400164989517116 0 0 0
777 259 1 0.5897 0.9462872232282665 13.282823203523552 15.656662723295144 0 0 0
868 290 2 -1.1794 4.688414726239736 14.453009094359778 16.880219315845565 0 0 0
888 296 1 0.5897 2.545341186535987 13.580988952501977 18.850184780494423 0 0 0
965 322 1 0.5897 0.4024853512367945 14.264578432723056 18.752079347729506 1 0 0
774 258 1 0.5897 4.510201647204869 11.377489926846872 16.604566965913982 0 0 0
869 290 1 0.5897 3.8932115062564674 14.535303015070907 17.40673428460645 0 0 0
229 77 2 -1.1794 4.561079310212461 18.719246573686114 1.8451911994310284 0 0 0
234 78 1 0.5897 3.4222471025527628 17.519618659975364 4.210675289584119 0 0 0
228 76 1 0.5897 0.8368514001225155 17.675856251525673 4.750337977406133 0 0 0
232 78 2 -1.1794 4.334251158463549 17.26265125406895 4.07433473406726 0 0 0
226 76 2 -1.1794 1.4998235553200738 17.49509855204643 4.083932002008818 0 0 0
249 83 1 0.5897 1.5778994437100848 15.40493012312942 1.9023325652617116 0 0 0
248 83 1 0.5897 1.1028064691924047 15.934531254899337 3.238638263509996 0 0 0
227 76 1 0.5897 1.323731010931387 18.131855138686824 3.391320282954119 0 0 0
219 73 1 0.5897 3.320505279556011 15.60300761551582 0.6040161096376926 0 0 0
235 79 2 -1.1794 1.098041879536028 19.091284625309505 1.7703500058991795 0 0 0
233 78 1 0.5897 4.598112497181076 17.726528396704673 3.2797202621707617 0 0 0
247 83 2 -1.1794 0.9391622482700783 15.243576897370724 2.596796742309981 0 0 0
230 77 1 0.5897 4.06607171352339 18.74843067200758 1.0264219317599834 0 0 0
890 297 1 0.5897 1.9791322965228204 18.585631589589873 0.31334535759886994 0 0 1
221 74 1 0.5897 4.151256613441022 15.43228222095719 3.623781005036413 0 0 0
237 79 1 0.5897 0.14920121577642945 19.065924634195063 1.6460345023743645 0 0 0
217 73 2 -1.1794 2.443916690539416 15.830448945232153 0.2938329395130308 0 0 0
241 81 2 -1.1794 2.91114129526551 18.872832782924974 6.676330962630503 0 0 0
543 181 1 0.5897 2.4009085093296587 15.497931729604105 6.247072354770952 0 0 0
572 191 1 0.5897 1.0786421869910316 15.818186601827621 9.976341417219786 0 0 0
559 187 2 -1.1794 1.1841147024798997 19.226386772498564 8.669973795149156 0 0 0
242 81 1 0.5897 3.0569475906479364 17.93490997504506 6.553929884135956 0 0 0
243 81 1 0.5897 2.344970244868515 18.929270773789945 7.44609928779237 0 0 0
542 181 1 0.5897 2.1615907353358232 16.0864376368443 7.621209229002155 0 0 0
541 181 2 -1.1794 2.7561621690673306 16.129683809973344 6.872265453878563 0 0 0
553 185 2 -1.1794 4.93182316199016 18.578321108934162 8.511366867645645 0 0 0
558 186 1 0.5897 4.395874529381439 17.601039778528033 9.90467310055114 0 0 0
555 185 1 0.5897 4.342621095044037 18.808130961936712 7.792821380082241 0 0 0
576 192 1 0.5897 4.426721784798809 15.348822650852899 7.174072008777866 0 0 0
571 191 2 -1.1794 1.0091417202715087 15.540342753267844 9.063019107006205 0 0 0
552 184 1 0.5897 1.4268882429381307 18.325799201958837 10.324262517037804 0 0 0
560 187 1 0.5897 0.28573106089354283 18.99317201987938 8.435678059298514 0 0 0
24 8 1 0.5897 1.926039344651608 19.857938889797918 5.343463837845665 0 -1 0
551 184 1 0.5897 2.453622805395752 17.376951022473413 10.905169800868578 0 0 0
885 295 1 0.5897 1.0638218369633499 19.423821609356715 14.858360975218238 0 0 0
867 289 1 0.5897 1.7848904186823067 16.009974759706758 14.381814954949062 0 0 0
565 189 2 -1.1794 2.7115915970507136 19.26833574918124 13.889366158837763 0 0 0
566 189 1 0.5897 2.6364166150499475 18.42744549335943 13.438430832299106 0 0 0
621 207 1 0.5897 0.10288387992639869 17.84704240708369 12.168772532086102 1 0 0
866 289 1 0.5897 3.2215536006333414 16.34354940024935 14.039827360556126 0 0 0
865 289 2 -1.1794 2.325636483185825 16.432754202281558 13.714658621955145 0 0 0
879 293 1 0.5897 4.474673301590668 19.13123450792034 14.730179065042556 0 0 0
550 184 2 -1.1794 1.54296874795477 17.656778249502494 10.998870716629645 0 0 0
556 186 2 -1.1794 4.2801288320701145 17.114371213664903 10.720736186429606 0 0 0
557 186 1 0.5897 4.232126935478564 16.197940664894645 10.448809462581695 0 0 0
563 188 1 0.5897 2.1511606416346 15.112822377533995 12.509675774908974 0 0 0
898 300 2 -1.1794 4.982521622061856 15.93883459623439 14.341409202024751 0 0 0
874 292 2 -1.1794 1.2308692455289232 17.2340658229105 17.480314060984206 0 0 0
876 292 1 0.5897 0.7442570425425226 17.253117575337278 18.304400837503103 0 0 0
891 297 1 0.5897 2.3267416659098354 18.95602424084467 19.495228618034915 0 0 0
875 292 1 0.5897 0.9716810845819587 18.03788518812064 17.02995016254298 0 0 0
880 294 2 -1.1794 4.4699461600878125 17.22803344776758 17.410681483634228 0 0 0
881 294 1 0.5897 3.5160238595437097 17.230807300978675 17.490814526552967 0 0 0
897 299 1 0.5897 0.46211315388172663 15.879008480066393 16.238564007081038 0 0 0
882 294 1 0.5897 4.684206801253091 16.340058303591746 17.124833251403494 0 0 0
878 293 1 0.5897 4.621014062147317 18.563277581473123 16.12583871096553 0 0 0
889 297 2 -1.1794 2.6915619751565636 18.552587605231295 20.28286572582259 0 0 0
895 299 2 -1.1794 0.5368419429111494 15.255446369178351 15.516280803541589 0 0 0
883 295 2 -1.1794 0.4251760952755973 19.415298553622755 15.571338358505205 0 0 0
887 296 1 0.5897 2.3091537365705856 14.984824308937524 19.365024621971408 0 0 0
218 73 1 0.5897 2.569846224875724 16.631051006466663 20.39262588008624 0 0 -1
68 23 1 0.5897 7.895252520927328 2.339868678556357 1.6146466973888522 0 0 0
48 16 1 0.5897 7.429264475700361 4.131100377477142 4.506100405354944 0 0 0
67 23 2 -1.1794 7.370809424186992 2.023389656670476 2.3502142438457154 0 0 0
69 23 1 0.5897 6.476132527902317 1.9919018041271954 2.011197039953282 0 0 0
47 16 1 0.5897 7.8559370041650185 3.246899972552894 3.3537563451849435 0 0 0
6 2 1 0.5897 5.08953011012192 0.9479833205741164 4.0633461828488855 0 0 0
46 16 2 -1.1794 8.138784065921138 3.9962077665818714 3.8778546811903767 0 0 0
34 12 2 -1.1794 5.184561826506145 2.4674388143723416 0.7447712003565194 0 0 0
58 20 2 -1.1794 8.879309147731075 0.8740926737787408 4.941863580094839 0 0 0
9 3 1 0.5897 5.318624350269763 4.540257253624309 4.954824540353998 0 0 0
37 13 2 -1.1794 9.003642390708702 2.8803027396656464 0.3001745339645833 0 0 0
36 12 1 0.5897 5.514967587602087 3.2584146061290946 0.3189360133206945 0 0 0
35 12 1 0.5897 5.419754935783654 1.7573949763906154 0.1475592762050097 0 0 0
53 18 1 0.5897 9.860030728943018 3.863268885539993 3.5827285652612613 0 0 0
39 13 1 0.5897 9.895216508272181 2.835139991547549 0.6457668325443586 0 0 0
391 131 2 -1.1794 7.404287252710495 2.6600042878061565 8.974527551946428 0 0 0
7 3 2 -1.1794 6.031330329590321 4.667521041932419 5.581071599367611 0 0 0
359 120 1 0.5897 6.1982479346259005 2.572777006577312 7.694835826939782 0 0 0
392 131 1 0.5897 8.145726888310193 2.843680031354578 8.397592522111676 0 0 0
360 120 1 0.5897 5.570895173715926 1.5822046337287996 6.737237107129376 0 0 0
8 3 1 0.5897 5.967277216889172 3.9181459783669865 6.173077593306716 0 0 0
362 121 1 0.5897 8.929053723735725 3.7811747811356926 6.356296020528773 0 0 0
393 131 1 0.5897 7.388197301203916 1.7058628314572124 9.048214422378159 0 0 0
361 121 2 -1.1794 9.08931591950013 2.882033565069362 6.64259734705728 0 0 0
358 120 2 -1.1794 5.436921736335012 2.4452593966484417 7.128777048455911 0 0 0
28 10 2 -1.1794 6.144825099183001 0.5764495230524183 5.433221730919309 0 0 0
59 20 1 0.5897 9.011994040329338 1.6505764329891321 5.485556619409458 0 0 0
60 20 1 0.5897 9.11856336741517 0.1407315372214697 5.508490236526207 0 0 0
29 10 1 0.5897 7.0701633928367675 0.7765182849383596 5.29145386980071 0 0 0
382 128 2 -1.1794 8.033829413703955 1.3028017932343234 11.849535094190642 0 0 0
372 124 1 0.5897 7.122569080741319 4.351852468025056 11.777504865313109 0 0 0
686 229 1 0.5897 8.348263143597858 2.592138388096583 14.849643545480518 0 0 0
684 228 1 0.5897 5.423243032365743 2.9683048799474396 13.928511753863686 0 0 0
685 229 2 -1.1794 8.962101669475423 2.8588870174871106 14.165307045758638 0 0 0
383 128 1 0.5897 8.328450334402223 1.8412442515799847 12.584008142094856 0 0 0
353 118 1 0.5897 6.139018804812323 0.9369007528218976 11.711920480417845 0 0 0
331 111 2 -1.1794 5.6494173449592 4.346851846025658 12.681377551464662 0 0 0
384 128 1 0.5897 8.72720151793765 1.3892948508637988 11.195266972374327 0 0 0
352 118 2 -1.1794 5.304494744316647 0.6919508319093347 12.111805008774052 0 0 0
687 229 1 0.5897 9.825607736807351 2.766621427055889 14.56807214508759 0 0 0
332 111 1 0.5897 5.1444785896563845 4.0971800550529665 11.907456727879966 0 0 0
370 124 2 -1.1794 7.845776477185921 4.491716765281164 11.166177028875882 0 0 0
354 118 1 0.5897 5.280799713677639 1.1792196176055323 12.93533448048496 0 0 0
386 129 1 0.5897 9.193946030573903 4.794378719296952 13.204288986115786 0 0 0
377 126 1 0.5897 9.709425325291319 4.4485954349207555 10.594588387496866 0 0 0
371 124 1 0.5897 7.7514626185454 3.7928928226273757 10.518955964508335 0 0 0
682 228 2 -1.1794 5.141121145024623 2.380961708384147 14.629657401495344 0 0 0
657 219 1 0.5897 6.880312699239236 4.346972228913519 19.471331479417458 0 0 0
715 239 2 -1.1794 7.394053623062517 2.1008476603381583 16.158463263774905 0 0 0
706 236 2 -1.1794 8.720092757774003 0.9820907409681388 18.86407632371425 0 0 0
711 237 1 0.5897 9.487915629508585 4.593035283553263 20.524045252198412 0 0 0
677 226 1 0.5897 5.491817439976402 0.7125521872899704 18.641499098539903 0 0 0
38 13 1 0.5897 8.980897014256627 2.2198115577583937 20.21580681508877 0 0 -1
716 239 1 0.5897 7.515555973116325 1.1524550241176046 16.115287852771935 0 0 0
717 239 1 0.5897 6.571010412074777 2.258692078904708 15.69582349958213 0 0 0
708 236 1 0.5897 7.7827150544387855 1.1700699656542284 18.912838664982885 0 0 0
695 232 1 0.5897 7.673173709410295 3.5267092488002247 17.357421849272434 0 0 0
694 232 2 -1.1794 8.132458968244867 4.231354503867624 17.81427005422207 0 0 0
676 226 2 -1.1794 5.946432445028458 0.6561062104092676 19.481968926006218 0 0 0
655 219 2 -1.1794 6.058119938970087 4.417111320142835 19.956549759292265 0 0 0
656 219 1 0.5897 5.377531072084658 4.347727648887268 19.286998246686032 0 0 0
696 232 1 0.5897 7.948958187787298 5.013827035972168 17.294454260009807 0 0 0
689 230 1 0.5897 9.940032701650525 1.4026011227818687 17.378958146613954 0 0 0
707 236 1 0.5897 8.83757432803283 0.20438414968509022 19.409514313161637 0 0 0
175 59 2 -1.1794 7.030580688121575 8.871439605260006 2.263215461427121 0 0 0
57 19 1 0.5897 8.02620892805109 5.382369116986386 2.8087011327109903 0 0 0
143 48 1 0.5897 5.916476551347891 8.828680918713816 0.939747554196678 0 0 0
177 59 1 0.5897 7.633893421166925 9.083130590034399 1.550837074004656 0 0 0
56 19 1 0.5897 6.971129625018834 5.920134439583741 1.865477368428727 0 0 0
176 59 1 0.5897 7.2721360595389015 7.983435149450876 2.5262650518345033 0 0 0
138 46 1 0.5897 7.0978066459916915 7.487674482846806 5.132847555933315 0 0 0
55 19 2 -1.1794 7.854651410920395 6.093002676264414 2.190868376144419 0 0 0
166 56 2 -1.1794 8.747628799327156 7.6993448528349235 4.7395155884807405 0 0 0
710 237 1 0.5897 8.92192098417265 5.762853032182937 0.6925165514715029 0 0 1
145 49 2 -1.1794 8.863742444378305 9.48540046203605 0.22998353935465005 0 0 0
147 49 1 0.5897 9.642530048894718 9.179356928662807 0.6948872643653814 0 0 0
142 48 2 -1.1794 5.338923457188522 8.853168346203102 0.17677545006469586 0 0 0
470 157 1 0.5897 8.433810868054623 9.19400031635856 7.906609202057437 0 0 0
379 127 2 -1.1794 7.720542677500439 6.33737637916876 8.918290599027214 0 0 0
338 113 1 0.5897 5.659059048165455 5.728775911748393 8.267643703246646 0 0 0
137 46 1 0.5897 6.125312909750985 6.394288030203511 5.520977483407286 0 0 0
499 167 2 -1.1794 7.31954523070713 9.013395230059547 9.403943096016095 0 0 0
501 167 1 0.5897 6.444092663897547 9.134334440790346 9.036064768409414 0 0 0
500 167 1 0.5897 7.486999458136323 9.818021912472833 9.894507172227673 0 0 0
61 21 2 -1.1794 8.925120396856148 5.7152371210640585 6.572137905145428 0 0 0
381 127 1 0.5897 7.716402194274342 5.950954576656181 9.793995072775497 0 0 0
380 127 1 0.5897 7.461083853402117 7.248196459814196 9.056717023215592 0 0 0
168 56 1 0.5897 8.6514433801287 8.467009899478892 5.3030551375403565 0 0 0
62 21 1 0.5897 8.31231870241699 5.892052779428031 7.285938000426823 0 0 0
469 157 2 -1.1794 8.899164069740662 9.204593445342953 7.070187744415457 0 0 0
136 46 2 -1.1794 6.168312953926517 7.322483659763185 5.291429735150815 0 0 0
63 21 1 0.5897 9.78686069872521 5.906253920707584 6.9426591789665055 0 0 0
467 156 1 0.5897 5.463759834870829 8.356702351855198 6.6017826710586345 0 0 0
471 157 1 0.5897 9.81245017169512 9.034831603844225 7.301424863280368 0 0 0
466 156 2 -1.1794 5.342677148367835 9.049456148515404 7.251068638574206 0 0 0
167 56 1 0.5897 8.797500809153355 6.960917566933209 5.346462256555754 0 0 0
794 265 1 0.5897 9.252518483571313 9.12247145728691 13.729527012150875 0 0 0
387 129 1 0.5897 9.035100761647266 6.263405529731723 12.875232174208568 0 0 0
460 154 2 -1.1794 5.573787421884105 7.076772050019291 12.165838235898612 0 0 0
791 264 1 0.5897 6.288331970203762 8.963462302135403 14.969914597173648 0 0 0
793 265 2 -1.1794 9.607407419926526 9.627663543483502 14.461000930003577 0 0 0
333 111 1 0.5897 5.659366700270696 5.303735684576642 12.662946316082039 0 0 0
490 164 2 -1.1794 8.420449007934872 7.762275848074899 11.99119473440103 0 0 0
491 164 1 0.5897 8.86129376763786 7.970739175056705 11.167503944520778 0 0 0
492 164 1 0.5897 7.529128987003206 7.52681165807813 11.733514427851082 0 0 0
461 154 1 0.5897 5.575822443191963 7.8165195608039 12.773221518502288 0 0 0
385 129 2 -1.1794 9.510743918799045 5.663556212757024 13.449831129871765 0 0 0
790 264 2 -1.1794 5.788858005488276 9.112996657594937 14.167185520539281 0 0 0
705 235 1 0.5897 8.459818445372333 5.794230537549881 15.15219833447318 0 0 0
703 235 2 -1.1794 7.876953924731394 6.012404732571428 15.879482689745219 0 0 0
709 237 2 -1.1794 9.53793680392662 5.545762882840051 20.6007476920687 0 0 0
816 272 1 0.5897 9.09688423790161 8.081046392287357 19.494295981725415 0 0 0
785 262 1 0.5897 6.1320651470467595 6.038182120986329 19.121330870152526 0 0 0
784 262 2 -1.1794 6.25072645806184 6.816291881081672 18.576802403139077 0 0 0
786 262 1 0.5897 7.198848402616692 6.890302053767755 18.46732399045905 0 0 0
814 272 2 -1.1794 8.9404624697085 7.465051849538853 18.77858308388683 0 0 0
815 272 1 0.5897 9.326548110576052 6.643035508824236 19.08083854091001 0 0 0
825 275 1 0.5897 7.837465820480056 7.91344245587709 16.227710604266136 0 0 0
823 275 2 -1.1794 7.5884253341565655 8.834054381514724 16.146886582855203 0 0 0
704 235 1 0.5897 7.001787420272161 5.7923097643488655 15.560115928330621 0 0 0
144 48 1 0.5897 5.749769627275113 8.262215521687642 20.153781694634894 0 0 -1
661 221 2 -1.1794 5.22620444943392 5.896181350062625 15.666949094076301 0 0 0
662 221 1 0.5897 5.019581755592143 5.442765608461526 16.484201594787244 0 0 0
824 275 1 0.5897 8.261066061557658 9.21593147986096 15.582982849433733 0 0 0
164 55 1 0.5897 7.938752823668747 11.914887039200226 2.3918043731819503 0 0 0
275 92 1 0.5897 9.272792661947243 13.820269993657622 4.270880169700876 0 0 0
156 52 1 0.5897 8.979160609805556 10.42882777614038 3.7167457059696636 0 0 0
165 55 1 0.5897 6.736325991567546 12.623662746495514 1.8054040623795244 0 0 0
154 52 2 -1.1794 8.089000575331731 10.645654852049256 3.9941609919042818 0 0 0
163 55 2 -1.1794 7.685682266417424 12.698024255735074 1.9031385275184012 0 0 0
818 273 1 0.5897 8.670884690901222 12.60574798558352 0.3934835302767655 0 0 1
245 82 1 0.5897 5.546751848691825 13.570434507457167 4.182792821385673 0 0 0
276 92 1 0.5897 7.8279381442543805 13.723848456172634 4.712782756127001 0 0 0
285 95 1 0.5897 7.64284929253714 14.567145318907649 2.3937079945381727 0 0 0
274 92 2 -1.1794 8.684240570193587 14.049569276252566 4.990130840276153 0 0 0
244 82 2 -1.1794 6.0696485433315175 13.532047420546677 4.983664499120901 0 0 0
155 52 1 0.5897 7.528061014601594 10.075456585708494 3.46839227053558 0 0 0
116 39 1 0.5897 6.6799138570499315 10.865894944914814 5.059527825804338 0 0 0
146 49 1 0.5897 9.032823030461744 10.41258872133303 0.0631842030918719 0 0 0
252 84 1 0.5897 5.6221652991376425 14.815372755638883 0.14672685552115894 0 0 0
447 149 1 0.5897 5.589811426980353 12.375150014924294 8.291420884926945 0 0 0