LAMMPS (30 Jul 2021)
  using 1 OpenMP thread(s) per MPI task
package omp 0
using multi-threaded neighbor list subroutines
echo both

include		in.partitions
variable        pid world 0
include		in.temp
variable        temperature equal 249.66
variable	tempDamp equal 100.0
include		in.pressure
variable        pressure equal 5375.0
variable        pressureDamp equal 1000.0 # This is 1 ps
include		in.seed
variable        seed world 745823

units		real
atom_style	full
read_restart	restart.lmp.${pid}
read_restart	restart.lmp.0
Reading restart file ...
  restart file = 30 Jul 2021, LAMMPS = 30 Jul 2021
  restoring atom style full from restart
  orthogonal box = (0.52594599 1.7110262 0.64165288) to (17.681626 21.918152 21.571543)
  4 by 4 by 4 MPI processor grid
  restoring pair style lj/cut/tip4p/long/omp from restart
  restoring bond style harmonic/omp from restart
  restoring angle style harmonic/omp from restart
  864 atoms
  576 bonds
  288 angles
Finding 1-2 1-3 1-4 neighbors ...
  special bond factors lj:    0        0        0       
  special bond factors coul:  0        0        0       
     2 = max # of 1-2 neighbors
     1 = max # of 1-3 neighbors
     1 = max # of 1-4 neighbors
     2 = max # of special neighbors
  special bonds CPU = 0.129 seconds
  read_restart CPU = 0.273 seconds
include 	in.setup
variable	out_freq equal 1000
variable	out_freq2 equal 10000
variable	out_freq3 equal 1000

timestep	2.0

neigh_modify    delay 7 every 1

include		in.tip4p
# This is TIP4P/Ice

# create groups ###
group ox type 2
288 atoms in group ox
group hy type 1
576 atoms in group hy

# set charges - beside manually ###
set group ox charge -1.1794
Setting atom values ...
  288 settings made for charge
set group hy charge 0.5897
Setting atom values ...
  576 settings made for charge

# ### TIP3P Potential Parameters ###
pair_style lj/cut/tip4p/long/omp 2 1 1 1 0.1577 8.5
pair_coeff 1 1*2 0.000 0.000
pair_coeff 2 2 0.21084 3.1668
bond_style  harmonic
bond_coeff  1 450 0.9572
angle_style harmonic
angle_coeff 1 55 104.52
kspace_style pppm/tip4p/omp 1.0e-5
pair_modify tail yes

thermo          ${out_freq}
thermo          1000
thermo_style    custom step temp pe etotal epair emol press lx ly lz vol pxx pyy pzz pxy pxz pyz enthalpy

restart 	${out_freq3} restart.lmp.${pid} restart2.lmp.${pid}
restart 	1000 restart.lmp.${pid} restart2.lmp.${pid}
restart 	1000 restart.lmp.0 restart2.lmp.${pid}
restart 	1000 restart.lmp.0 restart2.lmp.0


include         in.dump
dump            myDump all atom ${out_freq2} dump.water.${pid}
dump            myDump all atom 10000 dump.water.${pid}
dump            myDump all atom 10000 dump.water.0
dump            myDump2 all dcd ${out_freq2} dump.dcd
dump            myDump2 all dcd 10000 dump.dcd
dump_modify     myDump append yes
dump_modify     myDump2 append yes


variable natoms 	equal  "count(all)"                        # NUMBER ATOMS
variable H      	equal  "enthalpy/v_natoms"                 # ENTHALPY-per-atom
variable Vol      	equal  "vol/v_natoms"                 # volume-per-atom
fix AVG all 		ave/time ${out_freq} 1 ${out_freq} v_Vol v_H file vol_enthalpy.dat
fix AVG all 		ave/time 1000 1 ${out_freq} v_Vol v_H file vol_enthalpy.dat
fix AVG all 		ave/time 1000 1 1000 v_Vol v_H file vol_enthalpy.dat


timer           timeout 23:50:00 every 1000
New timer settings: style=normal  mode=nosync  timeout=23:50:00

fix 		1 all shake 1e-6 200 0 b 1 a 1
       0 = # of size 2 clusters
       0 = # of size 3 clusters
       0 = # of size 4 clusters
     288 = # of frozen angles
  find clusters CPU = 0.105 seconds
fix             2 all nph iso ${pressure} ${pressure} ${pressureDamp}
fix             2 all nph iso 5375 ${pressure} ${pressureDamp}
fix             2 all nph iso 5375 5375 ${pressureDamp}
fix             2 all nph iso 5375 5375 1000
fix             3 all temp/csvr ${temperature} ${temperature} ${tempDamp} ${seed}
fix             3 all temp/csvr 249.66 ${temperature} ${tempDamp} ${seed}
fix             3 all temp/csvr 249.66 249.66 ${tempDamp} ${seed}
fix             3 all temp/csvr 249.66 249.66 100 ${seed}
fix             3 all temp/csvr 249.66 249.66 100 745823

run             250000
PPPM initialization ...
  extracting TIP4P info from pair style
  using 12-bit tables for long-range coulomb (../kspace.cpp:340)
  G vector (1/distance) = 0.37338648
  grid = 24 24 24
  stencil order = 5
  estimated absolute RMS force accuracy = 0.0032623031
  estimated relative force accuracy = 9.8243288e-06
  using double precision FFTW3
  3d grid and FFT values/proc = 2535 216
Last active /omp style is kspace_style pppm/tip4p/omp
Neighbor list info ...
  update every 1 steps, delay 7 steps, check yes
  max neighbors/atom: 2000, page size: 100000
  master list distance cutoff = 10.8154
  ghost atom cutoff = 10.8154
  binsize = 5.4077, bins = 4 4 4
  1 neighbor lists, perpetual/occasional/extra = 1 0 0
  (1) pair lj/cut/tip4p/long/omp, perpetual
      attributes: half, newton on, omp
      pair build: half/bin/newton/omp
      stencil: half/bin/3d
      bin: standard
Per MPI rank memory allocation (min/avg/max) = 9.234 | 9.237 | 9.241 Mbytes
Step Temp PotEng TotEng E_pair E_mol Press Lx Ly Lz Volume Pxx Pyy Pzz Pxy Pxz Pyz Enthalpy 
17500000    252.06256   -3906.9306    -3474.904   -3906.9306            0    6067.6599     17.15568    20.207125     20.92989    7255.7019    5048.8492    7254.7234     5899.407   -1669.2509    -162.2798   -868.85706   -2832.8426 
17501000    244.26338   -3920.6733   -3502.0142   -3920.6733            0    5318.4653    17.115308    20.159572    20.880636    7204.5976    5792.1833    5452.6782    4710.5344    533.94686   -145.72703    1117.1188   -2943.1942 
17502000    245.27851   -3924.1391   -3503.7402   -3924.1391            0    4425.6134    17.193019    20.251106    20.975443    7303.1806    3940.6824    4632.0539    4704.1038   -1130.0673    -34.39891    1675.4134   -3032.3707 
17503000    249.10704   -3930.2994   -3503.3384   -3930.2994            0    7983.9334    17.125139    20.171152     20.89263    7217.0203    8496.2006    7821.6959    7633.9038    2181.8564   -1064.6506   -344.16919   -2663.0068 
17504000    245.13353   -3969.7449   -3549.5944   -3969.7449            0    5484.6412    17.229622    20.294218    21.020098    7349.9234     5491.778    5952.9156      5009.23    974.32348    1111.5897    999.87208   -2961.6897 
17505000     242.7269   -3924.3492   -3508.3237   -3924.3492            0    4407.3592    17.235077    20.300645    21.026754    7356.9077    3118.9295     5964.264    4138.8841   -302.64549    34.860481   -1270.1129   -3035.4451 
17506000    241.29637   -3918.8827    -3505.309   -3918.8827            0     4088.289    17.229431    20.293993    21.019865    7349.6789    4477.2669     3320.663     4466.937    144.89027   -1140.4467   -312.93372   -3067.0954 
17507000    256.70602   -3948.9608   -3508.9755   -3948.9608            0    4449.9128    17.158817     20.21082    20.933716     7259.682    3664.5671    4994.5093    4690.6621   -157.14588    -283.1197    1387.7897   -3037.8409 
17508000    241.76838   -3904.1374   -3489.7547   -3904.1374            0    6368.0926    17.219866    20.282728    21.008196    7337.4456    4322.7045    7999.7033    6781.8701    333.30839    1027.4468   -508.98292   -2808.3107 
17509000    262.27803   -3918.2078   -3468.6723   -3918.2078            0    4967.5292    17.228683    20.293113    21.018953    7348.7225    5655.2469    5126.0833    4121.2575   -1234.7646     233.6736     926.9987   -2936.2844 
17510000    251.37889   -3927.4345   -3496.5797   -3927.4345            0    4556.2832    17.264463    20.335257    21.062605    7394.6024    3799.6426    4622.0162    5247.1909   -1096.7556    891.26058     1986.117   -3005.2178 
17511000    256.08106   -3896.5008   -3457.5866   -3896.5008            0     5720.016    17.128143     20.17469    20.896294     7220.818    6804.1081    6078.1742    4277.7656   -541.85104   -621.41188    731.04005   -2855.2219 
17512000    259.14278   -3874.3812   -3430.2194   -3874.3812            0    3761.7059    17.230345    20.295071    21.020981    7350.8496    3189.4642    5247.8272    2847.8264   -699.47419    373.88887   -413.35238   -3026.9472 
17513000     264.6134   -3889.6595   -3436.1212   -3889.6595            0    5943.3905    17.235811    20.301508    21.027649    7357.8466    6083.4138    6947.9251    4798.8326   -175.43037    427.24484    597.70288   -2798.3559 
17514000    245.71877   -3932.4575   -3511.3039   -3932.4575            0    4488.3945    17.229062     20.29356    21.019416    7349.2075    3690.8098    5258.5437    4515.8301    271.30035    1669.9337   -807.58491   -3030.2349 
17515000    244.22824   -3910.0416   -3491.4428   -3910.0416            0    3245.0513    17.308001    20.386539    21.115721    7450.6871    3784.4056    3555.8097    2394.9387   -1387.9367    1688.7171   -989.02459   -3138.8335 
17516000    248.89454   -3929.8738   -3503.2771   -3929.8738            0    4123.3921    17.273779     20.34623     21.07397    7406.5796    4114.3274    4214.3975    4041.4514   -1781.7523    22.230788    260.77073   -3057.8792 
17517000    254.00881   -3934.9486   -3499.5862   -3934.9486            0     4432.894    17.246302    20.313866    21.040448     7371.291    3587.8364    4013.0022    5697.8435   -1097.1689     113.0561    690.34595    -3023.038 
17518000    242.03495    -3936.615   -3521.7754    -3936.615            0    3783.3732    17.235963    20.301687    21.027834    7358.0413    4160.6683    4475.4586    2713.9928   -605.01921    895.86331    1049.2994   -3115.7836 
17519000    246.52065   -3901.2026   -3478.6747   -3901.2026            0    3734.2262    17.229046    20.293541    21.019396     7349.187    2758.3218    4722.9687    3721.3881   -181.29739    83.068428    441.68475    -3078.439 
17520000    246.02089   -3899.9314     -3478.26   -3899.9314            0    5159.8014    17.168219    20.221894    20.945187    7271.6224    6700.8038    4150.4319    4628.1685   -303.36394    404.24997    115.11469   -2931.0674 
17521000    237.00884   -3890.8795   -3484.6544   -3890.8795            0    5869.1219    17.176108    20.231186    20.954811    7281.6507    6257.7945    6226.4119    5123.1594    113.40823    58.864726   -1326.1223   -2861.3806 
17522000    258.44651   -3906.4828   -3463.5143   -3906.4828            0     6766.196    17.155922     20.20741    20.930185    7256.0083    6961.6575    7210.1362    6126.7942   -701.23204    1806.4615    281.21788   -2747.5057 
17523000    236.16834   -3904.2837   -3499.4992   -3904.2837            0    5038.2633    17.157605    20.209392    20.932238    7258.1436     6293.118    5344.8037    3476.8682    302.12057    850.72805   -692.41108   -2966.1861 
17524000    270.20883   -3900.1807   -3437.0521   -3900.1807            0    3044.0765     17.22711     20.29126    21.017034    7346.7093    3871.2363    1861.9342    3399.0589   -232.43849   -299.50948    663.22605   -3110.8969 
17525000    242.80998   -3882.0923   -3465.9243   -3882.0923            0    4359.5837     17.22157    20.284735    21.010276    7339.6246    5706.4637    2259.5839    5112.7034   -2202.4567   -955.14164    539.58179   -2999.2705 
17526000    262.94635   -3899.8209   -3449.1399   -3899.8209            0    6495.8654    17.140732    20.189518    20.911653    7236.7517    7645.8242    6180.1617    5661.6103   -1808.1964   -998.19297   -758.86228   -2763.5623 
17527000     264.3671   -3917.5585   -3464.4424   -3917.5585            0    5904.4527    17.211819    20.273249    20.998379    7327.1639    6290.5031    6159.7339    5263.1212   -188.38007    2056.2989   -1643.8631   -2833.4974 
17528000    253.35635   -3933.4937   -3499.2495   -3933.4937            0    5424.8616    17.212311    20.273829     20.99898    7327.7926    5683.4774    5007.2333     5583.874   -461.13041   -1078.1076   -825.74112   -2919.5036 
17529000    244.25628     -3935.42   -3516.7731     -3935.42            0    6655.4708    17.171546    20.225814    20.949247    7275.8513    5201.9844    6546.1836    8218.2445   -814.77503    -769.3831   -427.21595   -2810.5555 
17530000    262.67489   -3906.4917   -3456.2759   -3906.4917            0    4791.7166     17.17591    20.230953     20.95457     7281.399    2378.6459    6662.5735    5333.9304   -412.30512    1194.6059   -55.475505   -2947.4352 
17531000    246.45529    -3876.676     -3454.26    -3876.676            0    5021.3325    17.278751    20.352087    21.080036     7412.977    6352.3925    4215.3953    4496.2095    247.64012   -192.76147   -587.95795   -2911.4004 
17532000    246.70086   -3894.5849   -3471.7481   -3894.5849            0    5427.8825    17.179958    20.235721    20.959509    7286.5491    6495.6878    4346.8785    5441.0812   -1188.8553   -1313.0044     760.6342   -2894.9441 
17533000    248.54582   -3907.8997   -3481.9006   -3907.8997            0    6556.3217     17.17437     20.22914    20.952692    7279.4416    5966.4661    7724.7359    5977.7631   -1345.9917    503.21373    -353.8604   -2785.8606 
17534000    244.79516   -3944.7642   -3525.1937   -3944.7642            0    5726.1417    17.222294    20.285588    21.011159    7340.5504    6460.3205    4245.1499    6472.9547    109.05532   -1040.6469   -153.98075    -2912.185 
17535000    248.72179   -3953.5576   -3527.2569   -3953.5576            0    4377.2132    17.197379    20.256241    20.980762    7308.7373    5903.3858    5948.5025    1279.7511    340.80031   -696.56329    867.37167   -3060.6879 
17536000    240.93633   -3923.7631   -3510.8065   -3923.7631            0    5404.5319      17.2154    20.277467    21.002747    7331.7376    5639.7937    5237.7091    5336.0929    -247.7703   -890.32728    2320.1341   -2932.9222 
17537000    250.55874   -3899.5654   -3470.1163   -3899.5654            0    6852.0106    17.170134     20.22415    20.947524    7274.0565    7388.4984    7709.0393    5458.4941    1952.4257    178.83635   -708.87011   -2743.2231 
17538000    252.63512   -3940.1196   -3507.1116   -3940.1196            0    2653.3585    17.315458    20.395323    21.124819    7460.3217    3633.5364     2533.313     1793.226    963.74351   -639.42305    122.12834   -3218.4232 
17539000     254.3225   -3943.8171   -3507.9171   -3943.8171            0    5237.6943    17.203773    20.263772    20.988562    7316.8923    4569.1126    8390.4986    2753.4718    216.29808    321.08167    640.20146    -2949.006 
17540000    245.50192     -3929.96   -3509.1781     -3929.96            0    4613.2436     17.22606    20.290023    21.015752    7345.3657    4588.5907    4484.9272     4766.213    240.45717   -344.35867    725.27679   -3014.9861 
17541000    246.91584    -3917.454   -3494.2487    -3917.454            0    5296.3014    17.201784     20.26143    20.986137    7314.3557    6125.4273    4606.1834    5157.2934    1475.0903   -571.91452    948.89428   -2929.2796 
17542000    244.74853   -3886.7976    -3467.307   -3886.7976            0    5213.3199    17.178289    20.233756    20.957473    7284.4257    4596.4908    4009.2124    7034.2565    2452.3009   -1362.3788   -1727.6462   -2913.4654 
17543000    248.22445   -3885.7995   -3460.3513   -3885.7995            0    6653.7182     17.22699    20.291118    21.016887    7346.5556    6772.6697    6263.7271    6924.7578    401.09774   -545.78927    95.299454   -2747.4588 
17544000    261.41378   -3926.9258   -3478.8715   -3926.9258            0    6556.4075    17.149945     20.20037    20.922893    7248.4271    7550.4029    6955.5577     5163.262    2492.2135   -125.01309    17.108257   -2785.7879 
17545000    240.93101   -3948.1067   -3535.1592   -3948.1067            0    6246.7613     17.13989    20.188527    20.910626    7235.6856    7162.2951    4603.2622    6974.7266    1353.7963   -160.21126    972.50055   -2875.9694 
17546000    258.46773   -3924.8991   -3481.8943   -3924.8991            0    4271.3895     17.29622    20.372663    21.101348    7435.4834     2950.173    5080.8887    4783.1068     1220.985    258.54821   -230.88455   -3018.7095 
17547000    248.06499   -3937.8271   -3512.6522   -3937.8271            0    4424.5227    17.198104    20.257094    20.981646    7309.6615    4352.6276    5966.9492    2953.9912     1353.056   -199.56561   -646.79491   -3040.9807 
17548000    254.00437   -3914.9909   -3479.6361   -3914.9909            0    5862.5009    17.182488    20.238701    20.962595     7289.768    5458.1649    5961.7115    6167.6264    2284.3138    173.85407    372.88102   -2856.3714 
17549000     253.8599   -3902.9895   -3467.8823   -3902.9895            0    4336.8769    17.241042     20.30767     21.03403    7364.5477     4067.451      4751.26    4191.9196    47.711549   -896.76435   -2090.3963   -3002.0828 
17550000    234.33572   -3892.4444    -3490.801   -3892.4444            0    4762.0733    17.237084    20.303008    21.029202    7359.4776    6027.4089    4890.8527    3367.9584   -267.96419   -874.16745   -1540.9374   -2979.6856 
17551000     251.7793   -3889.8472   -3458.3061   -3889.8472            0     5022.192    17.271267    20.343271    21.070905    7403.3479    4646.5688    5730.7969    4689.2102   -1755.0728   -1373.5574   -1406.1638   -2916.0588 
17552000    247.77499   -3912.2889   -3487.6111   -3912.2889            0    5768.9399    17.144591    20.194064    20.916361     7241.641    5157.1141     6164.837    5984.8686   -641.13748   -312.52837   -243.78761   -2878.3424 
17553000    249.08827   -3960.2039   -3533.2751   -3960.2039            0    6254.2799    17.207033    20.267612     20.99254    7321.0531    5863.1389    7150.1541    5749.5467   -450.28295   -237.85628   -1115.0368   -2865.5053 
17554000    262.01115   -3932.2006   -3483.1225   -3932.2006            0    3904.5243    17.294777    20.370963    21.099588    7433.6228    2334.8776    4497.1212    4881.5741   -932.15076   -987.28337    72.006984   -3059.8261 
17555000     249.7102   -3935.3453   -3507.3505   -3935.3453            0    4908.1192    17.226138    20.290115    21.015848    7345.4661    2351.7857    5148.9565    7223.6152   -142.96753    281.60848   -674.91953   -2981.5629 
17556000      254.098   -3895.5271   -3460.0118   -3895.5271            0    6221.6627    17.303757     20.38154    21.110544     7445.208    6446.2682    6762.2088     5456.511     907.5443    752.71508   -141.64227   -2784.4592 
17557000    249.84347    -3922.579   -3494.3558    -3922.579            0    5515.7334    17.222263    20.285551    21.011121    7340.5102    6152.6183    4439.9857    5954.5961   -235.36751   -54.572915   -486.74042   -2903.8756 
17558000    247.63183   -3928.6408   -3504.2083   -3928.6408            0    4246.8057    17.294191    20.370272    21.098872    7432.8665    3848.8696     3928.844    4962.7036    241.03621   -219.94392    2116.1723   -3043.8514 
17559000    260.20672   -3935.6891   -3489.7037   -3935.6891            0    4144.5197    17.199802    20.259094    20.983718    7311.8268    3747.1179    5093.5888    3592.8523   -2047.0062   -1281.7093    712.72042   -3047.7508 
17560000    246.77182   -3972.7891   -3549.8306   -3972.7891            0    5717.5969    17.236772     20.30264    21.028821    7359.0776    3568.1543     7741.049    5843.5874    640.50875   -1335.0954   -731.70216   -2936.1918 
17561000    248.21516   -3905.7744   -3480.3421   -3905.7744            0    4751.5339    17.204272    20.264359    20.989171    7317.5291    5747.5948    4376.7884    4130.2185   -1202.0634    887.49487    773.73022   -2973.2648 
17562000    250.70666   -3895.0412   -3465.3385   -3895.0412            0    6360.7551     17.22211     20.28537    21.010933    7340.3138    5304.5569    6872.7034    6905.0049   -1488.1076    812.36878    1139.1573   -2784.4137 
17563000    256.74486   -3890.2433   -3450.1914   -3890.2433            0    5242.6811    17.252367    20.321009    21.047847      7379.07    5855.7543    4478.1562    5394.1328   -1119.2952    555.03588   -49.566255   -2885.9942 
17564000    249.62437   -3921.6793   -3493.8317   -3921.6793            0    5522.3871    17.268808    20.340375    21.067906    7400.1869    5627.4838    4726.5541    6213.1233    299.21075    263.30851   -303.42007   -2897.8328 
17565000    230.60635   -3919.6194    -3524.368   -3919.6194            0    5845.0099    17.193051    20.251144    20.975483    7303.2216    6424.9261    5834.6909    5275.4128   -479.79515   -635.63652   -305.59764    -2901.816 
17566000    255.68874   -3912.7062   -3474.4645   -3912.7062            0    5247.1156    17.232748    20.297901    21.023912     7353.925     5116.074    4280.5426    6344.7302   -593.44738    1089.0557    285.41998   -2911.7142 
17567000    248.00362   -3939.3914   -3514.3217   -3939.3914            0    4888.7139    17.229636    20.294236    21.020116    7349.9421    4727.7007    5874.4077    4064.0333    -1343.889   -1152.5094   -159.46665   -2990.2938 
17568000    247.34423   -3930.4871   -3506.5475   -3930.4871            0    5919.5824    17.216749    20.279057    21.004394    7333.4622    5260.7061    4605.5244    7892.5167     -65.1905    172.88983    -592.4329   -2873.4421 
17569000    238.67512   -3926.1179   -3517.0369   -3926.1179            0    6572.3667    17.204541    20.264676    20.989499    7317.8725    5358.0292    6422.0538    7937.0172    -50.70211   -1057.8199    774.43701   -2815.6099 
17570000    261.86788   -3949.8189   -3500.9864   -3949.8189            0    4899.3455    17.266523    20.337683    21.065118    7397.2493     5801.718    5039.6844    3856.6341    846.75335    418.56505   -82.512717   -2972.4386 
17571000    253.23715   -3940.4163   -3506.3764   -3940.4163            0    6184.2183    17.234793     20.30031    21.026407    7356.5436    5283.6953    5297.0746     7971.885   -1078.2133    1195.2014    1526.5277   -2842.8862 
17572000    253.18989   -3881.4918    -3447.533   -3881.4918            0    5530.5086    17.251413    20.319886    21.046683    7377.8461    3893.2612     6254.287    6443.9775    509.85999     428.0112   -664.68376   -2852.4596 
17573000    249.14301   -3982.5673   -3555.5447   -3982.5673            0    5861.2112    17.223011    20.286432    21.012034     7341.467    4422.2756    4576.2772    8585.0807   -1105.5496   -163.17706    1686.8108   -2927.9979 
17574000    252.16164   -3948.0256   -3515.8292   -3948.0256            0    3901.2992    17.250636    20.318971    21.045736    7376.8501    3072.8185    4789.2456    3841.8336   -515.79987   -275.67949   -274.71827   -3096.1126 
17575000     254.7886   -3951.1592   -3514.4602   -3951.1592            0    3733.7756    17.298025    20.374789    21.103551    7437.8118    5055.3042    2692.8519    3453.1708    561.10124   -539.65375   -617.62971   -3109.4469 
17576000    246.02727   -3947.3413    -3525.659   -3947.3413            0    4820.7815    17.332717    20.415651    21.145874    7482.6518     3775.948    5992.0321    4694.3644    166.15594    613.03312   -1430.3274   -2999.5825 
17577000    241.52259    -3945.271   -3531.3096    -3945.271            0     6272.313    17.220175    20.283091    21.008573    7337.8402    6224.8189     5150.215     7441.905    758.05583    1072.1789   -434.70588   -2860.0788 
17578000    269.66835   -3926.4598   -3464.2575   -3926.4598            0    5504.6459    17.206602    20.267104    20.992014    7320.5028    6625.4309     5111.764    4776.7428   -777.28745    653.00261    86.865771   -2876.5704 
17579000    251.40164   -3963.0542   -3532.1604   -3963.0542            0    8128.6702    17.215665     20.27778    21.003072    7332.0772    7494.1423    9283.5744    7608.2939   -444.09762    1285.3041   -1718.0757    -2662.955 
17580000    259.54393    -3910.994   -3466.1446    -3910.994            0    6948.3134    17.228161    20.292498    21.018316     7348.054    7233.9101    7943.3018    5667.7283    452.12301    -265.7832   -947.94169   -2721.5367 
17581000    244.67497   -3934.6625   -3515.2979   -3934.6625            0    5195.2482    17.300906    20.378182    21.107065    7441.5283    5138.9896     5600.795    4845.9599    1288.1338    2621.9546    133.75036   -2951.4729 
17582000    240.15386    -3948.316   -3536.7005    -3948.316            0    4435.9617    17.286761    20.361521    21.089808    7423.2912    3758.7495    5354.4577    4194.6779   -353.71838   -809.01074    812.61683   -3056.4585 
17583000    237.20949    -3939.865   -3533.2961    -3939.865            0    5141.5328    17.267823    20.339215    21.066704    7398.9205    4821.9259     4540.772    6061.9006   -60.872219     722.4671     399.5906   -2978.4955 
17584000    251.11901   -3912.8797   -3482.4703   -3912.8797            0    5194.4199    17.283872    20.358118    21.086283     7419.569    4484.1385    5519.9782    5579.1429    472.71437   -130.89684    1864.6577   -2920.3987 
17585000    247.64844    -3948.014    -3523.553    -3948.014            0    7347.2153    17.159006    20.211042    20.933947    7259.9221     8480.606     5751.357    7809.6829    621.42715   -450.75793   -417.07302   -2745.6408 
17586000    254.16236   -3942.7349   -3507.1093   -3942.7349            0    6162.5265    17.137419    20.185616    20.907611    7232.5567    5811.8544    6581.8623    6093.8628   -353.05486   -415.30132    288.52572   -2857.0896 
17587000    248.77663   -3943.1276    -3516.733   -3943.1276            0    5267.6948    17.126267     20.17248    20.894005    7218.4459    7746.0115    4973.5844    3083.4885   -1281.2654    88.326247    2005.6955   -2962.1836 
17588000    258.45671   -3909.4005   -3466.4146   -3909.4005            0    9805.3772    17.124429    20.170315    20.891763    7216.1219    11195.891    10177.977    8042.2635    -360.9985    359.68732   -497.40836   -2434.4992 
17589000    243.75618   -3950.7059   -3532.9162   -3950.7059            0    3953.4002    17.244465    20.311702    21.038207    7368.9359    3176.2468    5658.5553    3025.3984   -487.64585   -504.95638   -835.38383   -3108.0507 
17590000    256.48227   -3922.8338    -3483.232   -3922.8338            0     5947.087    17.201457    20.261045    20.985738    7313.9388    6695.5661    6202.7734    4942.9214    173.26665    1005.6531    691.29749   -2848.8782 
17591000    254.62782    -3954.303   -3517.8796    -3954.303            0     6100.821    17.145432    20.195054    20.917387    7242.7067    6053.4509    6837.2111    5411.8009   -761.42923    206.67549    2220.1174   -2873.4654 
17592000    251.57017   -3909.9297   -3478.7471   -3909.9297            0    6159.3651    17.198756    20.257863    20.982442    7310.4933     6168.337    7239.5198    5070.2386   -356.98773     1071.098   -979.04192   -2822.0599 
17593000    252.79843   -3944.5757   -3511.2878   -3944.5757            0    5627.4566    17.190922    20.248636    20.972885    7300.5086     6659.037    4876.5063    5346.8266    1185.7416    355.19283    81.888564   -2912.1301 
17594000    240.40142   -3922.1019   -3510.0621   -3922.1019            0    5259.2612     17.19847    20.257525    20.982093    7310.1283    3502.2118    4034.3374    8241.2345   -436.69729    1468.1241    340.97346   -2949.3685 
17595000    240.99391   -3915.8055   -3502.7502   -3915.8055            0    5704.3387    17.220064     20.28296    21.008437    7337.6981    5672.6935    4003.6606    7436.6621   -153.01111   -483.14742   -367.76391    -2892.313 
17596000    262.53613   -3930.5643   -3480.5864   -3930.5643            0    7053.6977    17.185548    20.242305    20.966328    7293.6634    8453.0824    5563.0365    7144.9742    1578.0716   -427.30097   -18.952985   -2730.2803 
17597000    252.58115   -3927.4065   -3494.4911   -3927.4065            0    6019.6372     17.23965     20.30603    21.032333    7362.7646    6620.3768    6798.9167     4639.618    1321.3302   -772.83765   -65.881893   -2848.1122 
17598000    248.77014   -3943.1069   -3516.7234   -3943.1069            0    5213.7999     17.15723     20.20895     20.93178    7257.6678    7021.7271    5301.4662    3318.2065     434.4836    -1646.311    979.45389   -2964.8654 
17599000    257.24812   -3929.4515   -3488.5371   -3929.4515            0    5706.5465    17.141501    20.190424    20.912592    7237.7265    6382.1526    6445.9771    4291.5099   -470.94101   -319.80282   -1054.8785   -2886.1836 
17600000    243.96812   -3924.8848   -3506.7318   -3924.8848            0    6877.2191    17.168853     20.22264     20.94596    7272.4275    5976.0013    9008.1689    5647.4873    144.69642     910.5841   -1007.7494   -2777.3278 
17601000    258.51144   -3959.9686   -3516.8889   -3959.9686            0    3973.1657    17.148188    20.198301     20.92075       7246.2    3624.6483    4574.6728     3720.176    1521.5835   -583.54266    301.64983   -3097.0111 
17602000    265.63093   -3940.7064   -3485.4241   -3940.7064            0    4931.8167    17.168095    20.221748    20.945036    7271.4647    5572.4479    5481.3781    3741.6241   -257.74267   -1571.7614   -36.908819   -2962.4204 
17603000    258.72777   -3925.9864   -3482.5358   -3925.9864            0    5006.3836    17.246848    20.314509    21.041115    7371.9915    4688.0823    5337.7773    4993.2911    200.70726    2030.4482    1909.7792   -2944.2848 
17604000    249.29648   -3913.2422   -3485.9566   -3913.2422            0    5412.3745    17.168095    20.221748    20.945035    7271.4643    6816.5762    4717.9373    4702.6101   -1240.3911    -1571.638    101.94105   -2911.9913 
17605000    256.71557   -3928.8244   -3488.8227   -3928.8244            0    5133.3933    17.223232    20.286693    21.012303    7341.7494    5149.9467    6440.7353    3809.4978   -689.45831    468.26057   -715.63584   -2939.1806 
17606000    239.29247   -3951.7812   -3541.6421   -3951.7812            0    5769.8429    17.233145    20.298369    21.024397    7354.4338    5398.5746    5754.0907    6156.8634   -169.25954   -1805.3815    302.01595   -2922.7868 
17607000     232.0144    -3934.295   -3536.6303    -3934.295            0    3722.9049    17.210188    20.271328    20.996389    7325.0812    3821.4756      3739.67    3607.5691   -400.66078   -346.15983    18.754803   -3138.9169 
17608000     244.3964   -3927.3029   -3508.4159   -3927.3029            0    5493.1204    17.194419    20.252754    20.977151     7304.964    5345.7703    4825.1285    6308.4623    53.764915    901.60271   -1144.7644   -2923.2041 
17609000    241.99227   -3932.5631   -3517.7967   -3932.5631            0    5183.4815    17.225045    20.288828    21.014515    7344.0682    4878.1238    6965.0278     3707.293   -512.68614   -2377.4596    -193.7461   -2962.6162 
17610000    241.30298   -3917.0069   -3503.4219   -3917.0069            0    5271.1257    17.230423    20.295162    21.021076    7350.9491    5596.5216    4067.3922    6149.4632   -1185.1746    505.68923    1280.5351   -2938.3253 
17611000    243.81828    -3899.185   -3481.2888    -3899.185            0    6478.4682    17.084931    20.123792    20.843575    7166.3043    6022.5726    6740.9048     6671.927   -883.75027    640.38726    548.54218   -2804.2034 
17612000    253.95563   -3945.4881   -3510.2168   -3945.4881            0    3285.8778    17.240655    20.307214    21.033559    7364.0524    4225.9695    1870.6663    3760.9976    -1082.779    104.65872    617.19248   -3157.3229 
17613000    247.80399   -3941.4683   -3516.7408   -3941.4683            0    5080.9104    17.151835    20.202596    20.925198    7250.8237     4867.758    5279.2871    5095.6862   -123.89826    229.87164    583.97058   -2979.4557 
17614000    269.06025   -3942.5561   -3481.3961   -3942.5561            0    5538.7762    17.200302    20.259684    20.984329    7312.4657    5391.6687    7161.6093    4063.0504    1165.5044   -403.28581   -992.15203   -2890.7143 
17615000    251.69565   -3943.2472   -3511.8494   -3943.2472            0    4853.3144    17.204289     20.26438    20.989192    7317.5514    4786.7654    3936.7456    5836.4321    528.13959   -993.41004    2126.6844   -2993.9087 
17616000    238.04342   -3948.5228   -3540.5245   -3948.5228            0     7625.112    17.147519    20.197513    20.919934     7245.352    6698.7075    8732.2054    7444.4231    272.32678   -1880.7105    2379.1019   -2734.8092 
17617000    245.93044   -3975.0007   -3553.4843   -3975.0007            0     4052.356    17.230642    20.295421    21.021344    7351.2299    3660.2999    4506.3587    3990.4094   -401.02023    75.836995   -103.70442   -3119.0306 
17618000    247.28583   -3958.3234   -3534.4839   -3958.3234            0    5253.9888    17.186432    20.243347    20.967407    7294.7894     7009.995    3877.7729    4874.1985   -243.11661   -550.89865   -381.64438   -2975.5277 
17619000    245.02889   -3915.4317   -3495.4606   -3915.4317            0    5131.3813    17.226888    20.290999    21.016764     7346.426    3965.9216    4181.0618    7247.1605   -377.66814   -244.02146    652.88436    -2945.684 
17620000    234.62246   -3905.4083   -3503.2734   -3905.4083            0    5206.9985    17.171158    20.225356    20.948772    7275.3571    4540.0845    3955.4934    7125.4175    434.80509    1056.4874    2364.4229    -2950.792 
17621000    255.74154   -3942.5609   -3504.2287   -3942.5609            0    5542.3106    17.169114    20.222948    20.946279    7272.7595    5821.0881    3892.7656    6913.0781    46.737517    199.69824    66.471799   -2916.3794 
17622000     255.7724   -3902.3288   -3463.9437   -3902.3288            0    6025.7152    17.192826    20.250877    20.975207    7302.9337    5834.0271    6106.8855     6136.233   -283.45471    2072.1671     708.0172   -2822.1701 
17623000    245.76737   -3956.7213   -3535.4844   -3956.7213            0    5613.9798    17.204279    20.264368     20.98918    7317.5383    4165.9369    5214.9262    7461.0762     515.7212    1213.8005    5.1595457   -2936.3673 
17624000    261.73912   -3931.6704   -3483.0585   -3931.6704            0    3846.2216    17.252111    20.320708    21.047535    7378.7421    2518.6249    4051.5214    4968.5186    683.45946   -47.151982    1089.5308   -3069.1613 
17625000    263.84911   -3891.6856   -3439.4572   -3891.6856            0    3724.2266    17.347779    20.433392     21.16425    7502.1758    4482.0886    3184.7505    3505.8406   -1711.0297     6.235431    1054.9915   -3031.9838 
17626000    252.05389   -3908.3744   -3476.3627   -3908.3744            0    4596.3881    17.261199    20.331412    21.058622    7390.4089    3787.0512    5389.5532    4612.5598   -985.92439   -186.13959   -803.92042   -2980.9569 
17627000    256.25114   -3917.8746   -3478.6689   -3917.8746            0    6115.6819    17.169214    20.223067    20.946401    7272.8872    3088.4254    7138.6729    8119.9475   -100.72257   -294.48367    -880.9014   -2829.9932 
17628000    256.24947    -3925.818   -3486.6152    -3925.818            0    7111.6479    17.210953    20.272229    20.997323     7326.058    8418.0666    6052.2833    6864.5938   -602.48275    142.01752    385.20051   -2726.7851 
17629000    262.07702   -3903.0211     -3453.83   -3903.0211            0    4873.9168    17.244888    20.312201    21.038724    7369.4786    5253.1641    6709.7742    2658.8122   -1246.6898   -303.41819    329.03504   -2929.9996 
17630000    245.75655   -3917.9659   -3496.7476   -3917.9659            0    5170.8081    17.221398    20.284532    21.010065    7339.4043    6785.3988    4949.9709    3777.0546    150.65064    287.90273   -1575.0519   -2943.2763 
17631000    244.84053   -3917.2107   -3497.5624   -3917.2107            0    3410.9085    17.221638    20.284814    21.010358    7339.7104    3180.5463    4384.0689    2668.1104    827.96984    970.99544   -40.599068   -3132.4514 
17632000    244.26365   -3881.5596      -3462.9   -3881.5596            0    3430.4353    17.313109    20.392556    21.121953    7457.2859    4959.8516     1470.614    3860.8401    969.26585   -1123.0041   -606.69455   -3089.8167 
17633000    243.51947   -3894.0657   -3476.6816   -3894.0657            0    4444.5942    17.265514    20.336495    21.063887    7395.9528    4725.7934    3467.6194    5140.3697   -274.41752   -439.83603   -1459.1142   -2997.2771 
17634000    246.94143   -3929.2819   -3506.0327   -3929.2819            0    5919.0154    17.175921    20.230967    20.954584    7281.4139    8122.1928    4173.7732    5461.0801    1323.1089   -965.84298   -511.42956   -2877.4809 
17635000    242.99001   -3966.3933   -3549.9168   -3966.3933            0    4886.3139    17.250732    20.319084    21.045853    7376.9733    5849.0199     3547.751    5262.1708   -498.76034   -1609.6702    -323.3213   -3024.2198 
17636000    239.05182    -3911.718   -3501.9913    -3911.718            0    6817.1504    17.243844     20.31097    21.037449    7368.1395    7632.7893    5837.5617    6981.1001   -1347.5848   -1585.4479    459.49103   -2769.4425 
17637000    242.00088    -3941.336   -3526.5547    -3941.336            0    5266.5091    17.259034    20.328862    21.055981    7387.6281    4804.6698    5931.1049    5063.7527   -682.05945   -316.28879     532.1253   -2959.1359 
17638000    254.13999   -3933.7516   -3498.1643   -3933.7516            0      4354.85    17.226597    20.290655    21.016408    7346.0526    3966.6306    3850.5238    5247.3956   -793.65225   -1114.4584    426.52385    -3031.609 
17639000    232.89502   -3959.8453   -3560.6712   -3959.8453            0    5551.7917    17.225091    20.288882    21.014571    7344.1271    5902.9983    3772.3598    6980.0172   -97.923206   -905.12282    1209.6647   -2966.0379 
17640000    246.69377   -3932.4878   -3509.6631   -3932.4878            0    5767.2476    17.196672    20.255408      20.9799    7307.8365    5532.6677    5520.1717    6248.9035    132.34908    780.33281   -1447.6461   -2895.0054 
17641000     243.1392   -3950.5908   -3533.8585   -3950.5908            0    5682.0802    17.246294    20.313857    21.040439     7371.281    6717.5771    4311.3313    6017.3321     210.2676   -77.399597    295.20579   -2923.0203 
17642000    247.24181   -3937.1161   -3513.3521   -3937.1161            0    6568.8702    17.219303    20.282064    21.007509    7336.7258    5860.0439    7392.9876     6453.579    1108.7912   -181.15163    839.51511   -2810.4921 
17643000    238.27089   -3931.5261   -3523.1379   -3931.5261            0    4666.0448    17.267185    20.338464    21.065926    7398.1007    5251.3962    5748.3793    2998.3589    18.182073    319.49953    352.34172    -3019.701 
17644000     251.8887   -3941.7534   -3510.0248   -3941.7534            0    4746.7589     17.26526    20.336196    21.063577    7395.6264    5089.1776    4968.9446    4182.1544    1457.1698   -692.28493     103.0353   -2998.0507 
17645000    255.30623   -3912.5296   -3474.9435   -3912.5296            0    3913.0756    17.284121    20.358411    21.086587    7419.8903    4924.6661    1480.2051    5334.3555   -959.40178   -1898.2478   -209.88982   -3051.5037 
17646000    251.04862   -3944.9638   -3514.6751   -3944.9638            0    4128.2178    17.227874     20.29216    21.017966    7347.6873    2965.5435    4571.0215    4848.0885   -907.90298   -1623.2336    614.74064   -3072.3015 
17647000    236.37981   -3918.3042   -3513.1573   -3918.3042            0    6710.4883    17.178878    20.234449    20.958191    7285.1745    5853.4414    5908.2508    8369.7728   -1.7679156    1183.4524    1842.8021   -2800.1894 
17648000    238.28368   -3936.0804   -3527.6703   -3936.0804            0    5210.2843    17.188062    20.245267    20.969396    7296.8656    6674.0885    5861.8797    3094.8846   -544.70207    197.52621    -112.8608   -2973.2059 
17649000    245.98281   -3869.8335   -3448.2273   -3869.8335            0    6588.0219    17.204945    20.265152    20.989992    7318.3881    6831.9521    7526.9739    5405.1397   -524.01832   -502.37235    1157.1597     -2745.08 
17650000    234.29576    -3880.164   -3478.5891    -3880.164            0     5003.837    17.302853    20.380476    21.109441    7444.0413    4874.7516    5935.5795    4201.1798     -1156.76    270.88109   -205.41394    -2935.354 
17651000    255.25029   -3906.3508   -3468.8606   -3906.3508            0    5730.7356    17.376044    20.466684    21.198733    7538.9054     4614.048    7001.8137    5576.3451    -440.9233   -205.16777    60.476537   -2838.7823 
17652000    233.58952   -3917.5396   -3517.1751   -3917.5396            0    4600.0948    17.294395    20.370513    21.099122    7433.1298    3391.7316    4076.7435    6331.8094    997.66313    190.21061   -35.596514   -3018.5038 
17653000    256.63923   -3948.0516   -3508.1807   -3948.0516            0    4394.5789    17.319352    20.399909    21.129569     7465.356    3117.3504    5138.2482    4928.1379   -867.80213   -705.97644   -1556.4328   -3029.7229 
17654000    251.16741   -3965.3721   -3534.8797   -3965.3721            0    6269.7245    17.186256    20.243139    20.967192    7294.5648    4864.0912    8447.8254     5497.257   -1350.6723   -751.32273   -671.20836    -2867.883 
17655000    238.50949   -3913.9855   -3505.1884   -3913.9855            0    4502.5939    17.291803     20.36746    21.095959    7429.7879      4111.33    5649.7274    3746.7244    792.04113   -960.91767    -89.54554    -3017.306 
17656000    241.36479   -3938.1237   -3524.4327   -3938.1237            0    5941.6986    17.259272    20.329143    21.056272    7387.9341     6979.823    6458.3557     4386.917    826.72893   -420.79367    497.84228   -2884.2418 
17657000    242.07363   -3913.6712   -3498.7652   -3913.6712            0    4613.1827    17.222835    20.286224    21.011818    7341.2413    6947.9837     3701.994    3189.5705   -687.54395    1457.9506    659.28463   -3004.8573 
17658000     246.0641   -3923.6779   -3501.9325   -3923.6779            0    5730.9745    17.256312    20.325656     21.05266     7384.133    8442.5292    4078.6641    4671.7303   -654.16491   -776.91162   -664.55436   -2884.7638 
17659000    246.80918   -3914.3073   -3491.2848   -3914.3073            0    4741.8993    17.250772    20.319131    21.045901    7377.0238    5367.7127    4363.1982    4494.7868   -754.16188    2421.3575   -419.90243   -2981.1213 
17660000    253.93479    -3876.166   -3440.9305    -3876.166            0    5491.0293    17.185095    20.241772    20.965776    7293.0872    5367.3461    6311.6962    4794.0456   -161.27635   -1027.7156   -1625.0604   -2856.8925 
17661000    232.78064   -3902.6615   -3503.6834   -3902.6615            0    3869.7343    17.207899    20.268632    20.993596    7322.1582    3369.8839    3125.8879     5113.431   -75.721089    -834.3767   -1155.0743   -3090.4493 
17662000    243.94378   -3923.2098   -3505.0985   -3923.2098            0    4941.2483    17.280629    20.354299    21.082327    7415.3942    4683.3964    2794.2981    7346.0505    70.484019    1360.8654    529.00374   -2970.7227 
17663000    251.97219   -3900.7206   -3468.8488   -3900.7206            0    6434.9065    17.234693    20.300192    21.026286    7356.4157    5456.0456    6927.1508    6921.5229   -998.09154   -2230.9696     613.3254   -2778.4749 
17664000    237.57767   -3887.9263   -3480.7263   -3887.9263            0    5621.9476    17.270571    20.342451    21.070056    7402.4527    4536.2711    6280.0703    6049.5014    1006.6975     82.14218    933.55799   -2873.7967 
17665000    243.01762   -3879.5011   -3462.9773   -3879.5011            0    6905.7809    17.139945    20.188591    20.910693    7235.7552    6857.2647    8252.1915    5607.8867    313.92368    1660.9863   -983.75235   -2734.2373 
17666000    258.92062   -3891.8321    -3448.051   -3891.8321            0    4571.9489    17.101246    20.143009    20.863481    7186.8551    3484.8507    4751.8669    5479.1293   -594.30163    518.93073   -876.69048   -2968.8517 
17667000     237.6236   -3927.8703   -3520.5916   -3927.8703            0    4371.3442    17.203901    20.263922    20.988719    7317.0558    3020.1799    5238.9705    4854.8821    -95.31089   -1551.2744    1936.7667   -3054.1178 
17668000    260.18886   -3890.4033   -3444.4485   -3890.4033            0    4869.7644    17.191615    20.249451     20.97373    7301.3908    3681.1837    7108.4433    3819.6661   -576.96745      1763.93    178.95094   -2925.8999 
17669000    259.04034   -3906.3198   -3462.3335   -3906.3198            0    3888.0537    17.268851    20.340425    21.067958    7400.2415    3489.2706    4656.9073    3517.9831    580.43009   -475.92386   -1397.3459   -3042.7156 
17670000    242.54636   -3882.3914   -3466.6753   -3882.3914            0    5264.2085     17.30973    20.388576    21.117831    7452.9206    5410.3177    5893.5608    4488.7469   -1259.7363    57.968741   -1450.4171   -2894.4916 
17671000    242.64616   -3899.2858   -3483.3985   -3899.2858            0    3547.3139    17.294223     20.37031    21.098912     7432.908    4217.9618     4277.685     2146.295     205.1353    251.31699    749.95903    -3098.865 
17672000     253.5881   -3908.9319   -3474.2906   -3908.9319            0    4068.8663    17.264458    20.335251    21.062599    7394.5961    4011.9142    4440.4912    3754.1935   -767.09449    -607.0679   -818.62472   -3035.4935 
17673000    241.98332   -3884.2999   -3469.5488   -3884.2999            0    6868.0968    17.090564    20.130427    20.850448    7173.3952    5390.5136    8472.9997    6740.7771    1058.2716   -928.84156    800.31976   -2751.0318 
17674000    243.29273     -3924.72   -3507.7246     -3924.72            0    4611.1227    17.282577    20.356593    21.084703    7417.9017    3453.3698    4648.5324     5731.466    67.370515    876.73785    559.97981   -3008.8819 
17675000    252.46203   -3905.5617   -3472.8504   -3905.5617            0    4179.5648    17.303219    20.380906    21.109887    7444.5132    3570.1761    5220.2765    3748.2417   -611.51689    524.63412    1086.9543   -3019.0726 
17676000    253.91061   -3933.5678   -3498.3737   -3933.5678            0    4955.1193    17.201586    20.261196    20.985894    7314.1022    4846.1822    5994.4335    4024.7421    842.71941   -409.32364   -451.95829   -2969.8177 
17677000    259.02297   -3908.1174   -3464.1609   -3908.1174            0    5153.7755    17.187463    20.244561    20.968664    7296.1019    3691.0054    5416.7726    6353.5485    867.04607    58.588082   -55.190825   -2915.7675 
17678000    258.07195     -3928.16   -3485.8335     -3928.16            0    5689.5522     17.23418    20.299588     21.02566    7355.7587    5319.9063    5859.3973    5889.3529   -457.38108    1579.5265    493.56404     -2875.48 
17679000    250.20638   -3918.4986   -3489.6534   -3918.4986            0    5320.3217     17.29423    20.370318     21.09892    7432.9166    4396.9328    5879.0186    5685.0137    1018.2683   -381.30773     894.1795   -2912.9227 
17680000     242.7249   -3919.4426   -3503.4205   -3919.4426            0    5141.8508    17.254942    20.324043    21.050989    7382.3755    5978.3072    4175.6816    5271.5635   -739.79964   -1450.2384    293.50242   -2949.8263 
17681000    256.08772   -3901.1711   -3462.2456   -3901.1711            0    7541.7266     17.20741    20.268056       20.993    7321.5339    6702.8327    7166.1635    8756.1836   -711.54435    1131.3927   -1422.9689   -2656.9621 
17682000    261.35983   -3905.8152   -3457.8534   -3905.8152            0    5583.8145     17.24591    20.313404     21.03997    7370.7881    5146.9606    6047.1627    5557.3202      152.429   -218.54477     1028.333   -2857.6191 
17683000    243.12171   -3933.7232   -3517.0209   -3933.7232            0    7096.6557    17.158157    20.210043    20.932912     7258.845    6184.6649    7430.9605    7674.3416    672.05616   -56.677953    1860.3391    -2765.749 
17684000    254.74658   -3946.7053   -3510.0783   -3946.7053            0    5556.8482    17.143411    20.192673    20.914921     7240.145    5550.9043    5673.3902    5446.2502   -1158.1077     29.64146    169.46224   -2923.3302 
17685000    258.47088   -3916.5536   -3473.5433   -3916.5536            0    4983.4427    17.212129    20.273614    20.998757    7327.5592    4219.9928    5059.9696    5670.3659     31.21736   -1583.1607    -60.43394    -2940.988 
17686000    257.13503   -3904.5994   -3463.8788   -3904.5994            0    4835.1932    17.164757    20.217816    20.940963    7267.2241    3318.2794    6637.4219    4549.8782   -206.88441   -883.17443    867.86601   -2951.4208 
17687000    236.07476   -3912.5611    -3507.937   -3912.5611            0    5155.1287    17.177996    20.233411    20.957115    7284.0532     3740.294    4365.6004    7359.4918   -813.38738   -389.85628   -83.123542   -2960.3054 
17688000     255.6462   -3891.3641   -3453.1953   -3891.3641            0     6164.934     17.13745    20.185652    20.907649    7232.5955    7695.3941    5853.3671    4946.0408    623.00475   -419.86486   -306.30355   -2802.9181 
17689000    241.88482   -3922.5276   -3507.9453   -3922.5276            0    6048.2813    17.082797    20.121278    20.840972    7163.6198    5361.1182     4900.176    7883.5498    2.0566115   -1093.6823    636.25104   -2876.0569 
17690000    262.39639   -3913.9334    -3464.195   -3913.9334            0    6154.8816    17.117113    20.161698    20.882838    7206.8772    7642.6505    5457.5036    5364.4908    216.82166   -925.49239   -389.85009   -2817.2867 
17691000    258.77827   -3924.7839   -3481.2468   -3924.7839            0      7061.16     17.10607    20.148691    20.869366    7192.9385    6830.4968    6110.8415    8242.1419    -254.7226   -1133.4897   -1918.2505   -2740.5196 
17692000    246.44093   -3888.6585   -3466.2672   -3888.6585            0    6332.2115    17.212792    20.274395    20.999566    7328.4066    5457.1265     5236.857    8302.6511    1926.0355   -572.21511    447.86165   -2789.4975 
17693000    252.29857      -3904.8   -3472.3689      -3904.8            0    5828.4888    17.194951    20.253381      20.9778    7305.6422    6180.1016    6568.7601    4736.6046    550.02492   -1014.3845    764.71024   -2851.3708 
17694000    259.18809   -3916.6812   -3472.4416   -3916.6812            0    5140.3439    17.222694    20.286059    21.011647    7341.0618    6227.0292    4604.1347    4589.8677   -39.621334   -217.31072    730.71462   -2922.1069 
17695000    250.08168   -3934.3228   -3505.6913   -3934.3228            0    6413.4467    17.166545    20.219922    20.943144    7269.4952     5161.256    7231.3471    6847.7372    103.71604   -268.32156    44.784139   -2825.7497 
17696000    261.50297   -3953.0288   -3504.8217   -3953.0288            0    5071.4709    17.257629    20.327207    21.054267    7385.8242    5955.7393    3480.9651    5777.7082    -275.6603   -1098.2575    1163.0785   -2958.5498 
17697000    241.01068   -3899.2476   -3486.1635   -3899.2476            0    5432.2108    17.171452    20.225702    20.949131    7275.7313    5395.9126    6671.7227    4228.9973   -2143.9056    283.12605    471.27805   -2909.7566 
17698000    246.31329   -3891.6367   -3469.4641   -3891.6367            0     5554.731    17.182629    20.238868    20.962767    7289.9482    5289.2389    5905.0387    5469.9154    763.06221   -894.53445     464.4414    -2878.905 
17699000    263.80309   -3904.9994   -3452.8499   -3904.9994            0    8611.9629    17.039572    20.070365    20.788238    7109.3786    9458.9076    8113.4372    8263.5438    1081.9978    649.87499    1544.0343   -2559.9358 
17700000    249.00181    -3909.596   -3482.8154    -3909.596            0    4082.2229    17.227023    20.291158    21.016928    7346.5983    4357.9969    4965.2609    2923.4109    134.27247    955.75843    213.30092   -3045.4355 
17701000    255.62724    -3932.815   -3494.6787    -3932.815            0    4038.5971    17.270419    20.342272    21.069871    7402.2577    1800.3487    5616.3446     4699.098   -161.80189    1537.5247    478.85623   -3058.6946 
17702000    252.17397   -3904.6055    -3472.388   -3904.6055            0    3297.3992    17.231746    20.296721     21.02269    7352.6426    4190.1981    2787.5309    2914.4687    960.49096   -387.92738    992.45852   -3118.8054 
17703000     243.3333    -3920.155   -3503.0901    -3920.155            0    4820.2301    17.217904    20.280417    21.005803     7334.938    4073.2654    5353.4407    5033.9843   -507.21375   -406.07571   -800.90413   -2987.4578 
17704000    235.66607   -3885.6452   -3481.7216   -3885.6452            0    5076.9919    17.199439    20.258668    20.983276    7311.3648    4179.0394    5905.4513    5146.4849    107.77308    -142.3337   -154.22161   -2940.3683 
17705000    244.33995   -3915.2289   -3496.4385   -3915.2289            0    6746.5923    17.266217    20.337323    21.064745    7396.8566    5992.3129    7151.6406    7095.8235    877.41575   -1510.2533   -1312.2658   -2768.6461 
17706000    239.14372   -3898.2719   -3488.3877   -3898.2719            0    5601.6694     17.22834    20.292708    21.018534    7348.2829    5216.1089    5392.1209    6196.7785   -1575.5347     2019.971    978.59392   -2888.0727 
17707000    236.22311   -3886.7615   -3481.8832   -3886.7615            0    4758.7758    17.259342    20.329225    21.056356    7388.0233    5892.6811    2188.8355    6194.8107   -2107.4598   -147.38234   -279.04288   -2969.1406 
17708000    252.15825   -3889.4517    -3457.261   -3889.4517            0    7039.3255    17.126767     20.17307    20.894616    7219.0788    5768.5154    8247.6989    7101.7622   -289.48511   -1346.7089   -2555.7623   -2716.1407 
17709000    255.23036   -3917.0271    -3479.571   -3917.0271            0    5619.6984    17.178165    20.233609    20.957321    7284.2676    6182.1417    6963.8321    3713.1215   -19.764629   -281.09078    452.29314   -2882.5703 
17710000    252.13741   -3877.5175   -3445.3626   -3877.5175            0    4590.4102    17.286877    20.361658     21.08995    7423.4403    4625.7545    4764.3675    4381.1087   -981.80202   -1434.2922    1680.4994   -2948.3898 
17711000    244.53489   -3902.8707   -3483.7462   -3902.8707            0    3855.1413    17.255617    20.324837    21.051812     7383.241    3878.3043    4960.8781    2726.2414    1191.3989    65.904425   -498.48062   -3068.6362 
17712000    240.37932    -3891.221    -3479.219    -3891.221            0    4200.3896    17.364037    20.452542    21.184085    7523.2881    2367.2156    7084.8077    3149.1456    1480.6747    850.57867   -865.26476   -3018.3546 
17713000    255.89975   -3906.6152   -3468.0118   -3906.6152            0    4099.3271    17.277669    20.350812    21.078716    7411.5846    4842.4289    3164.8959    4290.6566   -895.01387    97.912766    1348.3661    -3024.914 
17714000    241.58198   -3884.0183    -3469.955   -3884.0183            0    7040.6535    17.147832    20.197881    20.920315     7245.748     7479.828    6077.1133    7565.0192    1231.9345   -294.35422    1529.1561   -2725.9565 
17715000    232.22212   -3911.1634   -3513.1427   -3911.1634            0    3894.9249    17.175383    20.230332    20.953927    7280.7292    3890.7327    4121.1002    3672.9419   -412.09227    181.27039    475.42885   -3099.5719 
17716000    244.80035   -3913.4525    -3493.873   -3913.4525            0    7100.5449    17.151712    20.202451    20.925049    7250.6681    7124.5421    6411.5853    7765.5072     356.9719   -900.37946   -747.74054   -2743.0362 
17717000    240.10813   -3935.4966   -3523.9595   -3935.4966            0    6375.2985    17.197141     20.25596    20.980472     7308.434    5521.8723    4687.1245    8916.8986    255.80838     1109.199    317.99668   -2844.4419 
17718000    245.91309   -3917.7693   -3496.2826   -3917.7693            0    3947.3485    17.337924    20.421784    21.152227    7489.3976     4315.403    3633.4373    3893.2051   -897.37322    -91.72024    852.34418   -3065.1328 
17719000    253.97438    -3918.909   -3483.6056    -3918.909            0    5790.8862    17.279812    20.353336     21.08133    7414.3421    6700.2694    4759.2706    5913.1186    867.92884   -1155.5229   -553.23669   -2857.4338 
17720000    244.75582   -3959.7484   -3540.2453   -3959.7484            0    6672.8126    17.210255    20.271407    20.996471    7325.1662    7041.3146    5894.8841    7082.2392   -1375.4069    298.79421   -591.21441   -2827.3885 
17721000    236.73846   -3932.6409   -3526.8792   -3932.6409            0    4868.3732    17.299619    20.376666    21.105495    7439.8674    4406.9458    5411.0279    4787.1459   -207.52836   -673.23069   -1303.4837   -2998.6469 
17722000    237.76329   -3932.5663   -3525.0481   -3932.5663            0    3483.0749     17.26237    20.332791    21.060051    7391.9126    3214.6309    4320.1794    2914.4143    392.83932   -536.10967   -146.40744   -3149.5606 
17723000    247.55994   -3942.1068   -3517.7975   -3942.1068            0    6267.7739    17.177845    20.233232     20.95693    7283.8601    8226.6639     6390.493    4186.1648   -1114.0309   -395.04272    152.11551   -2851.9868 
17724000    252.83126   -3926.8142     -3493.47   -3926.8142            0    5552.4394    17.208507    20.269348    20.994338    7322.9345    4861.5103    6080.1663    5715.6417   -277.41807   -1014.4467    691.37695   -2900.4835 
17725000    247.26536   -3937.5395   -3513.7352   -3937.5395            0     5448.799     17.20949    20.270506    20.995537    7324.1896    4859.2338    4330.0752     7157.088    -1641.861    -144.8818    1664.4592   -2931.7174 
17726000    247.21517   -3912.8173    -3489.099   -3912.8173            0    5661.0768    17.199014    20.258166    20.982756    7310.8221    4604.0467    6722.3308    5656.8528    -606.7506     579.6884   -113.25976   -2885.5102 
17727000     267.3925   -3897.5478   -3439.2462   -3897.5478            0    5541.3553    17.238391    20.304548    21.030797    7361.1521    4594.8869    6298.3194    5730.8597    -846.9418     963.5031   -746.95697   -2844.3549 
17728000    251.56321   -3896.0832   -3464.9124   -3896.0832            0      5798.67    17.205963    20.266351    20.991234    7319.6872     6093.944      6707.25     4594.816     877.0288    1479.1763   -173.39465   -2845.9037 
17729000    256.70801   -3916.9081   -3476.9193   -3916.9081            0    5086.2948    17.208192    20.268977    20.993954    7322.5324    5489.9296    5333.9178     4435.037    2236.0555   -440.30411   -174.40143   -2933.7456 
17730000    256.65814   -3903.4671   -3463.5638   -3903.4671            0    6149.7933    17.177088    20.232341    20.956007    7282.8976    5273.7115       7319.4    5856.2685    401.47736    870.41995   -1172.2382   -2810.3722 
17731000    258.55114   -3919.0582   -3475.9104   -3919.0582            0    6262.4468    17.177321    20.232615    20.956291    7283.1936    6079.6062    6081.1117    6626.6225    1151.2709    1188.0687   -149.50047   -2810.7264 
17732000    258.38666   -3935.1329    -3492.267   -3935.1329            0    6511.9632    17.137175    20.185328    20.907313    7232.2472     5303.834    6009.8963    8222.1594    706.93307     1332.104   -1464.0483   -2805.4183 
17733000    251.05039   -3947.7059   -3517.4141   -3947.7059            0     6926.329    17.092576    20.132796    20.852902    7175.9287    5763.0733     8220.205    6795.7087   -723.91723    315.60372   -625.87596   -2792.5491 
17734000     250.2404   -3930.6066   -3501.7031   -3930.6066            0    5343.7106    17.187924    20.245104    20.969227     7296.689    5122.9353    4556.5333    6351.6633   -1249.7213    1591.5661     1180.042   -2933.0536 
17735000    239.37169   -3949.0002   -3538.7253   -3949.0002            0    5646.3113    17.157457    20.209218    20.932058    7257.9567    4998.2314    4575.0097    7365.6927   -2609.6182    1223.2688   -98.048868   -2941.0641 
17736000    249.74707   -3958.7858   -3530.7278   -3958.7858            0    4776.1632    17.187883    20.245056    20.969177    7296.6376    3908.2716    5281.3454    5138.8727    212.83107    346.76404    628.73135   -3022.4773 
17737000     243.7076   -3954.2914   -3536.5849   -3954.2914            0     6326.839    17.191252    20.249024    20.973287    7300.9286    4631.4851    6481.5018      7867.53    1464.8995   -210.36065   -702.80239   -2862.9249 
17738000    258.04102   -3954.7409   -3512.4674   -3954.7409            0    5272.6687     17.28456    20.358929    21.087123    7420.4557    4290.0341    4675.7434    6852.2286     540.5563    460.11386    1455.6865   -2941.8606 
17739000    251.60426   -3946.4713   -3515.2302   -3946.4713            0    5848.1962    17.196029    20.254651    20.979116    7307.0172    6501.0144    6115.3965    4928.1778   -260.57592    297.32408    1179.8039   -2892.0151 
17740000    250.69859   -3928.1003   -3498.4115   -3928.1003            0    5770.9306    17.221661    20.284842    21.010386    7339.7403    7317.8083    6032.7936    3962.1899    1146.0159   -928.29261   -126.40453   -2880.6761 
17741000     241.6364   -3914.3067   -3500.1502   -3914.3067            0     5962.008    17.138133    20.186457    20.908482    7233.4604    6508.8408    5086.1025    6291.0806    1345.9117    -1349.047    1309.7611   -2871.2025 
17742000    238.19831   -3878.5887    -3470.325   -3878.5887            0     5590.304     17.21745    20.279881    21.005248     7334.357    6059.9577     4534.561    6176.3933    -2043.175   -1947.2087    213.47244   -2872.3633 
17743000     258.4902   -3892.1826   -3449.1392   -3892.1826            0    5191.2345    17.271553    20.343608    21.071255    7403.7165    3485.3756    6744.5226    5343.8052   -1388.9627   -951.66149   -1199.0286   -2888.6125 
17744000    252.49671   -3895.1196   -3462.3489   -3895.1196            0      3149.93    17.250669    20.319009    21.045776    7376.8919    2762.1413    3069.0484    3618.6004   -364.20955   -637.63449   -433.99935   -3123.4656 
17745000     259.1552    -3865.177   -3420.9939    -3865.177            0    5313.9683    17.231133    20.295998    21.021942    7351.8574    5586.6996    4686.4256    5668.7797   -484.98401    -1428.021   -232.68596   -2851.2339 
17746000    251.40768   -3891.9342     -3461.03   -3891.9342            0    4906.0252    17.174779    20.229621    20.953191    7279.9615    5192.5082    4198.8327    5326.7346    438.95084   -284.62198    546.91614   -2940.1535 
17747000    243.98772    -3893.708   -3475.5214    -3893.708            0    5396.1154    17.234491    20.299954    21.026039    7356.1565    4447.6222    5768.0072    5972.7166   -1091.3315   -896.82067   -312.94835   -2896.6153 
17748000    259.02173   -3898.4688   -3454.5145   -3898.4688            0    4060.4308     17.24053    20.307067    21.033407    7363.8927     2947.639    5468.9069    3764.7464    37.040801    1262.4149    204.96846   -3018.4452 
17749000    242.44875   -3939.9558   -3524.4069   -3939.9558            0    6661.1687    17.181767    20.237852    20.961715    7288.8504    6773.4621    6048.4281     7161.616    956.08579   -249.26588   -620.32902    -2816.322 
17750000    250.59584   -3891.6265   -3462.1138   -3891.6265            0    5298.7951    17.187441    20.244536    20.968638    7296.0749    5664.3509    5589.6659    4642.3684   -572.39173   -564.78196    1000.1286   -2898.2915 
Loop time of 407.091 on 64 procs for 250000 steps with 864 atoms

Performance: 106.119 ns/day, 0.226 hours/ns, 614.113 timesteps/s
99.1% CPU use with 64 MPI tasks x 1 OpenMP threads

MPI task timing breakdown:
Section |  min time  |  avg time  |  max time  |%varavg| %total
---------------------------------------------------------------
Pair    | 20.317     | 25.571     | 29.894     |  48.7 |  6.28
Bond    | 0.27255    | 0.28128    | 0.30447    |   1.0 |  0.07
Kspace  | 175.75     | 183.53     | 194.17     |  34.3 | 45.08
Neigh   | 4.552      | 5.1683     | 6.2826     |  24.3 |  1.27
Comm    | 80.962     | 91.497     | 98.647     |  50.7 | 22.48
Output  | 1.3326     | 1.3346     | 1.3471     |   0.2 |  0.33
Modify  | 93.755     | 95.147     | 96.733     |   8.5 | 23.37
Other   |            | 4.568      |            |       |  1.12

Nlocal:        13.5000 ave          18 max           9 min
Histogram: 1 4 8 10 6 11 12 10 1 1
Nghost:        2193.44 ave        2233 max        2148 min
Histogram: 4 2 6 6 5 14 8 11 6 2
Neighs:        4232.00 ave        5778 max        2820 min
Histogram: 5 3 8 8 9 10 7 11 2 1

Total # of neighbors = 270848
Ave neighs/atom = 313.48148
Ave special neighs/atom = 2.0000000
Neighbor list builds = 12612
Dangerous builds = 0

unfix		3
unfix		2
unfix		1

write_data	data.final.${pid}
write_data	data.final.0
System init for write_data ...
PPPM initialization ...
  extracting TIP4P info from pair style
  using 12-bit tables for long-range coulomb (../kspace.cpp:340)
  G vector (1/distance) = 0.37479588
  grid = 24 24 25
  stencil order = 5
  estimated absolute RMS force accuracy = 0.003013151
  estimated relative force accuracy = 9.0740148e-06
  using double precision FFTW3
  3d grid and FFT values/proc = 2730 288
Last active /omp style is kspace_style pppm/tip4p/omp
WARNING: Not all mixed pair coeffs generated from mixing. Use write_data with 'pair ij' option to store all pair coeffs. (../write_data.cpp:312)

write_restart   restart.lmp.${pid}
write_restart   restart.lmp.0
System init for write_restart ...
PPPM initialization ...
  extracting TIP4P info from pair style
  using 12-bit tables for long-range coulomb (../kspace.cpp:340)
  G vector (1/distance) = 0.37479588
  grid = 24 24 25
  stencil order = 5
  estimated absolute RMS force accuracy = 0.003013151
  estimated relative force accuracy = 9.0740148e-06
  using double precision FFTW3
  3d grid and FFT values/proc = 2730 288
Last active /omp style is kspace_style pppm/tip4p/omp
Total wall time: 0:06:49
