#include		in.partitions
include		in.temp
variable        temperature equal 82.99
variable	tempDamp equal 100.0
include		in.pressure
variable        pressure equal 8173.4
variable        pressureDamp equal 1000.0 # This is 1 ps
include		in.seed
variable        seed equal 745823

units		real
atom_style	full
box tilt large
read_restart	restart.lmp.${pid}
read_restart	restart.lmp.0
Reading restart file ...
  restart file = 30 Jul 2021, LAMMPS = 30 Jul 2021
  restoring atom style full from restart
  triclinic box = (-10.435192 -9.1371904 0.19285560) to (12.415192 12.127188 21.667143) with tilt (-9.0959703 1.7117002 2.5621971)
  2 by 4 by 4 MPI processor grid
  restoring pair style lj/cut/tip4p/long/omp from restart
  restoring bond style harmonic/omp from restart
  restoring angle style harmonic/omp from restart
  1296 atoms
  864 bonds
  432 angles
Finding 1-2 1-3 1-4 neighbors ...
  special bond factors lj:    0        0        0       
  special bond factors coul:  0        0        0       
     2 = max # of 1-2 neighbors
     1 = max # of 1-3 neighbors
     1 = max # of 1-4 neighbors
     2 = max # of special neighbors
  special bonds CPU = 0.002 seconds
  read_restart CPU = 0.007 seconds
include 	in.setup
variable	out_freq equal 1000
variable	out_freq2 equal 10000
variable	out_freq3 equal 1000

timestep	2.0

neigh_modify    delay 7 every 1

include		in.tip4p
# This is TIP4P/Ice

# create groups ###
group ox type 2
432 atoms in group ox
group hy type 1
864 atoms in group hy

# set charges - beside manually ###
set group ox charge -1.1794
Setting atom values ...
  432 settings made for charge
set group hy charge 0.5897
Setting atom values ...
  864 settings made for charge

# ### TIP3P Potential Parameters ###
pair_style lj/cut/tip4p/long/omp 2 1 1 1 0.1577 8.5
pair_coeff 1 1*2 0.000 0.000
pair_coeff 2 2 0.21084 3.1668
bond_style  harmonic
bond_coeff  1 450 0.9572
angle_style harmonic
angle_coeff 1 55 104.52
kspace_style pppm/tip4p/omp 1.0e-5
pair_modify tail yes

thermo          ${out_freq}
thermo          1000
thermo_style    custom step temp pe etotal epair emol press lx ly lz vol pxx pyy pzz pxy pxz pyz enthalpy

restart 	${out_freq3} restart.lmp.${pid} restart2.lmp.${pid}
restart 	1000 restart.lmp.${pid} restart2.lmp.${pid}
restart 	1000 restart.lmp.0 restart2.lmp.${pid}
restart 	1000 restart.lmp.0 restart2.lmp.0


include         in.dump
dump            myDump all atom ${out_freq2} dump.water.${pid}
dump            myDump all atom 10000 dump.water.${pid}
dump            myDump all atom 10000 dump.water.0
dump            myDump2 all dcd ${out_freq2} dump.dcd
dump            myDump2 all dcd 10000 dump.dcd
dump_modify     myDump append yes
dump_modify     myDump2 append yes


variable natoms 	equal  "count(all)"                        # NUMBER ATOMS
variable H      	equal  "enthalpy/v_natoms"                 # ENTHALPY-per-atom
variable Vol      	equal  "vol/v_natoms"                 # volume-per-atom
fix AVG all 		ave/time ${out_freq} 1 ${out_freq} v_Vol v_H file vol_enthalpy.dat
fix AVG all 		ave/time 1000 1 ${out_freq} v_Vol v_H file vol_enthalpy.dat
fix AVG all 		ave/time 1000 1 1000 v_Vol v_H file vol_enthalpy.dat


timer           timeout 10:00:00 every 1000
New timer settings: style=normal  mode=nosync  timeout=10:00:00

fix 		1 all shake 1e-6 200 0 b 1 a 1
       0 = # of size 2 clusters
       0 = # of size 3 clusters
       0 = # of size 4 clusters
     432 = # of frozen angles
  find clusters CPU = 0.001 seconds
fix             2 all nph tri ${pressure} ${pressure} ${pressureDamp}
fix             2 all nph tri 8173.4 ${pressure} ${pressureDamp}
fix             2 all nph tri 8173.4 8173.4 ${pressureDamp}
fix             2 all nph tri 8173.4 8173.4 1000
fix             3 all temp/csvr ${temperature} ${temperature} ${tempDamp} ${seed}
fix             3 all temp/csvr 82.99 ${temperature} ${tempDamp} ${seed}
fix             3 all temp/csvr 82.99 82.99 ${tempDamp} ${seed}
fix             3 all temp/csvr 82.99 82.99 100 ${seed}
fix             3 all temp/csvr 82.99 82.99 100 745823


run             250000
PPPM initialization ...
  extracting TIP4P info from pair style
  using 12-bit tables for long-range coulomb (../kspace.cpp:340)
  G vector (1/distance) = 0.37132936
  grid = 30 40 32
  stencil order = 5
  estimated absolute RMS force accuracy = 0.0037229573
  estimated relative force accuracy = 1.1211575e-05
  using double precision FFTW3
  3d grid and FFT values/proc = 7752 1200
Last active /omp style is kspace_style pppm/tip4p/omp
Neighbor list info ...
  update every 1 steps, delay 7 steps, check yes
  max neighbors/atom: 2000, page size: 100000
  master list distance cutoff = 10.8154
  ghost atom cutoff = 10.8154
  binsize = 5.4077, bins = 7 5 4
  1 neighbor lists, perpetual/occasional/extra = 1 0 0
  (1) pair lj/cut/tip4p/long/omp, perpetual
      attributes: half, newton on, omp
      pair build: half/bin/newton/tri/omp
      stencil: half/bin/3d/tri
      bin: standard
Per MPI rank memory allocation (min/avg/max) = 10.66 | 10.66 | 10.66 Mbytes
Step Temp PotEng TotEng E_pair E_mol Press Lx Ly Lz Volume Pxx Pyy Pzz Pxy Pxz Pyz Enthalpy 
  750000    85.505814   -6786.3359   -6566.3774   -6786.3359            0     8495.188    22.850383    21.264379    21.474288     10434.34    8981.2842    8672.8599    7831.4198     911.8296    466.71162    269.80762   -5273.6294 
  751000    83.974931   -6802.0478   -6586.0274   -6802.0478            0    7987.2153    23.130123    21.090332    21.438879    10458.356    7806.6555    8247.6524    7907.3381   -159.33653    373.50512    257.25382   -5367.7822 
  752000    82.757769   -6796.7732   -6583.8839   -6796.7732            0     8381.513    22.989618    21.188073    21.452694    10449.729    9430.6385    8030.7188    7683.1815    370.27389    16.123997    9.5183544   -5306.5532 
  753000    80.839977   -6796.6635   -6588.7075   -6796.6635            0    7671.2181    23.041905    21.177164    21.482014    10482.411    8243.5429    7269.0753    7501.0362    143.65121    286.02274   -146.09207   -5415.9685 
  754000    79.096501   -6803.5457   -6600.0748   -6803.5457            0    7441.3668    23.096125    21.051012    21.570081    10487.304    6986.6723    8979.4998    6357.9282   -23.360829   -631.28367   -304.87974   -5461.9432 
  755000    81.778306   -6799.8691   -6589.4994   -6799.8691            0    7915.5536    22.951187    21.250991    21.467015    10470.225    8313.6485    7933.2186    7499.7938   -322.29336    138.44144    -790.1202   -5380.8142 
  756000    87.539306   -6807.4719   -6582.2823   -6807.4719            0    7518.6126    23.118994    21.106687    21.501598    10492.036    7435.8462    7890.8265    7229.1651    51.043188   -16.048006   -133.79427   -5431.8175 
  757000    82.424899   -6799.5698   -6587.5368   -6799.5698            0     8407.319    22.900223    21.312861     21.41125    10450.173     9023.611    8407.3396    7791.0063    14.931669     339.7525   -805.85718   -5306.2188 
  758000    82.876472   -6796.2741   -6583.0794   -6796.2741            0    8403.1555    23.108057    21.119921    21.422297    10454.945    8720.7698    7823.7634    8664.9333   -782.05595    51.746856   -32.817792   -5301.8112 
  759000    86.595918   -6794.5361   -6571.7733   -6794.5361            0    8163.2084    23.047232    21.207358    21.389664    10454.645    7717.5827      8107.96    8664.0825    42.907799   -138.00955    -149.5474   -5327.1267 
  760000      83.2938   -6800.1914   -6585.9232   -6800.1914            0    7460.6145    22.981293    21.285018     21.43119    10483.222    8265.2692      6993.24    7123.3343   -777.69067     731.9068   -520.67184    -5445.292 
  761000    82.968528   -6805.1333   -6591.7018   -6805.1333            0    6889.0775    23.172812    21.113093    21.449632    10494.227    6241.1034     7956.813    6469.3161     242.7754    111.55924   -149.20638   -5537.3455 
  762000    83.576654   -6791.1356   -6576.1398   -6791.1356            0    6921.4303    23.036757    21.254492     21.46013    10507.621     7564.466    7128.3294    6071.4956     122.0074     -157.434   -129.41487   -5515.4799 
  763000    83.302453   -6796.3946   -6582.1041   -6796.3946            0     6915.269    23.146922    21.168324    21.440755    10505.574    6897.9592    6760.0752    7087.7727   -96.758481     47.44915    342.57668   -5522.5948 
  764000    81.533487   -6804.9444   -6595.2045   -6804.9444            0    8103.6972    23.040058     21.18859    21.413717    10453.884    8400.4402    8037.1782     7873.473   -701.02949    272.47047    -435.3093   -5359.7215 
  765000    83.779419   -6799.4074   -6583.8899   -6799.4074            0    8328.0613    23.028451     21.21022    21.405795    10455.415    8606.6502    8326.8506     8050.683    299.67788   -470.08599    32.713129   -5314.0146 
  766000    87.254397   -6805.9107   -6581.4541   -6805.9107            0    9005.0032    23.156781    21.021267    21.411573     10422.83    9586.4587     9502.445    7926.1059   -744.44304   -207.56364   -613.23911    -5212.637 
  767000    80.641958   -6791.1497   -6583.7032   -6791.1497            0    8782.2396    22.941007    21.272512    21.384013    10435.673    9123.0264    8307.9895    8915.7029   -416.64329    1085.8225    278.90117   -5247.1026 
  768000    82.176785   -6805.8681   -6594.4733   -6805.8681            0     8463.583    23.103562    21.125123    21.394887    10442.108    8821.8088    8549.8317    8019.1086    14.636644   -425.18543    583.27485    -5305.576 
  769000    84.727779   -6806.4063   -6588.4492   -6806.4063            0    7996.1193    23.075751    21.185903    21.384368    10454.403     7556.888    8026.0673    8405.4027    718.41579    255.39878   -35.120647   -5369.3069 
  770000    82.543786   -6805.2355   -6592.8966   -6805.2355            0    7162.7051    23.091495    21.236812     21.36721     10478.26    7167.5063    5993.2009    8327.4081    102.89904    271.27962    238.52738   -5498.3301 
  771000    80.462236   -6800.4351   -6593.4509   -6800.4351            0    8232.2774    23.176636    21.113219     21.35346    10448.961    7269.9695    8796.1322    8630.7305    282.48976   -567.16483    808.96363   -5338.9557 
  772000    83.502483   -6796.6433   -6581.8383   -6796.6433            0    8502.0158    22.999341    21.254686    21.378567    10450.779    8865.7551    8285.9769    8354.3155     139.1485   -347.83928    -129.4917   -5286.0129 
  773000     82.72153   -6798.5365   -6585.7404   -6798.5365            0    9328.0717    23.148686    21.043401    21.401442    10425.222    9447.7548    9824.9815    8711.4787   -257.94133    41.619895   -371.78079   -5167.4894 
  774000    89.506967   -6792.5766   -6562.3254   -6792.5766            0    8753.9216    22.936427    21.292098    21.385948    10444.142    9425.0371    8333.4327     8503.295    4.5465614    427.80182   -364.63301   -5228.9535 
  775000    88.973303   -6804.2038   -6575.3254   -6804.2038            0    7793.6039    23.095719    21.160151    21.423764    10469.984    7310.5366    8007.0123    8063.2629   -1164.2204   -465.03275    489.03541    -5385.289 
  776000    85.233195   -6801.8461   -6582.5889   -6801.8461            0    7025.1179    23.092679    21.207582    21.464521    10512.032    7442.9831    7510.7779    6121.5927   -539.68766   -29.171825   -135.68563   -5505.5878 
  777000     84.86889   -6803.7455   -6585.4255   -6803.7455            0      6979.01    23.020815    21.266505    21.438248    10495.572     6999.653    6726.8305    7210.5464    837.69817    162.92243   -585.87838   -5517.1683 
  778000    80.905803   -6803.5792   -6595.4539   -6803.5792            0    7690.2612    23.218802    21.028818    21.431452    10464.206    7431.8732    8845.9519    6792.9585   -1058.2416   -422.61361   -737.74826   -5421.8454 
  779000    81.579902   -6800.7227   -6590.8634   -6800.7227            0    8199.0352    22.939326    21.366515    21.313335    10446.378     9092.639    7122.8722    8381.5944    143.69056   -159.71564   -92.636898   -5341.7427 
  780000    87.331076   -6796.9876   -6572.3337   -6796.9876            0    8349.1726    23.149785    21.075584    21.411788    10446.709    8063.8488    9084.1173    7899.5516    -968.5574    462.90444    -907.8931   -5300.2993 
  781000    87.611359   -6799.4685   -6574.0936   -6799.4685            0    8511.6802    23.001728    21.230633     21.36465     10433.24    8494.3772    7580.5804    9460.0829    272.59467   -1.8115739    1113.3336   -5278.9725 
  782000     84.40188   -6799.8452   -6582.7265   -6799.8452            0    7370.0545     23.06207    21.259031     21.39121    10487.624    7710.7753    7304.9131    7094.4752    719.84261     323.3782   -241.28789   -5455.4675 
  783000    84.414882   -6803.1768   -6586.0246   -6803.1768            0    7908.6171    23.109417    21.124704    21.420624    10457.111    7406.8704    8305.6101    8013.3708   -600.81155  -0.15596948    405.69016   -5379.9112 
  784000    81.433939   -6798.0318    -6588.548   -6798.0318            0    7705.8848    22.941588    21.265957    21.428184    10454.272    8265.5631    7376.8964    7475.1949    129.41293   -349.62994   -202.85584   -5413.6716 
  785000    81.731049   -6798.9048   -6588.6567   -6798.9048            0    8690.7613    23.164846    21.041996    21.388096    10425.298    8411.6023    9381.8289    8278.8527   -256.75329   -587.48427   -326.39519   -5267.2936 
  786000    81.582059   -6801.6737   -6591.8088   -6801.6737            0    8215.3939    22.994791    21.256861    21.391775    10456.237    8144.9629     8029.693    8471.5256    31.990705    124.93528   -129.48409   -5339.0147 
  787000    82.268191   -6796.2854   -6584.6555   -6796.2854            0    7817.6461    23.049128    21.184954    21.445422    10471.686    7829.5423     8006.469    7616.9271    51.373019   -110.15882    229.94311   -5390.7539 
  788000    83.415696   -6802.8875   -6588.3057   -6802.8875            0     7939.406    23.057449    21.141729    21.487296    10474.505     8116.002    8492.2352    7209.9809    69.337779    -556.7246    150.37269   -5375.4828 
  789000     82.51291   -6793.7189   -6581.4595   -6793.7189            0    8861.3932    22.949394    21.235166    21.389765    10423.963    9019.1265    9097.9977    8467.0553    672.20436    236.99376   -291.16463   -5234.3256 
  790000    84.014864   -6808.5144   -6592.3913   -6808.5144            0    8060.1825    23.078637    21.164618    21.419784    10462.505    7736.7969    7743.0723    8700.6785    227.58915   -567.25562    1040.7899   -5362.5292 
  791000    82.683351   -6806.7322   -6594.0343   -6806.7322            0    8457.5265    23.017312    21.225877    21.407302    10458.808    8974.9719    8007.4539    8390.1538   -101.01562     225.8656   -89.538181   -5303.9995 
  792000    83.972492   -6804.8885   -6588.8744   -6804.8885            0    8079.0279    23.032179      21.2236    21.396191     10459.01    8083.8353    8787.8568    7365.3918   -780.14322    769.51144   -1202.8454   -5356.5485 
  793000    84.757896   -6801.8348   -6583.8003   -6801.8348            0    7745.1019    23.122803    21.104964    21.460299    10472.753    7713.7729    8278.3446    7243.1882    130.85364   -163.87589   -591.89938   -5400.8571 
  794000    85.390543   -6804.8274   -6585.1655   -6804.8274            0    7673.7592    22.948193     21.26306    21.477513    10479.927    8350.2242    7660.0772     7010.976   -620.54402   -12.247123   -417.87983   -5412.3159 
  795000    78.423015   -6812.0078   -6610.2694   -6812.0078            0    7641.7682    23.063003    21.094915    21.546545    10482.655    8197.2271    7854.9857    6873.0918   -276.87787   -324.48403    95.497466   -5442.0053 
  796000     86.21242   -6806.7926   -6585.0164   -6806.7926            0    7944.1571    22.978726    21.196729    21.494913     10469.61    9009.6388    7461.7383    7361.0941   -844.91525   -53.967393   -168.28608   -5372.0348 
  797000    81.239557   -6807.3939   -6598.4101   -6807.3939            0    7054.7618    22.922293     21.24645     21.56111    10500.635    8143.1543    7437.7925    5583.3386   -102.22664    -671.0776   -930.26963   -5518.0369 
  798000     86.69679   -6800.3968   -6577.3745   -6800.3968            0    8290.8895    23.035408    21.115369    21.507758    10461.398    7767.6446    9003.5728    8101.4511    155.50038   -328.03874    303.16536   -5312.4438 
  799000     83.56828   -6793.7631   -6578.7888   -6793.7631            0    8129.0153     22.94106    21.229346    21.485218     10463.81    7949.2111    8715.8307    7722.0041   -42.471336    630.18444   -54.544416    -5338.269 
  800000    84.014236    -6799.318   -6583.1965    -6799.318            0     8337.129    23.068355    21.125326    21.435973    10446.318    7896.6438    9069.4277    8045.3156    -85.85837   -588.40205    151.23063   -5313.0446 
  801000    81.466229   -6789.5865   -6580.0196   -6789.5865            0    7740.6681    22.978041    21.221954    21.475394    10472.238    9170.1854    7835.1326    6216.6863    507.61115   -892.79185   -906.58637   -5397.8117 
  802000      80.1007   -6802.6141   -6596.5599   -6802.6141            0    7695.4981    23.074458    21.180074    21.459852    10487.831    6864.8553    8643.4846    7578.1545    410.70109    655.73337   -1077.2735   -5419.5007 
  803000     78.84254   -6796.2448   -6593.4272   -6796.2448            0    8036.5218    23.072612    21.187168    21.426186    10474.047    8451.1874     7970.717    7687.6609   -249.93711   -683.02273   -160.87076   -5365.8224 
  804000    82.011058   -6790.1295    -6579.161   -6790.1295            0    8281.2851    23.025136    21.148847    21.474724    10457.226    8714.5654    8472.6033    7656.6865   -372.35045    21.333921    237.07657   -5316.1995 
  805000    84.760269   -6801.2432   -6583.2026   -6801.2432            0    7801.7308    23.035826    21.182032    21.434388    10458.815    7586.0384    7680.5198    8138.6342      201.974    14.253959    955.12263   -5393.1961 
  806000    87.917425   -6800.0714   -6573.9092   -6800.0714            0    7576.2963    23.017723    21.230803    21.394338    10455.086    7808.2332    7939.7884    6980.8674   -125.79976   -645.04178    556.26174   -5418.7004 
  807000    83.295131   -6800.7057    -6586.434   -6800.7057            0    7742.1028    23.132156    21.142405    21.390814    10461.593    6731.8598    8362.4687      8131.98   -506.77417     788.8444   -524.30647    -5405.209 
  808000    80.423659    -6795.727    -6588.842    -6795.727            0    7903.7903    23.074575        21.25    21.349829    10468.563    7907.8203    7158.7606    8644.7901   -115.08863    485.22054    -488.9141   -5382.1446 
  809000    83.471992   -6801.2261   -6586.4995   -6801.2261            0    8073.2676    23.115398    21.230519     21.34719    10476.174    7754.2643     7823.522    8642.0165    600.83064   -40.961064   -5.7196085   -5353.0314 
  810000    80.571156    -6805.448   -6598.1836    -6805.448            0     8778.085    23.037498    21.170712    21.409452    10441.823    9496.8653    8888.2473    7949.1425   -267.40237    50.010992    -337.6992    -5261.428 
  811000    83.624908   -6800.9099     -6585.79   -6800.9099            0    8501.0537    23.027869    21.172332    21.427929    10447.266    8729.4156    8432.3701    8341.3754    151.56145    -449.7643   -21.233356   -5290.5468 
  812000    79.737233   -6783.4338   -6578.3146   -6783.4338            0    8839.2603    23.019493    21.104537    21.483159    10436.857    9147.2704    8782.8246    8587.6858   -41.307721    115.59807    548.09507   -5232.8833 
  813000    82.921019   -6786.3805   -6573.0712   -6786.3805            0    8254.7654     23.07267    21.152203    21.453408    10470.074    7752.7202    8252.4247    8759.1512    1040.6908    333.74337    31.846229   -5312.6074 
  814000    80.270691   -6799.5235   -6593.0321   -6799.5235            0    7812.6602    23.065859    21.142947    21.466834    10468.951    8253.5078    7841.1699    7343.3027    9.2709989    -513.4277    521.90896   -5400.2037 
  815000    80.909139   -6812.4828    -6604.349   -6812.4828            0    8420.6314     22.96975    21.202707    21.455089    10449.076    8953.2335    7966.3521    8342.3085   -541.23068   -93.292217    300.69011   -5321.1369 
  816000    86.701935   -6797.9807   -6574.9453   -6797.9807            0    8345.0164    22.993565    21.247143    21.385773    10447.967    7916.8263    7891.4328    9226.7901    187.44549    493.86342    437.06163    -5303.391 
  817000     79.24799   -6800.2954   -6596.4348   -6800.2954            0    8498.3893    23.126608    21.146187    21.342596    10437.374    8158.2152    8505.3978     8831.555   -243.66707   -173.59529    681.84306   -5302.8236 
  818000    80.665793   -6804.1821   -6596.6743   -6804.1821            0    8207.4182    23.058574    21.268781    21.327228    10459.464     8534.608    7168.6478    8918.9988    117.22219   -20.765145   -769.81526   -5344.7101 
  819000    83.556865   -6819.9916   -6605.0466   -6819.9916            0    7605.2496    23.154736    21.153315    21.361857    10463.025    6786.4392    8142.7215    7886.5882    468.50029    554.84023   -195.75046   -5444.5426 
  820000    81.307883   -6796.8953   -6587.7358   -6796.8953            0     8374.348    23.109081    21.173187    21.357524    10450.084    8296.7785    8328.0789    8498.1866    235.04029   -570.25163    244.78749   -5311.4536 
  821000    82.883266    -6796.219   -6583.0068    -6796.219            0    8464.0291    23.037088    21.188917    21.393778    10442.965     8580.272    8593.7226    8218.0928    328.56849    131.39835   -97.064858   -5293.9358 
  822000    86.838795   -6790.6459   -6567.2584   -6790.6459            0     8173.758    23.006229    21.256711    21.390557    10460.769    8529.9942    7849.0151    8142.2648   -43.000155   -661.34488    -114.3271   -5320.2733 
  823000    80.658913   -6803.7462    -6596.256   -6803.7462            0    7727.1264    23.041114    21.255396    21.379829    10470.729    7715.9036    7001.9765     8463.499    70.142319    133.22975    327.30522   -5416.2864 
  824000    82.942567   -6796.8237    -6583.459   -6796.8237            0    8732.8681    23.082849    21.125445    21.387307    10429.209    8966.8215    8583.0409    8648.7421   -807.92323    316.03423   -119.94182   -5255.1958 
  825000    87.021502   -6806.4685    -6582.611   -6806.4685            0    8456.4597    23.097583    21.104707     21.38029    10422.201    8455.3102    8005.6444    8908.4246    13.249937    126.03912    297.95338   -5297.2536 
  826000    82.792826   -6798.6249   -6585.6454   -6798.6249            0    8370.0872    23.023574    21.195922    21.382818    10434.941    8390.4945    8495.5309     8224.236    561.50341   -234.35153   -124.65454   -5311.8612 
  827000    81.646954   -6802.5927   -6592.5609   -6802.5927            0    8162.7801    23.125796    21.167945    21.371961    10462.122    8328.9585    8296.7873    7862.5944   -256.51018    88.997997    349.04616   -5347.0896 
  828000    85.884864   -6795.7234   -6574.7898   -6795.7234            0     8323.952    23.067878    21.212448    21.382529    10463.031    8981.9688    8076.2824    7913.6049   -299.35578    380.53698   -633.53705   -5304.6165 
  829000     81.53206   -6802.6765   -6592.9403   -6802.6765            0    8645.8942    23.033486    21.201999    21.370874    10436.593    8627.2206     8358.786     8951.676   -192.02298   -316.46746   -324.29132   -5276.9746 
  830000    85.388923   -6791.0057   -6571.3479   -6791.0057            0    8299.1821    23.031451    21.173474    21.420498     10445.83    8471.4511    8606.3903     7819.705   -122.12341   -264.23881   -740.96152   -5307.0362 
  831000    81.057412   -6802.2992    -6593.784   -6802.2992            0    7968.1879    23.035222    21.261089    21.371233    10466.645    7899.0079    7716.1611    8289.3946   -290.34295    154.42588   -67.369085   -5377.4777 
  832000    84.217866   -6809.0356   -6592.3903   -6809.0356            0    8306.0981    23.039068    21.204117    21.407266    10457.944    8722.1621    7695.3542    8500.7781   -427.04249    755.95711    121.17659   -5325.5576 
  833000    83.252601   -6799.2264   -6585.0641   -6799.2264            0    9265.5031    22.998816    21.136757    21.425468    10415.357    8895.3441    9745.0954    9156.0699    36.637094    24.876668   -741.90937   -5177.6593 
  834000    84.895903   -6782.8938   -6564.5042   -6782.8938            0    9276.5605    22.976053    21.117135    21.463633    10413.906    10444.814     8965.082    8419.7855   -323.41065   -538.49869   -423.33132    -5155.616 
  835000    82.628375   -6801.5061   -6588.9496   -6801.5061            0     7839.964    23.015039    21.161802     21.47825    10460.761    8105.3811    8154.4341    7260.0766   -291.30217    950.82798    578.01028   -5392.8889 
  836000    80.813508   -6800.7857   -6592.8979   -6800.7857            0    7909.3377    23.065187    21.164371    21.436804    10464.594    7572.7436     8774.143    7381.1264    627.89243    66.304486    183.83552   -5385.8114 
  837000    79.632173   -6800.6995   -6595.8506   -6800.6995            0    8451.6537    23.009402    21.148403    21.444212    10435.014     8848.288    8302.1803    8204.4927   -213.46953   -113.57938    510.69228   -5309.6444 
  838000    85.556103   -6803.4508    -6583.363   -6803.4508            0    8430.0414    23.042706    21.148846    21.437063    10446.852    8701.6097    8291.4304    8297.0841   -248.25616    629.09444   -409.40162   -5298.9904 
  839000    80.782234   -6812.0343   -6604.2269   -6812.0343            0    7921.2221    23.080906    21.201419    21.400272    10472.179    8311.5644     7972.031     7480.071   -336.29743    -34.89349   -754.88373   -5394.4504 
  840000    82.487944   -6799.4909   -6587.2957   -6799.4909            0    9348.6595    22.968261    21.227267    21.367949    10418.017    10676.006    8543.4669    8826.5054   -1263.3577   -219.28503   -1275.1414    -5166.897 
  841000    83.463913   -6806.9649    -6592.259   -6806.9649            0      9360.39    23.059986    21.080353    21.411719    10408.507    9449.5843    9615.5261    9016.0598    658.11902    -277.6845    279.62752   -5171.3762 
  842000    84.586516   -6803.7278   -6586.1342   -6803.7278            0     8097.939    23.028184    21.199727    21.409025    10451.698    7927.9534    8078.7215    8287.1422    334.63162    476.42299    688.14653   -5351.7873 
  843000    81.934777    -6800.773   -6590.0007    -6800.773            0    7873.7921    23.022196     21.19807    21.454263    10470.241    8174.3156    8130.8404    7316.2205    102.98155    184.63142    1.3179839   -5387.6906 
  844000    82.601314   -6795.0963   -6582.6094   -6795.0963            0    8184.0055    23.136872    21.043065    21.475206    10455.649    8347.8231    8522.6146    7681.5787   -80.431048    68.301838    499.14022    -5334.672 
  845000    79.496629   -6802.3205   -6597.8203   -6802.3205            0     8226.259    22.914656     21.25969    21.424258    10437.009    8887.7073    7786.4209    8004.6488   -173.17687     300.6545    129.10579   -5345.6761 
  846000    85.576308   -6794.3775   -6574.2377   -6794.3775            0    8435.7728    23.059654    21.125511    21.441767    10445.292    8805.6658    8339.8645    8161.7882   -39.003182    349.19029    148.62836   -5289.1838 
  847000    82.466307   -6803.3662   -6591.2267   -6803.3662            0    8067.2503    23.010823    21.197087    21.445668    10460.391    8284.2899    7764.5575    8152.9035   -43.623802   -18.620794    67.928164   -5360.5348 
  848000    76.390039   -6802.8445   -6606.3358   -6802.8445            0    7305.7456    23.069134     21.19472    21.457468    10491.497    7646.9735    7656.3923    6613.8711    482.24934    249.59334   -505.18683   -5488.5003 
  849000     86.00523   -6808.3898   -6587.1466   -6808.3898            0    7529.5372    23.105253    21.175301    21.416691    10478.345    7660.3922    7548.5011    7379.7185    119.93849    186.77722   -224.70079   -5436.5135 
  850000    81.076721   -6806.5821   -6598.0171   -6806.5821            0    7370.2894    23.017066    21.351273    21.331211    10483.089    7329.6058    6864.5154    7916.7469    270.72336   -379.34627   -410.94977   -5471.2097 
  851000    82.489456   -6813.6866   -6601.4875   -6813.6866            0    7242.0413    23.173591     21.18687    21.350226    10482.445    5773.8748    7678.4566    8273.7927   -243.17785    116.69717   -64.663302   -5494.3553 
  852000    80.897087   -6793.3418    -6585.239   -6793.3418            0     8481.508    23.043164      21.1984    21.358141    10432.986    8664.7031    8326.3142    8453.5066    350.50433   -111.45817   -616.33313   -5294.7402 
  853000    81.775492   -6787.1877   -6576.8252   -6787.1877            0    7782.3115    23.051767    21.229472    21.358829    10452.516    8084.9322    8007.1205     7254.882   -119.39112   -905.78467   -485.10036   -5390.4956 
  854000    82.105971   -6794.8502   -6583.6376   -6794.8502            0    8109.4357    23.125525     21.14218    21.367066    10446.872    7967.5662    7810.7423    8549.9988      -736.19   -34.106918    255.46662    -5348.109 
  855000    82.374528   -6791.5631   -6579.6597   -6791.5631            0    7977.1656    22.971877    21.275544    21.384903     10451.64    8427.9629      8140.06    7363.4739    -329.3875    920.85466    371.52982   -5363.7286 
  856000    82.531218   -6807.5079   -6595.2013   -6807.5079            0    7682.5054    23.132834    21.134356    21.411122    10467.845    7246.3213    7549.9409    8251.2541   -112.05722    156.96555    627.13081   -5422.3687 
  857000    82.983094   -6798.8102   -6585.3413   -6798.8102            0    8648.8062    23.099337    21.165078    21.313477    10420.143    8177.2948     8933.119    8836.0047    471.74187    714.41659    293.19765   -5271.0073 
  858000    79.793951   -6792.2422   -6586.9771   -6792.2422            0    8876.3652     23.09715    21.242233    21.250746    10426.361    8492.3353    7906.5483    10230.212   -126.57338    299.13326   -20.898218   -5237.2568 
  859000    81.329924   -6799.6308   -6590.4146   -6799.6308            0    8961.6686    23.151781    21.140038    21.301498    10425.582    8288.2872    8543.6138    10053.105    276.43066   -106.38573      859.374   -5227.8249 
  860000    82.792462   -6805.9613   -6592.9827   -6805.9613            0    8400.8031    23.026917    21.280705    21.299054    10437.155    7959.5788    8057.5632    9185.2673   -111.24462    349.20872    353.90192   -5314.2529 
  861000    84.035469   -6805.9057   -6589.7296   -6805.9057            0    7687.0831    23.128347    21.209428    21.352092    10474.034    7707.1955     7981.591    7372.4627    336.44866   -1228.5596   -803.29096   -5415.5043 
  862000    83.689571   -6798.2326   -6582.9463   -6798.2326            0      7941.35    23.155813     21.16452     21.30737    10442.351    7626.6157    7866.1006    8331.3337   -141.80479    469.64297   -183.41537   -5373.5503 
  863000    86.315336   -6801.7995   -6579.7586   -6801.7995            0    8541.7816    23.050572    21.190619    21.341859    10424.556    8256.9569    8730.5922    8637.7956   -758.68615    1044.8178    587.77226    -5281.139 
  864000    85.772174   -6803.0467    -6582.403   -6803.0467            0    7547.9861    23.079078    21.202728    21.384886    10464.467    7248.4223       7421.2    7974.3361    257.74071   -341.38697    614.93344   -5430.4783 
  865000    82.582346   -6795.4082   -6582.9701   -6795.4082            0    8209.4829    23.081118    21.166591     21.39565    10452.815    8067.2692    8468.9975    8092.1821    432.38201    159.35581     330.1806   -5331.4872 
  866000    80.821533   -6809.7234    -6601.815   -6809.7234            0    8114.0243    23.075652    21.159171    21.382813    10440.407     7754.851    7907.6032    8679.6188   -122.27006     767.6528    345.75251   -5366.3523 
  867000    81.561782   -6821.1831   -6611.3704   -6821.1831            0    7680.6802    23.163436    21.130769    21.364273    10456.983    7086.3498    7714.9007    8240.7902    499.18819    18.876941   -32.066783    -5440.033 
  868000    81.716152   -6807.2825   -6597.0727   -6807.2825            0    7829.8405    23.029636      21.2947    21.332356    10461.584    8120.8737    7420.3097    7948.3381   -365.68674   -705.80094   -380.95828   -5402.4625 
  869000     82.34094   -6798.5959   -6586.7789   -6798.5959            0    8686.4077    23.124875    21.157357    21.298312    10420.438    8669.2508    8633.2521    8756.7203   -904.02523    196.67465   -518.36562   -5266.6933 
  870000    81.827768   -6796.5526   -6586.0557   -6796.5526            0    9102.3793    23.007707    21.222835    21.338116    10419.162     8746.266    8723.2064    9837.6656   -214.21192    425.96032    288.90918   -5202.9237 
  871000    82.965136   -6800.7052   -6587.2825   -6800.7052            0    9100.2445    23.089894    21.054699    21.427543    10417.016    8500.0558    9614.2862    9186.3915   -393.39831    679.94488    10.262284   -5204.7597 
  872000    89.318015   -6800.8396   -6571.0744   -6800.8396            0    8116.5357    22.971316     21.20274    21.450485    10447.563    8160.8241    8274.3779     7914.405    1231.3372     675.3367    215.37901   -5334.3824 
  873000    80.699939   -6799.7836   -6592.1879   -6799.7836            0    8067.1866    23.064965     21.18498    21.391913    10452.748    7609.7935    8144.9781    8446.7881    125.77049   -176.52701    516.17096   -5362.4049 
  874000    82.493347   -6799.4569   -6587.2477   -6799.4569            0     7472.206    23.173836    21.156369    21.384729    10484.382    6831.6965     8254.798    7330.1233   -560.59755    426.50625    61.767505   -5444.7179 
  875000    81.249391   -6783.2113   -6574.2022   -6783.2113            0    8789.5384    22.931059    21.336521     21.33874    10440.385    9985.3099    7545.2344    8838.0711   -25.170769   -54.908821    -679.7951   -5235.8868 
  876000    84.940484   -6809.0406   -6590.5364   -6809.0406            0    7910.9274    23.128029    21.172918    21.353442    10456.521    7351.1568    8071.0913    8310.5341      -294.06   -75.503334    52.019976   -5384.1387 
  877000    82.258965   -6803.7556   -6592.1494   -6803.7556            0    7769.3507    23.120097    21.199018    21.344963    10461.665    8063.8996    7441.6653    7802.4871   -149.04578    -824.0926   -159.88741    -5406.759 
  878000    83.100754   -6799.8856    -6586.114   -6799.8856            0     7845.405    22.962735    21.384406    21.295135    10456.858    7896.7224    6771.8829    8867.6097    57.418435   -270.61607    483.83088   -5389.6698 
  879000    85.741601   -6792.7834   -6572.2183   -6792.7834            0    8128.7975    23.164277    21.131461    21.366468    10458.779    7093.8344    8301.0478    8991.5104   -309.04039   -168.09732    633.00978   -5332.3282 
  880000    80.816647   -6807.2575   -6599.3616   -6807.2575            0    8730.6642    22.984427    21.269134    21.294815    10410.159    9061.6928     8363.465    8766.8348   -689.17484    720.85342   -11.489749   -5273.8591 
  881000    76.452533   -6793.1963   -6596.5269   -6793.1963            0    8411.7244    23.117028    21.162802     21.33522    10437.639    8081.1881    8554.2393    8599.7456    27.081628     213.2768   -876.12101   -5316.0751 
  882000    84.694981   -6794.0791   -6576.2064   -6794.0791            0    8306.7091    23.105473     21.19408    21.340021    10450.192     8645.519    7120.6344    9153.9738    -1065.327    578.40991    600.14847   -5310.2196 
  883000    83.228346   -6793.8864   -6579.7865   -6793.8864            0     8844.021     22.91598    21.298796    21.348741    10419.953    8508.8284    8824.7585     9198.476   -398.83942    759.64112   -141.98649   -5235.8109 
  884000     77.29863   -6793.8576   -6595.0115   -6793.8576            0    8758.9407    23.150161    21.036827    21.403034    10423.404    8494.3815    9509.0689    8273.3716    537.85358   -804.33652   -126.67949   -5263.5241 
  885000    79.097766   -6800.5839   -6597.1097   -6800.5839            0    8487.8127    23.045456    21.195187    21.368989    10437.741    8619.3768    8684.7551    8159.3061    162.06825   -84.189261   -150.16029    -5305.063 
  886000    83.482276   -6796.7947   -6582.0416   -6796.7947            0    7538.3001    22.985578    21.285701    21.421083    10480.567    8074.7177    7212.7036    7327.4791   -778.15826    298.46275    110.38377   -5429.8251 
  887000    81.757347   -6800.4931   -6590.1773   -6800.4931            0    8699.4326    23.109272    21.080978    21.454063    10451.691    8920.9235    9138.2826    8039.0916   -91.704956   -347.96634   -167.45897   -5264.1472 
  888000    79.055432   -6799.4538   -6596.0886   -6799.4538            0    8611.3186    23.024831    21.184861    21.417686    10447.072    9377.1037    8623.8349    7833.0171    185.51236    104.92744   -912.96598   -5284.0695 
  889000    82.352634   -6803.3707   -6591.5236   -6803.3707            0    9065.4996    23.089151    21.120067     21.37553    10423.658    9018.0113    8835.9397    9342.5478    456.97634   -367.52257   -330.01756   -5213.4012 
  890000    84.007467   -6805.5635   -6589.4594   -6805.5635            0    8080.4735    23.073392    21.190186    21.387918    10457.183    7953.0894    8295.8435    7992.4874   -286.29457   -517.46774    178.53478   -5357.1283 
  891000    84.681813   -6813.5979   -6595.7591   -6813.5979            0    8152.1283    23.009072    21.279724    21.355613    10456.278    8309.8586    7708.9599    8437.5662   -15.690214     250.9074    430.75036   -5352.6077 
  892000     82.90175   -6806.8233   -6593.5636   -6806.8233            0    6845.7366    23.259187    21.081703     21.40684      10496.7    6196.7112    7692.4835    6648.0151   -225.03253   -323.22139   -429.92424   -5545.5936 
  893000    80.668681   -6793.0874   -6585.5721   -6793.0874            0     8063.402    22.955902    21.295253    21.386507    10454.831    9580.6794    6882.3412    7727.1852    168.66934   -442.64793   -148.14821   -5356.1211 
  894000     81.74846   -6797.1939    -6586.901   -6797.1939            0    8729.9289    23.065074    21.150627    21.373537    10426.883    9056.8778    8712.3037    8420.6053    28.420695   -1054.9337    -45.08178    -5259.381 
  895000    83.751354   -6787.2859   -6571.8406   -6787.2859            0    8812.3634    23.086437    21.126129     21.41773    10446.006    8699.3696    9212.3133    8525.4073   -221.98221   -130.80736    220.42933   -5229.3274 
  896000    83.225837   -6806.1448   -6592.0514   -6806.1448            0    8348.9222    22.988011     21.21502    21.434953    10453.637    8745.6738    8545.5455    7755.5474    81.192869    553.12621   -629.81518   -5319.2117 
  897000    81.683463   -6805.4232   -6595.2974   -6805.4232            0    8383.1364    23.163145    21.013135    21.468468    10449.353     7912.337     9227.448    8009.6243   -260.62954    53.570631     288.3092   -5317.7653 
  898000     83.10352   -6807.8198   -6594.0411   -6807.8198            0    8852.8286    22.963073    21.199487    21.417619    10426.211    8886.1177    8564.2109    9108.1571    526.53526     318.1374     34.34736   -5247.9189 
  899000    83.384337   -6790.7377   -6576.2366   -6790.7377            0    8567.6315    23.080144    21.132112    21.419287    10446.876    9121.5464    8804.3262     7777.022    118.53347   -905.19775   -58.755234   -5270.8983 
  900000    82.460136   -6806.6458   -6594.5222   -6806.6458            0    7948.0671    22.953263     21.25636    21.449287    10465.167      8662.57     7315.709    7865.9223   -426.98481   -671.28409    1130.0694   -5381.4585 
  901000    85.924588   -6801.0172   -6579.9814   -6801.0172            0    8303.5483    23.001873    21.198486    21.425796    10447.323    7714.7449    8800.1098    8395.7903    441.85324   -547.81936    49.131368   -5314.8238 
  902000    83.863724   -6811.2173   -6595.4829   -6811.2173            0    8358.5358    23.082809    21.114473    21.426576    10442.913    8267.4707    8693.8748    8114.2619    213.90751    395.26154    683.27978   -5322.4848 
  903000    87.106548   -6798.3995   -6574.3232   -6798.3995            0    8663.4696    22.941611    21.266719    21.407196    10444.417    8849.5293    8531.7498    8609.1297     696.1974     741.8749    320.16001   -5254.6939 
  904000    83.897487   -6802.6944   -6586.8733   -6802.6944            0    8311.0708    23.207052    21.026669    21.399213    10442.109     7766.055    9071.3375    8095.8199   -629.70774   -290.71316    499.20355   -5321.2014 
  905000     77.91158   -6796.2605   -6595.8377   -6796.2605            0     8116.252    23.010939    21.265756    21.341626    10443.418    8274.5269     7853.539    8220.6901   -178.37686    488.75248   -191.83104   -5359.6795 
  906000    79.811897   -6812.0372    -6606.726   -6812.0372            0    7899.9232    23.050458    21.224957    21.376825    10458.505    8173.2934    7252.7154    8273.7608   -726.48511   -71.036319    43.700924   -5401.7778 
  907000    82.857288   -6806.7855   -6593.6402   -6806.7855            0     8438.506    23.153231    21.129989    21.329786    10435.118     8102.668    8732.8396    8480.0106     514.1894   -775.29973    289.66492    -5309.422 
  908000    81.642801   -6803.7966   -6593.7755   -6803.7966            0    8258.1368    22.993398    21.299839    21.327038    10445.037    8903.2651    7384.1659    8486.9794    899.59592   -703.64215   -120.68403   -5335.8122 
  909000    84.070538   -6803.5101   -6587.2438   -6803.5101            0    7969.2754    23.162087    21.135277    21.364108    10458.524    7609.8663    8260.0035    8037.9564   -39.484193    63.422794    49.956735   -5371.7154 
  910000    81.747526   -6800.6979   -6590.4074   -6800.6979            0    7868.1871    22.994022    21.329198    21.328993    10460.678    7750.3104    7041.9338    8812.3171   -560.62223   -67.832944    67.255567   -5390.0505 
  911000    79.955259   -6801.6524   -6595.9723   -6801.6524            0    8649.3705    22.996509    21.210392     21.40585    10441.024    8361.5323    9336.6434    8249.9359    -213.7421   -122.83797   -909.24652   -5278.9186 
  912000    82.260993   -6796.8032   -6585.1918   -6796.8032            0    8470.5441    23.069026    21.127464    21.435648    10447.521    9181.4526    8895.8627    7334.3169   -27.105403   -188.50962   -22.301159   -5294.5656 
  913000     84.07077   -6807.0588   -6590.7918   -6807.0588            0    8009.4708    22.976018    21.224374    21.451755    10460.982    8946.1917    7351.6571    7730.5637    464.38282   -83.183946    127.55227   -5368.8454 
  914000    81.927932   -6807.2028   -6596.4481   -6807.2028            0    7978.8674    23.080508    21.101451    21.449555    10446.624     7711.924    8396.7048    7827.9734    138.75597    734.94906    356.00409   -5380.8414 
  915000    84.522076   -6804.1113   -6586.6834   -6804.1113            0     8201.048    23.006766     21.19582      21.4205    10445.648    8915.9441    8335.9527    7351.2471    -621.8467    298.16713   -354.27854   -5337.3434 
  916000      84.1615   -6794.5184    -6578.018   -6794.5184            0    8162.1565     23.00083    21.257727    21.392507    10459.767    8187.9185    7821.3601    8477.1909    194.36862    74.105834    344.23022   -5332.9221 
  917000    82.226631   -6804.0392   -6592.5162   -6804.0392            0    8122.3618    23.107457    21.148034    21.399097    10457.253    8230.0769    7361.1808    8775.8276    93.913262    380.76247     659.9692   -5353.7886 
  918000    83.995647   -6795.8307    -6579.757   -6795.8307            0    7469.2439    23.027155    21.252211    21.408146    10476.675     7614.839    7331.7832    7461.1096    1169.4356    17.841912   -655.74872   -5438.5196 
  919000    88.301797   -6792.0699   -6564.9189   -6792.0699            0    8993.4652    23.115114    21.118121    21.372429    10432.904    8835.0726    9471.4494    8673.8737   -781.34627     177.6811    -891.6737   -5196.5343 
  920000    82.617386   -6802.7879   -6590.2597   -6802.7879            0    8251.3384    23.063433    21.202859    21.382562    10456.302    8556.3049    8374.0181    7823.6922   -1169.4995    112.14848   -344.40571   -5331.9765 
  921000    81.908125   -6795.7654   -6585.0618   -6795.7654            0    8760.6909     23.01747    21.261438    21.334538    10440.793    8660.0298    9003.1897    8618.8532    374.20722   -1635.2404   -630.03293   -5251.0867 
  922000    82.529135   -6795.8536   -6583.5524   -6795.8536            0    9065.9589    23.053832    21.169562    21.367938    10428.399    9050.8438    9341.9546    8805.0783    -250.0163   -371.64646    252.40224   -5204.7334 
  923000    77.624802   -6790.1627   -6590.4776   -6790.1627            0    8905.5152    23.023704    21.139852    21.410977    10421.102    9193.5601    9102.3295    8420.6561   -365.12203    591.52859   -596.82372   -5237.0078 
  924000    83.472929   -6814.4798   -6599.7508   -6814.4798            0    7350.5539    23.074062    21.140333    21.478816    10477.224    7803.0129    7496.5735    6752.0754    645.03343    187.65967   -390.73235   -5476.5894 
  925000    84.123481     -6808.35   -6591.9475     -6808.35            0    6898.2367    23.058216    21.207032    21.463703    10495.672    6961.6688    7921.3619    5811.6793    219.31946    657.33441   -70.625484    -5536.044 
  926000    80.556353    -6801.114   -6593.8877    -6801.114            0    8278.7862    23.040943    21.174265    21.414009    10447.361    8851.2936    7821.1013    8163.9637   -531.56486    -315.0534    350.60323   -5332.4983 
  927000    86.064915   -6794.3994   -6573.0026   -6794.3994            0    8164.1326    23.046004     21.19816    21.394493    10451.913      8102.41    7616.3032    8773.6847    -218.6283    365.11143    408.44889   -5328.5403 
  928000     84.77713   -6800.6705   -6582.5865   -6800.6705            0    7903.7936    23.093691    21.200196    21.369073      10462.1     7390.513    8357.5683    7963.2995    310.43943     709.8962   -225.49786   -5376.6335 
  929000    83.050393   -6802.9419   -6589.2998   -6802.9419            0    7887.5036    23.196313    21.125171    21.355602    10464.802    7436.3207    7979.6384    8246.5517     526.7612   -676.00717   -492.62549   -5385.5217 
  930000    83.017471   -6796.9271   -6583.3697   -6796.9271            0    8271.4601    23.073357    21.206308    21.351843    10447.472    8381.7272     7990.563    8442.0901   -275.13651     -199.425    35.218218   -5323.0832 
  931000    81.338613   -6796.5916   -6587.3529   -6796.5916            0    8520.7635     23.11202    21.178331    21.303729    10427.622    7330.7388    9702.9662    8528.5854    334.84951    140.22759    215.43417   -5291.5479 
  932000    84.960487   -6797.5474   -6578.9917   -6797.5474            0    8831.4596    23.080457    21.165989    21.349663    10429.752    9385.5049    9030.1216    8078.7524    65.769851   -349.78742    -160.5645   -5235.6628 
  933000    81.517251   -6802.4065   -6592.7083   -6802.4065            0    8729.4988    23.067776    21.179072    21.358706    10434.883      8243.98    8744.7641    9199.7522    132.88222   -217.40351    493.61439   -5264.2351 
  934000    79.902952   -6801.4402   -6595.8947   -6801.4402            0    7848.1244    23.112086    21.170019    21.394794    10468.115    7645.8011    7828.7304    8069.8418   -188.04762    573.96636    219.00041   -5397.7473 
  935000    84.055612   -6797.2016   -6580.9737   -6797.2016            0    7928.3856    23.044089    21.252555    21.355755    10458.891    7722.3845    7115.4576    8947.3149    544.61741   -584.18949    847.66589   -5371.6396 
  936000     86.92555   -6803.9575   -6580.3468   -6803.9575            0    8096.0993     23.10402    21.169753    21.402207    10467.957    7514.3299    8409.8536    8364.1143   -788.22414    504.89525    111.46978   -5344.3606 
  937000    82.481387   -6810.9189   -6598.7405   -6810.9189            0    8764.6772    23.035482    21.168638    21.387446    10429.155    8864.2206     8042.729     9387.082    1026.6983   -577.84923    868.35311    -5265.646 
  938000    83.086872   -6789.3135   -6575.5776   -6789.3135            0    8826.6134    23.059686    21.165513    21.375906     10432.94    8946.1483    8346.0733    9187.6184   -232.41047    227.97536    452.19745   -5232.5755 
  939000    82.497933   -6817.4951   -6605.2742   -6817.4951            0    7531.6466     23.11533    21.115756    21.442626    10466.096     7069.505    8782.5725    6742.8622    37.031681   -19.594706   -393.72459   -5455.6642 
  940000    86.966447   -6795.5481   -6571.8322   -6795.5481            0    7771.0936     23.01563     21.25302    21.439593    10487.212    7776.6936    7674.2913     7862.296    482.82176    518.98177    561.38132   -5383.2804 
  941000    85.518547   -6800.2571   -6580.2658   -6800.2571            0    8195.5347    23.096147    21.151446    21.403065     10455.76    7911.8915    8280.2364    8394.4763    135.32417   -67.772747    25.832155   -5330.5572 
  942000    83.070091   -6798.4994   -6584.8067   -6798.4994            0    7751.6337    22.994965    21.264095    21.401322    10464.542    7618.3114    7826.6638    7809.9259   -507.89463    75.950675     -252.226   -5401.7941 
  943000    81.174729   -6798.6313   -6589.8142   -6798.6313            0    8862.8241    23.006018       21.195    21.396759    10433.329    9061.2842    8638.5073    8888.6809   -3.6580842   -701.12123    -604.2073   -5241.2523 
  944000    81.252937   -6796.2585   -6587.2403   -6796.2585            0    8300.6175    23.080755    21.163643    21.403237    10454.901    8122.0814    8091.5167    8688.2545    478.19387    458.30072    189.04145   -5321.6119 
  945000    80.387074   -6789.5917   -6582.8008   -6789.5917            0    8622.1195    22.954248    21.218522    21.469571    10456.866    9198.9247    9175.1607    7492.2732    213.08716   -181.33038    72.362309   -5267.9046 
  946000     83.52412   -6806.3963   -6591.5356   -6806.3963            0    7777.8908    22.965099     21.14525    21.550234    10464.853    8325.0916    8205.5363    6803.0446   -577.38725    325.35121    87.208445   -5404.4805 
  947000    80.523797   -6790.3885   -6583.2459   -6790.3885            0    8506.8777    22.921974    21.186664    21.494517    10438.601    9103.0674    9359.5233    7058.0425   -280.13561   -238.21617   -267.25435   -5288.1904 
  948000    84.125209   -6799.6969   -6583.2899   -6799.6969            0    8293.1279    23.032374    21.104251    21.519845    10460.388    7914.0583    8152.5271    8812.7984     297.6403   -330.66544    1116.6332   -5318.1399 
  949000    83.744294   -6802.4497   -6587.0226   -6802.4497            0    7780.5831    23.025666    21.196287    21.467055    10477.181    7394.6543    7892.3657    8054.7293    245.35642    715.59729    150.64019   -5398.1577 
  950000    82.365596   -6810.8151   -6598.9346   -6810.8151            0    7361.8457    23.101929    21.178383    21.418606      10479.3     7563.188    7888.9556    6633.3936   -256.89294    150.35396   -337.44321   -5473.8249 
  951000    82.478603   -6798.5631   -6586.3919   -6798.5631            0    8243.8479    23.026013    21.185787     21.43597    10456.985    8664.0131    8318.8161    7748.7146      94.4437   -426.27634    247.33171   -5329.1688 
  952000    83.033201   -6802.3889    -6588.791   -6802.3889            0    8398.1568    22.960039    21.252414    21.403421    10443.934    9037.4868    8652.4585     7504.525   -242.52263    103.36277   -279.10416   -5309.6337 
  953000     80.65693     -6810.66   -6603.1749     -6810.66            0      8547.03    23.134779    21.066528    21.415296    10437.162    9077.5985    8447.6105    8115.8811   -22.864813   -203.59728    -297.5243   -5302.1862 
  954000    79.140602   -6796.1433    -6592.559   -6796.1433            0     7967.569    22.880608       21.312    21.472028    10470.438     8562.822    7601.2306    7738.6543     240.4891    644.79798   -173.08889   -5375.9064 
  955000    83.410595   -6816.5954   -6602.0267   -6816.5954            0    7182.8507    23.083298    21.197494    21.458907    10500.017    7771.8973    6607.2253    7169.4295    -185.9085   -294.37648    482.31939   -5502.1026 
  956000    80.008832   -6809.7704   -6603.9526   -6809.7704            0    7540.4551    23.085115    21.148213    21.466059    10479.922    7158.1067    8000.5876     7462.671   -36.594524   -614.78789    176.16821   -5451.4776 
  957000    81.634367   -6806.6807   -6596.6813   -6806.6807            0    8266.8151    22.953951    21.263517    21.386212    10438.219    8438.6324     8523.907    7837.9058    163.17717    156.10068     129.1695    -5338.218 
  958000    81.466329   -6795.8231    -6586.256   -6795.8231            0    8302.3113    23.144985    21.071337    21.430462    10451.546    8010.1754    8444.2115    8452.5471   -98.392671    326.60532    342.79814   -5320.7755 
  959000     82.75751   -6789.0729   -6576.1843   -6789.0729            0    9113.4487    22.905908    21.303193    21.353325     10419.76    9939.5388    8428.5148    8972.2926   -146.21298     183.3885   -360.88926   -5191.2909 
  960000    80.775137   -6798.8199   -6591.0308   -6798.8199            0    8210.5143    23.178148    21.057669    21.438427    10463.619    7324.6143    8879.3848     8427.544   -406.60173   -57.576599    165.84703   -5338.0968 
  961000    87.977668   -6807.6955   -6581.3783   -6807.6955            0     8219.133    23.001543     21.19874    21.416385    10442.709    8622.8106    7982.3233    8052.2651   -266.65714   -174.13478    229.22014   -5329.6356 
  962000      82.5713     -6807.29   -6594.8804     -6807.29            0    7845.8995    22.994089    21.239659    21.421146    10461.801    7304.1599    8180.2607    8053.2778   -84.274977    237.59073    318.57264   -5397.7951 
  963000    80.892296    -6802.319   -6594.2285    -6802.319            0    7613.8826    23.212933    21.059755     21.45649    10489.191     7359.462    7723.0256    7759.1603   -1278.0578   -307.35328     194.9471   -5429.5017 
  964000    80.225712   -6793.3322   -6586.9565   -6793.3322            0    8522.2514    22.908237    21.261542    21.449305    10447.194    9805.6748     8532.604    7228.4755    580.71228   -484.56214   -1005.3046   -5288.4925 
  965000    79.038362   -6801.8976   -6598.5763   -6801.8976            0    8463.9046    23.097519    21.046553    21.466184    10435.209    9032.7229    8433.5435    7925.4475    76.081821   -237.84542   -114.90119   -5310.4815 
  966000    79.874996   -6796.6819   -6591.2084   -6796.6819            0    8212.2069    22.966176    21.230998    21.465208    10466.324    7977.3755    8505.0612     8154.184    851.33473    623.14965    262.92451   -5337.6921 
  967000    82.705504   -6809.2213   -6596.4664   -6809.2213            0    7208.4245    23.024458    21.230625    21.471375    10495.716    7735.1094    6306.2794    7583.8847   -463.34816   -451.50746    720.03188   -5493.0783 
  968000    84.853494   -6807.9182   -6589.6378   -6807.9182            0    6624.8933    23.168279    21.110099    21.524688    10527.395    6819.5494    7031.8138    6023.3167   -730.00496   -401.65586    36.579739   -5572.5096 
  969000    82.477969   -6802.1502   -6589.9807   -6802.1502            0    7922.1871    22.986436     21.23652    21.430179    10461.183    7678.3886    8758.1381    7330.0347    847.69197   -141.02466   -432.88659   -5381.3273 
  970000     78.89006   -6801.1126   -6598.1727   -6801.1126            0    8957.7572    23.115989    21.080234    21.406345    10431.108    8990.5495    9236.7993    8645.9227   -996.65584    357.33828    454.37628   -5235.4559 
  971000    80.824167    -6799.647   -6591.7317    -6799.647            0    8561.5324    23.013244     21.21052    21.397626    10444.671    8786.8283    8435.0477    8462.7212   -806.36465   -66.611974    -593.1997   -5287.5979 
  972000    83.294094    -6806.473   -6592.2041    -6806.473            0     8961.804    22.955553     21.29047    21.321116    10420.365    8734.2462    8997.5667    9153.5991   -21.898316   -98.631399   -199.03957   -5230.2757 
  973000    82.447333   -6812.8035   -6600.7128   -6812.8035            0     7150.972    23.268185    21.097454    21.381197    10496.018    5983.8649    8313.3402     7155.711   -301.44196    44.782578   -990.69998   -5506.0874 
  974000    85.332978   -6799.5151   -6580.0013   -6799.5151            0    7701.8918    23.059617     21.25583    21.359582    10469.427    8333.4177    7013.5263    7758.7315    125.72197   -195.91851   -47.858399   -5404.0313 
  975000    83.548769   -6809.0257   -6594.1016   -6809.0257            0    7935.0437    23.133203     21.17599    21.333137    10450.431    7224.1472    8156.1784    8424.8054    -24.92393    144.64026   -359.14766    -5384.731 
  976000    80.380124   -6797.9606   -6591.1876   -6797.9606            0    7885.8572    23.143983    21.128984    21.390975    10460.376    7893.5074    7778.9936    7985.0708   -160.47265   -27.012285    2.9269565   -5388.1697 
  977000    84.835241   -6785.9787   -6567.7452   -6785.9787            0    8345.2301    22.910106     21.35281    21.354108    10446.325    8503.7294    7645.6278    8886.3331   -152.40715    463.65723    1000.8331   -5296.3582 
  978000    87.258795   -6798.1459    -6573.678   -6798.1459            0    7827.7217    23.240091    21.088171    21.356027    10466.397    6930.0787    8731.2906    7821.7959   -169.09527    -133.2407    -424.0143   -5378.8415 
  979000    79.493979   -6787.6301   -6583.1367   -6787.6301            0    7875.1638    23.071305    21.262698    21.319041     10458.23    7810.7145     7952.932    7861.8451   -347.45573   -119.52827   -142.73277   -5381.9965 
  980000    83.660679   -6791.5428   -6576.3308   -6791.5428            0    7873.8925    23.149681     21.22504    21.302715    10467.151    8016.5986    7221.8539    8383.2251    258.49088    213.20337   -340.69644   -5374.3602 
  981000    86.843897   -6799.9429   -6576.5423   -6799.9429            0    8120.8997    23.202174    21.125953    21.312569     10446.74    7176.9604    9138.6965    8047.0422   -437.35715    10.584457    216.74019   -5339.2827 
  982000    85.291742   -6803.8432   -6584.4354   -6803.8432            0    7737.3417    23.055857    21.340137    21.232876    10446.897     7287.135    7732.7968    8192.0933    213.97294    194.55471   -345.72532   -5405.5951 
  983000    82.883291   -6804.3207   -6591.1085   -6804.3207            0      7991.93    23.215386    21.115508    21.298147    10440.451    7099.5388    8145.7465    8730.5046    344.26581   -340.05782   -373.42663   -5374.2311 
  984000    80.897978   -6793.4039   -6585.2988   -6793.4039            0    8298.2334    23.091604    21.242725    21.274204    10435.605    8634.7499    7952.4553    8307.4949    250.44726   -35.543765   -579.84584   -5322.3691 
  985000    82.095872   -6801.6469   -6590.4602   -6801.6469            0    8418.6579    23.127521    21.207864     21.28099    10438.013    8012.4397    8279.5983    8963.9358    412.09074    278.84853   -288.96487   -5308.9072 
  986000    83.515841   -6803.9167   -6589.0773   -6803.9167            0    8473.6821    23.123831    21.146325    21.344252    10436.999    7658.5884    8635.4219     9127.036   -390.80314   -279.26832   -339.97638   -5299.2734 
  987000    79.591105   -6798.6213    -6593.878   -6798.6213            0    8334.2647    22.967215    21.292581    21.324708    10428.449    8530.1328    7367.4199    9105.2413   -428.45519    674.77317    152.06178   -5326.3344 
  988000    84.643866   -6790.7333   -6572.9921   -6790.7333            0    8769.7758    23.171316     21.02485    21.416637    10433.617    8319.8979    9609.8648    8379.5646   -679.48059    359.73784    19.322756   -5238.5515 
  989000    84.638137   -6809.1124   -6591.3859   -6809.1124            0    7866.9054    23.024119    21.230216    21.412104    10466.387    7581.6886    7875.0181    8144.0096    530.48962    730.27154   -166.23379   -5390.5696 
  990000    83.989371    -6799.587   -6583.5295    -6799.587            0    8171.0285     23.06006    21.169718    21.413636    10453.601     8244.804    8595.2742    7673.0072   -18.357962   -24.533789   -120.52224   -5337.8149 
  991000    80.733742   -6798.9982   -6591.3155   -6798.9982            0    8521.6054    23.073366    21.133148    21.413403    10441.451    8241.6039    8993.1255    8330.0869    55.734417    130.61099   -506.66225   -5293.6638 
  992000    84.380083   -6807.4424   -6590.3798   -6807.4424            0    8529.1101    22.907256    21.303256     21.38451    10435.622    9637.9993    7752.7436    8196.5873    696.03633    164.99226    365.07276   -5292.3103 
  993000    82.932125   -6802.2394   -6588.9015   -6802.2394            0    7635.5333    23.153519    21.115089    21.448456    10485.906    7332.0192    8041.6984    7532.8824   -663.81679    99.804862   -982.99212   -5421.2286 
  994000    82.371698   -6801.2052    -6589.309   -6801.2052            0    7938.1146    23.056806    21.207506     21.37927    10453.979    8206.9615    7862.6585    7744.7238    313.42392   -105.67758    -300.9764   -5379.0597 
  995000    86.432315   -6794.0934   -6571.7516   -6794.0934            0    8342.0027    23.021634    21.237618    21.371856    10449.228    9036.4326    8082.9165     7906.659    -292.4353    77.101798   -255.27397   -5300.5032 
  996000    82.308412   -6803.0279   -6591.2946   -6803.0279            0    8648.9512     23.08189    21.158418    21.394065    10448.354    8458.8932    8818.5754    8669.3849   -508.94379   -302.03703   -325.51769   -5273.3802 
  997000    82.224199   -6797.7487   -6586.2319   -6797.7487            0    8350.1654     22.93773    21.296957     21.38801    10448.125     8461.206    8117.9172    8471.3729   -216.80039    660.83888    75.190418   -5313.8739 
  998000    81.192956   -6792.8472   -6583.9832   -6792.8472            0    8172.5852    23.157168    21.085464    21.415779    10456.889    7687.4402    8636.1223     8194.193    661.47515   -489.46852    403.69075   -5337.6395 
  999000     81.82285     -6800.27   -6589.7857     -6800.27            0     8600.658    22.912573    21.272529    21.413375    10437.058    8967.2735    8521.4614    8313.2391    -185.2949    774.39008   -34.067402   -5280.6469 
 1000000     87.11131   -6793.2435   -6569.1549   -6793.2435            0    8695.4508    23.049861    21.126708    21.430211     10435.82    8935.9989    9026.7735    8123.5802    98.686814    319.77253   -173.31765   -5245.7444 
Loop time of 579.274 on 64 procs for 250000 steps with 1296 atoms

Performance: 74.576 ns/day, 0.322 hours/ns, 431.574 timesteps/s
196.7% CPU use with 32 MPI tasks x 2 OpenMP threads

MPI task timing breakdown:
Section |  min time  |  avg time  |  max time  |%varavg| %total
---------------------------------------------------------------
Pair    | 37.118     | 49.422     | 59.947     |  85.4 |  8.53
Bond    | 0.8939     | 1.0513     | 1.3123     |  11.0 |  0.18
Kspace  | 303.14     | 314.8      | 327.16     |  36.2 | 54.34
Neigh   | 0.78726    | 0.82675    | 0.90802    |   3.7 |  0.14
Comm    | 77.851     | 83.775     | 88.67      |  29.9 | 14.46
Output  | 0.5403     | 0.54072    | 0.5424     |   0.0 |  0.09
Modify  | 109.91     | 113.41     | 114.64     |   8.7 | 19.58
Other   |            | 15.45      |            |       |  2.67

Nlocal:        40.5000 ave          50 max          29 min
Histogram: 2 0 3 4 3 7 4 3 4 2
Nghost:        3188.16 ave        3209 max        3160 min
Histogram: 2 2 0 4 2 7 6 2 2 5
Neighs:        13390.5 ave       16530 max        9645 min
Histogram: 2 0 3 4 3 7 4 4 4 1

Total # of neighbors = 428495
Ave neighs/atom = 330.62886
Ave special neighs/atom = 2.0000000
Neighbor list builds = 1608
Dangerous builds = 0

unfix		3
unfix		2
unfix		1

write_data	data.final.${pid}
write_data	data.final.0
System init for write_data ...
PPPM initialization ...
  extracting TIP4P info from pair style
  using 12-bit tables for long-range coulomb (../kspace.cpp:340)
  G vector (1/distance) = 0.37101232
  grid = 30 36 32
  stencil order = 5
  estimated absolute RMS force accuracy = 0.003786592
  estimated relative force accuracy = 1.1403209e-05
  using double precision FFTW3
  3d grid and FFT values/proc = 7344 1080
Last active /omp style is kspace_style pppm/tip4p/omp
WARNING: Not all mixed pair coeffs generated from mixing. Use write_data with 'pair ij' option to store all pair coeffs. (../write_data.cpp:312)

write_restart   restart.lmp.${pid}
write_restart   restart.lmp.0
System init for write_restart ...
PPPM initialization ...
  extracting TIP4P info from pair style
  using 12-bit tables for long-range coulomb (../kspace.cpp:340)
  G vector (1/distance) = 0.37101232
  grid = 30 36 32
  stencil order = 5
  estimated absolute RMS force accuracy = 0.003786592
  estimated relative force accuracy = 1.1403209e-05
  using double precision FFTW3
  3d grid and FFT values/proc = 7344 1080
Last active /omp style is kspace_style pppm/tip4p/omp
Total wall time: 0:09:39
