#include		in.partitions
include		in.temp
variable        temperature equal 82.60
variable	tempDamp equal 100.0
include		in.pressure
variable        pressure equal 2030.9
variable        pressureDamp equal 1000.0 # This is 1 ps
include		in.seed
variable        seed equal 745823

units		real
atom_style	full
#include		in.box
read_restart	restart.lmp.${pid}
read_restart	restart.lmp.1
Reading restart file ...
  restart file = 30 Jul 2021, LAMMPS = 30 Jul 2021
  restoring atom style full from restart
  orthogonal box = (0.16500609 0.10828933 0.14446707) to (18.042566 23.520888 22.068729)
  2 by 4 by 2 MPI processor grid
  restoring pair style lj/cut/tip4p/long/omp from restart
  restoring bond style harmonic/omp from restart
  restoring angle style harmonic/omp from restart
  864 atoms
  576 bonds
  288 angles
Finding 1-2 1-3 1-4 neighbors ...
  special bond factors lj:    0        0        0       
  special bond factors coul:  0        0        0       
     2 = max # of 1-2 neighbors
     1 = max # of 1-3 neighbors
     1 = max # of 1-4 neighbors
     2 = max # of special neighbors
  special bonds CPU = 0.001 seconds
  read_restart CPU = 0.005 seconds
include 	in.setup
variable	out_freq equal 1000
variable	out_freq2 equal 10000
variable	out_freq3 equal 1000

timestep	2.0

neigh_modify    delay 7 every 1

include		in.tip4p
# This is TIP4P/Ice

# create groups ###
group ox type 2
288 atoms in group ox
group hy type 1
576 atoms in group hy

# set charges - beside manually ###
set group ox charge -1.1794
Setting atom values ...
  288 settings made for charge
set group hy charge 0.5897
Setting atom values ...
  576 settings made for charge

# ### TIP3P Potential Parameters ###
pair_style lj/cut/tip4p/long/omp 2 1 1 1 0.1577 8.5
pair_coeff 1 1*2 0.000 0.000
pair_coeff 2 2 0.21084 3.1668
bond_style  harmonic
bond_coeff  1 450 0.9572
angle_style harmonic
angle_coeff 1 55 104.52
kspace_style pppm/tip4p/omp 1.0e-5
pair_modify tail yes

thermo          ${out_freq}
thermo          1000
thermo_style    custom step temp pe etotal epair emol press lx ly lz vol pxx pyy pzz pxy pxz pyz enthalpy

restart 	${out_freq3} restart.lmp.${pid} restart2.lmp.${pid}
restart 	1000 restart.lmp.${pid} restart2.lmp.${pid}
restart 	1000 restart.lmp.1 restart2.lmp.${pid}
restart 	1000 restart.lmp.1 restart2.lmp.1


include         in.dump
dump            myDump all atom ${out_freq2} dump.water.${pid}
dump            myDump all atom 10000 dump.water.${pid}
dump            myDump all atom 10000 dump.water.1
dump            myDump2 all dcd ${out_freq2} dump.dcd
dump            myDump2 all dcd 10000 dump.dcd
dump_modify     myDump append yes
dump_modify     myDump2 append yes


variable natoms 	equal  "count(all)"                        # NUMBER ATOMS
variable H      	equal  "enthalpy/v_natoms"                 # ENTHALPY-per-atom
variable Vol      	equal  "vol/v_natoms"                 # volume-per-atom
fix AVG all 		ave/time ${out_freq} 1 ${out_freq} v_Vol v_H file vol_enthalpy.dat
fix AVG all 		ave/time 1000 1 ${out_freq} v_Vol v_H file vol_enthalpy.dat
fix AVG all 		ave/time 1000 1 1000 v_Vol v_H file vol_enthalpy.dat


timer           timeout 23:50:00 every 1000
New timer settings: style=normal  mode=nosync  timeout=23:50:00

fix 		1 all shake 1e-6 200 0 b 1 a 1
       0 = # of size 2 clusters
       0 = # of size 3 clusters
       0 = # of size 4 clusters
     288 = # of frozen angles
  find clusters CPU = 0.000 seconds
fix             2 all nph aniso ${pressure} ${pressure} ${pressureDamp}
fix             2 all nph aniso 2030.9 ${pressure} ${pressureDamp}
fix             2 all nph aniso 2030.9 2030.9 ${pressureDamp}
fix             2 all nph aniso 2030.9 2030.9 1000
fix             3 all temp/csvr ${temperature} ${temperature} ${tempDamp} ${seed}
fix             3 all temp/csvr 82.6 ${temperature} ${tempDamp} ${seed}
fix             3 all temp/csvr 82.6 82.6 ${tempDamp} ${seed}
fix             3 all temp/csvr 82.6 82.6 100 ${seed}
fix             3 all temp/csvr 82.6 82.6 100 745823


run             250000
PPPM initialization ...
  extracting TIP4P info from pair style
  using 12-bit tables for long-range coulomb (../kspace.cpp:340)
  G vector (1/distance) = 0.37195266
  grid = 24 27 25
  stencil order = 5
  estimated absolute RMS force accuracy = 0.0031329783
  estimated relative force accuracy = 9.4348711e-06
  using double precision FFTW3
  3d grid and FFT values/proc = 6300 1296
Last active /omp style is kspace_style pppm/tip4p/omp
Neighbor list info ...
  update every 1 steps, delay 7 steps, check yes
  max neighbors/atom: 2000, page size: 100000
  master list distance cutoff = 10.8154
  ghost atom cutoff = 10.8154
  binsize = 5.4077, bins = 4 5 5
  1 neighbor lists, perpetual/occasional/extra = 1 0 0
  (1) pair lj/cut/tip4p/long/omp, perpetual
      attributes: half, newton on, omp
      pair build: half/bin/newton/omp
      stencil: half/bin/3d
      bin: standard
Per MPI rank memory allocation (min/avg/max) = 12.26 | 12.29 | 12.31 Mbytes
Step Temp PotEng TotEng E_pair E_mol Press Lx Ly Lz Volume Pxx Pyy Pzz Pxy Pxz Pyz Enthalpy 
31500000    91.425852   -4589.9727   -4433.2719   -4589.9727            0     1925.428     17.87756    23.412599    21.924262    9176.6223    2453.6003    2094.6847    1227.9989   -182.42079   -301.23837    388.57745   -4175.5887 
31501000    84.077416   -4594.2109   -4450.1051   -4594.2109            0    2482.3749    17.838728    23.285288    21.961273    9122.2718    2082.0769    2895.1338    2469.9142   -211.52229   -62.903172   -392.33615   -4119.8524 
31502000    85.609812   -4597.4798   -4450.7475   -4597.4798            0    1889.3263    17.889601     23.25936    22.023478     9163.984    1738.7104    1549.2439    2380.0245   -371.92065    117.63431    327.32624   -4198.2442 
31503000    80.788636   -4590.5921   -4452.1231   -4590.5921            0    1636.6945    18.050438    23.198132    21.858268    9152.8536    1397.3391    2053.0006    1459.7439    516.15441   -338.27615    214.16515    -4233.649 
31504000    80.628703    -4603.443   -4465.2481    -4603.443            0    1721.6775    18.011452    23.093144     22.02394    9160.6612    1808.5232     2232.705    1123.8041   -280.74032   -446.89873    347.37025    -4235.234 
31505000    83.359352   -4590.8718   -4447.9967   -4590.8718            0    1751.9412    18.010179     23.25566     21.88146    9164.7998    1632.3248    1749.6539    1873.8449    249.76843    58.578167    78.030339   -4213.8336 
31506000    83.939434   -4587.8606   -4443.9913   -4587.8606            0    2657.3194     18.04273    23.220199    21.761733    9117.2042    2362.2192    2433.1189    3176.6203    309.75667   -24.575185   -93.239649   -4090.6606 
31507000    80.729567   -4588.9409   -4450.5731   -4588.9409            0    2349.2698      17.9143    23.257715    21.950958    9145.7718    2298.8233    2382.3981     2366.588    81.162975    139.92526   -82.344987   -4137.2235 
31508000    81.252762   -4586.4095   -4447.1451   -4586.4095            0    1552.5775    17.984506    23.234527    21.995997    9191.2799    2282.8102    2113.7327    261.18947    186.09459   -34.570989    -277.7227   -4239.0292 
31509000    87.319592   -4591.0298    -4441.367   -4591.0298            0    1472.7527    18.032102    23.262556      21.9425    9204.2817    1460.8197    1548.4348    1409.0037    255.48635    161.90442    232.48876   -4243.6721 
31510000     82.80226   -4591.9235   -4450.0033   -4591.9235            0    2050.9045    17.930422    23.261767    21.992091    9172.7534     2162.324    2109.7913    1880.5981    74.881628     -13.6241   -21.733546   -4175.6431 
31511000    83.412789   -4594.9323   -4451.9656   -4594.9323            0    2902.9926    18.044239    23.176382    21.783696    9109.9456     1466.175     3122.436    4120.3668    95.745495    132.26682   -352.05076   -4066.2763 
31512000    84.087198   -4580.9664   -4436.8438   -4580.9664            0    1592.2088    17.903041     23.32141    22.014445    9191.5627    2331.5752     1417.554    1027.4971    -181.4475    96.764875   -23.692133    -4223.409 
31513000     85.73439   -4590.4728    -4443.527   -4590.4728            0     1321.167    17.876459    23.485617    21.908278    9197.9641     1773.512    1157.3361     1032.653   -144.07539    391.51804   -245.86067   -4266.3018 
31514000    79.152612   -4594.5928    -4458.928   -4594.5928            0    2537.0744    17.795996       23.385    21.968771    9142.5096    3027.1696    1810.5148     2773.539    139.41247   -221.42621    415.22397   -4120.6493 
31515000    84.066912   -4593.1029   -4449.0151   -4593.1029            0    2004.3415    17.878574    23.408736    21.889335    9161.0114    1764.1339    1542.6105    2706.2802   -105.13454    714.21016   -25.576634   -4181.2272 
31516000    83.798102   -4595.2098   -4451.5827   -4595.2098            0    1599.0048     17.91033    23.357233    21.933977    9175.7667    1473.4989    1477.5917    1845.9239   -53.538943    -108.1132    249.40844   -4237.6053 
31517000     85.69239   -4596.7657   -4449.8918   -4596.7657            0     2262.854    17.911833    23.182746    22.049345    9155.8908    2051.7438    2482.2843    2254.5339   -341.88823   -161.29848    31.575904   -4147.7346 
31518000    80.350113   -4597.5764   -4459.8591   -4597.5764            0    1603.7356    17.878745    23.383376     21.94634    9175.0056    1462.1966    1748.8674    1600.1427   -616.14811   -87.814489   -194.12974   -4245.2663 
31519000     82.31605   -4591.4892   -4450.4023   -4591.4892            0    1233.5267     17.83872    23.266072    22.118873    9180.1492    1447.9094    1363.9709    888.69984   -247.32601    256.38573    703.68374   -4285.2539 
31520000    78.405148    -4591.394   -4457.0102    -4591.394            0    2191.2546    17.914016    23.318095    21.897545    9147.0583    2804.3485    2452.0641    1317.3512   -420.32645   -220.55405     164.3473   -4164.6958 
31521000    85.751648   -4605.3462   -4458.3708   -4605.3462            0    2720.3137    18.041641    23.314674    21.672981    9116.4137    2387.0317    2721.4281    3052.4812    246.30354   -218.26468   -201.10967   -4096.6954 
31522000    85.669039   -4591.0678    -4444.234   -4591.0678            0     2173.933    17.929061    23.237583    21.969007    9152.9047    3051.9518    2317.6417    1152.2054   -912.81779   -385.49827    215.90067    -4154.045 
31523000    76.850576   -4589.1857   -4457.4664   -4589.1857            0      2344.09    18.076166    23.261712    21.748778    9144.9822    1117.6985    2929.3846     2985.187    344.10147    373.22577    315.97816   -4144.8347 
31524000    86.070874   -4582.6101   -4435.0875   -4582.6101            0    2221.5864    17.874184    23.287639    21.994978    9155.3559    2234.4194    1220.0365    3210.3032   -384.50103    -178.1149    52.939885    -4138.458 
31525000     85.09493   -4594.9342   -4449.0844   -4594.9342            0    2573.5717    17.931268     23.31472    21.869826    9142.9541    2932.7482    2053.5311    2734.4359    139.97362    61.551691    300.30293   -4105.9228 
31526000    87.441734    -4590.115   -4440.2429    -4590.115            0    3101.6591    17.891379    23.321821    21.807946     9099.573     2218.244    3485.5855    3601.1477   -359.80891    9.3264943   -19.033739   -4028.6281 
31527000    82.966911   -4584.3263   -4442.1238   -4584.3263            0    2262.9353    17.840753     23.45813    21.855695    9146.8422    2890.0578    812.01046    3086.7376    233.60161   -391.94448    395.39507   -4140.2544 
31528000    79.271922   -4589.9297   -4454.0604   -4589.9297            0    2379.8326    17.802469    23.342037    22.002245    9142.9426    3007.9016    2570.6687    1560.9275   -225.14496   -175.28175    405.02416   -4136.7324 
31529000    79.279145   -4597.9834   -4462.1017   -4597.9834            0    1697.9356    17.895635    23.388805    21.918573    9174.1833    1467.2657    1655.3401     1971.201   -535.87847    76.829298    26.310744   -4234.9246 
31530000    86.122597   -4591.0602    -4443.449   -4591.0602            0    2070.1478    17.946242    23.231266    21.939961     9147.075    2248.7132    937.91119     3023.819   -748.97445    58.751708   -280.04911   -4167.2898 
31531000    84.863971   -4586.6724   -4441.2184   -4586.6724            0    1495.3353    17.806839    23.507448    21.933466     9181.203    2164.6789    1338.0013    983.32564    -21.24562   -201.02305    80.966782   -4240.9954 
31532000    81.494746   -4585.6742    -4445.995   -4585.6742            0    2455.3761    17.954054    23.427823    21.772761    9158.1542    2052.8442    2717.3748    2595.9094    56.237168     229.7967    43.410876   -4118.0493 
31533000    85.476644   -4595.2683   -4448.7642   -4595.2683            0    2819.0544    17.926003     23.42043    21.712842    9115.8043    2519.4282     2914.916     3022.819     97.29792    75.259685   -370.55331    -4073.986 
31534000    80.140002   -4596.9565   -4459.5993   -4596.9565            0    1656.7692    17.866453    23.471239    21.894682    9181.4865    1817.2795    1675.3793    1477.6487    127.68829    -388.3167    493.52523   -4237.7536 
31535000    77.064771   -4592.7523    -4460.666   -4592.7523            0    1795.2086    17.947968    23.338717    21.882932    9166.3786     1711.439    1787.3078     1886.879    150.25799   -376.14391 -0.067345217   -4220.6785 
31536000    79.665023   -4594.1553   -4457.6121   -4594.1553            0    2604.2866     17.94752    23.304662    21.842709    9135.9511    2670.3392    2671.5948    2470.9257    453.49368    252.59032   -198.85788    -4110.621 
31537000    84.616023   -4593.9535   -4448.9245   -4593.9535            0    1842.5961    17.900147    23.477287    21.806529    9164.1257    1111.4663    1473.1152    2943.2068    109.99075    10.765736    108.95699   -4202.6627 
31538000    82.653073    -4593.948   -4452.2834    -4593.948            0     1799.196    17.916121    23.344298    21.914074    9165.3264    1181.3588    2480.3588    1735.8705    15.805036   -451.21407    51.921383   -4211.7905 
31539000     84.70294   -4593.9675   -4448.7895   -4593.9675            0    2635.6402    17.775729    23.486723    21.822515    9110.7608     2499.904    2266.4678    3140.5489   -796.28939    213.41963   -313.66673   -4098.5891 
31540000    83.030331   -4596.9587   -4454.6476   -4596.9587            0    865.40523    17.919193    23.459258    21.913199    9211.6732    1020.6365    288.55717     1287.022   -190.18464   -171.07333   -353.79743   -4338.3866 
31541000    79.500066   -4587.9254    -4451.665   -4587.9254            0    1670.1499    17.849893    23.357736    21.994959     9170.426    2722.4927    1620.6322    667.32466   -886.18401   -446.03456   -26.668941    -4228.297 
31542000     80.26347   -4590.7801   -4453.2113   -4590.7801            0     1519.836    17.820769    23.402789    21.994629    9172.9855    2192.4395    1359.3958    1007.6726    64.799504    278.66396    760.21167   -4249.8898 
31543000    82.412204   -4588.6791   -4447.4274   -4588.6791            0    2568.9054    17.917001    23.380966    21.826157    9143.3437    1772.9703    2873.3373    3060.4085     337.2208   -558.44072   -119.41126   -4104.8734 
31544000    82.399813    -4590.292   -4449.0616    -4590.292            0    1805.4115    17.878666    23.462878    21.842362     9162.542    1557.3166    2028.7834    1830.1344   -166.50221   -177.25472    516.95918   -4207.8112 
31545000    78.415137   -4602.2971   -4467.8963   -4602.2971            0     1576.998    17.855424    23.433798    21.889998    9159.2214    1491.1081    1419.2975    1820.5885    564.95915    444.94653    459.91724   -4257.2443 
31546000    87.779049   -4596.1843    -4445.734   -4596.1843            0     2071.299    17.896212    23.461179    21.807602    9156.2759    1472.9996    2096.8932    2644.0043    107.33412   -266.05255    302.11966   -4169.1433 
31547000    83.626959    -4601.438   -4458.1043    -4601.438            0    1592.3013    17.947318    23.399053    21.812862    9160.3167    1559.2828    778.92531    2438.6959    593.87299   -470.53358    130.87931   -4245.3827 
31548000    82.884037    -4589.973   -4447.9126    -4589.973            0    1526.5789    17.882328    23.243952    22.110541    9190.3787    1906.6718    1806.6084    866.45646    96.553004    303.37618    555.86854   -4243.3018 
31549000    81.120409   -4585.3952   -4446.3576   -4585.3952            0      1392.33    17.984745    23.331071    21.919715    9197.5866    1692.6592    640.18853    1844.1422    298.90703   -294.06362    196.65259   -4259.5942 
31550000    77.871238   -4589.7106   -4456.2419   -4589.7106            0    2598.6275    17.940631    23.260197    21.906277    9141.5465    2539.8933    1948.7024    3307.2869   -319.67766   -120.38094   -13.312379   -4109.7927 
31551000    82.907413   -4586.3462   -4444.2458   -4586.3462            0    1481.8983    17.914839    23.172379    22.074105    9163.6106    1126.9313    2084.7046    1234.0591    43.882516    -65.42305    285.74815   -4246.2021 
31552000    83.402056   -4596.4266   -4453.4784   -4596.4266            0    2096.0749     18.05578     23.25528    21.799419    9153.4066     817.3196    2574.0166    2896.8885    137.08049   -13.251751    70.283435   -4173.6669 
31553000    80.060403   -4594.0673   -4456.8466   -4594.0673            0    1861.3904    17.913755    23.209185    22.054563    9169.4856    1712.0571    2405.5965    1466.5177   -16.208824   -215.42468     144.8544   -4207.9274 
31554000    85.454861   -4591.5783   -4445.1116   -4591.5783            0    2029.4971    17.916557    23.276538    21.946765    9152.5783    2837.0579    1740.1695    1511.2639   -55.714838   -236.57156   -173.88778   -4174.2124 
31555000    84.690558    -4597.408   -4452.2513    -4597.408            0    1794.1341    17.995032      23.3008    21.837103    9156.2674    1650.6641    1666.1668    2065.5713   -447.64149   -242.58015    115.21707    -4212.672 
31556000    83.999499   -4584.8574   -4440.8851   -4584.8574            0    1457.6787    17.941552    23.278186    21.964454    9173.3834    2623.2545    1262.9163     486.8654   -682.02416   -142.86832   -99.713035   -4245.8705 
31557000    85.995916   -4599.3276   -4451.9335   -4599.3276            0    1935.1748    17.924001    23.407475    21.840989    9163.5096    1841.3496    1895.3699    2068.8048   -683.67498    166.12703    326.79006    -4193.316 
31558000    81.070251   -4589.3245   -4450.3728   -4589.3245            0    2595.2557    17.868262    23.286832    21.905271    9114.6782    2481.3642    3133.3199     2171.083   -267.16007   -160.94364    105.73236   -4105.3901 
31559000    81.527285   -4588.5828   -4448.8478   -4588.5828            0    2381.3789    17.888106    23.309398    21.901789    9132.1911    2413.8789    2124.5371    2605.7206    371.85177    68.314775   -103.73999   -4131.6871 
31560000    80.179119   -4600.5147   -4463.0905   -4600.5147            0     2052.373    18.028862    23.262505    21.828744    9154.8988    1437.0326    2473.1332    2246.9532    375.00605    191.42141    160.33825   -4189.0683 
31561000    83.702551   -4593.2817   -4449.8184   -4593.2817            0    1777.7201    17.857769    23.314464    22.020341    9168.0439    1927.7725    2015.6264    1389.7613    67.880072     39.20695   -103.59901   -4212.1256 
31562000    81.334213   -4584.2409   -4444.8368   -4584.2409            0    2336.2566    17.972004    23.465667    21.675318    9141.0247    2474.4834    1696.4377    2837.8487    408.65252    134.55493    82.607647   -4133.3847 
31563000    86.652258   -4589.0812   -4440.5622   -4589.0812            0     1621.667    17.875755    23.298631    21.990663    9158.6852    1089.0792    1075.3937     2700.528    357.03162   -322.23418    272.11816   -4223.9561 
31564000    84.290878   -4596.4043   -4451.9327   -4596.4043            0    2551.3951    17.888086    23.256615    21.945363    9129.6295    2417.8659    3290.3651    1945.9543   -205.78143    33.620732   -98.601121   -4112.2239 
31565000    81.799994   -4601.6331   -4461.4307   -4601.6331            0    1879.4225     17.99734    23.343609    21.811232    9163.3972    1780.4108    1781.9827    2075.8741    86.899021    144.88788   -99.933726    -4210.267 
31566000    86.908083   -4592.5083   -4443.5508   -4592.5083            0    1623.5653    17.944334    23.333962    21.942116    9187.4364    2032.2924    2382.9064    455.49723   -388.74817    148.26477    61.732338   -4226.0104 
31567000    83.743499   -4608.9637   -4465.4302   -4608.9637            0    2702.3323    17.773556    23.230795    22.062146    9109.3241    2982.2473    3478.5579    1646.1917    346.33252   -214.70313    203.90219   -4106.4249 
31568000    81.119041    -4590.317   -4451.2817    -4590.317            0     2026.081    17.907824    23.390492    21.849496    9152.1601    2036.0788    1711.8523    2330.3119    114.25856    273.27513   -161.60919   -4180.8508 
31569000    77.622285    -4597.459    -4464.417    -4597.459            0    2346.2231    17.982034    23.308865    21.796316    9135.7252    2076.7813    1752.2974    3209.5907   -393.92317   -370.09804   -337.39746   -4151.8176 
31570000    81.653545   -4591.1576   -4451.2062   -4591.1576            0    1856.3309    17.985002    23.172369    21.989252    9164.1328    1628.2981     1835.955    2104.7396    364.12376    14.218721   -53.081012   -4203.1085 
31571000    82.486975   -4593.9688    -4452.589   -4593.9688            0    1500.5167    18.016098    23.243596    21.915408     9177.272    1540.8299    1601.3867    1359.3334    38.138541    579.43989   -76.606621   -4251.7582 
31572000    87.282766   -4581.7986   -4432.1989   -4581.7986            0    2279.8918    17.985109     23.15671    21.961772    9146.5496    2878.0919    2039.4484     1922.135   -673.36291   -208.25809    269.40186   -4128.0772 
31573000    79.344676   -4597.4092   -4461.4151   -4597.4092            0    2636.6514    17.950862    23.196051    21.908446    9122.4383    3196.0972    2940.5373    1773.3196   -823.54094   -136.48985    224.02846   -4110.6313 
31574000    82.880279   -4595.6434   -4453.5895   -4595.6434            0    2107.9898    17.918297    23.304621      21.9225     9154.378     1827.389    2499.3226    1997.2578   -327.55557   -63.363394     54.59712   -4172.1576 
31575000    77.723079    -4588.677   -4455.4623    -4588.677            0    1802.6277    17.955063    23.399327     21.82527    9169.5901    1839.3265    1483.8166    2084.7399    430.99706   -470.20689   -386.65028   -4214.3986 
31576000    80.421571   -4590.7838   -4452.9439   -4590.7838            0     2354.559    17.865257    23.422075    21.802446    9123.0462     2175.232    1970.1106    2918.3342    352.17536    -212.7581    459.89101   -4139.6692 
31577000    81.590818   -4596.9386   -4457.0947   -4596.9386            0    2050.1684     17.82644    23.324321    22.020907     9156.064    2610.9885    2550.1351    989.38161   -321.68606    370.05214    372.51282    -4183.332 
31578000    86.820786   -4586.0785   -4437.2707   -4586.0785            0    1860.9443    17.850859    23.409718     21.88039    9143.4554    2070.5112    1803.0969    1709.2248   -38.685522   -552.27489   -46.864724   -4189.1176 
31579000    84.770995    -4598.772   -4453.4775    -4598.772            0    2011.7654    17.869193    23.277873     22.00067    9151.3284    2172.2509    2415.3636    1447.6817   -558.21414    172.12402    -90.03178   -4184.9817 
31580000    85.209349    -4585.903   -4439.8571    -4585.903            0    1438.5144    17.960918    23.404828    21.830533    9176.9492    1725.3661     850.9807    1739.1964    -364.7284    416.54116   -820.25659   -4247.3315 
31581000    81.339769   -4591.3474   -4451.9338   -4591.3474            0    2038.2361    17.915855     23.34007    21.857241     9139.765    2687.0137    1472.3349    1955.3597   -516.57103   -359.65217    195.11943    -4180.249 
31582000    82.060462   -4597.8112   -4457.1624   -4597.8112            0    2493.3696    17.933265    23.194153    21.925001    9119.6357    2680.9264    2531.0414    2268.1409    331.54729    -349.2084    9.7449112   -4125.5429 
31583000    82.288652   -4602.8231   -4461.7831   -4602.8231            0    1795.7293      17.9346    23.202842    22.001249     9155.461    1558.8616    2632.9371    1195.3892    227.41314    27.277985   -21.622205    -4222.012 
31584000    81.718543    -4578.216   -4438.1532    -4578.216            0    2411.5232    17.969181    23.229216    21.926347    9152.2763    2879.4132    2021.1964    2333.9601   -299.72776    79.455161   -223.32528   -4116.2714 
31585000    82.747103   -4592.1345   -4450.3088   -4592.1345            0    2169.1715    17.871799    23.287689    21.943391     9132.683    2282.4795    2258.4864    1966.5485    658.52894    170.41007    163.62872   -4161.3951 
31586000    86.707265   -4599.9672   -4451.3539   -4599.9672            0    2603.4699    17.862227    23.193171    22.044686    9132.7095     2560.285    2805.3898    2444.7349    1.6115768    317.00986    100.56143   -4104.5946 
31587000    84.040405   -4601.3281   -4457.2857   -4601.3281            0    1777.7698    17.911942    23.396285    21.867037    9163.8826     1678.038    1710.5629    1944.7086   -706.95689   -22.719912   -317.80974   -4219.6942 
31588000    84.598652   -4587.1265   -4442.1273   -4587.1265            0    2216.3026    17.902266    23.407951    21.851093     9156.818    3116.9844     1133.159    2398.7642   -564.71491    493.39095   -720.27271    -4146.156 
31589000    79.935388   -4597.7028   -4460.6962   -4597.7028            0    1695.5147    17.971477    23.285518    21.893484     9161.879     1652.305    1977.2278    1457.0112   -737.74513   -233.15409    102.47348   -4234.1473 
31590000    82.344534   -4589.9153   -4448.7796   -4589.9153            0    1997.6433     18.06578    23.222733    21.849901    9166.8372    1522.2355     2092.955    2377.7394   -233.59131    -335.6815   -330.60599   -4181.7169 
31591000    80.223891   -4597.7236   -4460.2226   -4597.7236            0    2540.7604    18.023737    23.308953    21.721534    9125.5304    2234.3291    1974.6947    3413.2573     912.6493   -44.637313    412.69912   -4122.0817 
31592000    86.151939   -4597.1764    -4449.515   -4597.1764            0    1951.8241    17.936106    23.338605    21.900399    9167.5885    1915.7012    1731.5863    2208.1847    98.655164    254.58266    31.123511   -4188.5563 
31593000    81.997113   -4600.6534   -4460.1132   -4600.6534            0    1263.8354    17.936248    23.447634    21.845236    9187.2886    1079.7221    849.26939    1862.5147   -105.90244    423.38594   -284.70604   -4290.7754 
31594000    79.856133   -4589.8219   -4452.9512   -4589.8219            0    2535.1776    17.857958    23.331083    21.906146    9127.0971    3231.2555    2599.6215    1774.6556    -463.4232   -362.12733    66.104525   -4115.4954 
31595000    80.921245   -4595.7581   -4457.0619   -4595.7581            0    1346.1537    17.831148    23.441041    21.980201    9187.2988    1904.4215    645.13316    1488.9066    32.484685   -461.27663    120.26007   -4276.6944 
31596000    83.392397   -4589.9305   -4446.9988   -4589.9305            0    2447.1462    17.872738    23.441999    21.776092    9123.5878    2297.4523    1590.6805    3453.3059    591.17865    106.28407     236.0886    -4121.386 
31597000    82.516126   -4591.1459   -4449.7161   -4591.1459            0    1864.8167    17.759977    23.422026    22.023783    9161.3355    2854.3419    899.30355    1840.8047   -904.78704   -191.10523   -208.71056   -4200.5604 
31598000    81.301059    -4601.305   -4461.9577    -4601.305            0     2041.092    17.867704    23.453326    21.826217    9146.4307    2052.8106     2736.249    1334.2164    1019.5729   -39.271097   -11.530366   -4189.6938 
31599000    83.869678   -4594.7257   -4450.9759   -4594.7257            0    1470.4902    17.873395     23.48163    21.859816    9174.4873    1323.5062    1315.7259    1772.2385    -374.2893   -547.89146   -250.01531   -4254.2236 
31600000    81.386194   -4597.6462    -4458.153   -4597.6462            0    1497.9113    17.868857    23.404563    21.909681    9162.9089    2020.7672    1840.4297    632.53717   -548.95912   -498.89205   -273.17451   -4257.9847 
31601000    83.184618   -4602.7563   -4460.1807   -4602.7563            0    2764.4679    17.862715    23.319689    21.876751    9112.8251    2479.0349    1858.9238    3955.4449   -283.50254    207.48139   -13.826667   -4092.7796 
31602000    83.482278   -4591.4765   -4448.3908   -4591.4765            0    2138.8774    17.937526     23.35203    21.859941    9156.6407    1193.5905    2029.5623    3193.4796   -518.81393   -173.42429   -427.02766   -4162.7646 
31603000     82.79378   -4588.7802   -4446.8745   -4588.7802            0    2357.6147    17.858969    23.423859    21.864771    9146.6016    3018.4965    2019.7198    2034.6278    26.473951   -77.299299   -76.852356   -4132.3833 
31604000    82.022499   -4590.2956   -4449.7118   -4590.2956            0    2720.6908    17.818704    23.274576    22.027302    9135.2241    3209.1457    2755.5346    2197.3922   -463.46556    28.307854   -50.598301     -4087.24 
31605000    82.417251   -4588.4979   -4447.2376   -4588.4979            0    1477.4719    17.923496    23.419826    21.864647    9178.0167     1105.562    1658.1593    1668.6943   -359.25133    159.84637    363.63295   -4249.4751 
31606000    79.442052   -4597.6372   -4461.4762   -4597.6372            0    1665.3136    17.912693    23.377881     21.86198    9154.9403      2579.75    1269.7666     1146.424   -749.09427   -136.68126    14.631615   -4239.1312 
31607000    80.453155   -4597.1024   -4459.2084   -4597.1024            0    1448.5143    17.862423    23.261257    22.073705    9171.6777    1961.0812     1836.001    548.46055    167.55728   -18.077112    360.22823   -4265.4559 
31608000    78.576929   -4587.7069   -4453.0287   -4587.7069            0    2181.4097    17.916104    23.388174    21.857978    9159.0383    2497.5131    1283.9782    2762.7378   -146.21059   -77.845821    391.04665   -4161.6465 
31609000    82.115623   -4598.3333   -4457.5899   -4598.3333            0    2398.2724    17.933339    23.338977    21.873888    9155.2241      2165.77    2561.1234    2467.9239   -354.96854   -129.54431   -105.97334   -4137.3737 
31610000    80.724262   -4592.2257    -4453.867   -4592.2257            0    1564.3996    17.882287    23.321221    21.968033    9161.4773    1254.6178    1453.9283    1984.6529    36.670355   -491.72007    105.57359   -4244.8464 
31611000    82.662019   -4590.9776   -4449.2977   -4590.9776            0    2378.3531     17.85247    23.457546    21.769355    9116.4648    1903.0222    1986.9827    3245.0543   -512.87684    383.49474    157.43226   -4133.0855 
31612000    84.826248   -4594.1968   -4448.8075   -4594.1968            0    1724.7652     17.86207    23.386222    21.893942    9145.6761    1720.3314    1795.4434    1658.5206   -266.35204   -11.449613    215.82262   -4218.7578 
31613000     82.05399   -4591.1117    -4450.474   -4591.1117            0    3210.8124    17.781957    23.378031    21.812353    9067.5509    2709.1995    3154.7813    3768.4563   -353.03413   -63.594251    176.05273   -4025.8731 
31614000    80.836307   -4577.6746   -4439.1239   -4577.6746            0    2236.4977     17.82135    23.467839    21.858948    9142.0364    2525.2372    1827.6741    2356.5818   -141.56669    -294.2879   -27.346481   -4140.9379 
31615000    83.507003    -4587.478   -4444.3499    -4587.478            0    2429.6523     17.86737    23.271339    21.964316    9132.7105     1895.737    3674.6469    1718.5731   -48.143945    -424.4907    29.303903   -4120.7415 
31616000    81.011362   -4597.7781   -4458.9274   -4597.7781            0     1880.096    18.014202     23.25735    21.830653    9146.2273    1983.6249    1904.9457    1751.7174   -483.38337     298.0138    531.23832   -4208.1445 
31617000    77.519291   -4593.8143   -4460.9488   -4593.8143            0    2522.0332    18.048619    23.242781    21.747739    9123.1786    1912.5367    2466.9143    3186.6486   -558.89695   -106.70286    175.68963   -4125.3868 
31618000    82.145783   -4598.8668   -4458.0718   -4598.8668            0    3218.0083    17.969962    23.268049    21.723956    9083.3501     2334.709    2885.5374    4433.7783    188.59035    306.30983   -110.18012   -4031.7779 
31619000    84.308944   -4591.2533   -4446.7506   -4591.2533            0    2282.4554    17.900272     23.30744    21.910845     9141.413     3068.267    2265.3765    1513.7226   -179.41537    375.64132   -103.83206    -4142.458 
31620000    83.076243   -4595.9093   -4453.5195   -4595.9093            0    2680.6719    17.835706    23.383314     21.81258     9097.109    2067.3921    2968.0651    3006.5586    16.213964   -156.47313   -457.93143   -4097.8694 
31621000    81.395512   -4595.3947   -4455.8856   -4595.3947            0    2351.4369    17.806238    23.322369     21.99196    9132.9013    2928.7747    2113.6939    2011.8421   -180.84051   -163.56621     211.2612   -4142.6883 
31622000    85.435803   -4592.1615   -4445.7275   -4592.1615            0    1065.3487    17.974245    23.388154    21.905028    9208.5321    927.20067    612.80284    1656.0427    228.53034   -257.94326    170.43585   -4302.6543 
31623000    80.991842   -4600.2222    -4461.405   -4600.2222            0    2103.2593     17.89719    23.226584    21.993044    9142.3011    2189.2995     2459.903    1660.5755   -403.37372   -529.67688    122.44154   -4180.9751 
31624000    83.373778   -4587.8881   -4444.9883   -4587.8881            0    1802.9615    17.817996    23.346462    22.014043    9157.5589     1854.975    1933.9575    1619.9521   -751.29149   -169.80526   -492.89884   -4204.1963 
31625000    89.355342   -4590.6564   -4437.5044   -4590.6564            0    2576.0463    17.889939    23.265566    21.897487    9114.1622    2378.0516    2635.4398    2714.6475    190.95458   -108.67169    649.63852   -4095.0945 
31626000    82.655328   -4595.0454    -4453.377   -4595.0454            0    1930.5405    17.882316    23.348309    21.925752    9154.4805    1619.3493    1995.9188    2176.3534   -252.76854    230.68736   -73.012609    -4195.633 
31627000    85.076816   -4595.5205   -4449.7017   -4595.5205            0    1023.8118    18.002304    23.346215    21.875975    9194.1588    593.21809    1208.1233     1270.094    78.773864   -442.36393    175.24118   -4312.4215 
31628000    87.417356   -4600.1499   -4450.3195   -4600.1499            0    1566.0432    17.923425    23.167046    22.093192    9173.8181    2128.1118    1397.4303    1172.5876     678.9061   -152.43691    88.868526   -4240.7975 
31629000     86.95667   -4593.2319   -4444.1911   -4593.2319            0    2256.4708    17.966659    23.257928    21.856799    9133.2406    1598.7746    2122.5937     3048.044    803.99655   -78.752749    631.13043   -4143.6316 
31630000    81.001081   -4598.9759   -4460.1428   -4598.9759            0    2685.6533    17.822656    23.265051     22.00012    9122.2399    3664.6725    1979.2745     2413.013    43.351328    194.29972   -356.12454   -4102.8475 
31631000    77.320324   -4594.7776   -4462.2532   -4594.7776            0    1739.0696    17.936263    23.284668     21.98406    9181.4214    1395.0688    1726.6406    2095.4994   -161.14442    94.677522    -498.2501    -4229.389 
31632000    83.963925   -4584.4409   -4440.5296   -4584.4409            0    1710.2309    17.945868    23.391717    21.834524    9165.7981    1244.3542    1505.2057    2381.1329    134.39895   -32.051845   -402.32252   -4211.9166 
31633000      83.4608   -4603.1487   -4460.0997   -4603.1487            0    1810.5044    17.869628    23.408754    21.893521    9158.1854     1051.929    1326.0407    3053.5435    265.54795    247.15628    107.12255   -4218.2838 
31634000    81.642691   -4600.5273   -4460.5945   -4600.5273            0    1501.4092    17.849961    23.397303    21.971151    9176.0521    1698.4637    1008.3346    1797.4293    428.27846   -42.484174   -41.110229   -4259.6709 
31635000    77.650494   -4596.0392   -4462.9489   -4596.0392            0     2251.557    17.912785    23.227891    21.954385    9134.6977    2255.8868    2420.8966    2077.8876   -608.37101   -281.67618    72.602209    -4162.996 
31636000    80.335487   -4588.1978   -4450.5056   -4588.1978            0    2572.2878    17.955937    23.235993    21.901669    9137.9025    3135.0117    2110.5065    2471.3453    374.08617   -128.97682    604.54575   -4107.7046 
31637000    78.927585   -4594.1196   -4458.8404   -4594.1196            0     1942.783    17.978207    23.165406    21.937326    9136.2919    755.52194    2830.1502    2242.6767   -200.75589   -297.79924    13.863794   -4199.9773 
31638000    79.262571   -4587.4537   -4451.6003   -4587.4537            0    2443.1084    17.995301    23.214669    21.886106    9143.0294    2025.1352    2948.3731    2355.8167   -6.6023472    328.67608    225.89373   -4125.8321 
31639000    74.737008   -4597.8275   -4469.7308   -4597.8275            0     1797.303    17.955433    23.332473    21.886102    9169.0654    1479.3276    1677.4145    2235.1668   -236.70689     341.8648    -213.2815   -4229.3929 
31640000    82.425855   -4595.7197   -4454.4446   -4595.7197            0    1849.1056    17.900778    23.434946    21.856422    9168.8512    2587.2208    1438.7735    1521.3224   -80.563546    46.090225   -395.63743   -4207.1854 
31641000    80.937312   -4600.7794   -4462.0556   -4600.7794            0    2284.7301    17.870947    23.423059    21.870108    9154.6573    2543.6252    1504.0904    2806.4747    42.420861   -137.52372    201.73221   -4157.0183 
31642000    78.405749   -4591.8502   -4457.4654   -4591.8502            0    2343.9319    17.804857    23.323276    22.017412    9143.1178    3003.8246    2236.2888    1791.6825    452.16943   -77.966925    280.04969   -4144.9185 
31643000    80.452184   -4596.2395   -4458.3472   -4596.2395            0     2079.192    17.857641    23.434682     21.83804    9138.9608     1931.593    770.34112    3535.6418   -81.392565   -403.54757    157.59117   -4181.2275 
31644000     82.77525   -4596.9525   -4455.0785   -4596.9525            0    1776.1756    17.804252    23.417592    21.902667    9131.9382    2071.5414    2162.9815    1094.0039    127.13187    -123.6718    304.52551   -4218.5275 
31645000     84.99447   -4591.7552   -4446.0776   -4591.7552            0    1763.5217    17.908403    23.415848    21.864489    9168.6649      1541.31    2472.3207    1276.9343   -502.88896   -389.71016   -269.49056   -4210.2673 
31646000    82.180557   -4597.5783   -4456.7237   -4597.5783            0    1967.1339    17.841077     23.38735    21.948927    9158.3111    2123.6725    1622.1092      2155.62   -81.225335     7.264408    103.99824   -4193.9843 
31647000    80.030495   -4598.2374   -4461.0678   -4598.2374            0    2598.6127    17.919698    23.274709    21.871362    9122.0153    2099.1114    3096.5902    2600.1367     -19.5013    145.30614    37.918393   -4115.3608 
31648000    81.217595   -4603.6562    -4464.452   -4603.6562            0     1162.274    18.026162    23.241559    21.937563    9190.8763    548.68853    1123.8405    1814.2928    109.28996    18.343391    212.75315   -4308.6614 
31649000    84.948343   -4586.5088   -4440.9103   -4586.5088            0    2326.4035    17.908187    23.244567    21.972083    9146.2761    2682.9424    1821.4949    2474.7733   -105.82152    172.11178    267.31286   -4130.5935 
31650000     82.16694   -4595.2198   -4454.3885   -4595.2198            0    1894.5516    18.059362    23.248628    21.830763    9165.7636     1573.069    2088.6214    2021.9643    306.36356     68.15394   -131.69829   -4201.1376 
31651000    82.476755   -4588.4625   -4447.1002   -4588.4625            0    1440.2013    17.898372      23.3217    21.977479    9173.8497     1086.392    1146.7207    2087.4912   -163.02333   -12.762539    287.56647   -4254.4139 
31652000    80.750194   -4601.6181   -4463.2151   -4601.6181            0    1884.8315    17.952982    23.280995    21.927852    9165.0371     1441.636    1972.1234    2240.7349   -1188.8103   -774.61462    634.09325   -4211.2835 
31653000    80.597325   -4586.2969   -4448.1558   -4586.2969            0    1602.9308     17.94043    23.283855    22.022089    9199.1188    1903.6188    2176.6327    728.54109   -379.99124    123.21496    214.97929   -4233.1071 
31654000    80.451351   -4598.5813   -4460.6904   -4598.5813            0    1991.1561    17.793611    23.376883    22.016761    9158.0732    2996.9808    1821.4539    1155.0335   -274.67434    27.376924    196.69282   -4194.7494 
31655000    80.302149   -4591.8035   -4454.1684   -4591.8035            0    1879.4116    17.932758    23.423331    21.807097    9159.9601    2157.1321    1227.9419    2253.1607   -905.54551   -400.47681    356.84633   -4203.1004 
31656000    78.187114   -4603.7373   -4469.7272   -4603.7373            0    1862.8253    17.898993    23.221859     22.02033    9152.7037    1533.7749    1551.7612      2502.94    583.27183   -401.95643   -205.11719   -4221.0721 
31657000     81.15559   -4595.3114   -4456.2135   -4595.3114            0    2457.2407    17.841586    23.342534     21.96887    9149.3274    1985.7362    2609.2554    2776.7304    549.38999   -109.25898    173.14578   -4128.3351 
31658000    83.247076   -4601.4822   -4458.7996   -4601.4822            0      1334.92     17.90597    23.348801    21.954786    9178.9215    2526.7556    1493.5437   -15.539293   -287.61815    209.37319    120.45338   -4280.1003 
31659000    77.040044    -4587.727    -4455.683    -4587.727            0    1570.3072    17.887928    23.268991    22.057694    9181.1627    1631.4759    1437.0652    1642.3804   -703.60227   -339.32084    49.779915   -4245.4223 
31660000    88.554589   -4597.0937   -4445.3141   -4597.0937            0    1595.1535    17.886698    23.354124    22.004647    9191.9613    2965.9422    567.45875    1252.0596    259.88999     233.1122    309.66831   -4231.4753 
31661000    79.245883   -4599.6705   -4463.8458   -4599.6705            0    1408.6852     18.03178    23.365246    21.806542    9187.4663    1340.3637    1052.8634    1832.8285    -267.3719   -285.12911    85.073172   -4275.0964 
31662000    83.128648   -4599.1033   -4456.6237   -4599.1033            0    2250.0407    17.950231    23.239205    21.909335    9139.4592    2534.0711    2399.7528    1816.2981    393.84606   -107.44146   -296.63399   -4156.7166 
31663000    84.974543   -4597.6407   -4451.9972   -4597.6407            0    2410.6707    18.135451    23.057665    21.890339    9153.6891    1647.4107    3228.9126    2355.6888    181.55385   -217.89751    -24.44696   -4130.1795 
31664000    83.869517   -4603.4014   -4459.6519   -4603.4014            0    1887.7605    17.967227    23.359479    21.843633    9167.8832    1985.2038    2149.2143    1528.8635    94.924554   -495.08269    275.33866   -4207.2504 
31665000    81.706315   -4593.2143   -4453.1725   -4593.2143            0    1712.3286    17.911013    23.331834    21.889034    9147.3569    1065.7759    2039.5924    2031.6174    36.597434    61.249011   -119.46131   -4224.7396 
31666000    82.587707    -4591.526   -4449.9735    -4591.526            0    1285.7168    17.938306    23.351333    21.971739    9203.5958    1414.8727    928.67083    1513.6067   -486.95291   -167.71502    275.89068   -4277.3981 
31667000    79.427605   -4599.1986   -4463.0624   -4599.1986            0    1838.7676    17.878155    23.352027    21.936556    9158.3182    1890.8154     1636.628    1988.8594   -103.59919   -330.93232    168.80518    -4217.468 
31668000    90.207171   -4592.8045   -4438.1925   -4592.8045            0    2263.8149    17.782758    23.251791    22.102612    9139.0099    2788.8234    2590.5685    1412.0528    781.74939     169.4859    276.02757   -4136.4643 
31669000    81.693165   -4583.4943    -4443.475   -4583.4943            0    1420.8042    17.897736    23.334706    22.023137    9197.7078    1337.4444    2119.7584    805.20974   -11.370871   -250.01541   -359.99508   -4252.8896 
31670000    80.373491   -4591.8519   -4454.0945   -4591.8519            0    1711.7869    17.845684    23.434535    21.938244    9174.6904    2265.7271    1003.3286    1866.3051    -878.9788    53.570979    117.67769   -4225.0515 
31671000    78.513327   -4587.4835   -4452.9143   -4587.4835            0     2156.388    17.849919    23.440745    21.916461    9170.1848    2403.4943    1420.6072    2645.0625   -39.305897    123.77175   -34.807689   -4164.5238 
31672000    79.486984   -4592.5279   -4456.2899   -4592.5279            0    1171.9236    18.054298     23.29881    21.867015    9198.2216    719.61248    1135.7997    1660.3586    517.31003   -157.07883   -161.85931   -4299.0804 
31673000    81.107024   -4595.1049   -4456.0902   -4595.1049            0    2466.0703     17.94524    23.259758    21.893483    9138.3824    2568.5207    2137.3592     2692.331   -790.12004   -232.36512   -198.43846   -4127.4273 
31674000    81.182973   -4599.0129   -4459.8681   -4599.0129            0    2564.1087    17.961611    23.255082    21.875252    9137.2652    2545.2159    3485.5907    1661.5197   -691.69609     114.8138    330.96349    -4118.181 
31675000    82.745981    -4588.676   -4446.8522    -4588.676            0    2250.1022     17.84583    23.544898    21.791675    9156.3877    2526.0323    1994.6078    2229.6664   -471.48048   -195.68853     433.9281   -4146.3814 
31676000    81.486107    -4596.975   -4457.3106    -4596.975            0    1613.1738    17.890883    23.447677    21.839197    9161.5354    776.63667    1765.6043    2297.2803    -563.0419   -90.430274    59.550438   -4241.7719 
31677000    81.429138   -4580.3141   -4440.7474   -4580.3141            0     1962.225      17.8213    23.445613    21.891686    9147.0312    2562.9219    1668.1073     1655.646   -167.05656   -475.59491    217.32067   -4178.9864 
31678000    83.907647   -4591.4787   -4447.6639   -4591.4787            0    2475.3384    17.844766    23.372872    21.904094    9135.8349    2141.6613    2236.0141    3048.3399   -315.32507    93.700518    236.60595   -4117.8577 
31679000    81.698718   -4594.8671   -4454.8383   -4594.8671            0    2168.2541    17.808535    23.434268    21.895679    9137.7236    2854.4519    1268.1951    2382.1152    -403.7541    12.891702   -460.77649   -4165.8874 
31680000    78.167883   -4587.9499   -4453.9728   -4587.9499            0    2197.5478     17.84408    23.384825    21.932071    9151.8295    3071.2639    1804.6817     1716.698   -649.51632   -198.17623    744.59136    -4160.666 
31681000    85.462454    -4596.833   -4450.3532    -4596.833            0    2195.2328    17.895413    23.353731    21.865508     9138.135    1414.4809    3058.8416    2112.3758   -2.8360226    -89.39738     162.5643   -4157.7939 
31682000    85.794012   -4588.5327   -4441.4847   -4588.5327            0    1803.3328     17.81489    23.459799    21.945687    9171.8432    1453.1885    1874.7218    2082.0881   -239.91486   -157.24417    50.474323   -4200.2675 
31683000    76.693038   -4590.4198   -4458.9706   -4590.4198            0    2068.0089    17.931164    23.249035    21.934482    9144.0963    2212.7363    2005.4295    1985.8609    103.16686   -54.062132   -342.06757   -4183.1866 
31684000    79.840297   -4595.3985   -4458.5549   -4595.3985            0    2287.4993    17.951591    23.430448    21.767533    9155.7251    1677.7995    2808.7259    2375.9726    80.564611    42.912149   -93.195767   -4153.1123 
31685000    82.693218   -4589.4096   -4447.6763   -4589.4096            0    2741.8778    17.991772    23.236618    21.827905    9125.5471    1457.3424    3069.2598    3699.0313    311.44095   -330.87133    695.86015   -4082.7687 
31686000    83.559205   -4590.3272   -4447.1096   -4590.3272            0    1988.8029    18.036318      23.2471    21.883176    9175.4425     2314.383    1609.9742    2042.0515    199.61286   -729.22011    132.22993   -4180.9791 
31687000    79.007584   -4592.4309   -4457.0146   -4592.4309            0    1493.4569    18.057026     23.24183    21.900374    9191.1122    401.03428    1417.4856    2661.8507    268.77689     96.03239     378.9933   -4256.8273 
31688000    85.541918   -4589.7032   -4443.0872   -4589.7032            0    1478.6089    17.986071    23.272645    21.931051    9179.9752     1145.071    1743.4045     1547.351    -218.8936   -415.37732   -402.79386   -4245.1303 
31689000    81.527993   -4600.7676   -4461.0314   -4600.7676            0    2048.2526    17.867973    23.317572    21.968487    9152.9007    2413.0165    1942.4353    1789.3061    734.18002    292.04086   -38.241049    -4187.619 
31690000    86.875657   -4587.8728   -4438.9709   -4587.8728            0    2775.6844    17.934067    23.363697    21.784507    9127.8416      3254.68    1750.0079    3322.3652    27.491605   -579.20284    452.92996   -4069.4712 
31691000    80.847093   -4588.4786   -4449.9095   -4588.4786            0    1884.3795    17.877532     23.24824    22.072931    9173.9766    1457.8458    2693.4665    1501.8261   -796.71224   -341.75884    182.47076   -4197.7926 
31692000    84.124786   -4595.8213   -4451.6343   -4595.8213            0    1169.9791    17.934024    23.263014     22.03542    9193.1652     1867.319    1134.6042    508.01413    433.43185   -150.13231   -197.35792   -4294.7718 
31693000    81.062903   -4589.4703   -4450.5313   -4589.4703            0    2195.5966    17.957964    23.270533    21.936203    9166.9503     2399.929    2813.4329     1373.428   -242.82371    169.94974   -218.67687   -4157.0007 
31694000    82.379051   -4588.5319    -4447.337   -4588.5319            0    1157.2353    17.958752    23.278658    21.984082    9190.5695    1110.9951     1389.407    971.30366   -187.25584    48.040888    629.25772   -4292.2269 
31695000     81.09831   -4592.8126   -4453.8128   -4592.8126            0    2081.6932    17.942486    23.305161     21.90077    9157.8621     2041.215    2635.4415    1568.4231   -316.02886   -24.744129     406.6145    -4175.786 
31696000     84.23572   -4593.3575   -4448.9803   -4593.3575            0    3034.0048    17.916878    23.334605    21.783543    9107.3353      2910.31    2784.5434     3407.161    58.466534   -299.43775   -235.67476   -4046.0004 
31697000    83.667387    -4595.772    -4452.369    -4595.772            0    2114.4439     17.95096    23.375753    21.793043    9144.7356    1998.3202    1127.5533    3217.4582   -642.92307    277.38605    6.5279271   -4170.3728 
31698000    80.102718   -4587.0094   -4449.7161   -4587.0094            0    2558.2199    17.849195    23.520558    21.767792    9138.6204    2988.3388    2338.9914    2347.3296    126.35654     -339.296   -186.00725   -4108.7632 
31699000    85.967268   -4595.6236   -4448.2787   -4595.6236            0    1936.5714    17.901541    23.388245    21.879848    9160.7779    1795.7283    1650.6134    2363.3726    64.177804   -54.193016   -62.362964   -4189.5517 
31700000    83.200655   -4597.3398   -4454.7367   -4597.3398            0    1444.4722    17.891182    23.367483    21.952925    9177.9007    1956.8453    1275.3957    1101.1756     394.8762    206.17135    88.670774   -4261.3937 
31701000    80.921379   -4590.5709   -4451.8744   -4590.5709            0    1873.4606    17.879723    23.358431    21.935135    9161.0393    1945.0902    2050.6921    1624.5995   -33.937039    246.46125   -131.77121   -4201.5719 
31702000    84.038286   -4594.4758   -4450.4371   -4594.4758            0    1337.5031    17.924541    23.332758    21.964409    9186.1526    1636.3041    1489.3305     886.8746   -614.82877    80.247369   -520.31464    -4271.251 
31703000    81.679195   -4597.6485   -4457.6531   -4597.6485            0    2920.6683    17.808415    23.209953     22.05828    9117.4031    2951.5041    3270.8217    2539.6792    418.26897    347.71706    168.22015   -4069.2978 
31704000    79.058256   -4594.4851    -4458.982   -4594.4851            0     1849.689    17.916891    23.359561    21.851296    9145.4383    2122.4172    1683.6159    1743.0339   -500.83906    464.49371   -61.666513   -4212.2763 
31705000    79.689528   -4596.3818   -4459.7967   -4596.3818            0    2164.3319    17.922334    23.235415    21.948509    9140.0804    1690.5517    3287.8992    1514.5449    10.394139   -396.29789    29.701717   -4171.2941 
31706000     82.44348    -4602.738   -4461.4327    -4602.738            0    1959.6813    17.938957    23.314583     21.89222    9156.1869    1866.8589     1988.699     2023.486    557.83959   -389.18549    -156.8339   -4199.7494 
31707000     78.71786   -4590.3146   -4455.3949   -4590.3146            0    1552.6906    18.029149    23.438626    21.700437    9170.1376    900.07201    1388.3837    2369.6161    363.88927    20.815854   -171.68896   -4247.7426 
31708000    82.703828   -4589.6341   -4447.8825   -4589.6341            0    1852.8644    17.894513    23.372269    21.911579    9164.1975    2419.8779    1852.9134    1285.8021   -571.39739    328.25576    70.512529   -4200.2464 
31709000    79.398021   -4588.3598   -4452.2743   -4588.3598            0    1590.6627    17.933893    23.396146    21.847439    9166.8353    715.44517    1376.5622    2679.9808    95.309635    231.50708   -334.73165   -4239.6204 
31710000    84.042133   -4588.7947   -4444.7493   -4588.7947            0    1876.7844    17.917065    23.256669    21.975907    9157.1685    2384.0979    1729.4897    1516.7656   -14.722068   -336.98428    389.63842   -4194.1087 
31711000     81.74217    -4596.561   -4456.4577    -4596.561            0    1967.7508    17.970105    23.257795    21.887867    9147.9249    1991.6826    2150.2953    1761.2746   -208.24018    317.65097   -305.23228    -4193.934 
31712000    83.736577   -4591.2463   -4447.7247   -4591.2463            0    3117.5406    17.887311    23.187588    21.955657    9106.4073    2964.2673    3464.2263    2924.1281     194.5633     54.73425    204.95564   -4033.6916 
31713000    79.538139   -4585.2136   -4448.8879   -4585.2136            0     1666.118     17.86826    23.367107    22.006545    9188.3827    2380.8356    867.43213    1750.0862   -321.97365    181.11291    490.42452   -4225.6229 
31714000    78.568867   -4591.0461   -4456.3818   -4591.0461            0    2271.0335    17.891362    23.354539    21.910396    9155.1387    2754.5054    2473.6119    1584.9833     336.3465   -351.75836    271.34992   -4153.1572 
31715000    78.344438   -4602.4544   -4468.1747   -4602.4544            0    2982.1441    17.758817    23.356125    21.961137    9108.9778    3426.7107    2617.7626     2901.959    524.33714   -459.38907    241.25384   -4072.0115 
31716000     79.11203   -4593.4857   -4457.8904   -4593.4857            0    1656.1955    17.987821    23.353634    21.853287    9180.1502    966.41648    1144.6188    2857.5513   -62.611928    56.479593    357.89799   -4236.1539 
31717000     78.37951   -4594.9344   -4460.5946   -4594.9344            0    1820.3886    17.877722    23.417742    21.899213    9168.2345    1063.4642    1779.7088    2617.9929    303.66688   -76.290972    555.10379   -4217.1917 
31718000    82.777979   -4592.5248   -4450.6461   -4592.5248            0    2656.4055    17.880969     23.30063    21.920968    9133.1047    2710.9303    2635.2124    2623.0738   -87.719093    328.18751   -556.83418    -4096.821 
31719000    83.602287   -4591.1076   -4447.8162   -4591.1076            0    2373.5741    17.958862     23.32048    21.829634    9142.4532    2294.7932    2591.7133    2234.2158   -139.44517     522.7258    48.851023   -4131.3397 
31720000     74.67529   -4587.8592   -4459.8683   -4587.8592            0    2095.5606    17.794394    23.461345    21.966273    9170.4885    2575.6867    1124.4936    2586.5016   -214.43648    -225.3847    34.264849   -4179.6035 
31721000    81.094722   -4594.4653   -4455.4718   -4594.4653            0    1577.5682    17.954854    23.379552    21.856585    9174.8792    1487.8667    1396.6775    1848.1604    187.22463    174.84441   -104.76489   -4244.3833 
31722000    83.487027   -4602.1899    -4459.096   -4602.1899            0    2175.1603    17.900684    23.326796    21.919378    9152.7782    2155.6535    1872.8455    2496.9819   -346.37863    221.47852    93.951772   -4168.7472 
31723000     81.14424   -4595.0308   -4455.9524   -4595.0308            0    2330.7065    17.998238    23.183148    21.868391    9124.7136    2032.4814    1838.7295    3120.9086    440.04266    664.90879   -102.25533   -4145.7946 
31724000    84.564339   -4599.9792   -4455.0388   -4599.9792            0    1221.0972    17.967987    23.202436    21.997919    9170.9561    1521.3128    887.60538    1254.3733    328.46402    75.339451    383.78582   -4291.7183 
31725000    78.807559   -4594.6853   -4459.6118   -4594.6853            0    1657.3865    17.984598    23.203851    22.008422    9184.3775    1302.5654    2140.8557    1528.7384   -17.926203   -38.819863    244.83748   -4237.6136 
31726000    84.876372   -4599.3139   -4453.8387   -4599.3139            0     1343.485    17.923879    23.252437    22.009448    9172.9625    1379.8377    2192.1316    458.48565    -637.0215     90.77086   -277.90651   -4274.1097 
31727000    92.657984   -4594.2655   -4435.4529   -4594.2655            0     1925.018    17.896607    23.241611    22.030696    9163.5793    1617.4737    2107.1091    2050.4712   -1017.7511    160.54038   -49.316704   -4178.1907 
31728000    84.620106   -4590.3374   -4445.3014   -4590.3374            0    2575.1126    17.851421    23.374595    21.877798     9128.943    2775.8887    1909.4025    3040.0466   -559.36161   -304.90122     223.4557   -4102.4605 
31729000    84.141181   -4593.1224   -4448.9072   -4593.1224            0    2745.8657    17.926547    23.308229     21.83823    9124.7996    2397.9204    3340.6946     2498.982    37.886827   -597.21522    222.41789   -4083.4989 
31730000    82.939904   -4583.7211    -4441.565   -4583.7211            0    1331.3663    17.975677    23.331992    21.899514    9184.8387    798.93344    1955.7929    1239.3725   -591.81091   -89.346902    87.566845   -4263.2265 
31731000     83.07546    -4588.972   -4446.5835    -4588.972            0    2037.3305    17.879628    23.352464    21.931667    9157.2025    2101.1222    2494.8891    1515.9802   -855.93837    628.87784     357.7023   -4174.5012 
31732000    82.986002   -4594.8818   -4452.6466   -4594.8818            0    2190.2813     18.06789    23.338919     21.72993    9163.1858    1658.5349    1785.0288    3127.2802     595.1043   -275.24698    546.59172   -4159.9469 
31733000    81.510304    -4596.814   -4457.1082    -4596.814            0    2413.8505    17.916432    23.223378    21.961273    9137.6481    2257.1472    2691.7539    2292.6504   -405.24655   -125.62851   -135.01432   -4135.4307 
31734000    84.077701   -4590.9243    -4446.818   -4590.9243            0    2437.8267    17.858819    23.297469    21.966832    9139.6364    1703.8755    2573.5799    3036.0248   -151.59389    136.00495   -142.37631   -4121.8746 
31735000    79.688367   -4599.2827   -4462.6996   -4599.2827            0    1340.9878    17.921615    23.342762    21.956752    9185.3877    1621.8999    1450.2654    950.79817    94.074011    87.749909    39.800122   -4283.0616 
31736000    83.389586   -4595.8343   -4452.9074   -4595.8343            0    2938.0117    17.941984    23.189283    21.901453    9112.3567    2334.8278    3269.9091    3209.2984    410.02424   -348.23151    307.81545   -4062.4622 
31737000    82.298078   -4597.1796   -4456.1235   -4597.1796            0    2269.5947    17.949374    23.355025    21.823064    9148.4046     2950.281    1870.7214    1987.7817    244.30927    201.81087    138.62608   -4153.3139 
31738000    83.469652   -4590.8092   -4447.7451   -4590.8092            0    2352.7028    18.039661    23.280313    21.739082    9129.7395    904.90952    2166.0118     3987.187    409.26777   -575.83385    364.11003   -4134.4877 
31739000    85.088454   -4596.3068   -4450.4681   -4596.3068            0    1891.5006    17.973127     23.19584    21.929502    9142.4485    1278.6995    2605.4001     1790.402    182.57932    41.503857   -48.250948   -4198.2682 
31740000    85.847369   -4599.5298   -4452.3904   -4599.5298            0    1443.3186    17.929463    23.267448    21.982536    9170.5172    1817.3331    1331.3644    1181.2584   -214.00828   -362.05782    328.42894   -4259.3572 
31741000     75.46697   -4589.4957   -4460.1479   -4589.4957            0    2029.4377    17.917115    23.360321     21.85371    9146.8606    2193.7274    2071.5907    1822.9948   -61.687758   -21.159082    525.74335   -4189.4258 
31742000    80.166702   -4590.1862   -4452.7832   -4590.1862            0    2690.8705    17.850732    23.296251    21.954467    9129.8781    2773.2269    2428.8614    2870.5233    60.070254   -18.466713    8.7298936   -4094.4941 
31743000    83.515927   -4588.9243   -4445.7808   -4588.9243            0    1583.8823      17.8649    23.336823    21.997141    9170.8284     806.6852      2387.25    1557.7116   -422.06794   -4.9853203   -72.620194   -4233.9411 
31744000    81.066092   -4588.1111   -4449.1666   -4588.1111            0    1919.8619    17.870824    23.456169    21.854154    9160.8476    2094.6025    1367.6709    2297.3123   -213.98994    71.004905   -9.6958183     -4192.67 
31745000    83.903116   -4588.2852   -4444.4781   -4588.2852            0    2285.9548    17.892685    23.359795     21.87863    9144.5992    2363.8691    1793.4973    2700.4981    550.55078   -24.512179    195.55507   -4139.6127 
31746000     82.64441    -4595.139   -4453.4893    -4595.139            0    1140.4345    18.099256    23.256164     21.88062    9209.9744    1299.1374     1405.834    716.33197   -250.61507   -450.74964    492.89766   -4300.3084 
31747000    81.318152   -4593.1375   -4453.7609   -4593.1375            0    2303.8799    17.990524    23.243602    21.890333    9153.7619    2160.4059    2900.5561    1850.6776     335.8112    45.338076   -64.131021   -4146.1971 
31748000    85.172262   -4590.9544    -4444.972   -4590.9544            0    2245.2833    17.896674    23.383156    21.843079    9140.9073    1914.9441    2336.7509    2484.1548    427.47663   -295.48633    124.67217   -4145.6516 
31749000    80.555271   -4599.4026   -4461.3337   -4599.4026            0    714.53347    17.922643    23.559687    21.825031    9215.6603     893.7008    434.25752     815.6421    76.346183   -29.393429    105.83108   -4365.2997 
31750000    84.095167   -4584.1972   -4440.0609   -4584.1972            0    1978.1383    17.830045      23.4577    21.914683    9165.8567    1957.2322    826.71571     3150.467   -72.950978    -40.96246    638.28505   -4175.6341 
Loop time of 333.071 on 64 procs for 250000 steps with 864 atoms

Performance: 129.702 ns/day, 0.185 hours/ns, 750.590 timesteps/s
387.4% CPU use with 16 MPI tasks x 4 OpenMP threads

MPI task timing breakdown:
Section |  min time  |  avg time  |  max time  |%varavg| %total
---------------------------------------------------------------
Pair    | 23.732     | 27.325     | 30.599     |  37.1 |  8.20
Bond    | 1.4724     | 1.7855     | 2.3843     |  15.1 |  0.54
Kspace  | 178.79     | 183.7      | 191.19     |  26.2 | 55.15
Neigh   | 0.27214    | 0.29576    | 0.33889    |   3.8 |  0.09
Comm    | 41.223     | 45.295     | 49.54      |  32.3 | 13.60
Output  | 0.67622    | 0.67654    | 0.6779     |   0.0 |  0.20
Modify  | 52.122     | 58.805     | 63.921     |  50.0 | 17.66
Other   |            | 15.19      |            |       |  4.56

Nlocal:        54.0000 ave          62 max          47 min
Histogram: 3 1 3 1 0 1 2 1 2 2
Nghost:        2568.50 ave        2603 max        2547 min
Histogram: 1 2 4 3 2 1 1 0 0 2
Neighs:        13259.5 ave       15162 max       11582 min
Histogram: 3 1 4 0 0 1 0 4 1 2

Total # of neighbors = 212152
Ave neighs/atom = 245.54630
Ave special neighs/atom = 2.0000000
Neighbor list builds = 1210
Dangerous builds = 0

unfix		3
unfix		2
unfix		1

write_data	data.final.${pid} nocoeff
write_data	data.final.1 nocoeff
System init for write_data ...
PPPM initialization ...
  extracting TIP4P info from pair style
  using 12-bit tables for long-range coulomb (../kspace.cpp:340)
  G vector (1/distance) = 0.37195251
  grid = 24 27 25
  stencil order = 5
  estimated absolute RMS force accuracy = 0.0031348546
  estimated relative force accuracy = 9.4405215e-06
  using double precision FFTW3
  3d grid and FFT values/proc = 6300 1296
Last active /omp style is kspace_style pppm/tip4p/omp

write_restart   restart.lmp.${pid}
write_restart   restart.lmp.1
System init for write_restart ...
PPPM initialization ...
  extracting TIP4P info from pair style
  using 12-bit tables for long-range coulomb (../kspace.cpp:340)
  G vector (1/distance) = 0.37195251
  grid = 24 27 25
  stencil order = 5
  estimated absolute RMS force accuracy = 0.0031348546
  estimated relative force accuracy = 9.4405215e-06
  using double precision FFTW3
  3d grid and FFT values/proc = 6300 1296
Last active /omp style is kspace_style pppm/tip4p/omp
Total wall time: 0:05:33
