LAMMPS data file via write_data, version 30 Jul 2021, timestep = 6750000

864 atoms
2 atom types
576 bonds
1 bond types
288 angles
1 angle types

0.3332614492062085 17.874310950789567 xlo xhi
1.4840692370097663 22.145108562992412 ylo yhi
0.4065781896259626 21.8066176103762 zlo zhi

Masses

1 1.00794
2 15.9994

Pair Coeffs # lj/cut/tip4p/long/omp

1 0 0
2 0.21084 3.1668

Bond Coeffs # harmonic/omp

1 450 0.9572

Angle Coeffs # harmonic/omp

1 55 104.52

Atoms # full

225 1 1 0.5897 2.709741492126158 1.5498457100440997 2.6452669393246744 4 1 -7
814 1 2 -1.1794 2.709191103552871 4.9386713658095065 2.8749923657673397 -3 6 -3
748 1 2 -1.1794 2.632359250501016 6.0723818694670735 5.274857234149516 2 5 0
305 1 1 0.5897 2.8131882925793956 2.1305790118282033 4.825047116277514 4 -1 -6
223 1 2 -1.1794 1.9790718814646675 1.8087473380372732 3.2067150059254756 4 1 -7
816 1 1 0.5897 2.0668532069245207 4.234227841965366 2.9605679915351444 -3 6 -3
750 1 1 0.5897 2.699831173313831 5.498360833443435 4.5119133934223665 2 5 0
815 1 1 0.5897 3.541543013643657 4.4883032094668565 2.731731323950267 -3 6 -3
749 1 1 0.5897 1.8569959147302855 6.607237830005607 5.104923844708959 2 5 0
432 1 1 0.5897 3.048978885247935 6.486677526139843 1.973870452534436 -3 -1 -3
72 1 1 0.5897 3.6589618533886177 3.499433843669775 8.86941279478361 4 2 -6
287 1 1 0.5897 1.55788660533514 4.571392271696108 8.194629795019157 2 1 1
286 1 2 -1.1794 2.4633848323538223 4.873050668712445 8.122340759472163 2 1 1
306 1 1 0.5897 3.53190103653745 3.046304158137531 5.792798407733916 4 -1 -6
560 1 1 0.5897 2.174720591096554 6.342177729511366 9.581416919821391 6 0 1
288 1 1 0.5897 2.5096295214380953 5.289454788304963 7.261752162088217 2 1 1
24 1 1 0.5897 4.52642705212414 1.7279350483367482 10.586276492169088 -5 4 2
162 1 1 0.5897 1.173150739480279 2.055320187391342 6.249437748207497 2 8 3
70 1 2 -1.1794 4.221812110066667 3.0504823120324356 9.500101609508635 4 2 -6
339 1 1 0.5897 2.748490822059509 3.2564763408391872 10.880869179762232 -2 0 2
561 1 1 0.5897 0.9977087773245004 6.2577786409152525 10.529652513053684 6 0 1
160 1 2 -1.1794 0.4501148374118582 1.7130752156500482 6.7750291032265 2 8 3
304 1 2 -1.1794 2.9695101310860075 2.2725640637175104 5.758611396593175 4 -1 -6
337 1 2 -1.1794 1.9468435640738455 3.379622598801646 11.389180760629829 -2 0 2
338 1 1 0.5897 2.1554549127970963 4.087632077799542 11.998565290851543 -2 0 2
205 1 2 -1.1794 1.8066008476466453 4.948062949788104 15.960981848962058 -4 4 -4
228 1 1 0.5897 2.5774204131822107 5.162168756695142 14.255631524839453 3 -3 0
227 1 1 0.5897 3.3350188628531154 6.047542250504177 13.289266073218647 3 -3 0
226 1 2 -1.1794 2.925130788289479 5.18585003295415 13.364144908115382 3 -3 0
464 1 1 0.5897 1.2576032950440788 2.1548492901362803 12.805465016171262 5 4 -2
140 1 1 0.5897 4.406012345789925 4.590552681653167 14.20833332955413 0 0 -1
206 1 1 0.5897 1.9530016979965867 4.097013535586996 16.37380813655947 -4 4 -4
100 1 2 -1.1794 4.709944674647648 1.7396136205679273 15.616934572424013 7 -4 -1
527 1 1 0.5897 1.676543521646546 1.5484113997326814 17.135963546850235 -2 -3 1
678 1 1 0.5897 1.537467692299182 4.484419870795086 20.930905311869623 1 1 -4
124 1 2 -1.1794 2.3850710115622755 3.5010622044674196 19.3787280987571 2 -1 3
126 1 1 0.5897 2.3157250331163652 3.08259268724323 18.520688191195738 2 -1 3
125 1 1 0.5897 2.920113895745879 2.899601801617993 19.896514146963845 2 -1 3
676 1 2 -1.1794 0.7833148324179484 4.831290758312051 21.407452998364185 1 1 -4
267 1 1 0.5897 3.6964904377535572 4.732347620673815 19.059619238686267 -3 -1 -2
526 1 2 -1.1794 2.2651480707744294 2.289942766707527 16.995207484483387 -2 -3 1
207 1 1 0.5897 1.803355385896756 5.570214214252085 16.68833712032476 -4 4 -4
1 1 2 -1.1794 4.385813259255515 1.8811152913072715 20.504683288100637 3 -5 3
528 1 1 0.5897 3.072965674221635 1.8959869396227345 16.66602499860062 -2 -3 1
265 1 2 -1.1794 4.452099074634405 5.184860694753571 18.6848959337867 -3 -1 -2
677 1 1 0.5897 0.3901271559182611 5.464102367804753 20.806539998909145 1 1 -4
198 1 1 0.5897 4.689169714867734 6.403742633152991 21.543855936762846 -1 -2 -1
603 1 1 0.5897 0.6234388803396158 8.23372161334693 5.538771762700401 5 4 -1
430 1 2 -1.1794 3.3909162907686494 7.281374573501435 1.5643984803523723 -3 -1 -3
382 1 2 -1.1794 0.6085727295836619 11.01084336448192 0.9642858711549032 -8 -2 -2
431 1 1 0.5897 4.076133898588403 7.58290144413117 2.160824362559687 -3 -1 -3
19 1 2 -1.1794 3.8005184689051594 9.778165536792597 5.48423527391209 -3 -4 3
90 1 1 0.5897 1.5765760183748352 10.596101445430211 3.807322615226589 8 -1 4
859 1 2 -1.1794 1.456976424511866 9.03835423350904 2.5812066813052583 -1 -2 2
861 1 1 0.5897 2.2488556966303865 8.590201734130058 2.2841783192081326 -1 -2 2
383 1 1 0.5897 1.3044174712277967 11.665666267045323 0.9082807898346998 -8 -2 -2
20 1 1 0.5897 3.6771497391995505 10.603129659978723 5.014824982510744 -3 -4 2
602 1 1 0.5897 0.7033389098927266 7.985383790933011 4.04758918672702 5 4 -2
281 1 1 0.5897 4.574769023421526 10.480037367368533 1.67582911789985 -2 0 1
860 1 1 0.5897 1.3197537949524407 9.734319863997008 1.9386108659773023 -1 -2 2
88 1 2 -1.1794 1.3571582150355623 11.427913331535061 4.226931842060656 8 -1 4
180 1 1 0.5897 4.58353498796351 8.515410199944561 4.251541105283078 -7 1 -1
179 1 1 0.5897 4.011016846563235 7.116843499716054 4.340229225384693 -7 1 -1
89 1 1 0.5897 0.45141867661949747 11.596152865950803 3.967191312283351 8 -1 4
601 1 2 -1.1794 0.4108285415377857 7.586092627605634 4.866818283163009 5 4 -1
546 1 1 0.5897 4.203498588000949 7.758349566520865 7.92742603948603 -5 4 5
150 1 1 0.5897 0.8586262695936 9.323009844882968 7.4528450773210135 -4 1 2
545 1 1 0.5897 3.8464478571046827 7.928208091262961 9.388696718774053 -5 4 5
148 1 2 -1.1794 1.6338261320051917 9.090384863771213 6.941863771226319 -4 1 2
149 1 1 0.5897 2.2762027912345126 8.81094832803944 7.5941059498684345 -4 1 2
710 1 1 0.5897 3.9652565009667438 9.965795858941735 8.895726796762517 -5 -3 -2
544 1 2 -1.1794 3.754897799622099 8.347994243756169 8.533401057440445 -5 4 5
559 1 2 -1.1794 1.6317340438718535 6.874059267521495 10.16313336279356 6 0 1
709 1 2 -1.1794 4.107684872644948 10.911834132667225 8.924965452722732 -5 -3 -2
434 1 1 0.5897 2.749464408575678 11.015186369084356 10.398384047293808 -1 2 -1
21 1 1 0.5897 2.9313127863188564 9.56172605030738 5.821584159872215 -3 -4 3
448 1 2 -1.1794 2.209735329082846 8.589116015320732 12.194365707814148 5 1 -3
433 1 2 -1.1794 2.261244799251999 11.043482506183524 11.221174000203195 -1 2 -1
67 1 2 -1.1794 4.209664201128076 7.922369190373417 13.975855581468123 5 -2 -3
449 1 1 0.5897 3.05270426983798 8.37329913401863 12.593081295800408 5 1 -3
242 1 1 0.5897 1.906954270364355 8.608739974066417 15.74468945324545 1 -3 2
68 1 1 0.5897 3.7392894095094196 8.464567612820563 14.609026327251971 5 -2 -3
241 1 2 -1.1794 2.6419119687326518 9.221032127821616 15.777431104961025 1 -3 2
531 1 1 0.5897 0.7215007361876049 8.115844555456203 13.544184573605833 -1 -2 -6
215 1 1 0.5897 2.4166833639849856 10.916310249190087 15.523523315267557 -2 1 2
450 1 1 0.5897 2.0995122624863947 7.9397930740940215 11.499822085742835 5 1 -3
435 1 1 0.5897 2.316531404874233 10.151465768004977 11.563831577445782 -1 2 -1
494 1 1 0.5897 0.4826577762761445 11.37372270245034 11.698135552761624 -3 -2 -1
529 1 2 -1.1794 0.45906962650167316 7.841353707511493 14.422800484375706 -1 -2 -6
580 1 2 -1.1794 2.4010229627072133 10.259841225202443 19.580520143398587 -3 -4 0
568 1 2 -1.1794 4.180553849726238 11.251462848154379 21.52085203411025 2 0 0
856 1 2 -1.1794 4.261131577872552 8.980937327094725 17.958588827363023 -1 -1 -3
620 1 1 0.5897 0.6281619239166361 8.097008295808802 21.07260476442491 1 -2 4
857 1 1 0.5897 3.5881511527683134 9.44360465441689 18.45775148858722 -1 -1 -3
581 1 1 0.5897 2.0111602522702725 9.544649329617732 20.083158746476215 -3 -4 0
619 1 2 -1.1794 1.546130094892159 8.088616879128292 20.8016851943375 1 -2 4
582 1 1 0.5897 3.0807235980526353 10.613602433623909 20.15410320204265 -3 -4 0
621 1 1 0.5897 2.0359652194463953 7.980953015604311 21.6169167606647 1 -2 4
671 1 1 0.5897 1.0427902129368383 11.21041166686416 18.922071752942088 6 3 1
501 1 1 0.5897 1.7046578329720117 7.411835361507574 19.16219148717586 0 0 -4
858 1 1 0.5897 4.707820775726585 9.667899287761703 17.463939191092415 -1 -1 -3
499 1 2 -1.1794 2.0354912226626554 7.089439528696537 18.323889453276152 0 0 -4
18 1 1 0.5897 0.35622220009597283 7.772811769588929 17.761158824542676 -1 3 2
500 1 1 0.5897 2.9838360874239007 7.206688423833656 18.37905428197515 0 0 -4
243 1 1 0.5897 3.0626280258510787 9.046150955852514 16.61918151870416 1 -3 2
670 1 2 -1.1794 0.34766954629989044 11.760533895510072 18.56106783641947 6 3 1
86 1 1 0.5897 0.549152531499188 16.468227293478627 0.6332081894253526 -1 4 2
485 1 1 0.5897 4.185247073199241 16.464592625814035 5.106086647839388 -1 2 -1
699 1 1 0.5897 2.9915177605591032 12.549919220723641 4.398313642203867 -3 3 -3
401 1 1 0.5897 2.6118195304502163 14.43653602964762 3.5692040005824666 -2 -3 3
514 1 2 -1.1794 1.3024278864558727 15.15082830521997 4.94134684097279 -2 -4 0
486 1 1 0.5897 2.7285028413930292 16.36729128741998 5.506164186942458 -1 2 -1
697 1 2 -1.1794 3.8906684641027547 12.639151849131867 4.714069964864981 -3 3 -3
400 1 2 -1.1794 3.1462689841659297 14.55664548909791 2.7842989867866454 -2 -3 3
353 1 1 0.5897 2.4784511083118916 13.730248563886523 1.3191840314962067 5 3 -2
352 1 2 -1.1794 2.1731450430920334 13.304561279339904 0.5181192140360575 5 3 -2
516 1 1 0.5897 0.6810947273845331 15.725541142856958 4.494367680446312 -2 -4 0
402 1 1 0.5897 4.0455391683498085 14.595050186808615 3.109885533151894 -2 -3 3
515 1 1 0.5897 0.8608037720855463 14.90614557456895 5.754504832807592 -2 -4 0
698 1 1 0.5897 3.8105436178515806 12.645602886171465 5.667840354912101 -3 3 -3
455 1 1 0.5897 2.8833424925834157 16.58346360529741 2.485399102306199 0 -1 1
192 1 1 0.5897 2.9283296834302366 14.48522891316132 10.726543250515904 6 3 -5
747 1 1 0.5897 1.4187199308371035 15.143166836612014 8.996294115657003 0 4 -7
567 1 1 0.5897 0.6042534146820753 14.324145416439709 10.736195833819384 -2 5 -5
746 1 1 0.5897 2.0800694414632455 13.859736018769734 8.541219646891445 0 4 -7
725 1 1 0.5897 3.913970846922008 13.512739140328959 7.829370047990183 1 -6 3
745 1 2 -1.1794 1.6410205458253382 14.260244971098222 9.291537350327204 0 4 -7
724 1 2 -1.1794 3.206586997046944 12.957142350069521 7.502093861863928 1 -6 3
327 1 1 0.5897 3.870564829245899 16.91716616833123 8.067891756785883 2 -2 -2
808 1 2 -1.1794 1.7354701627297755 16.884532404202293 8.626990163534753 4 -1 -2
726 1 1 0.5897 3.3389840769690253 12.116799355987753 7.940767062481426 1 -6 3
488 1 1 0.5897 4.568855572824842 15.947558673198117 15.629322821049673 1 -5 3
58 1 2 -1.1794 0.4300872699504781 16.30703200407209 13.347806495299968 4 -1 -2
7 1 2 -1.1794 1.8208091738719194 14.889148410756244 15.608010063100618 4 0 0
9 1 1 0.5897 1.820975629890481 14.328420224250813 14.832307177132824 4 0 0
643 1 2 -1.1794 2.2557201013328947 13.205321474693406 13.272153058959224 3 -4 -1
645 1 1 0.5897 2.6248182859372076 13.931018703270107 12.768899541388743 3 -4 -1
8 1 1 0.5897 2.5577599611334603 15.484938699946941 15.473600812654254 4 0 0
644 1 1 0.5897 2.2520817489210394 12.467691245641673 12.662222590454956 3 -4 -1
487 1 2 -1.1794 4.138166744564069 16.48649566773144 14.965825964067218 1 -5 3
60 1 1 0.5897 0.4056712925455025 16.249385490019794 14.302916156154922 4 -1 -2
190 1 2 -1.1794 3.379642161339538 14.934579025869606 11.441055796316377 6 3 -5
214 1 2 -1.1794 2.1591440264056065 11.835575577320562 15.592451311479078 -2 1 2
216 1 1 0.5897 2.5256794944021426 12.24681538170148 14.809725085102682 -2 1 2
408 1 1 0.5897 0.3438161624937044 12.037391676005738 14.99930556344148 -5 -1 2
489 1 1 0.5897 4.675859907467694 16.376895841941888 14.18160106799675 1 -5 3
191 1 1 0.5897 3.321524360718046 15.862926156785443 11.215399601629212 6 3 -5
5 1 1 0.5897 1.672111617611862 15.438255341117346 19.637065673476883 1 0 -2
136 1 2 -1.1794 4.388957551793574 14.160834346141176 20.248261777877246 5 -7 0
4 1 2 -1.1794 1.9237163545120957 16.052956913928853 20.32625266604029 1 0 -2
238 1 2 -1.1794 4.25316923061818 12.573309900345786 17.864371202686094 -5 -5 -1
137 1 1 0.5897 3.4496815881784872 14.303127849594187 20.365111651013507 5 -7 0
240 1 1 0.5897 3.3383221297093826 12.442540678977986 17.615178754520358 -5 -5 -1
562 1 2 -1.1794 1.522220410903581 14.227312582574406 18.329076584280138 2 2 4
564 1 1 0.5897 1.0793139862701002 13.380607213914308 18.27350168657445 2 2 4
138 1 1 0.5897 4.456243271213472 13.656289821603021 19.437663099129416 5 -7 0
563 1 1 0.5897 1.627378489625424 14.503344298468567 17.418632875804263 2 2 4
354 1 1 0.5897 1.3110782465013062 13.687706961513937 21.756381481237035 5 3 -3
791 1 1 0.5897 4.6316607640222855 15.674797719618471 19.49218636579903 2 4 -1
6 1 1 0.5897 2.357729923225095 16.76895815205411 19.862460902594577 1 0 -2
570 1 1 0.5897 3.8603816340416928 12.135479562063265 21.34156627950358 2 0 0
164 1 1 0.5897 0.6143973105808864 20.24976605948162 1.6220810586665966 -4 1 0
616 1 2 -1.1794 4.145294866147888 21.556659918307417 1.8021247331498724 0 2 1
593 1 1 0.5897 4.621336844090092 18.44633320809867 5.256722565577121 -1 -1 -2
156 1 1 0.5897 1.4985581128830463 18.40645759047237 3.463428586057258 3 2 -4
87 1 1 0.5897 0.6427465207652834 17.95310642422961 0.9125339891771104 -1 4 2
154 1 2 -1.1794 0.9367530736558283 18.672162508637058 4.191395680081473 3 2 -4
454 1 2 -1.1794 2.8770539685037058 17.472972732093638 2.838760923444485 0 -1 1
618 1 1 0.5897 4.020832073726403 20.75702144137951 1.2910340312036088 0 2 1
456 1 1 0.5897 3.0436694528286807 17.360613813813558 3.774581607660007 0 -1 1
617 1 1 0.5897 4.574948326759439 21.263480958834563 2.605601610416478 0 2 1
224 1 1 0.5897 1.2943834145139335 21.82723874989069 3.0210514631970136 4 0 -7
543 1 1 0.5897 4.599127970527266 18.11769917933971 2.3016810826800924 -5 0 3
484 1 2 -1.1794 3.420445865166903 17.000579185736214 5.315668918637355 -1 2 -1
720 1 1 0.5897 1.137521593565812 21.191062767705812 8.106338946239635 4 3 0
181 1 2 -1.1794 3.260703894959554 17.70451474267348 10.985100274335814 -5 1 -1
98 1 1 0.5897 4.413861086510412 20.516949717312688 9.817346325768217 2 -7 5
99 1 1 0.5897 3.261884596952457 20.205849419338175 8.885787931571697 2 -7 5
718 1 2 -1.1794 1.312212052163118 20.400960754246256 8.61756157266047 4 3 0
97 1 2 -1.1794 4.114496059448308 19.877536791040168 9.171080446820582 2 -7 5
810 1 1 0.5897 2.241099024278065 17.31600978477349 9.31567937832931 4 -1 -2
360 1 1 0.5897 0.7436292661696214 20.298193348922595 10.554846406891661 3 0 -6
719 1 1 0.5897 0.958562148252576 19.68800485871067 8.085816530943507 4 3 0
446 1 1 0.5897 0.5328729643965223 18.820092259798663 6.089081873257002 2 -1 0
182 1 1 0.5897 3.745900159884136 18.4057171572526 10.55032747824547 -4 1 -1
809 1 1 0.5897 1.334493853925141 17.602904128243893 8.137791025657641 4 -1 -2
285 1 1 0.5897 4.1793229217563646 21.14418773850591 12.767852267698146 6 0 -4
135 1 1 0.5897 1.662195269553491 18.34313304154995 15.163648491499409 1 -6 -1
707 1 1 0.5897 1.1066103081647936 19.171549319125603 12.8346076951261 0 -2 -6
706 1 2 -1.1794 1.8459391806356205 18.73704841413448 13.259763818938183 0 -2 -6
284 1 1 0.5897 3.2691140994990193 20.134237228165972 13.433565461295357 6 0 -4
183 1 1 0.5897 2.7845975534186467 18.14343737464102 11.689954666356682 -5 1 -1
102 1 1 0.5897 4.492312569730016 21.693678722090876 15.00952179923732 7 -5 -1
465 1 1 0.5897 2.0693109511287773 21.73044849499747 13.47971830658454 5 3 -2
359 1 1 0.5897 0.6187884581336578 20.902848283914693 11.937033944062007 3 0 -6
708 1 1 0.5897 1.6112809058747237 17.809113548835377 13.259734438179438 0 -2 -6
283 1 2 -1.1794 3.7467662914775404 20.94708881637752 13.598643491179331 6 0 -4
134 1 1 0.5897 0.6029239230192245 17.785354120813185 16.090185121180433 1 -6 -1
358 1 2 -1.1794 0.37594746470571483 20.13283603612579 11.422968486577147 3 0 -6
133 1 2 -1.1794 1.428699140399058 18.26931942596741 16.08893961902031 1 -6 -1
463 1 2 -1.1794 1.1714596589219703 22.0388123807277 13.357616792538376 5 3 -2
395 1 1 0.5897 0.9109730143796582 20.02353301982398 16.405870620090877 2 1 4
22 1 2 -1.1794 4.68334466046882 21.66352932493137 11.190636704761053 -5 3 2
261 1 1 0.5897 0.996176244184413 19.867908613869403 20.84579413951301 1 -1 5
575 1 1 0.5897 3.488888197751211 17.480902719276767 18.606446504499154 3 -1 -1
574 1 2 -1.1794 2.8560831120837182 18.19885650627372 18.621862878158502 3 -1 -1
3 1 1 0.5897 4.454247329315934 21.967171283418576 21.266814884032677 3 -6 3
605 1 1 0.5897 4.044981015021228 18.816700969272095 20.43500926684002 -7 0 -2
394 1 2 -1.1794 0.6362953134349383 20.73532146447209 16.983859144701086 2 1 4
396 1 1 0.5897 0.3889174300051311 20.300128562680783 17.79967883820703 2 1 3
576 1 1 0.5897 2.4478924669354525 18.17758408582341 17.756378267474858 3 -1 -1
604 1 2 -1.1794 4.148860921653881 19.420604737118865 21.17029227758563 -7 0 -2
278 1 1 0.5897 3.9876110831768448 19.43963227827288 17.977782520417392 -1 0 1
277 1 2 -1.1794 4.569736219424044 20.1030638644064 17.607477739565148 -1 0 1
606 1 1 0.5897 4.67470079190196 18.935928809349114 21.806462301842124 -7 0 -2
260 1 1 0.5897 2.362668936215486 19.50669723594066 21.387913966051414 1 -1 5
259 1 2 -1.1794 1.4296798781981634 19.463289969000066 21.597136147685447 1 -1 5
742 1 2 -1.1794 8.67805471119042 6.336125744705191 1.6315739819257158 -2 0 1
175 1 2 -1.1794 7.751793844537587 3.2414743560842614 1.6234400609956856 0 -3 7
662 1 1 0.5897 8.733780715893046 2.495417850913341 4.463970726735524 -3 -3 -1
195 1 1 0.5897 5.600826183899329 4.764641806350548 5.001219947143888 1 -4 1
316 1 2 -1.1794 4.943973340765268 3.535939527452899 2.2073620414840462 -4 -4 0
346 1 2 -1.1794 6.5891803744690165 5.558520634205526 3.697946584685391 0 3 -2
177 1 1 0.5897 8.239361868382716 3.27034165218087 2.4465934990000036 0 -3 7
348 1 1 0.5897 6.072225487764678 6.357377672431384 3.801542904231672 0 3 -2
347 1 1 0.5897 7.2755042662576725 5.629082529347567 4.36135886779658 0 3 -2
317 1 1 0.5897 5.861814578823765 3.798655036085444 2.275764871036945 -4 -4 -1
754 1 2 -1.1794 8.744774258355136 5.316407860784044 5.632843092978405 -3 -2 -2
743 1 1 0.5897 7.982346330978237 5.850305783430645 2.0744073061506576 -2 0 1
176 1 1 0.5897 7.708955550775042 2.311148153311385 1.4023773116737908 0 -3 7
193 1 2 -1.1794 4.942705238701924 4.3469633353711465 5.5567284427977 1 -4 1
756 1 1 0.5897 9.01691518573065 6.233773579992693 5.655438460818569 -3 -2 -2
318 1 1 0.5897 4.966290920289637 2.5792076225386324 2.224576324029326 -4 -4 0
472 1 2 -1.1794 6.278203879712436 5.022595163435688 10.053511148235664 -1 1 -2
276 1 1 0.5897 5.964549064272767 5.882227277122327 7.836555547662448 -1 2 -2
275 1 1 0.5897 5.1908928430691805 5.876306800964477 6.535369616537633 -1 2 -2
15 1 1 0.5897 6.261208791359084 1.7969359333259047 7.7646094027326935 0 -3 -5
301 1 2 -1.1794 8.661533179106591 1.7390843933628544 7.96799930103951 -2 3 7
204 1 1 0.5897 8.88192055026986 6.546763038434629 9.597366999371424 -5 3 2
474 1 1 0.5897 7.14393780195313 5.297023539337497 9.751279130746035 -1 1 -2
274 1 2 -1.1794 5.463175243544663 6.4500622873590965 7.251474459246605 -1 2 -2
13 1 2 -1.1794 5.65219941601706 2.4177315507158355 7.364757108690574 0 -3 -5
71 1 1 0.5897 4.968450014772872 3.6380124124834645 9.616189267512322 4 2 -6
202 1 2 -1.1794 8.873131328132633 5.603702375401906 9.76078367748152 -5 3 2
302 1 1 0.5897 9.044594061968189 2.615353926625625 7.928681642550531 -2 3 7
14 1 1 0.5897 4.922701487272083 2.4697637035222293 7.98221542969613 0 -3 -5
473 1 1 0.5897 6.379971953892395 4.904831941057491 10.997951209597774 -1 1 -2
303 1 1 0.5897 8.200471445108533 1.7161300815809064 8.806499020592524 -2 3 7
194 1 1 0.5897 5.438691815481746 3.727883422430416 6.092326343383547 1 -4 1
321 1 1 0.5897 6.694779351569322 4.6066696010741985 13.328608232868593 1 -2 0
141 1 1 0.5897 5.07521485796107 3.5435869131188857 15.073020211529467 0 0 -1
319 1 2 -1.1794 7.342298552276787 4.692980369387312 12.629037898661373 1 -2 0
139 1 2 -1.1794 5.265421608937012 4.285694444891995 14.499224173898773 0 0 -1
320 1 1 0.5897 8.134469013391241 4.289923523538028 12.984212030786589 1 -2 0
701 1 1 0.5897 7.9353573518871805 2.236559660948723 15.40486950604674 2 1 3
785 1 1 0.5897 8.19849145835595 6.236542885570718 12.876973474697422 5 5 3
247 1 2 -1.1794 8.423872208104216 2.2853360474097446 13.542288964522637 -5 3 -4
128 1 1 0.5897 5.906466703740179 5.271153367149553 15.896908292563339 -2 1 -4
700 1 2 -1.1794 7.487197000433416 2.012656967097728 16.220443961209767 2 1 3
114 1 1 0.5897 7.822390137396129 1.7402511657986877 11.490612021276846 -3 -3 2
248 1 1 0.5897 7.819519746563676 1.5438880327428528 13.576084673042033 -5 3 -4
197 1 1 0.5897 5.88464442240508 5.591009870779925 21.094390364216864 -1 -2 -1
129 1 1 0.5897 5.4770277832698335 5.248227072200628 17.348359214507283 -2 1 -4
540 1 1 0.5897 5.79065970962333 3.071246618568206 20.480955703934896 0 -3 1
539 1 1 0.5897 7.039494216609739 3.5446112137425474 21.193700601747317 0 -3 1
185 1 1 0.5897 7.7320527238654835 4.966077355829176 17.52946542809181 0 4 4
186 1 1 0.5897 7.388121318153362 4.104650934249822 18.72583604332371 0 4 4
196 1 2 -1.1794 5.449892508395016 6.4336620603578 20.96372206552124 -1 -2 -1
184 1 2 -1.1794 8.10310648460316 4.315490664778801 18.12544165444003 0 4 4
538 1 2 -1.1794 6.504686594874011 3.705389648979411 20.416345264169742 0 -3 1
127 1 2 -1.1794 6.070375936866124 5.690663242248967 16.741467940003957 -2 1 -4
702 1 1 0.5897 7.759082341116686 2.6916307568390216 16.837874366751045 2 1 3
266 1 1 0.5897 4.841008822513311 5.654168211951685 19.422884684081524 -3 -1 -2
842 1 1 0.5897 7.4535695315757735 8.096357424966834 2.1609730631613857 -3 0 1
771 1 1 0.5897 8.34897194066871 8.191288615068991 5.526161147226146 4 -1 0
843 1 1 0.5897 6.546288103462775 9.16983851693464 2.723242790379783 -3 0 1
57 1 1 0.5897 8.220382447826646 10.47017188739872 1.4110764859158273 -2 0 2
282 1 1 0.5897 5.20549145373006 10.91119014739969 2.9827124026701775 -2 0 1
841 1 2 -1.1794 7.468892512633442 8.94237742915267 2.6083658075913574 -3 0 1
769 1 2 -1.1794 9.018233982380575 7.939521333548868 4.889885533180491 4 -1 0
55 1 2 -1.1794 8.608108829170982 11.307910984330315 1.158116664133925 -2 0 2
280 1 2 -1.1794 4.838976478569581 10.149177173436588 2.5342339502885274 -2 0 1
178 1 2 -1.1794 4.724117416883877 7.619222932845073 3.946209887490643 -7 1 -1
770 1 1 0.5897 8.621708885572573 8.124548641880663 4.038612524000473 4 -1 0
687 1 1 0.5897 8.315043041763339 8.393652656180834 8.56119058609867 9 -6 -3
685 1 2 -1.1794 8.798713112532525 8.270959962569767 9.377974643931061 9 -6 -3
201 1 1 0.5897 7.328454430178892 11.630580374952421 9.92284750730567 3 -3 -1
199 1 2 -1.1794 6.782895663304934 10.880421340747485 9.686660178586783 3 -3 -1
796 1 2 -1.1794 6.357874635633584 11.057373116640477 6.808945894452267 1 -6 -3
681 1 1 0.5897 6.874425808734105 9.324776781191611 6.88190289855138 -5 -6 1
679 1 2 -1.1794 7.352170478850969 8.501895743755174 6.985603834999365 -5 -6 1
680 1 1 0.5897 6.6745644182590755 7.82632548859515 6.961478831955873 -5 -6 1
200 1 1 0.5897 6.848508169323459 10.826703499808607 8.733214902569614 3 -3 -1
798 1 1 0.5897 5.406391758284598 11.001585606371489 6.896707463725779 1 -6 -3
711 1 1 0.5897 4.914393070112618 11.017600100146387 9.429136733518137 -5 -3 -2
799 1 2 -1.1794 4.825810707141756 7.587598576511792 10.962998185048258 -1 -1 4
800 1 1 0.5897 5.355816106187091 6.794823832719005 10.88077419390435 -1 -1 4
477 1 1 0.5897 7.136420126353971 10.439110053930797 12.674727018120237 6 -3 -1
169 1 2 -1.1794 8.423184124848493 11.466543436045372 13.926692862351306 -3 3 -3
158 1 1 0.5897 7.391795199967756 8.162802242173196 15.238768045777581 1 1 -2
424 1 2 -1.1794 5.3625797504635635 11.691016324002693 13.958555604872004 8 -5 2
157 1 2 -1.1794 6.49717637376651 8.298927717596015 15.550623645984965 1 1 -2
476 1 1 0.5897 6.620656786887568 10.055078426206098 11.304270448632819 6 -3 -1
425 1 1 0.5897 5.37052907426914 11.411136503438556 14.873848436460609 8 -5 2
764 1 1 0.5897 6.00312442896835 9.87718083732218 16.03788144252166 -5 0 -4
475 1 2 -1.1794 6.597311964662648 9.789544353877616 12.223550613578384 6 -3 -1
786 1 1 0.5897 7.9174027881382685 7.671419079616943 12.484860506264102 5 5 3
426 1 1 0.5897 5.486647179336083 10.883646674273875 13.459661160684595 8 -6 2
784 1 2 -1.1794 8.442637142018254 7.138992409176219 13.082178862609222 5 5 3
69 1 1 0.5897 5.113417982347856 7.914771056987375 14.290978553416188 5 -2 -3
801 1 1 0.5897 5.08309826571785 7.961998085067038 11.805490068412036 -1 -1 4
159 1 1 0.5897 6.346461405362972 7.582676309710602 16.167420156168646 1 1 -2
439 1 2 -1.1794 9.097249944210027 7.001147347417675 15.992604842522663 0 -2 -2
333 1 1 0.5897 6.182751913563815 7.857818417832062 20.197477503458053 0 -2 -3
331 1 2 -1.1794 6.396515034438887 8.504864781109479 19.52530660245472 0 -2 -3
823 1 2 -1.1794 6.667808852008943 11.117667750986293 20.668137930731184 -2 3 2
586 1 2 -1.1794 8.838531882115188 7.559148726603979 18.76155720018876 -1 1 4
332 1 1 0.5897 5.604180686118113 8.567607313511274 18.991996796464598 0 -2 -3
587 1 1 0.5897 7.920016981117506 7.789666546214823 18.900568304450424 -1 1 4
825 1 1 0.5897 6.879335803673687 10.199266216417039 20.500984384772075 -2 3 2
850 1 2 -1.1794 7.802436441766671 11.637810862107495 18.134118057778245 -6 0 -3
824 1 1 0.5897 7.245128709583886 11.369562843944792 21.388828972147714 -2 3 2
765 1 1 0.5897 6.45437005598146 10.855741063432388 17.10111202131175 -5 0 -4
569 1 1 0.5897 5.091590284755598 11.262088801277118 21.227480224237553 2 0 0
852 1 1 0.5897 7.474455731665608 11.732556602104811 19.028311759305225 -6 0 -3
441 1 1 0.5897 8.973704848696975 7.044344364421732 16.940764115861995 0 -2 -2
763 1 2 -1.1794 5.696539747895351 10.611367732891704 16.569980031197467 -5 0 -4
535 1 2 -1.1794 7.7112416299337765 16.42546269542521 0.7281858270668491 6 6 4
536 1 1 0.5897 7.326114439155678 15.549753477910329 0.6974905838156429 6 6 4
826 1 2 -1.1794 5.4436956712479105 15.471266244816713 4.175537179273831 -1 1 3
828 1 1 0.5897 6.220964336281163 15.793310970360668 3.719171049698895 -1 1 3
537 1 1 0.5897 7.471315869748447 16.763023525154196 1.5910986503268554 6 6 4
682 1 2 -1.1794 6.059026003776356 12.481692507210997 3.0553718044674634 5 -1 -5
827 1 1 0.5897 5.786864683440842 14.883710487709175 4.848696198941381 -1 1 3
622 1 2 -1.1794 6.608065252079801 14.001578978262241 0.668925178417719 4 -1 1
624 1 1 0.5897 6.355277948144523 13.553809109963392 1.476229992509731 4 -1 1
469 1 2 -1.1794 9.011721163951446 14.921078259879982 4.480102013351326 1 -2 2
363 1 1 0.5897 8.471210491109021 16.39451869021987 3.7656931348712805 5 -4 -2
294 1 1 0.5897 7.559724132273976 14.140639980905835 5.582923670730635 -3 0 2
683 1 1 0.5897 5.5958656712482995 12.639641119163679 3.877981490260704 5 -1 -5
684 1 1 0.5897 6.985122913211855 12.483544673864932 3.2972271735608687 5 -1 -5
848 1 1 0.5897 8.906541196914626 11.931037026978107 2.714943502091908 1 -3 5
847 1 2 -1.1794 8.825531672003294 12.328893704575266 3.5817128251557975 1 -3 5
264 1 1 0.5897 8.841786975795303 14.05499410181531 7.692237133344412 2 -4 5
458 1 1 0.5897 7.294157459343123 16.747774507378722 10.25772020277231 0 -1 -2
648 1 1 0.5897 5.308659502021228 14.960271085314744 8.331409970590517 -6 0 0
647 1 1 0.5897 6.346360427311207 14.135803663789527 9.062893122490365 -6 0 0
293 1 1 0.5897 6.595516410742552 13.887265572144912 6.7221362958788875 -3 0 2
733 1 2 -1.1794 7.981874273279732 13.498038995052468 10.7878784968249 1 0 -2
262 1 2 -1.1794 8.505759547760194 14.95096620372913 7.67102766502301 2 -4 5
210 1 1 0.5897 8.756835300180656 15.096733798619862 10.374635459914174 -1 -2 1
66 1 1 0.5897 7.661740453127535 16.58665242496876 6.948595356951997 4 1 -3
646 1 2 -1.1794 5.58174180777122 14.057162790845865 8.492538338791094 -6 0 0
208 1 2 -1.1794 8.929385639869022 16.025470031001284 10.220268217054432 -1 -2 1
325 1 2 -1.1794 4.7521978128187605 16.548540551340057 8.122463601552447 2 -2 -2
263 1 1 0.5897 8.713593848938268 15.305732337469808 8.535383999688552 2 -4 5
797 1 1 0.5897 6.5179181051131945 11.946172414161857 6.491844509496664 1 -6 -3
292 1 2 -1.1794 6.762891654657594 13.660245025279593 5.8074657985194875 -3 0 2
457 1 2 -1.1794 6.3597300804383785 16.9371132921676 10.342132608268782 0 -1 -2
326 1 1 0.5897 5.07308613714289 16.82016804452948 8.982344092720036 2 -2 -2
651 1 1 0.5897 6.926702359398703 16.095423531324265 13.43568163031196 1 -1 -1
649 1 2 -1.1794 6.074640138736811 16.18102921989837 13.008139381552018 1 -1 -1
355 1 2 -1.1794 5.701813036677938 13.739326079370604 12.124332826100677 1 -1 2
674 1 1 0.5897 7.9517800679314865 14.466760864663836 14.736569399824159 -4 -3 -4
171 1 1 0.5897 8.13063791712676 12.188475930057804 14.482900827838813 -3 3 -3
357 1 1 0.5897 4.89966159158454 13.928538702740717 11.637629800315379 1 -1 2
356 1 1 0.5897 5.447378450078877 13.063976023090365 12.753057118669522 1 -1 2
675 1 1 0.5897 8.147366739975364 13.64577222540557 15.993312292719143 -4 -3 -4
673 1 2 -1.1794 7.544311593479047 13.778186507344287 15.261922157938585 -4 -3 -4
436 1 2 -1.1794 8.553170703463996 16.16257989707689 14.018347648731313 -3 5 1
650 1 1 0.5897 5.832669931685151 15.285128071569273 12.773750252321566 1 -1 -1
438 1 1 0.5897 8.646661466933336 16.78989164443991 14.735200099105574 -3 5 1
735 1 1 0.5897 7.252768215674123 13.46418814416986 11.407067532412853 1 0 -2
633 1 1 0.5897 6.090854566889842 14.509374319108904 16.19180679354379 4 4 5
734 1 1 0.5897 8.764957450740233 13.458983422549425 11.336874616395047 1 0 -2
459 1 1 0.5897 6.15928882208218 16.751996025765393 11.259566196060002 0 -1 -2
269 1 1 0.5897 8.724314016560237 15.5748063669179 19.284368300739594 1 3 7
335 1 1 0.5897 7.973135539896979 13.950622820611125 20.879247552311845 7 -1 1
851 1 1 0.5897 8.239914363811149 12.46890960193895 17.94964783632434 -6 0 -3