#include		in.partitions
include		in.temp
variable        temperature equal 115.49
variable	tempDamp equal 100.0
include		in.pressure
variable        pressure equal 7362.8
variable        pressureDamp equal 1000.0 # This is 1 ps
include		in.seed
variable        seed equal 745823

units		real
atom_style	full
read_restart	restart.lmp.${pid}
read_restart	restart.lmp.1
Reading restart file ...
  restart file = 30 Jul 2021, LAMMPS = 30 Jul 2021
  restoring atom style full from restart
  orthogonal box = (-0.012780954 -0.039786919 -0.014902110) to (24.742782 24.769788 22.824902)
  4 by 4 by 2 MPI processor grid
  restoring pair style lj/cut/tip4p/long/omp from restart
  restoring bond style harmonic/omp from restart
  restoring angle style harmonic/omp from restart
  1920 atoms
  1280 bonds
  640 angles
Finding 1-2 1-3 1-4 neighbors ...
  special bond factors lj:    0        0        0       
  special bond factors coul:  0        0        0       
     2 = max # of 1-2 neighbors
     1 = max # of 1-3 neighbors
     1 = max # of 1-4 neighbors
     2 = max # of special neighbors
  special bonds CPU = 0.005 seconds
  read_restart CPU = 0.012 seconds
include 	in.setup
variable	out_freq equal 1000
variable	out_freq2 equal 10000
variable	out_freq3 equal 1000

timestep	2.0

neigh_modify    delay 7 every 1

include		in.tip4p
# This is TIP4P/Ice

# create groups ###
group ox type 2
640 atoms in group ox
group hy type 1
1280 atoms in group hy

# set charges - beside manually ###
set group ox charge -1.1794
Setting atom values ...
  640 settings made for charge
set group hy charge 0.5897
Setting atom values ...
  1280 settings made for charge

# ### TIP3P Potential Parameters ###
pair_style lj/cut/tip4p/long/omp 2 1 1 1 0.1577 8.5
pair_coeff 1 1*2 0.000 0.000
pair_coeff 2 2 0.21084 3.1668
bond_style  harmonic
bond_coeff  1 450 0.9572
angle_style harmonic
angle_coeff 1 55 104.52
kspace_style pppm/tip4p/omp 1.0e-5
pair_modify tail yes

thermo          ${out_freq}
thermo          1000
thermo_style    custom step temp pe etotal epair emol press lx ly lz vol pxx pyy pzz pxy pxz pyz enthalpy

restart 	${out_freq3} restart.lmp.${pid} restart2.lmp.${pid}
restart 	1000 restart.lmp.${pid} restart2.lmp.${pid}
restart 	1000 restart.lmp.1 restart2.lmp.${pid}
restart 	1000 restart.lmp.1 restart2.lmp.1


include         in.dump
dump            myDump all atom ${out_freq2} dump.water.${pid}
dump            myDump all atom 10000 dump.water.${pid}
dump            myDump all atom 10000 dump.water.1
dump            myDump2 all dcd ${out_freq2} dump.dcd
dump            myDump2 all dcd 10000 dump.dcd
dump_modify     myDump append yes
dump_modify     myDump2 append yes


variable natoms 	equal  "count(all)"                        # NUMBER ATOMS
variable H      	equal  "enthalpy/v_natoms"                 # ENTHALPY-per-atom
variable Vol      	equal  "vol/v_natoms"                 # volume-per-atom
fix AVG all 		ave/time ${out_freq} 1 ${out_freq} v_Vol v_H file vol_enthalpy.dat
fix AVG all 		ave/time 1000 1 ${out_freq} v_Vol v_H file vol_enthalpy.dat
fix AVG all 		ave/time 1000 1 1000 v_Vol v_H file vol_enthalpy.dat




fix 		1 all shake 1e-6 200 0 b 1 a 1
       0 = # of size 2 clusters
       0 = # of size 3 clusters
       0 = # of size 4 clusters
     640 = # of frozen angles
  find clusters CPU = 0.001 seconds
fix             2 all nph aniso ${pressure} ${pressure} ${pressureDamp}
fix             2 all nph aniso 7362.8 ${pressure} ${pressureDamp}
fix             2 all nph aniso 7362.8 7362.8 ${pressureDamp}
fix             2 all nph aniso 7362.8 7362.8 1000
fix             3 all temp/csvr ${temperature} ${temperature} ${tempDamp} ${seed}
fix             3 all temp/csvr 115.49 ${temperature} ${tempDamp} ${seed}
fix             3 all temp/csvr 115.49 115.49 ${tempDamp} ${seed}
fix             3 all temp/csvr 115.49 115.49 100 ${seed}
fix             3 all temp/csvr 115.49 115.49 100 745823


run             250000
PPPM initialization ...
  extracting TIP4P info from pair style
  using 12-bit tables for long-range coulomb (../kspace.cpp:340)
  G vector (1/distance) = 0.37495727
  grid = 30 30 30
  stencil order = 5
  estimated absolute RMS force accuracy = 0.0032125848
  estimated relative force accuracy = 9.6746038e-06
  using double precision FFTW3
  3d grid and FFT values/proc = 5400 960
Last active /omp style is kspace_style pppm/tip4p/omp
Neighbor list info ...
  update every 1 steps, delay 7 steps, check yes
  max neighbors/atom: 2000, page size: 100000
  master list distance cutoff = 10.8154
  ghost atom cutoff = 10.8154
  binsize = 5.4077, bins = 5 5 5
  1 neighbor lists, perpetual/occasional/extra = 1 0 0
  (1) pair lj/cut/tip4p/long/omp, perpetual
      attributes: half, newton on, omp
      pair build: half/bin/newton/omp
      stencil: half/bin/3d
      bin: standard
Per MPI rank memory allocation (min/avg/max) = 10.55 | 10.56 | 10.56 Mbytes
Step Temp PotEng TotEng E_pair E_mol Press Lx Ly Lz Volume Pxx Pyy Pzz Pxy Pxz Pyz Enthalpy 
 7500000    116.01923   -9713.4572   -9271.1389   -9713.4572            0    6582.6317    24.755563    24.809575    22.839804    14027.637    6221.1977    7032.5363    6494.1611    38.970102    214.15642    200.35376   -7924.4728 
 7501000    115.89983   -9718.7456   -9276.8826   -9718.7456            0    7858.9463    24.720674    24.823535     22.75318    13962.592    8442.8191    7220.5516    7913.4684     -388.901   -69.319945    359.46826   -7676.5647 
 7502000    116.29063   -9722.1979    -9278.845   -9722.1979            0    7588.6269    24.716796    24.837608    22.757012    13970.668    9236.6948    5912.4115    7616.7744   -117.58636    97.871186    232.40744   -7732.6785 
 7503000    113.30423   -9712.8975   -9280.9301   -9712.8975            0     7208.249    24.667983    24.765263    22.927392    14006.552    7696.7334    7496.9483    6431.0654   -319.02904    128.05824    296.03085   -7808.4924 
 7504000    115.86868   -9735.8441   -9294.0999   -9735.8441            0     7322.807    24.738458     24.82231    22.764529    13978.916    8049.2277    6941.6953    6977.4978    85.771994    623.44901    166.27907   -7801.2128 
 7505000    114.62789   -9707.2211   -9270.2073   -9707.2211            0    7486.7619    24.749631    24.872575    22.735381    13995.606    7690.4462     6637.834    8132.0053    335.67214   -151.39234   -435.19451   -7742.0726 
 7506000    115.19521   -9701.6553   -9262.4786   -9701.6553            0    6493.3386    24.660464    24.783613    22.962389    14034.048    7608.4563    6635.5619    5235.9976    67.556951    114.20127    247.79789   -7933.4728 
 7507000    113.02025   -9720.6541   -9289.7694   -9720.6541            0     7418.779    24.755853    24.817592    22.767764    13988.075    7057.0541    6834.2843    8364.9987    111.38036   -644.71728    72.566347   -7776.3257 
 7508000    113.67879   -9719.7552   -9286.3598   -9719.7552            0    7299.4962    24.654853    24.907714    22.794848    13998.226    7931.8543    6210.7161    7755.9181   -377.78445   -489.14437    103.07057   -7796.1693 
 7509000    117.55853   -9706.5206   -9258.3338   -9706.5206            0    7370.5777    24.697302    24.804967    22.832325    13987.442    7859.8392    7106.7648    7145.1292    64.626905    497.32357    231.00784   -7754.7913 
 7510000    112.65812    -9697.945   -9268.4409    -9697.945            0    7426.7421    24.716172     24.72121    22.899835    13992.113    6872.2182    8441.0845    6966.9237    152.80223   -146.36929     32.50454   -7752.9353 
 7511000    111.04648   -9707.9327   -9284.5729   -9707.9327            0    6887.7347    24.793321    24.792519    22.794762    14011.686     6339.022    6856.0803    7468.1018   -144.44445    317.39523    165.01971   -7877.0914 
 7512000    117.23044     -9704.02    -9257.084     -9704.02            0    8268.5166    24.815812    24.725693    22.750904    13959.685    7619.3239    8751.9847    8434.2411   -483.18223    297.96809    18.505406   -7573.7159 
 7513000    113.60969   -9703.2375   -9270.1055   -9703.2375            0    6842.8544    24.760695    24.773311       22.864    14024.878    7104.2297    7351.8986    6072.4348    163.82719   -226.51919    127.71108   -7870.4786 
 7514000    113.77819   -9730.1469   -9296.3726   -9730.1469            0    7488.6855    24.831865    24.724654    22.762101    13975.003     6569.948    8043.0309    7853.0776    -732.8288   -45.857008    79.261443   -7770.0955 
 7515000    116.42039   -9720.8853   -9277.0377   -9720.8853            0    8136.6059    24.806086    24.737415    22.750199    13960.397    7131.0023    8031.2009    9247.6146   -346.68658   -568.69826   -953.20104   -7620.4405 
 7516000    116.51497    -9718.781   -9274.5728    -9718.781            0    7240.0529    24.721471    24.711037    22.921852    14002.804    7552.9082    7710.9334    6456.3171    290.30213   -225.89784    131.30032   -7796.0343 
 7517000     117.3168    -9719.566   -9272.3008    -9719.566            0    7947.9155    24.719995    24.781042    22.765003     13945.55    8576.5466    7642.8603    7624.3396    -289.3952   -663.38603   -661.23878   -7655.8415 
 7518000    113.42779   -9729.4805   -9297.0421   -9729.4805            0    6580.5095     24.75696    24.866748    22.778103    14022.772    6380.3108    6049.8533    7311.3643    456.20155    -425.5437    990.15476   -7951.2769 
 7519000    112.82526   -9711.9869   -9281.8455   -9711.9869            0    7598.2259    24.680849    24.786697    22.832658    13968.032    8335.3639    7595.3386    6863.9751    248.86198    311.11712   -72.926891   -7734.0154 
 7520000    116.27919   -9733.7436   -9290.4344   -9733.7436            0    7375.3777    24.739238    24.728279    22.879537    13996.758    7415.6249    8223.8859    6486.6223    240.47288   -1424.1494   -189.42865   -7784.9107 
 7521000    117.06407   -9729.6829   -9283.3813   -9729.6829            0    7835.1458    24.767511    24.753897    22.783992    13968.692    6825.6605    8448.8922    8230.8848   -192.71188    43.920475   -219.55926   -7687.2128 
 7522000    116.80323   -9709.1503   -9263.8431   -9709.1503            0     7831.038    24.808853    24.696153    22.801628    13970.175    6373.3158    9290.5473    7829.2508   -78.483115   -250.40247   -198.14579   -7668.3421 
 7523000    115.59729   -9744.4255   -9303.7159   -9744.4255            0    6424.0354    24.843465    24.719653    22.817235    14012.562    5402.9321    7790.1775    6078.9968     188.2181   -343.06252    953.12815   -7990.9075 
 7524000    120.71844   -9705.2764   -9245.0426   -9705.2764            0    8218.8459    24.741632    24.723325    22.808244    13951.698    7796.1739    8911.8732    7948.4905   -281.69413   -162.39429   -791.45131   -7572.7441 
 7525000    113.74964    -9710.158   -9276.4925    -9710.158            0    7323.5296    24.724889    24.793286    22.818684    13988.109    8254.3518    6526.7613    7189.4758    90.091945   -531.79261    449.52555   -7782.4761 
 7526000    115.49481   -9704.7293   -9264.4104   -9704.7293            0    6695.5728    24.711942    24.883497    22.795315    14017.285    7162.0767    6204.3047     6720.337     45.16917   -1053.2035    1127.8546   -7895.6497 
 7527000    114.33665   -9709.7381   -9273.8346   -9709.7381            0    7448.6234    24.659372    24.827325    22.831084    13977.789    8871.5708     6793.856    6680.4434   -797.07333    348.64043     473.2806     -7755.42 
 7528000    115.97213   -9733.8619   -9291.7233   -9733.8619            0    6774.1143    24.706804    24.840328    22.835653    14014.814    7139.9882    6323.1711    6859.1837    555.05376   -495.11847    250.61172   -7907.1506 
 7529000    112.71432   -9720.7898   -9291.0714   -9720.7898            0    7055.1394    24.789188    24.808322    22.760576    13997.257    6543.1317    7265.6299    7356.6566    40.058677   -174.42416   -263.45515    -7850.866 
 7530000    116.43818   -9710.5517   -9266.6363   -9710.5517            0    6814.0817    24.787595    24.748309    22.826501    14002.941    6139.4417    7701.7455    6601.0579   -364.27758   -727.99523    66.075935   -7875.0745 
 7531000    118.14608   -9709.7858   -9259.3591   -9709.7858            0     7317.649    24.803136    24.669207    22.856155     13985.08    6859.8087    8584.8481    6508.2903    230.83513   -1069.8075   -175.61806   -7766.8656 
 7532000    119.75295   -9719.0896   -9262.5368   -9719.0896            0    7501.1738    24.772228    24.729982    22.811269    13974.566    6560.5616    8822.5504    7120.4096   -117.07454   -385.91613    408.86382   -7733.7622 
 7533000    117.62578   -9715.2908   -9266.8477   -9715.2908            0    7981.9074    24.782309    24.723359    22.801225    13970.355    7732.3263    8053.3172    8160.0786   -567.54856     191.2074   -209.28999   -7640.5876 
 7534000    111.77762   -9721.9748   -9295.8275   -9721.9748            0    7801.9179    24.739846    24.696176    22.866234    13970.803    8224.8043    8419.6605     6761.289    58.455469   -458.49498    85.500396   -7706.1881 
 7535000     110.8033   -9728.5204   -9306.0877   -9728.5204            0    7284.6176    24.805984    24.638593    22.883543    13986.067    6344.9667    8482.2382     7026.648   -163.90207    -867.0355    10.276638   -7820.2264 
 7536000    114.04802   -9714.4959   -9279.6928   -9714.4959            0    8284.4653     24.78978    24.749134    22.735332    13948.708    6793.0378    9359.3078    8701.0505   -659.73404    5.6301425    1172.6445    -7594.404 
 7537000    113.73689   -9715.9921   -9282.3752   -9715.9921            0    6417.9913    24.717652    24.893842    22.813368    14037.461    7139.3978    5429.7691    6684.8069   -185.95288   -153.35007   -478.72849   -7968.4714 
 7538000    116.80988   -9713.9887   -9268.6562   -9713.9887            0    7726.0545    24.734582      24.7124    22.871364    13980.142    7898.6949    7971.6282    7307.8404     427.8641   -329.24751    749.94347   -7693.4216 
 7539000    113.92585   -9725.5106   -9291.1733   -9725.5106            0    7459.8431    24.716559    24.759302    22.841633    13978.274    7556.7666    7681.0889    7141.6737   -41.731433    239.61279   -347.72098   -7770.4187 
 7540000    112.79989   -9717.7225   -9287.6779   -9717.7225            0    6966.6969    24.809761    24.779567    22.802297    14018.285    6591.2137    7369.5788    6939.2981    -631.2142   -35.575052    76.663983   -7863.3903 
 7541000    111.63201   -9727.5591    -9301.967   -9727.5591            0    7952.8921    24.677324    24.707968    22.884017    13952.993    8506.9831    8114.9623    7236.7309   -241.95008    536.28908   -455.72841   -7683.6322 
 7542000    116.56268   -9728.0921   -9283.7021   -9728.0921            0    6948.6303    24.735125    24.771323    22.867883     14011.65    7016.7001    6982.0006    6847.1903    222.72812    398.11483    89.866406   -7863.7804 
 7543000    116.24144   -9711.0136   -9267.8482   -9711.0136            0     7912.417    24.778697    24.795032    22.730603    13965.423    8023.0562    7716.1539     7998.041   -454.51399   -197.78567   -13.066645   -7656.3154 
 7544000    118.23176   -9732.2833   -9281.5299   -9732.2833            0    6976.0804    24.673182    24.781429    22.880407    13989.921    7982.6669     6828.695    6116.8793   -62.927772   -111.64128    499.42813   -7858.2096 
 7545000    109.85701   -9725.7022   -9306.8772   -9725.7022            0     7163.153    24.648681    24.789483    22.886787    13984.469    7902.2042    6902.9724    6684.2825    199.88835    156.58486   -450.47645   -7845.9583 
 7546000    118.84144   -9709.2004   -9256.1226   -9709.2004            0    7901.6421    24.751022    24.759073    22.795069      13969.1    7722.6887    8206.2591    7775.9785   -239.85454    21.995493    39.294127   -7646.3606 
 7547000    112.23174   -9718.4817   -9290.6031   -9718.4817            0    7039.6727    24.864794    24.756595    22.721469    13986.601    6505.6141    6784.7417    7828.6622   -339.76539    -1036.244    132.33795   -7854.6491 
 7548000    118.06106   -9733.0539   -9282.9513   -9733.0539            0    7564.5531    24.732309    24.752863    22.826557    13974.315    7570.0687     7355.196    7768.3946    14.620265   -220.82178   -288.35098   -7741.2875 
 7549000    117.19737   -9707.9727   -9261.1629   -9707.9727            0    8114.0141    24.682349    24.695395    22.870988     13940.79    8697.2939     9028.171    6616.5774    159.32838    497.06709   -335.13931   -7611.4855 
 7550000    121.39559    -9731.103   -9268.2876    -9731.103            0    7129.2644     24.77715    24.790991    22.803472    14007.036     6974.573    6557.6518    7855.5685   -326.93143   -216.21389    623.24029    -7811.934 
 7551000    112.68222   -9706.5437   -9276.9477   -9706.5437            0    7850.0313    24.760884    24.749949    22.802399    13974.008    7909.4067    7810.3915    7830.2957   -203.89097   -710.63119   -474.83987   -7677.1381 
 7552000    114.53322   -9720.8376   -9284.1848   -9720.8376            0    6279.8539    24.835501    24.751302    22.813565    14023.749    6655.6345    6279.7613    5904.1659    313.40044   -288.37139    689.88646   -7999.8165 
 7553000    116.17565   -9718.0124   -9275.0978   -9718.0124            0    8303.1712    24.715736    24.759562    22.783263    13942.236    8319.1404    8207.6892    8382.6841   -143.06926    518.36855    -87.69186   -7586.7873 
 7554000    115.93969   -9713.8404   -9271.8254   -9713.8404            0     7465.865    24.698963    24.802841     22.83942     13991.53    7500.5039    7042.1575    7854.9337   -297.37737    35.201442   -278.15731   -7748.3999 
 7555000     116.8185   -9704.9099   -9259.5445   -9704.9099            0    8759.9469    24.637132    24.782117    22.811553    13927.829    8783.6642    8921.8918    8574.2847   -558.89704   -368.73956    384.95684   -7480.1969 
 7556000    118.81406   -9719.5979   -9266.6245   -9719.5979            0    7284.8242    24.727944    24.823013    22.803338    13997.193    7153.3219    6787.8567     7913.294   -30.129244   -369.50765    558.09766   -7779.5391 
 7557000    117.38917   -9723.7907   -9276.2497   -9723.7907            0    7390.9168    24.804442    24.790391    22.737868    13981.784    6430.9988    7337.0069    8404.7448   -107.31292    63.280746    346.53758    -7769.168 
 7558000    114.28814   -9721.0289   -9285.3104   -9721.0289            0    7683.4865    24.798724    24.712371     22.79381    13968.851    6937.8236     8167.215    7945.4209   -479.76201   -214.79778    511.12235   -7720.0201 
 7559000    114.50417   -9716.6247   -9280.0826   -9716.6247            0    7490.8336    24.769036    24.679039    22.872967    13981.695    6192.9193    8836.4821    7443.0994   -572.60442    135.01968    380.86757   -7752.6366 
 7560000    111.96735   -9727.2958   -9300.4252   -9727.2958            0    7306.2467    24.767912    24.773277     22.77933    13976.995    7547.5888    6824.8841    7546.2671   -479.79193   -39.890922    422.00436   -7811.1189 
 7561000    112.36563   -9719.6293   -9291.2403   -9719.6293            0     7194.274    24.816404    24.773845    22.735585    13977.787    6506.6048    7500.4943     7575.723   -124.49247   -569.26315   -871.16134   -7824.6754 
 7562000    115.64557   -9718.0918   -9277.1981   -9718.0918            0    7611.1639    24.733171    24.737764    22.849928    13980.577    7435.1111    8046.0548     7352.326   -669.05851   -201.91213   -288.26292   -7725.3398 
 7563000    116.68812   -9702.8207   -9257.9523   -9702.8207            0    8146.7641    24.700492    24.745785     22.83209    13955.728    8857.1766     7979.962    7603.1538    326.28248   -3.0861685    540.54118   -7599.8416 
 7564000    118.71199   -9729.0392    -9276.455   -9729.0392            0    7353.1735    24.733257    24.740886    22.850814    13982.932    7130.0952    8255.3055    6674.1198    -471.3856   -568.58344    241.42324   -7776.9464 
 7565000    110.86493   -9721.9515   -9299.2838   -9721.9515            0    7337.0043    24.718738    24.853862    22.743738    13972.754    8237.0355    6497.5361    7276.4412   -185.01515    142.66581    149.38246   -7804.1616 
 7566000    118.94387   -9704.5725   -9251.1043   -9704.5725            0    6920.5094    24.672955     24.92716      22.7886    14015.597    7689.4099    5993.7584      7078.36    294.13555    553.85972     574.5872   -7836.5306 
 7567000    110.56089   -9717.0212   -9295.5126   -9717.0212            0    7524.5322    24.769046    24.750967    22.797849      13976.4     7797.857    7128.0171    7647.7226    615.21824   -145.00669    29.610465   -7761.7762 
 7568000    115.03804   -9729.9063   -9291.3288   -9729.9063            0    8266.2001    24.691049    24.660886    22.908038    13948.777    7489.8612    9637.1333    7671.6058   -139.34898    -440.3105    239.09081   -7609.7473 
 7569000    115.59117    -9735.507   -9294.8207    -9735.507            0    7276.2648    24.734483    24.785603    22.817737    13988.621    7425.9325    7228.1424    7174.7194   -19.410725   -609.76638    1355.9538   -7810.3922 
 7570000    112.53591     -9720.64   -9291.6018     -9720.64            0    7310.2595    24.798249    24.820824    22.709493    13977.987    7675.8748    6099.4308    8155.4729   -120.95132   -375.31977   -413.13645   -7801.3717 
 7571000    117.12931   -9725.2327   -9278.6823   -9725.2327            0    7202.7211    24.724546    24.724401    22.888599    13991.791    7019.0413    7764.4212    6824.7008   -186.24337   -137.48171    435.20273   -7808.9244 
 7572000    118.84647   -9717.7201   -9264.6232   -9717.7201            0    7875.4978    24.716891    24.765893    22.810539    13963.149    7798.8187    7995.4885    7832.1864   -267.80743   -9.2261303    373.22402   -7660.8709 
 7573000    110.26458   -9736.5667   -9316.1879   -9736.5667            0    6666.9989    24.757787    24.865014    22.752835    14006.707    6830.3294    6298.6805    6871.9868    347.43551    278.52596    948.02771    -7954.297 
 7574000    116.18228   -9704.1442   -9261.2043   -9704.1442            0    8168.7643    24.671512    24.819208    22.782929    13950.611    8729.3646    7080.9706    8695.9576    525.63505   -576.27191   -273.64707   -7599.2255 
 7575000    120.04677   -9720.5482   -9262.8751   -9720.5482            0    7280.9811    24.753119    24.737773     22.84644    13989.721    6722.8523    7957.3533    7162.7378    380.61847    729.00034     93.29246   -7777.3676 
 7576000    112.99879   -9709.4617   -9278.6588   -9709.4617            0    7142.2579    24.763333    24.770981    22.833031    14006.057    7247.7384    7505.5241     6673.511   -144.31676    -710.9227     634.2292   -7819.7529 
 7577000     115.0661   -9740.6444     -9301.96   -9740.6444            0    6693.6658    24.645778    24.860376    22.856043    14003.973    7853.6174    5733.0999    6494.2801    185.21046    672.53669   -90.760346   -7934.8887 
 7578000    116.91717   -9705.8834   -9260.1418   -9705.8834            0    7359.0231    24.672696    24.935714    22.726384    13981.982    8577.3166    5436.8072    8062.9456   -171.91926    446.56976     1123.333   -7759.5422 
 7579000    118.33885   -9737.3474   -9286.1858   -9737.3474            0    7336.6083     24.71008    24.789642    22.808915    13971.693    7442.9416    7176.9842    7389.8991    269.52955    493.78698   -393.96242   -7791.2578 
 7580000    115.30964   -9724.9654   -9285.3525   -9724.9654            0    6753.7418    24.778059     24.72639    22.870154    14011.902    6249.2944    6933.5133    7078.4177    273.70518   -244.18905    569.21323   -7905.2306 
 7581000    119.77065   -9718.7619   -9262.1415   -9718.7619            0    7492.1451     24.75964    24.788513    22.781113    13982.014    7224.2562    7183.8205    8068.3585    224.96838   -781.95139   -612.47874   -7734.3933 
 7582000    114.62696   -9722.4416   -9285.4313   -9722.4416            0    6629.8863    24.748247    24.793539    22.845833    14018.126    6550.8312    6829.0561    6509.7716    154.99679   -1018.0228   -369.48387   -7930.0175 
 7583000    116.49191   -9748.1119   -9303.9915   -9748.1119            0    7354.3384    24.682211    24.719384    22.897588    13970.484    6893.7808    8153.8079    7015.4264    871.25017    33.502696    253.98581   -7805.5805 
 7584000    118.01211   -9709.6935   -9259.7775   -9709.6935            0    7542.3517    24.738247    24.765309    22.818126    13979.532     8231.821    7006.4418    7388.7922    230.77297   -501.19923    145.24943   -7722.0645 
 7585000    114.94559   -9725.6534   -9287.4283   -9725.6534            0    7578.0137    24.730469     24.85149    22.736579    13973.652    8216.2236    6303.6277    8214.1897    338.14236    393.40946   -122.01025   -7743.0945 
 7586000    117.91924   -9723.0535   -9273.4916   -9723.0535            0     7405.153    24.704541     24.78976    22.824206    13977.992     7316.678    7507.3162    7391.4648    159.40001    329.30451    360.25545   -7763.9166 
 7587000    115.96967   -9726.3496   -9284.2203   -9726.3496            0    6215.0377    24.647251    24.792978    22.953088    14026.145    7001.1623    6431.6652    5212.2857    9.9789782   -451.67364    149.06188   -8012.8913 
 7588000     116.2829   -9703.2226   -9259.8991   -9703.2226            0    7570.2296    24.729033     24.80406    22.789397     13978.57    8197.4744    7093.1563    7420.0581   -270.04977   -747.57105   -191.89951   -7716.6086 
 7589000    113.50342   -9732.4662   -9299.7394   -9732.4662            0     8417.961    24.743222    24.774278      22.7234    13929.341    8192.1902    8263.6164    8798.0763    56.977509   -8.4030116    978.64538   -7589.6715 
 7590000    117.20758   -9722.5563   -9275.7075   -9722.5563            0    6900.5204    24.743746    24.779442    22.846885    14008.253    8048.1453    5976.3727    6677.0433    192.69093    42.778512    757.16421   -7865.9588 
 7591000    109.82607   -9708.1593   -9289.4522   -9708.1593            0    8306.5636    24.721882    24.679293    22.869134    13952.884    7889.2362     8840.983    8189.4715   -617.16933    520.46219    538.63516   -7599.1621 
 7592000    115.06525   -9711.1918   -9272.5106   -9711.1918            0    8219.9755    24.772199    24.752295    22.734797    13940.268    7226.8921    8824.8566    8608.1776   -397.44865   -699.02824    571.85463   -7601.3525 
 7593000    116.34745   -9726.2097   -9282.6402   -9726.2097            0    5381.9105    24.876264    24.814375    22.827561    14091.201    4954.5354    5342.9798    5848.2161   -683.45147    846.13386   -586.36096   -8176.6268 
 7594000    115.99879    -9718.703   -9276.4627    -9718.703            0    8586.6246    24.736011    24.691123    22.825555    13940.933    8291.6971    9439.0153    8029.1613    543.40458    537.35501    401.49544   -7530.6799 
 7595000    111.27441   -9729.6328    -9305.404   -9729.6328            0    7896.6033    24.739457    24.742949    22.803378    13958.566    7705.1824    7669.4311    8315.1963   -722.70164    -904.1359    248.34357   -7697.8816 
 7596000    114.82925   -9721.7908   -9284.0093   -9721.7908            0    7362.6151    24.755272    24.801804    22.794606    13995.327    6732.6337    7585.4287    7769.7829   -384.14718   -687.12395    37.606091   -7781.2444 
 7597000    117.84818    -9718.196    -9268.905    -9718.196            0    6761.1975    24.788286    24.788181    22.820097    14021.957    6409.9433    6790.2025    7083.4467   -423.23657   -631.97148   -72.921604   -7886.2681 
 7598000    112.21985   -9729.6877   -9301.8545   -9729.6877            0    8346.0696    24.708186     24.67343     22.85002    13930.188    8277.9484    8307.9238    8452.3366   -514.75457    129.98097    305.14046   -7606.2878 
 7599000    117.61939   -9719.1554   -9270.7366   -9719.1554            0    7258.2043    24.789581    24.744389    22.799423    13985.236    6778.2274    7660.1235     7336.262    177.89997   -246.05934    -141.8325    -7790.351 
 7600000    117.07385   -9746.9702   -9300.6314   -9746.9702            0    6124.8507    24.764893    24.776823    22.849677    14020.456    6764.9092    5576.5114    6033.1315    160.93079    298.27224    661.76534   -8048.2589 
 7601000    114.14415   -9724.6967   -9289.5272   -9724.6967            0    7146.5379    24.713677    24.750174    22.891944    14002.265    6923.4769    7466.1057    7050.0312    737.03855    408.95641    235.35681   -7830.1421 
 7602000    117.82096   -9711.7709   -9262.5837   -9711.7709            0    7578.3287    24.745507     24.81107    22.755272    13970.884    7573.8383    7475.6922    7685.4557   -526.64476   -265.39946   -41.550026   -7718.4915 
 7603000    114.54633   -9711.9294   -9275.2265   -9711.9294            0    7204.6365    24.780948    24.797768    22.763268    13988.306    7059.9628    6862.8294    7691.1174   -128.67701   -265.66518    309.40606   -7805.4439 
 7604000    115.25903   -9725.8677   -9286.4477   -9725.8677            0    7151.5303    24.738326    24.735949    22.873859    13997.109    7100.7672    7798.9742    6554.8495    441.71313    350.60047   -395.18057    -7826.581 
 7605000    116.93152    -9717.704   -9271.9077    -9717.704            0    7155.4221    24.744582    24.762899    22.821015    13983.522    7466.6437    6781.5956    7218.0271   -201.26463   -86.988178   -499.31474   -7812.6643 
 7606000    112.98831   -9722.5757   -9291.8127   -9722.5757            0    7611.8329    24.745194    24.809698    22.755872    13970.303    8410.9357    6956.6589     7467.904    -498.9153   -282.72888   -183.32137   -7740.9586 
 7607000    118.04479   -9732.9057   -9282.8651   -9732.9057            0    6505.3352    24.743591    24.803374    22.846112     14021.22    5523.7218    7076.3856    6915.8982   -58.644383   -468.02393    313.53794    -7952.621 
 7608000    118.38297   -9728.8352   -9277.5053   -9728.8352            0    7708.1422    24.758068    24.682761    22.853657    13965.812    7365.6918    8793.2703    6965.4644   -138.79222    335.07569    662.48641   -7707.5337 
 7609000    114.90606   -9728.6366   -9290.5623   -9728.6366            0    6759.7497    24.821917    24.750974    22.802138    14008.873    6301.8294    6554.4754    7422.9442   -347.48543     560.7863   -151.90147   -7909.5113 
 7610000    112.54128   -9716.3253   -9287.2667   -9716.3253            0    7732.3438    24.759154    24.812771    22.736907    13968.265    7274.9763    7604.5411    8317.5141   -636.66629   0.98835414    282.57066   -7712.0891 
 7611000    114.90584   -9716.9704   -9278.8969   -9716.9704            0    7569.6369    24.709275    24.839548    22.759791    13969.214    8278.7164    6922.0847    7508.1097   -441.72588   -173.54508    782.59613   -7736.7601 
 7612000     115.9874   -9721.0627   -9278.8658   -9721.0627            0      6842.49    24.738907    24.757486    22.884529     14016.16    7242.3452    6803.3778     6481.747    463.89122   -674.97141   -615.71161   -7880.1834 
 7613000    114.56251    -9716.468   -9279.7034    -9716.468            0    7633.3109    24.788272     24.76336    22.773407    13979.249    7474.0316    7181.9686    8243.9325   -6.7445977    494.20449    121.26928   -7723.4774 
 7614000    120.56027   -9706.4526   -9246.8219   -9706.4526            0    7951.8677    24.759505    24.739296     22.80081    13966.242     7669.353    8310.0711    7876.1789    478.45153   -485.62307    21.256718   -7627.1591 
 7615000    117.10295   -9709.1402   -9262.6903   -9709.1402            0    6794.6912     24.81899    24.739151    22.840322    14023.974    6091.0987    7098.6506    7194.3244   -79.598122    311.60784     1.410486   -7873.0042 
 7616000    117.49135   -9734.7477   -9286.8171   -9734.7477            0    7657.2467    24.775371    24.666712    22.844575    13960.935    7411.0554    8568.1985    6992.4862   -551.59131   -661.66996   -390.42748   -7727.7564 
 7617000    112.38784   -9732.4207   -9303.9469   -9732.4207            0    7468.7547    24.736349    24.818478    22.747872     13965.34    8323.1499    7012.8793    7070.2347   -83.267414    513.09664   -273.02286   -7782.7845 
 7618000    112.37529   -9731.4111   -9302.9852   -9731.4111            0    7876.1437    24.729107    24.769939    22.807697    13970.591    7836.2403    7348.0801    8444.1108    441.80065   -615.83978    458.84244   -7698.2466 
 7619000    117.30102    -9729.054   -9281.8491    -9729.054            0    6885.2328    24.729618    24.746878    22.875772    13999.535     6856.552    7006.4002    6792.7461    320.89868   -248.04467    332.62617    -7876.099 
 7620000    114.46397   -9721.9861   -9285.5972   -9721.9861            0    7557.5928    24.680309    24.864025    22.762912    13968.502    8601.9883    6342.8824    7727.9078   -166.99664   -377.29073   -150.57832   -7745.9926 
 7621000     114.7098   -9722.3249   -9284.9988   -9722.3249            0    7390.1018    24.705587    24.838305    22.761484    13967.468    8178.6121    6736.1345    7255.5589   -365.53493   -599.10038    645.89358   -7779.6262 
 7622000    114.79183   -9705.8865   -9268.2477   -9705.8865            0    7026.1007     24.68423    24.785443    22.888694    14003.521     7192.878    7229.7784    6655.6456   -102.26241   -244.24567    33.302637   -7833.3283 
 7623000    112.68161   -9723.8349   -9294.2412   -9723.8349            0    7280.1932    24.683393    24.819847     22.82489    13983.396    7788.2059    6736.1313    7316.2425   -118.10726   -441.35657    -154.8454    -7809.566 
 7624000    117.85963   -9711.2052   -9261.8705   -9711.2052            0    7731.8152    24.739523    24.862405    22.718105    13973.544    8079.6172    7160.7983      7955.03   -375.54514   -92.511667    605.18804   -7686.2054 
 7625000    115.40739   -9700.3085   -9260.3229   -9700.3085            0    7152.4006    24.751642    24.762147     22.84431    14001.365    7649.5211     6666.495    7141.1858    607.49413    148.86759    434.96744   -7799.8346 
 7626000    115.18684    -9721.012   -9281.8672    -9721.012            0    7536.6945    24.688902    24.710925    22.882471    13960.266    8006.0758    7754.3573    6849.6505   -589.40006    -586.5577    759.36467   -7747.4252 
 7627000    115.86986   -9717.6941   -9275.9454   -9717.6941            0    6695.2622    24.817227    24.831639    22.750539    14020.075    6239.2233    6533.7613    7312.8019    46.733522    -560.4335   -365.89305   -7906.9758 
 7628000    114.54682   -9725.1346   -9288.4299   -9725.1346            0     6734.365    24.781441    24.781318    22.804062    14004.357    6134.3538    6965.5758    7103.1655   -160.76807    1036.5535    681.85505   -7913.0087 
 7629000    115.80141   -9718.7599   -9277.2722   -9718.7599            0    7266.9559    24.688405    24.775805    22.884691    13997.996    8871.7735    6087.0809    6842.0132    327.25327     63.79596    122.90925   -7793.7492 
 7630000    114.01876   -9734.3008   -9299.6093   -9734.3008            0    6475.7638    24.752292    24.794384    22.841466    14018.215    6693.7199    6331.9327    6401.6389   -237.30033   -179.87716   -570.65382   -7975.6958 
 7631000    113.60157   -9724.8669   -9291.7659   -9724.8669            0    8083.6037    24.747176    24.782236    22.743271    13948.229     7706.708    8209.8378    8334.2653   -73.014709   -313.90718    496.46938   -7647.3943 
 7632000    115.95419   -9724.1136   -9282.0434   -9724.1136            0    8169.4554    24.673267    24.795241    22.818417    13959.842    8387.5836    7870.6197    8250.1629   -198.49959   -214.33441   -221.08485   -7618.8242 
 7633000      113.409   -9723.3065   -9290.9397   -9723.3065            0    6240.7591    24.722473    24.852372    22.840332    14033.376    6664.6584    6596.9943    5460.6246   -13.003327    152.13021   -163.20756    -8013.691 
 7634000    115.35863   -9736.3582   -9296.5585   -9736.3582            0    7542.5127    24.734448    24.760826     22.79734    13962.125    7435.5899    7792.1883    7399.7599   -641.95361   -131.22955   -384.30596   -7760.7274 
 7635000    114.24563   -9740.7667   -9305.2103   -9740.7667            0    7296.5775     24.75026     24.72136    22.844944    13977.909    6724.1834    7649.2071    7516.3419   -171.07845     244.1589    652.48117   -7817.7776 
 7636000    115.00689   -9715.0138   -9276.5551   -9715.0138            0    7440.0642    24.857661    24.738931    22.737077     13982.21    6574.1442    7668.1302    8077.9183   -480.07307    369.39042    857.23742   -7759.4055 
 7637000    116.12767   -9733.5772   -9290.8456   -9733.5772            0    7365.5733    24.807497    24.771296    22.755943    13983.842    6426.6431    7471.8577    8198.2191      -63.389    22.498213    133.30588   -7788.7106 
 7638000    116.76187   -9726.0382   -9280.8887   -9726.0382            0      6782.89    24.765508    24.691871    22.935703    14025.337     6773.273    7372.4292    6202.9678    38.893415    -537.0526    621.77808   -7893.4815 
 7639000    113.63753   -9732.0588   -9298.8207   -9732.0588            0    7205.4408    24.737655    24.790355    22.784167     13972.51    6960.2759    7642.2093    7013.8371    206.36753   -579.80789    342.74067   -7830.5339 
 7640000    114.06418   -9713.2285   -9278.3639   -9713.2285            0    7355.3231    24.754868    24.824339    22.766119    13990.309    7962.4581    6439.9891    7663.5221   -713.86721   -591.80686    119.31217   -7777.6256 
 7641000    113.75448   -9729.6862   -9296.0022   -9729.6862            0    7057.7622    24.721867    24.666549    22.933316    13984.808    7611.0472    7892.3653    5669.8741    12.752009     307.6704    195.21625   -7856.5428 
 7642000    117.96482   -9747.9184   -9298.1827   -9747.9184            0    6914.1448    24.719869    24.768895    22.865658    14000.274      6594.96    7293.4907    6853.9837   -541.16144    39.235282   -227.22671   -7886.4552 
 7643000    115.61712   -9721.7388   -9280.9536   -9721.7388            0    7290.8384    24.755404    24.822427    22.746372      13977.4    7233.6697    7051.8692    7586.9763    101.42259   -174.28761   -625.55329   -7794.7451 
 7644000    114.96043   -9725.9694   -9287.6878   -9725.9694            0    6999.5897    24.727015    24.742148    22.884153    14000.512    6836.3543    7487.9393    6674.4755    124.92987    -437.7399    385.57847   -7858.4897 
 7645000    118.79339   -9706.1414   -9253.2468   -9706.1414            0    7460.7486    24.704952    24.803998    22.819997    13983.674    7409.4215    7270.2257    7702.5987   -103.25266   -869.18767   -333.32891   -7731.7201 
 7646000    115.13771   -9726.8781   -9287.9206   -9726.8781            0    7352.2069    24.771399    24.812324    22.733137    13972.604    6489.5151    7709.2263    7857.8794   -339.14117   -110.05755   -515.74894   -7789.7166 
 7647000    112.86954   -9718.9757   -9288.6655   -9718.9757            0    7327.9397    24.754695    24.775715    22.824857    13998.833    7233.6411    7058.6554    7691.5227    320.16374    490.25535    681.61836   -7792.6035 
 7648000    115.16763   -9739.5484   -9300.4768   -9739.5484            0    7082.3221    24.740951    24.740429    22.874929    14001.784    6956.9511    7963.5519    6326.4633   -310.93641    136.00235    73.840793   -7854.2549 
 7649000    114.66052   -9712.5648   -9275.4265   -9712.5648            0     7913.394    24.762981    24.795592    22.729826    13956.403    8089.3997    7055.1248    8595.6575    752.41498   -757.16487    535.66798   -7664.7357 
 7650000    118.55488   -9738.0026   -9286.0174   -9738.0026            0    7839.7916    24.755968    24.725234    22.783917     13945.97     7343.708    8419.8465    7755.8203    178.05367    275.47572    403.79608   -7691.5005 
 7651000    115.65323    -9715.615   -9274.6921    -9715.615            0    7841.0806    24.711784    24.678551    22.908078    13970.515    7759.0947    8516.6691    7247.4781    135.76802   -630.65797    46.461335   -7677.1062 
 7652000     114.4986    -9731.173   -9294.6521    -9731.173            0      6796.72    24.821103    24.735068    22.788272    13990.898    6209.1512     6980.534    7200.4749   -476.11252   -593.93024   -377.45925   -7907.8297 
 7653000    121.25001   -9736.6905   -9274.4302   -9736.6905            0    6985.2773     24.75279    24.817428    22.769103    13987.073    7299.6355    6931.0719    6725.1247    407.54652   -1370.3304   -938.76343   -7849.5236 
 7654000    112.21622   -9725.4257   -9297.6063   -9725.4257            0    7374.9863    24.659894    24.811617    22.845639    13978.146    8294.9833    6738.5529    7091.4227   -622.39612   -18.069968   -119.29069   -7794.1642 
 7655000    114.30157   -9719.6722   -9283.9025   -9719.6722            0    7253.9822      24.6354    24.841739    22.859505    13989.701    7643.4967    7080.2138    7038.2363    -832.7941    152.35962     168.4081   -7803.9056 
 7656000    108.46495   -9730.7869   -9317.2691   -9730.7869            0    7801.5336    24.737987    24.793378    22.732658    13942.809     7606.753    7621.1045    8176.7434    -78.34252   -733.03315   -179.39328    -7730.893 
 7657000    115.98392   -9726.9089   -9284.7253   -9726.9089            0    7486.0877    24.719576    24.789774    22.789407    13965.182    7056.4873    7450.8996    7950.8761    343.96332    22.591992    2.5724974   -7760.0498 
 7658000    119.45174   -9735.4687   -9280.0642   -9735.4687            0    7316.2936    24.747857    24.797331     22.75324    13963.227    7484.9956    7323.9972    7139.8881   -403.25306   -393.62685    768.35108    -7790.179 
 7659000    112.71326   -9699.7416   -9270.0272   -9699.7416            0     7411.184    24.744058    24.778456    22.824005    13993.843    6447.0985    8307.8857    7478.5677    187.11411    66.338889   -514.45564   -7757.5094 
 7660000    114.73583   -9727.8665   -9290.4412   -9727.8665            0     6341.791    24.740129    24.790803    22.893302    14041.095    6770.0972    6702.8782    5552.3976    190.15436    98.676903   -270.38117   -7991.8011 
 7661000    111.53324   -9727.8158   -9302.6002   -9727.8158            0    8259.9881    24.738525    24.804925    22.733462    13950.099    8000.0199    8089.5203    8690.4241   -824.14492   -630.50117   -408.46329   -7622.1231 
 7662000    113.90877    -9721.032   -9286.7598    -9721.032            0    7113.1525    24.793517    24.770178    22.815333    14011.805     6306.374    7853.9993    7179.0841  -0.96194671   -546.51318   -581.84654   -7833.2028 
 7663000     117.7041   -9726.8637    -9278.122   -9726.8637            0    7938.8184    24.753424    24.725624    22.809066    13960.149    8815.0753    7777.3114    7224.0685     -281.058   -63.425663    67.799555   -7661.8226 
 7664000     113.1732   -9724.2231   -9292.7552   -9724.2231            0    7635.6201    24.744589    24.754007    22.784084    13955.883    6662.0706    8874.6358     7370.154    159.58655    413.46689   -181.69061   -7738.6603 
 7665000    116.05059   -9724.4125   -9281.9747   -9724.4125            0    7292.5656    24.648291    24.870269     22.80705    13980.941    8294.0912    6530.4477     7053.158   -55.540727   -270.34354   -286.65851   -7795.0375 
 7666000    116.56378   -9715.2438   -9270.8495   -9715.2438            0    6961.2949    24.678298    24.885354    22.812299    14009.676     6989.054    6534.2738     7360.557    53.207446   -493.62706    484.09886   -7848.5403 
 7667000    109.65575   -9725.2702   -9307.2125   -9725.2702            0    7784.2108    24.714728    24.790281    22.775448    13954.177    7286.5112    8094.6932    7971.4279    387.76942   -549.84514    204.99269   -7723.0683 
 7668000     117.9891   -9711.8898   -9262.0615   -9711.8898            0    6345.7336    24.752998    24.853523      22.8247    14041.737    6771.3065    6078.5402    6187.3542    899.90161   -449.97758   -16.433747   -7962.5547 
 7669000    113.83899   -9712.2256   -9278.2195   -9712.2256            0    8160.7951    24.707905    24.725876    22.852128    13960.927    7789.9738    8342.7248    8349.6867   -374.56006    665.73797   -266.38103   -7616.6342 
 7670000    117.45068   -9739.2086   -9291.4331   -9739.2086            0    6996.6168     24.81893      24.7156    22.822766    13999.821    6198.2235    7489.9912    7301.6358   -384.08185   -942.79065     212.6326   -7862.9126 
 7671000    114.78842   -9725.3336   -9287.7078   -9725.3336            0    7300.6247    24.807866    24.783484    22.744362     13983.81    6745.9161    7345.0819     7810.876    181.38329   -179.21039    906.86847   -7798.8219 
 7672000    117.99746   -9739.6941    -9289.834   -9739.6941            0    6910.3058    24.784924     24.74682    22.808902    13989.796    7086.7975    7178.8961    6465.2237   -866.02664   -435.50082    40.414382   -7879.9463 
 7673000    113.63133   -9713.7596   -9280.5451   -9713.7596            0    7508.2176    24.698442    24.717496    22.907391    13984.587    8143.8992    7899.0978    6481.6557    -658.0233   -964.23357    442.29981   -7749.2377 
 7674000    112.82185   -9723.0562   -9292.9278   -9723.0562            0    7366.1511    24.681861    24.831823    22.801474    13974.923     8327.939    6578.8758    7191.6384   -319.80104    348.05123   -184.16936   -7791.6332 
 7675000    112.57812   -9713.6264   -9284.4273   -9713.6264            0    7308.3629    24.783756    24.817259    22.744306    13989.224    7934.6408    7183.6678      6806.78    290.84145    680.05713    366.02314   -7793.3862 
 7676000    114.11347   -9723.5742   -9288.5217   -9723.5742            0    7656.6899    24.684424    24.784883    22.818803    13960.557    8631.0374    7070.7678    7268.2646    55.529693     134.6361    429.72026   -7729.6165 
 7677000    112.00652   -9704.6865   -9277.6665   -9704.6865            0    7149.3685    24.677859    24.761594    22.923138    14007.484    8206.5387    7062.8099     6178.757    6.2595619   -693.26223    759.82972   -7817.1593 
 7678000    112.46401   -9713.6323   -9284.8682   -9713.6323            0    7231.2867     24.77275    24.779884    22.792724    13991.675    6548.0209    7683.5385    7462.3006   -586.64391    234.55886   -55.261334   -7809.2936 
 7679000    115.71538   -9733.2219   -9292.0621   -9733.2219            0     6560.082    24.865904     24.76116    22.764011    14015.998    4997.8009    7877.2773    6805.1677   -9.9990077    158.01756    1637.3634   -7951.1226 
 7680000    112.36173   -9723.2708   -9294.8967   -9723.2708            0    7013.6425    24.778252    24.734474    22.840397    13998.355    6569.8713    7486.0849    6984.9713    393.56872    328.33738   -510.36733     -7863.05 
 7681000     115.9105   -9715.9783   -9274.0746   -9715.9783            0    8594.3128    24.718562    24.735186    22.765101    13918.998     8449.541    8571.5279    8761.8696   -227.54857    498.41847   -601.87162   -7529.4781 
 7682000    117.78823   -9718.7308   -9269.6684   -9718.7308            0    6628.7547    24.745233     24.85563    22.788689    14016.373    6897.5316    5938.1376    7050.5949   -460.74093   -376.89043    628.40526   -7914.6553 
 7683000    114.61418   -9713.6017   -9276.6401   -9713.6017            0    8459.3753    24.650999    24.771228    22.823325    13936.733    8925.0538    8333.3682    8119.7039    52.629243    -1038.901    37.190286   -7557.2471 
 7684000    114.65459    -9715.143   -9278.0275    -9715.143            0    7169.4808    24.716609    24.804278    22.822145    13991.746    7310.4665    7379.7342    6818.2416   -561.83034    717.82316    117.09798   -7815.0571 
 7685000    117.68695   -9708.7248   -9260.0485   -9708.7248            0    7103.4929    24.710986     24.85713     22.80748    14009.362    7648.4137    6873.3373    6788.7276   -560.03512    61.390919   -108.78041   -7808.7184 
 7686000    116.80474   -9703.4668   -9258.1539   -9703.4668            0    8026.5253    24.739777    24.803559    22.758803    13965.587    8456.4956    7635.5718    7987.5084    186.31812   -244.52711    6.3666163   -7623.3613 
 7687000    113.30568   -9726.6192   -9294.6463   -9726.6192            0    9428.8629    24.657693    24.679392    22.818497    13885.897    9033.6826    10028.258    9224.6479   -145.43576   -913.16865    451.31252   -7385.1925 
 7688000    112.57882   -9697.1292   -9267.9274   -9697.1292            0     6258.497    24.786096    24.798351    22.840345    14038.916    5836.3348    6449.2834    6489.8727   -390.31464    -159.1557    30.127305   -7986.5427 
 7689000    112.88149   -9738.2724   -9307.9167   -9738.2724            0    6932.8463    24.760127    24.789192     22.80019    13994.381    6845.3644    7538.8396    6414.3348    175.11696    330.19029   -96.979097   -7892.9665 
 7690000    117.40323   -9710.1677   -9262.5731   -9710.1677            0    7776.6996    24.711483    24.766536    22.839623    13978.257    8266.0703    7248.8742    7815.1545    293.85336   -235.39073    299.00816   -7677.2265 
 7691000    116.09102   -9725.0696   -9282.4777   -9725.0696            0    6487.8101    24.722742    24.820316    22.846887     14019.45    6436.9589    6883.9912    6142.4803   -42.025692   -242.06433   -75.134479   -7955.9846 
 7692000    118.72524   -9719.8152   -9267.1805   -9719.8152            0      6786.19    24.676393    24.831498     22.85201    14002.611    8010.0067    5905.0962    6443.4671   -546.22195   -125.22548    579.28327   -7881.3474 
 7693000    117.43547   -9730.6799   -9282.9623   -9730.6799            0    7676.8648    24.668538    24.887228     22.77251    13980.762     7806.926    7263.9118    7959.7567   -632.14127   -422.50356    464.87364   -7717.6874 
 7694000    114.23481   -9720.4576   -9284.9424   -9720.4576            0    7731.5589    24.762046    24.731881    22.815407    13972.429    7642.1433    8022.0574    7530.4762   -4.3834962     326.3733   -316.62904   -7709.4552 
 7695000    115.05671   -9720.8948   -9282.2462   -9720.8948            0    7241.9265    24.836516    24.670489    22.848021    13999.645    6221.5926    7888.8329    7615.3539   -238.42603   -353.93884    518.77654   -7803.6587 
 7696000    118.79615   -9722.3744   -9269.4693   -9722.3744            0    7972.1253    24.737246    24.770196    22.759034    13945.517    7870.0763    7868.4476     8177.852   -301.23359   -224.36228    19.732718     -7648.09 
 7697000    114.80608   -9722.0214   -9284.3283   -9722.0214            0    6843.5985    24.706915    24.883714    22.792616    14012.896     6947.076    5819.9354    7763.7842    164.68285   -705.14278    745.03936   -7885.7451 
 7698000    115.74642   -9709.2064   -9267.9283   -9709.2064            0    7895.7471    24.683622    24.787732     22.82042    13962.697    8310.6979    7571.6976    7804.8458    248.22736    445.47202   -153.92427   -7660.1045 
 7699000    119.18181   -9723.1862   -9268.8108   -9723.1862            0    7524.2563    24.700616    24.829325    22.775969    13968.493      7970.89    7275.5199    7326.3591    880.78405    417.22309    949.15628   -7735.9983 
 7700000    115.67066   -9725.5761   -9284.5868   -9725.5761            0    6577.6887    24.727013    24.878896    22.784423    14016.539     6358.911    6322.1226    7052.0326   -13.314016   -601.61943    675.94307   -7939.9965 
 7701000    118.15259     -9711.47   -9261.0185     -9711.47            0    7889.4285    24.697928    24.783721    22.811594    13963.126    8130.0828    7693.1035    7845.0992   -158.26644   -156.87254    249.86427    -7654.432 
 7702000    114.56377   -9726.3681   -9289.5987   -9726.3681            0    6449.8928    24.694848    24.806126    22.899126    14027.627     6899.375     5823.754    6626.5494   -756.73755   -127.06078    544.32528    -7970.089 
 7703000    115.66724   -9741.9078   -9300.9316   -9741.9078            0    7774.8178    24.772456    24.768073    22.740239    13952.637    7660.3236    7243.2624    8420.8673   -104.51116   -335.19771    117.84066   -7718.8735 
 7704000    116.76795   -9718.7365   -9273.5639   -9718.7365            0    6832.5848    24.898373      24.7133    22.756751    14002.706    5860.1744     8002.758    6634.8219   -150.08082    299.34899    244.34738   -7878.2469 
 7705000    111.84708   -9717.5294   -9291.1173   -9717.5294            0    8468.7055    24.751582    24.680559    22.807755    13932.867    8672.9121    9105.3166    7627.8879   -587.21635    117.29039    233.94697   -7570.3053 
 7706000    111.27745   -9743.7882   -9319.5478   -9743.7882            0    7147.5707    24.754705    24.766989    22.799732    13978.505    7238.8718    7038.0817    7165.7586    140.54831   -116.57849    190.38383   -7862.4287 
 7707000    114.50678     -9715.49   -9278.9379     -9715.49            0    7182.7755    24.671734    24.838921    22.820254    13984.691    8297.8432     6669.104    6581.3794   -247.78468    408.61947    146.73795   -7813.9938 
 7708000    115.07047   -9721.7082   -9283.0071   -9721.7082            0    7466.0395    24.709076    24.860829    22.774277    13989.968    8088.3327    5829.7047     8480.081    33.732686      8.33984    657.94592    -7759.716 
 7709000    116.02776   -9706.7106   -9264.3598   -9706.7106            0    7274.7233    24.767562    24.762131    22.822703    13997.109    6950.9752    7708.8517     7164.343    114.07042   -46.175036   -152.61111   -7779.3452 
 7710000     115.0917    -9715.346   -9276.5639    -9715.346            0    7667.5468     24.77583    24.719444    22.814532    13972.641    7638.9519    7753.6098    7610.0788    424.67745   -883.43202    457.08584   -7714.0971 
 7711000     114.6579    -9712.298   -9275.1698    -9712.298            0    6108.4589    24.853337    24.785501    22.806081    14048.601    5272.5372    6671.5638    6381.2755    167.79097   -274.30004    48.368782   -8023.6417 
 7712000    116.90744   -9733.5824   -9287.8779   -9733.5824            0     7075.445    24.788712    24.707127    22.840124    13988.613    6325.0511     7862.038     7039.246    -474.1187    235.62888    419.33938   -7844.4194 
 7713000    114.84665   -9730.7639   -9292.9161   -9730.7639            0    7300.7733    24.724047    24.777792      22.8407    13992.379      7310.98    7129.9701    7461.3698    289.27656    -211.9109    90.200758   -7803.0874 
 7714000    115.98944   -9714.7717    -9272.567   -9714.7717            0    7647.8561    24.719075    24.810682    22.798952    13982.532    8120.6221     6669.247    8153.6992    44.805101   -147.10655   -74.184615   -7713.0094 
 7715000    111.96453   -9711.1028   -9284.2429   -9711.1028            0    8443.2543    24.609465    24.839731    22.790986    13931.959    9342.7796    7339.9135    8647.0698   -270.84316   -104.59746     295.8042   -7568.7144 
 7716000    114.06126   -9732.5159   -9297.6623   -9732.5159            0    7215.8712    24.700165     24.77293    22.846384    13979.598    7457.6578    6856.5284    7333.4274    735.88206   -13.961214     234.3098   -7826.5042 
 7717000     116.7238   -9717.5269   -9272.5225   -9717.5269            0    7186.2817    24.724192    24.738353    22.882565    13995.795    7844.0404    7461.6068    6253.1978   -353.12463   -951.28016   -18.813877   -7805.6995 
 7718000    115.72784   -9718.5759   -9277.3686   -9718.5759            0    7138.8647    24.753746    24.787121    22.791668    13984.377    7012.6369    7401.4294    7002.5279    24.492915   -494.41921    188.89112   -7821.4129 
 7719000    114.66239   -9726.1769   -9289.0315   -9726.1769            0    8681.8594    24.717918    24.750925     22.74514     13915.28     8541.733    8563.0926    8940.7527   -316.15154   -323.25721    52.805656   -7527.1343 
 7720000     114.5949   -9725.0303   -9288.1423   -9725.0303            0     7345.239    24.688525     24.76223    22.885726    13991.027    8190.6713    6707.2485    7137.7972    843.93611   -749.05754    563.31273   -7789.3847 
 7721000     112.7014   -9711.5965   -9281.9273   -9711.5965            0    7832.7062    24.728361    24.814006    22.764491    13968.512    7706.2429     8022.319    7769.5567   -91.566274     38.73036   -86.142668   -7686.2764 
 7722000    112.50226        -9719   -9290.0901        -9719            0    7927.6049     24.82046    24.746923    22.714689    13952.044    6582.7642    8334.3691    8865.6813   -11.289535    557.89591    81.618739   -7677.0108 
 7723000    114.10184   -9722.3503   -9287.3421   -9722.3503            0    6401.7789    24.770601    24.732878    22.882621    14018.998    6237.0107    6888.7541    6079.5718   -224.32309   -257.40586   -35.025946   -7978.4811 
 7724000    115.20574   -9686.7236   -9247.5068   -9686.7236            0    8475.2946    24.746264    24.783476     22.74023    13946.548    8365.0341    7977.7624    9083.0873    282.49145   -281.48707   -1203.8197   -7523.6649 
 7725000     113.8592   -9724.7181   -9290.6348   -9724.7181            0     6969.613    24.791151    24.795055    22.759673    13990.324    6328.2162    7360.5623    7220.0604    271.76228   -217.03618   -110.68164   -7868.5931 
 7726000    114.79235   -9724.3158    -9286.675   -9724.3158            0    6496.2425    24.772532    24.765633    22.871818     14032.03    6327.6547    6578.9814    6582.0915    124.60551    723.54679    315.19969    -7957.266 
 7727000    115.81653   -9716.5145   -9274.9691   -9716.5145            0    6910.6311    24.718361    24.715016    22.954422    14023.193    7895.9773    7101.7599    5734.1561    101.56253    909.35494   -238.19052    -7861.649 
 7728000    119.74907     -9729.86   -9273.3219     -9729.86            0    7258.9883    24.780311    24.820529    22.748489    13991.695    6800.0043    6721.7328     8255.228    265.64429    -517.4512   -757.70695   -7792.0925 
 7729000    113.03437   -9721.1463   -9290.2078   -9721.1463            0    7665.7267    24.732083    24.788758     22.78589    13969.519    7584.0666     7437.718    7975.3956   -435.96924    230.73436    349.81196   -7728.4608 
 7730000    116.05264   -9718.4256     -9275.98   -9718.4256            0    7953.5107    24.631202    24.790145    22.870312    13964.866    9163.5473    7070.6269    7626.3578     224.8759   -366.39818   -191.21516   -7656.1422 
 7731000    116.22378   -9711.5853   -9268.4872   -9711.5853            0    6579.5373    24.720776    24.815583    22.842457    14012.944    6556.4149    6870.6782    6311.5189   -368.07376   -320.37083    325.32599   -7923.8639 
 7732000    115.24589   -9710.8134   -9271.4435   -9710.8134            0      7533.69    24.771384    24.830251     22.73234      13982.2    7442.7931    7183.5739     7974.703    98.216794    -475.5573     144.8635   -7735.2032 
 7733000    116.83825   -9708.9193   -9263.4786   -9708.9193            0     7001.963    24.749801    24.796255    22.826405    14008.619    7074.2028    6971.6349    6960.0513   -514.53081    396.04553   -324.27325   -7832.9681 
 7734000    117.79527   -9724.0933    -9275.004   -9724.0933            0    6774.8043     24.71925    24.739533    22.917383    14014.959    7022.5917    6836.8229    6464.9982   -122.91052   -326.37168    203.81619    -7890.276 
 7735000    114.45664   -9726.8829    -9290.522   -9726.8829            0    7904.7458    24.765551    24.720947    22.802348    13960.233    8005.8025     7707.749    8000.6859   -496.38555    312.06729    576.15518   -7681.1499 
 7736000    116.78203   -9716.7194    -9271.493   -9716.7194            0    7639.6571    24.782075    24.754705    22.776724    13972.904    6577.3508    7531.7491    8809.8714   -431.37599   -167.04211    432.07743   -7714.6801 
 7737000    116.94686   -9738.0643   -9292.2095   -9738.0643            0    7002.1127    24.720159     24.70817    22.919085    13998.746    6979.9559    7704.1557    6322.2265   -17.588518   -274.38322    679.54789   -7862.6768 
 7738000    118.74077   -9707.4242   -9254.7303   -9707.4242            0    7536.8257    24.799241    24.792621    22.753484    13989.711    6937.3988    7543.1867    8129.8916   -12.870272    32.616808   -279.16426    -7717.025 
 7739000    112.59206   -9702.4773    -9273.225   -9702.4773            0    7593.8603    24.695969    24.799125    22.812424    13971.205    8804.8811    6689.5813    7287.1184    324.41567    40.208253    899.67033   -7725.9327 
 7740000    120.74017    -9724.007   -9263.6905    -9724.007            0    7239.7182    24.647963    24.847528     22.84683    13992.334    7999.7448     6572.453    7146.9566    78.566649   -450.69445    354.61352   -7786.3257 
 7741000    116.13457   -9717.4534   -9274.6954   -9717.4534            0    6565.4502    24.744465    24.819606      22.8424    14028.612    6883.0728    6362.2734    6451.0042   -418.06555   -1172.6236    469.71246   -7931.4509 
 7742000    115.90781   -9709.4255    -9267.532   -9709.4255            0    7984.5076    24.752257    24.761295     22.77529    13958.929    8480.7201     8006.209    7466.5937   -416.95783   -137.46715     155.5881   -7642.0727 
 7743000     116.0391   -9731.4097   -9289.0157   -9731.4097            0    6372.9661    24.710314    24.772773    22.912658    14025.823     7220.932    7077.9572     4820.009    160.07621   -44.018542    308.21728   -7985.4112 
 7744000    113.22171    -9720.826   -9289.1732    -9720.826            0    7223.8772    24.730545    24.771206    22.845792    13995.456    7532.3762    6981.3091    7157.9462    314.95631    10.224858   -510.00465   -7814.7122 
 7745000     116.5275    -9724.591    -9280.335    -9724.591            0    7595.7629     24.76773    24.838845    22.711558    13972.192    6954.6992    7188.6216    8643.9679   -308.63892   -618.43249    96.901508   -7732.5458 
 7746000    111.06409   -9711.4288   -9288.0018   -9711.4288            0    8347.3334    24.694817    24.778726    22.793518    13947.493    8370.7007    8034.6086     8636.691    -45.07877   -24.353849   -221.62964   -7590.0717 
 7747000    117.39637    -9705.235   -9257.6665    -9705.235            0     7954.484    24.728944    24.732626    22.853714      13977.6    7574.0499    8814.0496    7475.3526   -138.30574    751.13814   -297.05309   -7636.1532 
 7748000    111.34016   -9722.7529   -9298.2735   -9722.7529            0    7089.9109    24.808671    24.729082    22.809889    13993.768    6322.3897    7824.3076    7123.0353    348.70623    2.4926239    314.35046   -7851.3307 
 7749000    111.22986   -9732.8541   -9308.7951   -9732.8541            0    7408.6915    24.774565    24.750937    22.797213    13979.108    7335.5008    7509.0171    7381.5566   -39.671583    260.20014   -608.22545   -7798.3782 
 7750000    120.49262   -9726.4959   -9267.1231   -9726.4959            0    7389.7836    24.770069    24.776058    22.768037     13972.85    7445.6899    6797.7757    7925.8852   -89.059186   -86.553587    27.839643   -7761.2353 
Loop time of 611.128 on 64 procs for 250000 steps with 1920 atoms

Performance: 70.689 ns/day, 0.340 hours/ns, 409.079 timesteps/s
193.2% CPU use with 32 MPI tasks x 2 OpenMP threads

MPI task timing breakdown:
Section |  min time  |  avg time  |  max time  |%varavg| %total
---------------------------------------------------------------
Pair    | 72.204     | 74.239     | 76.742     |  12.2 | 12.15
Bond    | 0.88517    | 1.0393     | 1.2813     |  11.2 |  0.17
Kspace  | 289.43     | 295.35     | 302.38     |  16.8 | 48.33
Neigh   | 0.29571    | 0.31615    | 0.34006    |   2.2 |  0.05
Comm    | 88.677     | 96.961     | 101.45     |  28.2 | 15.87
Output  | 0.68579    | 0.68715    | 0.68897    |   0.1 |  0.11
Modify  | 103.62     | 111.17     | 117.15     |  32.8 | 18.19
Other   |            | 31.36      |            |       |  5.13

Nlocal:        60.0000 ave          64 max          56 min
Histogram: 1 3 3 5 0 7 6 4 2 1
Nghost:        3488.97 ave        3525 max        3451 min
Histogram: 2 1 6 2 4 5 3 5 1 3
Neighs:        21755.9 ave       23098 max       20067 min
Histogram: 1 1 2 4 4 6 4 5 3 2

Total # of neighbors = 696190
Ave neighs/atom = 362.59896
Ave special neighs/atom = 2.0000000
Neighbor list builds = 500
Dangerous builds = 0

unfix		3
unfix		2
unfix		1

write_data	data.final.${pid}
write_data	data.final.1
System init for write_data ...
PPPM initialization ...
  extracting TIP4P info from pair style
  using 12-bit tables for long-range coulomb (../kspace.cpp:340)
  G vector (1/distance) = 0.37504071
  grid = 30 30 30
  stencil order = 5
  estimated absolute RMS force accuracy = 0.0032043163
  estimated relative force accuracy = 9.6497032e-06
  using double precision FFTW3
  3d grid and FFT values/proc = 5400 960
Last active /omp style is kspace_style pppm/tip4p/omp
WARNING: Not all mixed pair coeffs generated from mixing. Use write_data with 'pair ij' option to store all pair coeffs. (../write_data.cpp:312)

write_restart   restart.lmp.${pid}
write_restart   restart.lmp.1
System init for write_restart ...
PPPM initialization ...
  extracting TIP4P info from pair style
  using 12-bit tables for long-range coulomb (../kspace.cpp:340)
  G vector (1/distance) = 0.37504071
  grid = 30 30 30
  stencil order = 5
  estimated absolute RMS force accuracy = 0.0032043163
  estimated relative force accuracy = 9.6497032e-06
  using double precision FFTW3
  3d grid and FFT values/proc = 5400 960
Last active /omp style is kspace_style pppm/tip4p/omp
Total wall time: 0:10:11
