LAMMPS data file via write_data, version 30 Jul 2021, timestep = 500000

2268 atoms
2 atom types
1512 bonds
1 bond types
756 angles
1 angle types

-0.047178908821596366 46.707176908818965 xlo xhi
-0.14029772838674326 20.1402987283848 ylo yhi
-0.1670204637868018 20.867018463785982 zlo zhi

Masses

1 1.008
2 15.999

Pair Coeffs # lj/cut/tip4p/long/omp

1 0 0
2 0.21084 3.1668

Bond Coeffs # harmonic/omp

1 450 0.9572

Angle Coeffs # harmonic/omp

1 55 104.52

Atoms # full

1009 337 2 -1.1794 2.691229680299222 9.268849675494957 6.681967552511485 0 0 0
282 94 1 0.5897 5.32539646146347 7.187575022440022 4.984230769295623 0 0 0
264 88 1 0.5897 0.7784246234065327 9.7580307789348 3.288355164006132 0 0 0
4 2 2 -1.1794 3.8144853311286187 0.6816233802417642 3.1239599571957424 0 0 0
5 2 1 0.5897 3.1403091300481694 0.4500519029873725 3.7628100635309245 0 0 0
1041 347 1 0.5897 1.1281348102365651 9.560032809244989 9.532661228396158 0 0 0
19 7 2 -1.1794 0.3174555329335147 5.9378400191127065 1.5294050416493221 0 0 0
10 4 2 -1.1794 1.1319658474204226 3.9286681121914055 3.4312675911755086 0 0 0
11 4 1 0.5897 0.8148861097150215 4.650308580840765 2.8882226140460974 0 0 0
12 4 1 0.5897 2.0857622858487432 3.9885299699218244 3.3769391274820815 0 0 0
13 5 2 -1.1794 4.517590248658847 5.343554028074767 1.5150162345227605 0 0 0
14 5 1 0.5897 4.32444278172189 4.645497182667161 2.1408128901984274 0 0 0
15 5 1 0.5897 3.8101432596540974 5.292184459627813 0.8722431713593681 0 0 0
16 6 2 -1.1794 3.9600696908820456 3.533115372420873 3.5397113346875932 0 0 0
17 6 1 0.5897 4.379579548996166 3.653155285493978 4.391702433139225 0 0 0
18 6 1 0.5897 3.888002358150876 2.5839756611734592 3.439302189247407 0 0 0
29 10 1 0.5897 5.266665242857398 0.663083186393883 4.352117879966599 0 0 0
1 1 2 -1.1794 2.624682865981237 2.1706635372454848 0.26231106917112695 0 0 0
2 1 1 0.5897 3.5482110542355323 2.115063369793334 0.5078081900119311 0 0 0
253 85 2 -1.1794 2.6194734526375107 9.533219810474572 -0.13240604607002238 0 0 0
270 90 1 0.5897 4.06194436792013 9.19445532823863 3.8548388095873154 0 0 0
25 9 2 -1.1794 2.4847497348130636 5.4926986331570475 6.943391005929999 0 0 0
26 9 1 0.5897 1.8394131174597985 5.716666626028775 7.613950465234581 0 0 0
27 9 1 0.5897 2.320625921546216 4.5695032713516754 6.751241679410257 0 0 0
1010 337 1 0.5897 3.624336229874047 9.22108716592486 6.890041889819564 0 0 0
1040 347 1 0.5897 0.40506150596044427 9.011425095601524 8.3209773802566 0 0 0
32 11 1 0.5897 0.777753736389744 1.989294214378286 2.7733694170305725 0 0 0
775 259 2 -1.1794 0.785909614581867 6.2284084425900295 8.899880961938981 0 0 0
498 166 1 0.5897 0.1550141930075485 7.329426993484214 4.553902933128282 1 0 0
773 258 1 0.5897 4.30006159194751 4.430372796915425 9.4221194647532 0 0 0
1539 513 1 0.5897 1.454086492937307 5.224819788547876 0.40534937382971803 0 0 1
256 86 2 -1.1794 4.450675400026549 7.395837985754372 3.4244893499370006 0 0 0
257 86 1 0.5897 4.63682351651292 6.7397330909481 2.752851359176345 0 0 0
258 86 1 0.5897 3.60948497252938 7.128324209284884 3.794753838362401 0 0 0
791 264 1 0.5897 5.413759970495681 1.5988391408785965 6.847991310360664 0 0 0
274 92 2 -1.1794 2.067189672744831 7.215888028716198 4.910316973590197 0 0 0
275 92 1 0.5897 2.0156528421480666 6.514174468944357 5.559277550337289 0 0 0
276 92 1 0.5897 2.1064565482466246 8.019615331119246 5.428647372506579 0 0 0
1011 337 1 0.5897 2.2522470967869803 9.193484751858053 7.529257983363613 0 0 0
254 85 1 0.5897 3.541732029952755 9.344366457195632 0.04089228974345441 0 0 0
283 95 2 -1.1794 0.5361708717855433 8.762876135843552 1.8313361007458955 0 0 0
285 95 1 0.5897 1.1520153450671604 9.060676920477778 1.1617643560823863 0 0 0
776 259 1 0.5897 0.9767109610337985 5.808980852929929 9.73889185572528 0 0 0
23 8 1 0.5897 1.102134199394027 0.46200629930348036 4.683104892397586 0 0 0
1039 347 2 -1.1794 1.1626920460903991 8.856071723660273 8.88500969498108 0 0 0
757 253 2 -1.1794 2.5255670402042667 2.6354547118418385 7.018296508963345 0 0 0
758 253 1 0.5897 2.3934427895055252 2.0284138123958053 6.290096803642913 0 0 0
759 253 1 0.5897 3.4376240834213747 2.5043640692885845 7.277583994435346 0 0 0
31 11 2 -1.1794 0.6554627250738629 1.4535504105249033 1.9896206858710093 0 0 0
762 254 1 0.5897 4.024751792630041 0.3819589540475772 9.973726344069538 0 0 0
790 264 2 -1.1794 5.260706601212302 2.1499746928353027 7.615497002215065 0 0 0
6 2 1 0.5897 3.843340322237299 -0.06402311860563423 2.5244784708442984 0 0 0
769 257 2 -1.1794 4.952843053056821 5.90058909245266 8.386308236314534 0 0 0
770 257 1 0.5897 4.704541246361729 6.643132614684819 8.936914768401515 0 0 0
771 257 1 0.5897 4.195068833760809 5.758511921147385 7.818976007096004 0 0 0
22 8 2 -1.1794 1.9612342888836443 0.5602429722609227 5.093669913806966 0 0 0
34 12 2 -1.1794 5.5691418168953195 2.240017515929447 -0.09801354474024142 0 0 0
3 1 1 0.5897 2.150445984770167 1.9069515688899075 1.0508726280120142 0 0 0
20 7 1 0.5897 0.277088264017988 6.888522437231153 1.6329092564693157 0 0 0
787 263 2 -1.1794 0.6544930404584567 2.118760889723083 8.992958070992238 0 0 0
789 263 1 0.5897 1.3186188566658317 2.2398301532049185 8.314315056835952 0 0 0
1281 427 1 0.5897 0.7095694238610408 0.28664585480574767 8.819006131852872 0 1 0
1012 338 2 -1.1794 4.53916154780627 7.918353965261495 10.234250951999373 0 0 0
777 259 1 0.5897 1.0096425963957973 7.14910990905655 9.035529826396129 0 0 0
1042 348 2 -1.1794 5.253287401947834 9.435106262803647 7.292505798372407 0 0 0
28 10 2 -1.1794 5.717530048439638 0.6528856281018118 5.196455156316168 0 0 0
286 96 2 -1.1794 5.175016205769433 9.065633103134635 0.2149523489788811 0 0 0
281 94 1 0.5897 5.483295713805849 7.882753191963365 6.319806469171984 0 0 0
772 258 2 -1.1794 3.9964054849856847 3.840230489812217 10.11186967493552 0 0 0
9 3 1 0.5897 5.713456377585105 3.8032462336469357 6.3078723247879624 0 0 0
8 3 1 0.5897 5.782781403186939 5.263585606619405 5.915077226936509 0 0 0
288 96 1 0.5897 5.731370642242838 8.966631994957718 0.9875778048039721 0 0 0
33 11 1 0.5897 0.06300815330610021 1.9654407757212913 1.438975889024769 0 0 0
766 256 2 -1.1794 1.3906240574774154 4.234057413846336 11.158248446130955 0 0 0
981 327 1 0.5897 0.08377036857913997 4.4380810737586875 12.3170164772888 1 0 0
1548 516 1 0.5897 5.648003039949973 1.4202351650280582 14.086402617303907 0 0 0
1536 512 1 0.5897 1.680476495251247 -0.0670605736349827 19.36507286582988 0 0 0
1765 589 2 -1.1794 2.145025249876425 9.397484779340276 13.884187799197363 0 0 0
1026 342 1 0.5897 4.352155306048965 9.563077217977025 10.561390221428097 0 0 0
1521 507 1 0.5897 5.146714433240658 4.051262151222461 18.53055088120513 0 0 0
1546 516 2 -1.1794 5.288920524848483 2.1899470919258124 14.527752958691917 0 0 0
774 258 1 0.5897 4.560454281554788 4.035359572216732 10.860235886206375 0 0 0
779 260 1 0.5897 2.0605718060399947 1.5579949125123904 12.879069070297653 0 0 0
785 262 1 0.5897 5.325735539262587 0.3625856804339057 11.984343536821969 0 0 0
781 261 2 -1.1794 2.572316717673031 5.609278737149793 13.87220873368731 0 0 0
782 261 1 0.5897 1.8306867855433775 5.86673756884663 14.419898247876713 0 0 0
783 261 1 0.5897 2.4489864908422723 4.671317642799797 13.72674135503448 0 0 0
760 254 2 -1.1794 3.9683792567017075 0.9158035700694838 10.766238192709842 0 0 0
778 260 2 -1.1794 1.9462342418644054 0.728338506125453 12.415629056775643 0 0 0
287 96 1 0.5897 5.205993373355229 8.210653759939389 20.81977431284072 0 0 -1
1531 511 2 -1.1794 0.25078006017276383 6.039808239713795 15.696192107659561 0 0 0
1786 596 2 -1.1794 2.1267107781721135 7.335793516816936 18.914215718260394 0 0 0
1030 344 2 -1.1794 2.36976118124056 7.3096257159669005 11.756074717507493 0 0 0
1031 344 1 0.5897 1.4257844600003577 7.456048309815322 11.817140503192944 0 0 0
1032 344 1 0.5897 2.5372106859691557 6.574446441347266 12.345712335162098 0 0 0
1787 596 1 0.5897 2.858527189528181 7.276281933720568 18.300065651653746 0 0 0
1513 505 2 -1.1794 2.5529010538029313 2.9520582527930865 13.95072312635009 0 0 0
1514 505 1 0.5897 2.1568052322751132 2.6853472507106955 14.780330971206038 0 0 0
1515 505 1 0.5897 3.4912275551771788 2.810528801963006 14.07631854875112 0 0 0
1516 506 2 -1.1794 3.820698864676957 0.7870621998065666 17.283675770601057 0 0 0
1517 506 1 0.5897 3.0030143362631967 0.7808264592507311 17.781295768562032 0 0 0
1518 506 1 0.5897 4.483783889393985 0.492297944947258 17.90793171062108 0 0 0
767 256 1 0.5897 0.9638510076520583 3.615001301492728 10.565913717403987 0 0 0
764 255 1 0.5897 5.3228506287514445 4.993629110464938 12.784947932697586 0 0 0
1522 508 2 -1.1794 1.110515279803154 4.216553882034737 17.54888871775568 0 0 0
1014 338 1 0.5897 5.261571432164835 7.668876188228532 10.810574759557571 0 0 0
1524 508 1 0.5897 0.8426962167271598 4.821398425928205 16.8570336319998 0 0 0
1525 509 2 -1.1794 4.607627768347794 5.354797532708866 15.956121099179477 0 0 0
1526 509 1 0.5897 4.232098916548412 4.63158302495868 16.458253555926753 0 0 0
1527 509 1 0.5897 3.9271146641095713 5.587093422887958 15.324291628530117 0 0 0
1528 510 2 -1.1794 3.715145784512052 3.54499384406468 17.792539533023795 0 0 0
1529 510 1 0.5897 2.7659795847737594 3.6039093386847076 17.901520495558838 0 0 0
1530 510 1 0.5897 3.8748636658899516 2.627424577574494 17.571827611865654 0 0 0
1543 515 2 -1.1794 0.6007671817794487 1.8704410422688622 15.957436084782678 0 0 0
2036 679 1 0.5897 0.8112232592019735 0.13084686588842387 15.968435238843526 0 1 0
780 260 1 0.5897 2.672574033561063 0.6992226967191683 11.79284579983097 0 0 0
1535 512 1 0.5897 1.9552582378848018 1.4095337451182368 19.554380878407063 0 0 0
1800 600 1 0.5897 4.3301459856292075 9.192707257702898 14.051359676311586 0 0 0
1013 338 1 0.5897 3.7515371012417287 7.645231284007555 10.704690393609098 0 0 0
1788 596 1 0.5897 2.2070983442517487 6.553511922979258 19.459892695517038 0 0 0
1782 594 1 0.5897 4.340032333468389 9.231414487066512 17.33266634623575 0 0 0
1545 515 1 0.5897 0.6001698907654001 2.5630271131135007 16.618143312270835 0 0 0
255 85 1 0.5897 2.3957357948739864 8.97427050687585 20.157483595945813 0 0 -1
1534 512 2 -1.1794 1.795034015383334 0.7498518382999599 18.87957288708278 0 0 0
1532 511 1 0.5897 0.3045516293466955 6.988292714571592 15.812928475846553 0 0 0
1795 599 2 -1.1794 0.2780073710838326 8.907144574292268 16.007304982999905 0 0 0
1766 589 1 0.5897 2.49051968911711 8.779502329745325 13.24001530002251 0 0 0
1768 590 2 -1.1794 4.285169431016965 7.528320905847431 17.33766415508201 0 0 0
1769 590 1 0.5897 4.977264729710477 7.480782443879517 17.997229210737228 0 0 0
1770 590 1 0.5897 4.3900486080791365 6.728984089559803 16.821672386432823 0 0 0
1797 599 1 0.5897 0.8797931408968265 9.144623410972061 15.301804385848744 0 0 0
36 12 1 0.5897 5.762043104083469 1.6106556342098175 20.241103583011448 0 0 -1
768 256 1 0.5897 2.321192506329322 4.169005387106267 10.943591642707307 0 0 0
1523 508 1 0.5897 0.40555410590700386 4.2633221523203035 18.194736112799994 0 0 0
1537 513 2 -1.1794 2.1806832112466785 5.079476801157133 20.833412048585874 0 0 0
1798 600 2 -1.1794 5.264081279207008 9.10106896867907 13.862599467887017 0 0 0
1538 513 1 0.5897 2.2501142961469944 4.127230638919229 20.765989028412665 0 0 0
2010 670 1 0.5897 0.1025493389710467 7.27205632624871 18.389771271464856 1 0 0
765 255 1 0.5897 5.639590571157481 3.5665648829530596 13.178470461631765 0 0 0
763 255 2 -1.1794 5.512012189447509 4.13094506741202 12.415950032290645 0 0 0
761 254 1 0.5897 3.931741079536745 1.8171475497598115 10.44624843276181 0 0 0
1520 507 1 0.5897 5.615281675606107 3.5759269392626662 19.889415468424982 0 0 0
1799 600 1 0.5897 5.515371634118581 9.941961454832558 13.480600972736468 0 0 0
30 10 1 0.5897 5.631268296476658 20.031088758851467 5.50369785267376 0 -1 0
1292 431 1 0.5897 0.9440729373599606 16.48873483690806 9.876550836902549 0 0 0
538 180 2 -1.1794 5.134312353001346 15.70892265376954 0.4501027074145103 0 0 0
519 173 1 0.5897 3.32376326836647 19.018642860583235 0.46506533598573385 0 0 0
265 89 2 -1.1794 4.442629231786669 12.10268907344002 2.0689345557980547 0 0 0
266 89 1 0.5897 3.803076797997885 12.257306254378756 1.3737043827721125 0 0 0
1295 432 1 0.5897 5.28962475466214 16.061302227672734 7.83894749419871 0 0 0
506 169 1 0.5897 3.4889118067230114 15.735068609160832 0.10961348516917596 0 0 0
269 90 1 0.5897 4.235744855253535 10.578123659925486 3.2657848556954985 0 0 0
1293 431 1 0.5897 1.1074096401561955 15.046348143704735 9.446978620574216 0 0 0
272 91 1 0.5897 1.1396503732631338 12.517472355443662 1.1215997386742484 0 0 0
273 91 1 0.5897 0.6123358639279016 11.929266456021054 2.4130853480461862 0 0 0
277 93 2 -1.1794 2.7910072433539623 12.255027209185931 6.587157314783592 0 0 0
278 93 1 0.5897 2.680509956084293 11.392892430602211 6.186306880547767 0 0 0
279 93 1 0.5897 2.314621658811539 12.851134144872518 6.009283846630838 0 0 0
515 172 1 0.5897 0.44856813734512874 17.514265628948152 4.260552398271808 0 0 0
505 169 2 -1.1794 2.5683806096890422 15.902238360058794 -0.09271365986748509 0 0 0
1027 343 2 -1.1794 1.1261638125506797 12.754525461291369 8.975294690969944 0 0 0
271 91 2 -1.1794 0.4245052011044182 12.596468590782676 1.7529505441013429 0 0 0
508 170 2 -1.1794 3.9401882029747144 14.603539655008197 3.2694080400054952 0 0 0
509 170 1 0.5897 4.146263844775824 15.365309714728209 2.7277154489199744 0 0 0
510 170 1 0.5897 4.339510066181664 13.86602342857302 2.8080955078905268 0 0 0
1025 342 1 0.5897 4.586128728619717 10.91652869094936 9.924871038605351 0 0 0
514 172 2 -1.1794 1.1218086661481204 17.509506969078267 3.5801092100695335 0 0 0
261 87 1 0.5897 5.091159353361203 10.989748614604666 5.074976510221499 0 0 0
516 172 1 0.5897 0.9965675542637451 16.677154298593706 3.1243929159368196 0 0 0
263 88 1 0.5897 2.0605666898498844 10.271345852136157 3.908492862904045 0 0 0
532 178 2 -1.1794 5.673538268024433 14.144411948465837 5.532802244406348 0 0 0
523 175 2 -1.1794 0.14995648104816334 19.014039668390495 1.5811974425087674 0 0 0
520 174 2 -1.1794 3.871329014922313 17.593157941138607 3.1747836059974386 0 0 0
521 174 1 0.5897 2.9306465118290497 17.464429639303162 3.2964659815301927 0 0 0
522 174 1 0.5897 3.942350959111591 18.08576096569064 2.3571327219504483 0 0 0
268 90 2 -1.1794 3.965755391127167 10.123568267217214 4.06374711783278 0 0 0
525 175 1 0.5897 0.5277897120789995 18.559600809761747 2.334178383690942 0 0 0
526 176 2 -1.1794 1.6459162738125852 14.137374426107062 4.813740815571257 0 0 0
527 176 1 0.5897 2.2764621892075376 14.227577317021531 4.099209039189327 0 0 0
528 176 1 0.5897 1.891691058642176 14.819812669163158 5.4383107739895635 0 0 0
529 177 2 -1.1794 2.4015303371903927 18.630500857179875 6.699881649431093 0 0 0
530 177 1 0.5897 2.2849166157276977 17.680961103685803 6.730139606915114 0 0 0
531 177 1 0.5897 1.6581064392272253 18.97936078783016 7.191690374200788 0 0 0
1279 427 2 -1.1794 0.8254930850857118 19.648983574927108 8.575055472550947 0 0 0
1273 425 2 -1.1794 4.560514504937208 19.374768091011724 8.572714651598657 0 0 0
518 173 1 0.5897 4.799801809678124 18.961743936481746 0.7968045525652858 0 0 0
537 179 1 0.5897 0.7156106316309727 14.225053792746026 2.1534967325985144 0 0 0
1291 431 2 -1.1794 0.648822180989907 15.855820709791795 9.221975947122159 0 0 0
262 88 2 -1.1794 1.1080539599814327 10.342907165780595 3.9706276149689312 0 0 0
2042 681 1 0.5897 1.311282093942397 18.733612949995717 0.10987377467396053 0 0 1
267 89 1 0.5897 5.29162759596244 12.241897646668196 1.6493043827525817 0 0 0
1021 341 2 -1.1794 4.8209685609031805 12.424260095244309 8.588012944084795 0 0 0
1022 341 1 0.5897 4.432955770445212 13.120806183310545 9.117611627162988 0 0 0
1023 341 1 0.5897 4.267968705617484 12.379478461372187 7.807968769278919 0 0 0
513 171 1 0.5897 5.098316384301373 17.893416135839438 4.743822169716429 0 0 0
507 169 1 0.5897 2.0961384859788335 15.627158952693318 0.6931564558841158 0 0 0
1028 343 1 0.5897 1.7008729708717476 12.537361548013138 8.241249060077454 0 0 0
1261 421 2 -1.1794 1.97582138816863 16.026785744395383 6.858028834394438 0 0 0
1262 421 1 0.5897 1.7075802397512192 15.965849321772316 7.774884743911187 0 0 0
1263 421 1 0.5897 2.9242828571173236 15.898948956128061 6.876462664067595 0 0 0
535 179 2 -1.1794 0.8324472790703128 15.165954527201087 2.022360630132553 0 0 0
517 173 2 -1.1794 3.958394998439789 19.2647870162564 1.1380634369592733 0 0 0
1274 425 1 0.5897 4.618629021270256 18.592323895972257 9.120977788160745 0 0 0
1275 425 1 0.5897 3.7250810797121026 19.285032924449787 8.114164826098204 0 0 0
1280 427 1 0.5897 1.3138439178755177 19.266800962214134 9.304240144541865 0 0 0
1264 422 2 -1.1794 4.122319423705628 14.34493684965202 10.09386952110156 0 0 0
1294 432 2 -1.1794 4.642898353379032 16.204374900055733 7.147895398769749 0 0 0
1296 432 1 0.5897 5.094483267190512 16.75280282937387 6.506385603981508 0 0 0
533 178 1 0.5897 5.099236321885284 14.424672461392932 4.820130842206164 0 0 0
524 175 1 0.5897 0.3933712033588672 19.931070952962713 1.7074996025362796 0 0 0
534 178 1 0.5897 5.375413442760868 14.644969353829186 6.2922842098891465 0 0 0
1019 340 1 0.5897 1.4112976411351792 11.558147113034739 10.33302237984036 0 0 0
1029 343 1 0.5897 0.27310686128387546 12.916531101496533 8.572413636557881 0 0 0
1789 597 2 -1.1794 2.544387879778584 12.119797171349585 0.0990246428257342 0 0 1
536 179 1 0.5897 0.06969434285140752 15.4333110989951 1.5095357983626845 0 0 0
24 8 1 0.5897 2.0805841047471993 20.035053239725116 5.59631033703962 0 -1 0
1043 348 1 0.5897 5.629929658568186 10.104554638300838 6.7213777668694314 0 0 0
260 87 1 0.5897 5.6937035218262375 12.282015773500095 5.583646727664402 0 0 0
1790 597 1 0.5897 2.5221978739536377 11.164813304567295 0.03859968830179286 0 0 1
1783 595 2 -1.1794 0.6274919320818 12.652179086573184 15.478788302590521 0 0 0
1772 591 1 0.5897 5.474876444808496 10.627171166277444 20.282003903026435 0 0 0
2029 677 2 -1.1794 4.608127232229238 19.088117841638145 15.56759184058674 0 0 0
1278 426 1 0.5897 4.67136513297002 16.81716009307612 10.482097318141188 0 0 0
1018 340 2 -1.1794 1.5800660415025911 10.75262586636873 10.821735845102353 0 0 0
1033 345 2 -1.1794 2.6239001428618716 12.291772562759446 13.324371790532497 0 0 0
1034 345 1 0.5897 3.428651790716607 12.312251108457357 13.842278602205015 0 0 0
1035 345 1 0.5897 1.9205882254033553 12.34368884664338 13.971623027806604 0 0 0
2031 677 1 0.5897 4.369536929695972 19.87357554573311 16.05985706000293 0 0 0
1232 411 1 0.5897 0.04318336889155319 11.395900677545516 11.752998623131043 1 0 0
1271 424 1 0.5897 1.1943365794958067 18.076354394985024 11.680954048746672 0 0 0
2040 680 1 0.5897 1.2363121166754543 14.212757649706722 18.801827789786213 0 0 0
1020 340 1 0.5897 2.5335463736334103 10.712232190635394 10.895948068886483 0 0 0
2049 683 1 0.5897 0.5561110728943002 16.128692822400254 16.372102917046515 0 0 0
1265 422 1 0.5897 4.705815139267101 14.46578638491089 10.84300843860279 0 0 0
1016 339 1 0.5897 5.109361926854446 11.188327795663598 12.056465904008798 0 0 0
1282 428 2 -1.1794 1.7376682015184515 14.506941819003426 11.821161101010393 0 0 0
1283 428 1 0.5897 1.9922919109776895 15.152826216563858 12.48011977272165 0 0 0
1284 428 1 0.5897 2.021701172877604 13.66836161999474 12.184861314252377 0 0 0
1285 429 2 -1.1794 2.5278637496188825 18.7867203744148 14.09502746647597 0 0 0
540 180 1 0.5897 5.323979494594139 15.021431101088424 20.845707548180428 0 0 -1
1287 429 1 0.5897 3.3966704881977647 19.005814881360827 14.431825563497718 0 0 0
2037 679 1 0.5897 1.1073243097101657 19.17751896775929 15.142872070076836 0 0 0
1288 430 2 -1.1794 5.762686947830252 14.283811276398712 12.354674107527334 0 0 0
1286 429 1 0.5897 2.2833629477299904 19.53809019467588 13.554790300594972 0 0 0
2051 684 1 0.5897 4.785793661458384 15.889224498673842 14.52768081481976 0 0 0
1767 589 1 0.5897 2.2161107090284 10.252064572943317 13.458970768887376 0 0 0
2043 681 1 0.5897 2.108721445505349 17.646546168824187 20.455279405966646 0 0 0
2041 681 2 -1.1794 1.8551864844097095 18.56595137005231 20.374276831799843 0 0 0
1277 426 1 0.5897 5.240167407338855 17.86658605048082 11.41323790571831 0 0 0
1776 592 1 0.5897 1.0761350737111328 11.67247310132638 17.21779216252419 0 0 0
1777 593 2 -1.1794 4.588361202366243 12.275483493630702 15.394877213437795 0 0 0
1778 593 1 0.5897 4.5856181942639695 11.698228517960134 16.158423042183976 0 0 0
2035 679 2 -1.1794 0.5129311483946312 19.515363028729965 15.812814843732774 0 0 0
1773 591 1 0.5897 5.1833047493102 11.010794081250705 18.846785475088872 0 0 0
2030 677 1 0.5897 5.5652229590062054 19.094892811202584 15.553996847119398 0 0 0
1779 593 1 0.5897 5.512405184629199 12.48077918452531 15.252556540420352 0 0 0
1785 595 1 0.5897 0.660358263440159 13.572199076161091 15.740764457335056 0 0 0
1780 594 2 -1.1794 4.120252674406884 10.162127303283611 17.37283837058588 0 0 0
2039 680 1 0.5897 2.369185034003285 14.795071141985796 19.62003000622074 0 0 0
1276 426 2 -1.1794 4.607383253509799 17.745740374071055 10.705241971558392 0 0 0
2047 683 2 -1.1794 0.491949116727189 15.35151576420928 15.817058380765724 0 0 0
2017 673 2 -1.1794 2.6464251132896552 15.947981370964266 14.000073718701119 0 0 0
2018 673 1 0.5897 2.479519792312095 16.822133562098237 13.647709390684637 0 0 0
2019 673 1 0.5897 2.1167439570141733 15.904975154088367 14.796234711456622 0 0 0
2020 674 2 -1.1794 4.1411487509633 14.50112746319808 17.02893266767871 0 0 0
2021 674 1 0.5897 3.4017171374850066 14.228936555322441 17.572453559302208 0 0 0
2022 674 1 0.5897 4.255985907748004 13.78529598581199 16.40394985528973 0 0 0
2024 675 1 0.5897 4.793307850077615 17.704131452574615 19.03442004403646 0 0 0
1781 594 1 0.5897 3.1637606291047025 10.184368694072178 17.34296000453486 0 0 0
2026 676 2 -1.1794 1.1098351343818362 17.41223252379809 17.46435129253377 0 0 0
2027 676 1 0.5897 2.047323281488062 17.445160963597118 17.654866051654743 0 0 0
2028 676 1 0.5897 0.9575490939415383 18.15455895137648 16.87957864073797 0 0 0
1774 592 2 -1.1794 1.2513004989022816 10.789819704234064 17.543983334641165 0 0 0
1272 424 1 0.5897 2.634598309293931 18.07033382914438 11.21448617181778 0 0 0
2038 680 2 -1.1794 2.180456931075958 14.144369728452226 18.943873554257443 0 0 0
2032 678 2 -1.1794 3.7196310103082864 17.253176100818706 17.556314858246736 0 0 0
2033 678 1 0.5897 4.0735552442062275 17.727697819633867 16.80410580579856 0 0 0
2034 678 1 0.5897 3.807179744219749 16.329723018399335 17.32027007099882 0 0 0
1791 597 1 0.5897 2.625209971048668 12.41580071292339 20.226349521414335 0 0 0
1289 430 1 0.5897 5.655941488567054 13.336594106368736 12.44142274585551 0 0 0
1024 342 2 -1.1794 4.298618738790739 10.502186391564425 10.738455074753583 0 0 0
1771 591 2 -1.1794 5.681306849103819 11.284170006629228 19.617195373230704 0 0 0
2050 684 2 -1.1794 5.7420525566830065 15.852450918085088 14.549630359128995 0 0 0
1270 424 2 -1.1794 1.7356285769370519 18.14633742466396 10.894576464545393 0 0 0
2023 675 2 -1.1794 5.326954477476636 17.93103659913539 19.796005574757245 0 0 0
1775 592 1 0.5897 0.7957237373834871 10.212730228294753 16.93108312181891 0 0 0
2045 682 1 0.5897 5.54303800009918 13.070180161352406 19.665021401703886 0 0 0
2046 682 1 0.5897 5.242078172886144 14.108906100559993 18.605618647662684 0 0 0
2025 675 1 0.5897 5.396157535333732 17.115444364074683 20.292194491157474 0 0 0
2044 682 2 -1.1794 5.66622823098027 13.996143244215496 19.45630474679271 0 0 0
1266 422 1 0.5897 3.241803972920975 14.376180310355169 10.468013829509331 0 0 0
293 98 1 0.5897 10.83002464958395 7.544133416774994 2.8245233622756425 0 0 0
1075 359 2 -1.1794 7.3764597012221325 8.94471527542627 9.099754516669137 0 0 0
1076 359 1 0.5897 7.444960496804194 8.003480969572234 9.259529340693279 0 0 0
35 12 1 0.5897 6.186063559295873 2.0225320049317013 0.6008289823328973 0 0 0
1044 348 1 0.5897 5.901431717733583 9.320194080377968 7.987475454921103 0 0 0
320 107 1 0.5897 7.605724441564067 9.334678503315349 2.804883149764332 0 0 0
807 269 1 0.5897 10.667164081159337 5.503048513918237 7.60982189649016 0 0 0
40 14 2 -1.1794 10.993086349215925 1.0734417886508874 3.4452349904134363 0 0 0
809 270 1 0.5897 10.95202698850565 4.463525729168147 9.869122230608738 0 0 0
1050 350 1 0.5897 11.286591979269469 8.713322517710566 9.733847493020173 0 0 0
46 16 2 -1.1794 8.080514351268814 4.022361083417781 3.8705973907594533 0 0 0
47 16 1 0.5897 7.39149477792843 3.944363260706994 4.530482017161506 0 0 0
48 16 1 0.5897 7.717230865272033 4.615811141057006 3.2132756779234235 0 0 0
324 108 1 0.5897 10.891921907707363 9.249965404855496 0.18020537863070862 0 0 0
825 275 1 0.5897 8.276106706027592 2.2936269732314436 8.467860838305645 0 0 0
52 18 2 -1.1794 10.843999299453877 3.872497227075103 3.1402566628175723 0 0 0
53 18 1 0.5897 9.896887646817381 3.9485826041766545 3.256246008584408 0 0 0
292 98 2 -1.1794 10.73664817842838 8.167646943110812 3.544756430648994 0 0 0
55 19 2 -1.1794 7.275694447094547 5.949024965696608 2.0233570910719143 0 0 0
823 275 2 -1.1794 7.507883486600993 2.2460903600726785 9.036936837329462 0 0 0
57 19 1 0.5897 7.430095494782919 6.893436219882485 2.003655267874584 0 0 0
1049 350 1 0.5897 11.049859742931305 7.218863972076029 9.686737600119105 0 0 0
59 20 1 0.5897 7.6918991990093835 0.7413280074369742 4.7425680871893 0 0 0
56 19 1 0.5897 6.337995617376323 5.855592212735982 1.85526815299359 0 0 0
61 21 2 -1.1794 9.13931715267009 5.30317916042693 6.622124555974865 0 0 0
62 21 1 0.5897 8.623331071767485 5.441443260865683 7.416431391500482 0 0 0
63 21 1 0.5897 9.206191898080858 4.351735363622196 6.541991907686126 0 0 0
67 23 2 -1.1794 7.706048179291097 2.000208570515265 1.8410280037910165 0 0 0
68 23 1 0.5897 8.551231898283927 2.126383960946399 1.4097377523844323 0 0 0
69 23 1 0.5897 7.797373629618026 2.4460763883047907 2.6831228442945636 0 0 0
7 3 2 -1.1794 5.808889941423346 4.379389102434436 5.549460169617642 0 0 0
51 17 1 0.5897 11.12800984054711 5.389065170550015 2.18293309604553 0 0 0
54 18 1 0.5897 11.001528537867635 2.931536468451568 3.0633173410026457 0 0 0
812 271 1 0.5897 6.7225159132130345 5.935515275801613 8.737380642450269 0 0 0
289 97 2 -1.1794 9.06821302145287 9.288821814752156 -0.05537361334545088 0 0 0
294 98 1 0.5897 9.985930017169716 7.846606135283843 4.0443690208091585 0 0 0
1047 349 1 0.5897 9.1667754976107 9.113799684511632 6.439448500909657 0 0 0
310 104 2 -1.1794 8.594364812366766 7.671325860198431 5.363740419570335 0 0 0
311 104 1 0.5897 8.761915782477804 6.852073552366152 5.829496275975749 0 0 0
312 104 1 0.5897 7.643214061142867 7.697939742918847 5.259494257654052 0 0 0
319 107 2 -1.1794 7.296390410785505 8.863788675684427 2.031043873202459 0 0 0
39 13 1 0.5897 10.44870326057446 2.965826372770606 0.1682776811104169 0 0 0
321 107 1 0.5897 8.037531178584764 8.884018073690983 1.425588137514286 0 0 0
58 20 2 -1.1794 8.64270045675199 0.7916585726470806 4.841093571573911 0 0 0
813 271 1 0.5897 7.771933936777045 5.608742483264648 9.778501452102901 0 0 0
49 17 2 -1.1794 11.172566548805909 6.193346671256223 1.6658908965985795 0 0 0
793 265 2 -1.1794 9.347664923701656 2.3677014964695493 6.9116544735315175 0 0 0
794 265 1 0.5897 10.30190092816387 2.3483346935510387 6.984605477257211 0 0 0
795 265 1 0.5897 9.150527720602497 1.7772693329954465 6.184495404072628 0 0 0
824 275 1 0.5897 7.378351637553389 1.3097756950218877 9.187534708611627 0 0 0
37 13 2 -1.1794 9.50136408535278 2.8680785001382088 0.07206595637717536 0 0 0
1077 359 1 0.5897 8.118644559691724 9.146011997444367 8.529746504046955 0 0 0
1046 349 1 0.5897 10.332705011575749 9.360884441763954 7.373019395338869 0 0 0
805 269 2 -1.1794 11.12800520309985 5.743101121827601 8.413734260388804 0 0 0
42 14 1 0.5897 10.162487050376104 0.9299308086778633 3.8988608683042116 0 0 0
1045 349 2 -1.1794 9.456472607931467 9.678996717969682 7.155597831369345 0 0 0
811 271 2 -1.1794 7.630171312198155 6.118022786933853 8.980515356087853 0 0 0
280 94 2 -1.1794 5.844069746221843 7.172899046903919 5.7886234188819055 0 0 0
1574 525 1 0.5897 9.809096644398076 6.008329728460924 0.5771902645650903 0 0 1
1573 525 2 -1.1794 9.123653152187085 5.723680821444742 -0.02729855264678388 0 0 1
792 264 1 0.5897 6.112261657518245 2.1981975138679997 8.050005910314823 0 0 0
60 20 1 0.5897 8.863533646686097 0.05889313585922723 5.415976303546802 0 0 0
797 266 1 0.5897 10.944641976475404 0.6785791507602963 9.934400332467662 0 0 0
1575 525 1 0.5897 8.318981361427596 5.755451946966197 0.4901620610795605 0 0 1
38 13 1 0.5897 9.189927031328725 3.7473511336337837 -0.14251838640475117 0 0 0
45 15 1 0.5897 11.558795752298698 4.747983669444535 4.754024775397789 0 0 0
305 102 1 0.5897 11.005888531622695 9.999754103107872 3.640161763184164 0 0 0
1048 350 2 -1.1794 11.196777917479366 7.943140883644098 10.295048844650172 0 0 0
1803 601 1 0.5897 8.897197771657666 8.89057408497354 14.896617530030195 0 0 0
1802 601 1 0.5897 10.258070296532535 9.093637110191025 14.265130931512594 0 0 0
1562 521 1 0.5897 11.411201733570934 5.173289075509419 16.12247335890632 0 0 0
810 270 1 0.5897 9.877206555505945 4.219266823421344 10.90695737701351 0 0 0
1833 611 1 0.5897 7.299935970324305 9.260121053888625 16.601543808290405 0 0 0
290 97 1 0.5897 8.733392983605043 8.850415494643807 20.196390332734136 0 0 -1
803 268 1 0.5897 7.286595743644594 4.4550480485249535 11.62909016097279 0 0 0
1561 521 2 -1.1794 11.634854526331726 5.718708791841264 15.368329194038978 0 0 0
1570 524 2 -1.1794 8.767705018674627 0.8310293080882593 19.357366437892708 0 0 0
1583 528 1 0.5897 11.18485828287133 2.427025466664003 14.847535824246936 0 0 0
2072 691 1 0.5897 7.3808094780538 0.1679570311577237 15.96815165535725 0 1 0
1831 611 2 -1.1794 7.183671028348081 8.483386137768248 16.05440341172474 0 0 0
817 273 2 -1.1794 9.643400016432988 5.420096583552144 13.70203248323261 0 0 0
818 273 1 0.5897 9.369446729108764 5.894445047153838 12.917051017821667 0 0 0
819 273 1 0.5897 8.850690362631148 5.360352976771469 14.235244704860913 0 0 0
1547 516 1 0.5897 5.802039205700103 2.2665181484155705 15.332196943355713 0 0 0