LAMMPS data file via write_data, version 30 Jul 2021, timestep = 11750000

864 atoms
2 atom types
576 bonds
1 bond types
288 angles
1 angle types

-0.1042747137009652 18.31184711369823 xlo xhi
-0.06853961629395222 23.697717416302947 ylo yhi
-0.09149577289995925 22.304691572898705 zlo zhi

Masses

1 1.00794
2 15.9994

Atoms # full

707 1 1 0.5897 2.4903319015779135 1.8653699612655015 3.778912615606139 0 0 0
706 1 2 -1.1794 2.7710419756467886 1.6045897209224673 2.901738034070118 0 0 0
708 1 1 0.5897 2.2534572890956235 2.152215067280633 2.3114134554287817 0 0 0
493 1 2 -1.1794 8.143849905669596 1.842307595885026 3.1286455770193755 0 0 0
494 1 1 0.5897 7.298534995888987 2.1093374687357147 2.7675964228149748 0 0 0
30 1 1 0.5897 5.331776920404278 3.7950194560414356 2.517709708955995 0 0 0
28 1 2 -1.1794 5.405548288944105 2.881637719239129 2.240986911854472 0 0 0
29 1 1 0.5897 4.623637339404623 2.4592638712741546 2.5966152409539416 0 0 0
846 1 1 0.5897 7.596970408165653 1.6457671318121179 5.078637145125951 0 0 0
495 1 1 0.5897 8.787515318540999 2.3457524737526176 2.630178580379507 0 0 0
668 1 1 0.5897 5.303426047095552 3.029830357439867 0.20933412362929332 0 0 0
137 1 1 0.5897 5.051713822019348 5.495249056416004 3.913192536306516 0 0 0
3 1 1 0.5897 1.0438291946502691 4.0211524974222295 1.802982643466269 0 0 0
1 1 2 -1.1794 0.8874921507093745 3.1121602390165894 1.5469472859831757 0 0 0
595 1 2 -1.1794 0.9115379704590003 5.469141750130116 2.697825531558075 0 0 0
136 1 2 -1.1794 5.151341158654109 5.4380076585255885 2.9629103088300472 0 0 0
487 1 2 -1.1794 2.648211259095335 2.2801898072419458 5.500868453298218 0 0 0
2 1 1 0.5897 -0.005435762654378673 2.9304453467113833 1.8400426059642003 0 0 0
597 1 1 0.5897 0.9663965852911554 5.427858625809418 3.6525659183461183 0 0 0
596 1 1 0.5897 0.027503054989322956 5.7912559044579535 2.521942664085057 1 0 0
819 1 1 0.5897 8.08542583605495 0.18720258917498855 2.7804861676298596 0 0 0
676 1 2 -1.1794 5.193534088975713 5.724741571440328 10.264345153560363 0 0 0
176 1 1 0.5897 8.830081168820769 2.5605155397834127 9.817056588290118 0 0 0
36 1 1 0.5897 1.161537630212565 2.5858396226473417 9.878936211232867 0 0 0
419 1 1 0.5897 9.025919812700085 2.4464517333796785 6.703352072140048 0 0 0
274 1 2 -1.1794 4.895753141018426 3.3453178908840737 9.068517405210832 0 0 0
686 1 1 0.5897 5.362926613869728 5.240295409352567 6.114220427404142 0 0 0
674 1 1 0.5897 3.501562829467986 1.849194318464163 9.930087803272146 0 0 0
784 1 2 -1.1794 0.5838490330279981 3.45942831665965 6.928525153267553 0 0 0
678 1 1 0.5897 5.181522359050898 4.897950287986618 9.782131752076841 0 0 0
785 1 1 0.5897 0.5847617716907243 3.5426700871863708 7.882107525614891 0 0 0
276 1 1 0.5897 5.637617048488843 2.8406890534090716 9.402024339912836 0 0 0
83 1 1 0.5897 4.449232841063177 3.058119861651027 5.848932789395987 0 0 0
35 1 1 0.5897 0.7337812898690882 4.006095741404273 10.18208432767342 0 0 0
82 1 2 -1.1794 5.212990210191631 3.2825291266627774 6.380507758664967 0 0 0
275 1 1 0.5897 5.076123631478185 3.4481429098910534 8.134101094347027 0 0 0
356 1 1 0.5897 7.213767752015046 0.7491798670806905 9.937591062971181 0 0 0
34 1 2 -1.1794 0.5706142714531074 3.278046523433872 9.582436800937215 0 0 0
488 1 1 0.5897 1.9144327898790179 2.7034949589725796 5.946571459947732 0 0 0
489 1 1 0.5897 2.7779459578053403 1.460370154609173 5.977707862553857 0 0 0
845 1 1 0.5897 7.7304272582576 0.8532121308001347 6.361592366760297 0 0 0
355 1 2 -1.1794 6.9971601958980685 1.61396370559932 10.286143072317179 0 0 0
183 1 1 0.5897 0.8278850528749232 4.814337715750577 6.003580179591481 0 0 0
675 1 1 0.5897 2.812372427575178 0.5649196938399395 9.520659068349133 0 0 0
844 1 2 -1.1794 7.471635360909997 1.7112459316874757 6.025339504546203 0 0 0
673 1 2 -1.1794 2.7525397652939136 1.2916606028351987 10.140754026181185 0 0 0
84 1 1 0.5897 5.868390573926158 2.6244803157629613 6.14878034455888 0 0 0
181 1 2 -1.1794 0.9873712248639939 5.643369549867275 5.552443713244513 0 0 0
166 1 2 -1.1794 3.071700642897873 1.4928257588943457 13.03573644416225 0 0 0
167 1 1 0.5897 3.0182969195343743 1.2929123493285142 12.101146002858608 0 0 0
168 1 1 0.5897 2.185078871552789 1.7634181708535293 13.274308493486009 0 0 0
458 1 1 0.5897 5.781579320855206 2.457910259859414 13.963834497807161 0 0 0
457 1 2 -1.1794 5.127676258315099 3.091278642049842 14.259627354773153 0 0 0
459 1 1 0.5897 4.297409555923133 2.753642972854528 13.923657116685497 0 0 0
592 1 2 -1.1794 7.310488859884752 1.485725767454672 13.165262988320642 0 0 0
762 1 1 0.5897 5.069446996733745 4.646206220618104 13.28314398596255 0 0 0
71 1 1 0.5897 4.8062928376717595 3.121503457677174 16.364987843444382 0 0 0
593 1 1 0.5897 7.3819458403629765 0.6310247750296164 13.590294241904735 0 0 0
594 1 1 0.5897 8.112282031361863 1.9454017173206721 13.414352697430079 0 0 0
365 1 1 0.5897 0.5503610295094934 4.8352733896441205 13.59973574445713 0 0 0
468 1 1 0.5897 0.4709320525625089 3.045211886567877 14.866799501335333 0 0 0
760 1 2 -1.1794 4.971283820751882 5.562640329563185 13.024659014231569 0 0 0
467 1 1 0.5897 -0.03752924099568265 2.3981840092195945 13.596080156932162 0 0 0
761 1 1 0.5897 4.949234778368056 5.541116027184548 12.067938163197434 0 0 0
466 1 2 -1.1794 0.6899753918539314 2.91362703357915 13.944337411723648 0 0 0
364 1 2 -1.1794 0.5652369486132518 5.738969490483366 13.284477312454168 0 0 0
357 1 1 0.5897 7.297821008615321 1.588777357322211 11.194551340178812 0 0 0
277 1 2 -1.1794 4.376159121547133 5.672526305910623 18.05234688751778 0 0 0
599 1 1 0.5897 8.59866895079761 2.009316434142856 16.780187225423745 0 0 0
646 1 2 -1.1794 0.19241501281341777 5.843395535676921 20.300127409997543 0 0 0
568 1 2 -1.1794 3.013350925208017 1.8902258344590022 20.68078452971988 0 0 0
134 1 1 0.5897 0.2655324623627311 3.3855763513916055 17.132357587167533 0 0 0
21 1 1 0.5897 0.43348130511619054 4.196273524116978 20.956348389084233 0 0 0
754 1 2 -1.1794 7.3144761219924215 1.2695951984844631 17.591927315445467 0 0 0
648 1 1 0.5897 0.17658737569388677 5.635585424541632 19.365888635195333 0 0 0
290 1 1 0.5897 2.728324791088265 0.332982869757816 17.6532875299974 0 0 0
571 1 2 -1.1794 0.0744442201374732 5.3517722372091985 17.450319144425656 0 0 0
755 1 1 0.5897 7.290148274662532 1.2435934849983374 18.548482803114815 0 0 0
72 1 1 0.5897 4.194314000540097 2.4977621905434972 17.601243356576354 0 0 0
19 1 2 -1.1794 0.39741403833364075 3.271676360326778 21.201461639405927 0 0 0
669 1 1 0.5897 4.386348800781237 2.5144515956381515 21.516830983389973 0 0 0
42 1 1 0.5897 7.410681451728521 0.7796074771662067 21.30450399356839 0 0 0
70 1 2 -1.1794 4.887903049546215 3.093672115649894 17.31829670902642 0 0 0
291 1 1 0.5897 1.8302944474756075 1.5517257225309165 17.664375618438456 0 0 0
569 1 1 0.5897 2.164114114092374 2.2701596166381295 20.905873569042654 0 0 0
41 1 1 0.5897 6.8040146367205345 2.165502707051312 21.361194638756096 0 0 0
756 1 1 0.5897 6.646303874527807 1.911721551523277 17.35221733574356 0 0 0
40 1 2 -1.1794 7.507923220585623 1.6635626414911102 20.95033901218794 0 0 0
667 1 2 -1.1794 5.229756392368773 2.9455210392234608 21.654888822671552 0 0 0
133 1 2 -1.1794 0.3190556212229847 2.438867029915759 17.001363555857687 0 0 0
143 1 1 0.5897 5.138139109212622 5.1772780488332035 21.218497656619355 0 0 0
570 1 1 0.5897 2.911936098455391 1.5949963667569451 19.775887313294085 0 0 0
289 1 2 -1.1794 2.7071085633206278 1.2553259059000414 17.90842307609772 0 0 0
278 1 1 0.5897 4.468748164916449 4.762380995878631 17.770645318296978 0 0 0
144 1 1 0.5897 4.912025178408462 5.831094816916774 19.871881507606183 0 0 0
20 1 1 0.5897 0.5413589645555497 3.268472526537596 22.14778634214104 0 0 -1
572 1 1 0.5897 0.8426654902961893 5.860239882982754 17.190479041934488 0 0 0
81 1 1 0.5897 3.0264011637257817 0.3225071782948165 21.60185922648803 0 1 0
711 1 1 0.5897 8.49007786312001 5.5402822544084085 17.46975124267047 0 0 0
123 1 1 0.5897 3.0633594296437154 8.787653824246105 2.093869523613392 0 0 0
121 1 2 -1.1794 2.9117499576829986 9.65428282318801 2.4710141869520603 0 0 0
122 1 1 0.5897 2.9810960246120897 9.52014370024614 3.4162331035931643 0 0 0
44 1 1 0.5897 1.1744865536003672 10.059638057589382 2.115620306718477 0 0 0
218 1 1 0.5897 5.74270734580183 10.495960051247575 2.0484359239392016 0 0 0
66 1 1 0.5897 7.29238132401904 9.410387754373428 3.4001863660102463 0 0 0
65 1 1 0.5897 7.158125822254957 8.556229398772883 2.157468807122072 0 0 0
64 1 2 -1.1794 7.112535548949789 9.462747679159271 2.461479825012368 0 0 0
219 1 1 0.5897 4.230502184538 10.567052165566446 2.054437111508273 0 0 0
415 1 2 -1.1794 7.40007544495389 6.7584540533406985 1.8388907058546184 0 0 0
253 1 2 -1.1794 3.144994502617496 7.054522569570703 1.7384814839129121 0 0 0
217 1 2 -1.1794 5.011877784409869 11.085262697314667 1.8617312493992642 0 0 0
416 1 1 0.5897 6.7478683067923635 6.197929356417546 2.2592304702950314 0 0 0
162 1 1 0.5897 7.306258998344239 7.054929166391603 -0.00449200673134241 0 0 1
417 1 1 0.5897 8.214803165212574 6.569288107901884 2.304415905328017 0 0 0
43 1 2 -1.1794 0.42245611461056654 10.574343665263344 1.8227636030661134 0 0 0
254 1 1 0.5897 3.1130181824302054 6.934788690994923 0.7893377986076779 0 0 0
712 1 2 -1.1794 7.233483177210941 9.766807254043103 5.395718314892556 0 0 0
138 1 1 0.5897 4.4613632258769975 6.002798640588534 2.614812978031666 0 0 0
255 1 1 0.5897 2.423244061786225 6.521568856999641 2.0720506724571206 0 0 0
773 1 1 0.5897 8.757244559214078 10.552713409704488 2.142497818476784 0 0 0
793 1 2 -1.1794 2.5789837852125164 9.514673432387392 5.421885600072958 0 0 0
396 1 1 0.5897 0.4808030067059581 10.755439084302798 0.11348250053918418 0 0 0
45 1 1 0.5897 0.6234754654447688 11.469596641498354 2.0956118864336037 0 0 0
687 1 1 0.5897 4.571339002222108 6.530494158482311 6.087557315016848 0 0 0
550 1 2 -1.1794 0.2131618217553773 10.610340412991665 6.318472731194222 0 0 0
578 1 1 0.5897 5.705445382558965 10.447102590004187 5.872450537749073 0 0 0
577 1 2 -1.1794 4.952703567219139 10.872607607864065 6.282998163602721 0 0 0
165 1 1 0.5897 9.024222306558547 6.053803359363645 5.980026290508782 0 0 0
146 1 1 0.5897 6.728536024802588 6.838524577189054 6.258882968202278 0 0 0
258 1 1 0.5897 3.438858154342754 10.167268024198927 9.740822613663205 0 0 0
256 1 2 -1.1794 2.583594893300616 9.76617608089889 9.895355918741094 0 0 0
15 1 1 0.5897 1.0674086374523768 10.413711270386953 9.459817180469473 0 0 0
794 1 1 0.5897 1.779927871324157 9.976777257594927 5.675266795016943 0 0 0
649 1 2 -1.1794 2.8594001322101503 6.956401052579213 9.598705524210505 0 0 0
820 1 2 -1.1794 7.014645716009296 9.525444522161806 9.871710791355857 0 0 0
114 1 1 0.5897 1.2938006922399785 6.37030505519046 9.963776520414074 0 0 0
580 1 2 -1.1794 4.837150817885508 11.029791748168353 9.0182503730458 0 0 0
650 1 1 0.5897 2.8251598848491777 7.047720345760404 8.646480099252486 0 0 0
714 1 1 0.5897 7.352180860385043 9.016214879967263 5.977790041836213 0 0 0
147 1 1 0.5897 7.631650760232862 7.2638434234807185 7.397067747552711 0 0 0
13 1 2 -1.1794 0.2303298070283068 10.688613951562212 9.085708649191458 0 0 0
10 1 2 -1.1794 3.078058058878099 7.111346633969076 6.926111598668719 0 0 0
145 1 2 -1.1794 7.567816413366522 7.260806923224205 6.441960525812731 0 0 0
12 1 1 0.5897 2.9142383922869888 7.8936942436336635 6.39943358321454 0 0 0
257 1 1 0.5897 2.751830361539618 8.824251386233867 9.868309671434895 0 0 0
713 1 1 0.5897 7.96285871846519 10.35036137850363 5.604800550965778 0 0 0
11 1 1 0.5897 2.400524669478276 6.492442002210708 6.653737612453295 0 0 0
551 1 1 0.5897 0.17617968687165425 10.452848948531663 7.261917580751892 0 0 0
822 1 1 0.5897 7.703585804550193 10.012883147153877 9.420043431270527 0 0 0
582 1 1 0.5897 4.622771836573393 10.947364275751415 8.088999870859357 0 0 0
528 1 1 0.5897 8.22771594633661 6.581810440695686 9.592063961075903 0 0 0
527 1 1 0.5897 7.370600578774173 7.8147267444654975 9.399184973104104 0 0 0
795 1 1 0.5897 3.2879750177294635 10.109265408497414 5.666872030777123 0 0 0
526 1 2 -1.1794 7.418307868334873 6.884118706042158 9.180131030925835 0 0 0
651 1 1 0.5897 3.710113438504902 6.552722543652395 9.770658642658557 0 0 0
581 1 1 0.5897 5.725781568414684 10.681596629875301 9.091302059460556 0 0 0
685 1 2 -1.1794 5.243397443357387 6.0447387910956385 5.6094077046596444 0 0 0
182 1 1 0.5897 0.28785104450272214 6.221107389842529 5.857599650915468 1 0 0
579 1 1 0.5897 5.0047392362407255 11.78360608432065 5.993796619251055 0 0 0
112 1 2 -1.1794 0.5280331805452442 5.962292038727171 10.367946687654138 0 0 0
552 1 1 0.5897 0.28142504481754527 11.561597828673726 6.236458236059468 0 0 0
14 1 1 0.5897 0.2794117571093803 11.644329698457549 9.064098528833107 0 0 0
677 1 1 0.5897 5.948515258160185 6.196628950252355 9.912854932334351 0 0 0
821 1 1 0.5897 7.27471056791836 9.540076828674707 10.792792014783887 0 0 0
332 1 1 0.5897 3.1175436443582747 7.894723349356601 13.658999326202455 0 0 0
797 1 1 0.5897 2.832470640162578 9.729105811189752 11.977014443003574 0 0 0
796 1 2 -1.1794 2.980420147388164 9.62747297933584 12.917244771933506 0 0 0
798 1 1 0.5897 2.1720136414525646 9.941050459228187 13.322663479830817 0 0 0
331 1 2 -1.1794 3.0088890156786476 7.051980154668343 14.099741307290223 0 0 0
475 1 2 -1.1794 7.384482542389133 9.675682234241236 13.0949920428573 0 0 0
476 1 1 0.5897 6.577106218973773 10.027934990721151 13.469586058959797 0 0 0
477 1 1 0.5897 7.355832558051532 8.740899051371745 13.298995230036823 0 0 0
722 1 1 0.5897 4.369479773190769 10.57062611931439 13.468032919124893 0 0 0
225 1 1 0.5897 2.442725194975737 6.973004495615682 15.905851689265637 0 0 0
828 1 1 0.5897 7.144235757403183 7.155310180289858 14.829761216017584 0 0 0
721 1 2 -1.1794 5.120348384961898 11.131915006484617 13.661411760586804 0 0 0
723 1 1 0.5897 5.189138836510323 11.120256704731212 14.616067474080278 0 0 0
826 1 2 -1.1794 7.237889254262033 7.072782469502258 13.880729325084134 0 0 0
333 1 1 0.5897 3.7398408132403165 6.520314566901334 13.784637218459375 0 0 0
104 1 1 0.5897 8.900376582240709 10.503348598103372 13.615229201040133 0 0 0
827 1 1 0.5897 6.676011850565448 6.33372851259401 13.647518849378613 0 0 0
366 1 1 0.5897 1.3356444296112726 6.125665189367904 13.700597779138942 0 0 0
113 1 1 0.5897 0.6724926558843657 6.060397071717802 11.309097968002996 0 0 0
259 1 2 -1.1794 0.7713187229286322 11.162196465302362 13.905181644073002 0 0 0
679 1 2 -1.1794 5.1425040100455774 11.284631781738643 16.46386859999754 0 0 0
261 1 1 0.5897 0.962480861611871 11.340092325018487 14.82608758684504 0 0 0
851 1 1 0.5897 8.851925391487182 6.109967289855488 13.455365391324555 0 0 0
279 1 1 0.5897 3.583290558424554 5.9801934738982645 17.61311115332724 0 0 0
287 1 1 0.5897 9.017738285309616 11.088323303708252 21.054458314499684 0 0 0
647 1 1 0.5897 0.8969818732548149 6.484880867695084 20.391392042791992 0 0 0
520 1 2 -1.1794 6.848823920462786 6.832648948691925 17.060766455581955 0 0 0
394 1 2 -1.1794 0.5467393789340238 10.886877206131292 21.563830148656535 0 0 0
680 1 1 0.5897 4.39378137926803 10.840347655063486 16.861688510117183 0 0 0
445 1 2 -1.1794 0.7097740350193799 11.297326113095467 17.109937043474275 0 0 0
140 1 1 0.5897 6.529600288951277 10.347869083643678 20.73184659058495 0 0 0
361 1 2 -1.1794 4.999830577533003 11.370184118182353 21.30955032856189 0 0 0
6 1 1 0.5897 2.8986306427791977 8.060089468689354 20.880908915059024 0 0 0
689 1 1 0.5897 3.7671425948314115 10.431334312659423 20.54474835653155 0 0 0
161 1 1 0.5897 6.568825424324561 7.0396655686558125 21.06958403277637 0 0 0
224 1 1 0.5897 2.7208915363617616 7.704166133142027 17.201980342444415 0 0 0
160 1 2 -1.1794 7.3736096232321575 7.351003143561167 21.483889478466033 0 0 0
625 1 2 -1.1794 2.9879704524069566 9.87268227236533 17.461661642391988 0 0 0
5 1 1 0.5897 3.378930060657113 6.63100235632488 21.018680815655664 0 0 0
139 1 2 -1.1794 7.387406431290311 10.042170275303508 20.436922670432118 0 0 0
141 1 1 0.5897 7.552201459971843 9.253940284348364 20.9544079515833 0 0 0
521 1 1 0.5897 5.968680325010469 6.590304107993824 17.34859020414143 0 0 0
223 1 2 -1.1794 2.408155108862975 6.867960650605063 16.85664817861081 0 0 0
7 1 2 -1.1794 7.2028187270504915 9.679180809296456 17.66380423607385 0 0 0
9 1 1 0.5897 7.296068724577414 9.919462406235635 18.585663303152998 0 0 0
4 1 2 -1.1794 2.632099988274593 7.199885109812118 21.205354946600345 0 0 0
688 1 2 -1.1794 3.0515743836678446 9.95561164196378 20.12297539770701 0 0 0
627 1 1 0.5897 2.123509731208682 10.20328803014659 17.21742306477413 0 0 0
522 1 1 0.5897 6.908652379447613 7.771746268417153 17.236278935777833 0 0 0
626 1 1 0.5897 3.0033257277184533 9.924057988505067 18.417372355719394 0 0 0
690 1 1 0.5897 2.2580597404577993 10.312888230940418 20.52166020216935 0 0 0
8 1 1 0.5897 6.636716957024342 10.357317569552649 17.29512863022493 0 0 0
363 1 1 0.5897 4.8848351452742875 11.441338529572635 22.257149948990246 0 0 0
462 1 1 0.5897 8.811556967255523 6.45508789950388 20.493100421691352 0 0 0
246 1 1 0.5897 8.75726950254466 10.467967767673143 17.32935738600453 0 0 0
447 1 1 0.5897 -0.0670872555435637 10.738193570618135 17.1196456967416 1 0 0
142 1 2 -1.1794 4.999023040561462 6.028985673069383 20.80436945290063 0 0 0
557 1 1 0.5897 2.1727020430026243 14.321817292382626 2.463682747007629 0 0 0
556 1 2 -1.1794 2.752437515665958 14.961447186616471 2.0501301177258933 0 0 0
173 1 1 0.5897 4.231624463000742 13.972280714456133 2.6224056510589486 0 0 0
480 1 1 0.5897 6.691347548167464 14.252505291601281 2.2311630896498995 0 0 0
478 1 2 -1.1794 7.44172748704182 14.680075930388616 1.818431085714899 0 0 0
172 1 2 -1.1794 5.0392153545219625 13.625653760432035 3.001924327038116 0 0 0
558 1 1 0.5897 2.740261396439603 14.730988689506445 1.1211622610752776 0 0 0
293 1 1 0.5897 2.796786562572947 16.880682261244885 2.696412293802284 0 0 0
174 1 1 0.5897 5.105185481807633 12.736200384283878 2.6543321686365644 0 0 0
449 1 1 0.5897 7.690062345957053 16.43214305440766 2.377810662648081 0 0 0
479 1 1 0.5897 8.202436601025646 14.329295189533468 2.2815818725955617 0 0 0
200 1 1 0.5897 5.295382754958064 13.68787238562915 4.822723785595509 0 0 0
373 1 2 -1.1794 0.6980467912325583 13.19971261751649 2.9818182751440183 0 0 0
374 1 1 0.5897 0.776712470138946 13.032938070749873 3.9211057356221968 0 0 0
317 1 1 0.5897 7.421293833452248 14.976058171258112 0.11837411859219946 0 0 0
308 1 1 0.5897 7.8799015245802995 17.389399307566592 4.594810424902292 0 0 0
448 1 2 -1.1794 7.885785441851037 17.364373227474772 2.4721809608368344 0 0 0
657 1 1 0.5897 -0.04959931404196308 13.91401402293117 6.04803090135606 1 0 0
59 1 1 0.5897 8.791166594936987 14.038209796552477 10.255902009792225 0 0 0
199 1 2 -1.1794 5.262394171421806 13.67543802088516 5.779290020633266 0 0 0
655 1 2 -1.1794 0.7035045433149282 13.40940194883669 5.740703322252666 0 0 0
455 1 1 0.5897 5.147838571924835 13.678368886981312 10.930484124354672 0 0 0
239 1 1 0.5897 3.111616364570754 16.57603916589364 5.989027645988172 0 0 0
184 1 2 -1.1794 7.4503840038799005 17.51344532602438 10.797053462982724 0 0 0
16 1 2 -1.1794 2.987943942421562 14.875653874409739 6.767031229592422 0 0 0
811 1 2 -1.1794 2.882674073869546 15.397814430467418 9.70041563557981 0 0 0
454 1 2 -1.1794 5.10820545632073 13.666059098700883 9.9741812261584 0 0 0
18 1 1 0.5897 3.8843651833568527 14.604156060432109 6.569721965918385 0 0 0
378 1 1 0.5897 7.663945533243971 15.020882260066188 8.486847891436398 0 0 0
519 1 1 0.5897 8.516675992430343 14.540894547522512 6.353642200973056 0 0 0
201 1 1 0.5897 6.148595104686029 13.911892149413463 6.0530754409403595 0 0 0
186 1 1 0.5897 7.441852024199093 16.64768652021359 10.388824231391334 0 0 0
812 1 1 0.5897 3.657470697860127 14.848285597814474 9.818448860985342 0 0 0
766 1 2 -1.1794 0.6549037939465481 13.882620362873286 9.969379918003595 0 0 0
377 1 1 0.5897 6.785385589195493 14.493811813537546 9.60139919646053 0 0 0
656 1 1 0.5897 1.460953746622145 13.850032879864747 6.125917630617307 0 0 0
376 1 2 -1.1794 7.547947404053712 15.048396087370362 9.436599389073846 0 0 0
813 1 1 0.5897 2.1457407560497916 14.818212316481226 9.893351107452762 0 0 0
517 1 2 -1.1794 7.635504199221808 14.670218209803114 6.704384964888056 0 0 0
384 1 1 0.5897 3.0810986253303088 17.01116729443048 10.371109787847285 0 0 0
456 1 1 0.5897 5.01661999469019 12.74005835677752 9.749687082402225 0 0 0
17 1 1 0.5897 2.9680410948411287 14.96349729627388 7.719990544741615 0 0 0
518 1 1 0.5897 7.34825907857377 15.503265017528266 6.3305172778910785 0 0 0
307 1 2 -1.1794 7.675554593897333 17.358047167764695 5.529422502182668 0 0 0
238 1 2 -1.1794 3.094507052790369 17.49898679123526 5.7357555945274585 0 0 0
767 1 1 0.5897 0.6862814327424037 13.491703013984367 10.84256293668691 0 0 0
232 1 2 -1.1794 2.87858840734372 14.754357605506216 13.943660871107262 0 0 0
234 1 1 0.5897 3.135341647035894 14.814720778922688 14.863809732543094 0 0 0
606 1 1 0.5897 3.0256296902617934 16.497204905413263 13.44507577398355 0 0 0
639 1 1 0.5897 1.4362988973206032 14.111918680163761 12.934121256587453 0 0 0
233 1 1 0.5897 3.615087991482539 14.316238012234091 13.517225897356475 0 0 0
295 1 2 -1.1794 7.390956402588259 14.747484131711083 14.094390735910427 0 0 0
270 1 1 0.5897 7.309144460454733 16.44100441876767 13.78553794374749 0 0 0
296 1 1 0.5897 7.45013037131315 14.61956301284684 15.041165790495972 0 0 0
429 1 1 0.5897 5.818820399662184 14.046743240485153 13.054901773470098 0 0 0
427 1 2 -1.1794 4.973158770513486 13.657362468360578 12.832511184797042 0 0 0
297 1 1 0.5897 8.23736287161353 14.451986109940492 13.758952040875512 0 0 0
428 1 1 0.5897 5.02867574119927 12.759674294240003 13.160137841716994 0 0 0
638 1 1 0.5897 0.6586824301181045 12.837948832780683 13.187621750736781 0 0 0
637 1 2 -1.1794 0.6121492332920001 13.673383971892294 12.722710501781794 0 0 0
604 1 2 -1.1794 2.9290290212673527 17.44204487236577 13.325818456829856 0 0 0
269 1 1 0.5897 7.400179625876426 17.29914710491169 12.541663472225306 0 0 0
605 1 1 0.5897 3.011743926901382 17.574435680955354 12.38141848934449 0 0 0
268 1 2 -1.1794 7.470070537870411 17.33891161046241 13.495490332396658 0 0 0
681 1 1 0.5897 5.180364319218448 12.133151104662499 16.905283522515205 0 0 0
825 1 1 0.5897 2.159490946162721 14.200175914621537 17.080130847198653 0 0 0
716 1 1 0.5897 2.631881870423669 17.6313220109569 19.532983778203686 0 0 0
446 1 1 0.5897 0.4648980967548312 12.057593827405428 17.63750590577024 0 0 0
823 1 2 -1.1794 2.748932180053816 14.87411098646623 16.741594000123122 0 0 0
583 1 2 -1.1794 2.690709115097047 17.494534396518 17.68064156987679 0 0 0
683 1 1 0.5897 5.807941409024422 14.42483155599598 20.924388844578743 0 0 0
610 1 2 -1.1794 6.902102086242983 17.4832757345975 17.99243668782158 0 0 0
664 1 2 -1.1794 2.655337053463354 15.051190901323563 21.6065236860126 0 0 0
316 1 2 -1.1794 7.4499651648144924 15.024763977623367 21.559027415484273 0 0 0
49 1 2 -1.1794 7.559585814323951 14.886198071551865 16.99014817502995 0 0 0
50 1 1 0.5897 7.456993969734942 15.712470545076364 17.462380209922223 0 0 0
665 1 1 0.5897 1.7825980419423362 14.764130103285718 21.337948141258302 0 0 0
318 1 1 0.5897 7.553388844784336 15.957266301756087 21.36925786983584 0 0 0
684 1 1 0.5897 4.296641754330501 14.420977263627016 21.012769359989207 0 0 0
52 1 2 -1.1794 0.4177336773238949 13.634818705748756 18.08003479835576 0 0 0
682 1 2 -1.1794 5.0226779482499175 14.151333739298192 20.45027214970795 0 0 0
124 1 2 -1.1794 5.162887659131332 13.840096152603111 17.628989453289535 0 0 0
53 1 1 0.5897 0.31014403812474856 13.651875751627516 19.031016956093666 0 0 0
666 1 1 0.5897 2.7834273068969777 15.885078732914211 21.154334052480742 0 0 0
824 1 1 0.5897 3.625634973643145 14.557362322067616 16.959013899330984 0 0 0
584 1 1 0.5897 2.5582181067297256 16.702354040496637 17.15991003790417 0 0 0
126 1 1 0.5897 6.002060953375509 14.225620241783302 17.377244835174686 0 0 0
51 1 1 0.5897 8.31420465314607 14.46603371823619 17.402796654576314 0 0 0
125 1 1 0.5897 5.1043702806081 13.987989639163885 18.572905906471952 0 0 0
451 1 2 -1.1794 0.28605860353127405 13.71160866346386 20.908576519479737 0 0 0
452 1 1 0.5897 0.3093292350242078 12.82035812449343 21.25701107796995 0 0 0
157 1 2 -1.1794 7.181029557461 17.62594488215148 20.93362129578812 0 0 0
715 1 2 -1.1794 2.531558720293219 17.61508196181549 20.484784987531363 0 0 0
362 1 1 0.5897 5.1623461206338535 12.26781876769287 21.0194549827852 0 0 0
159 1 1 0.5897 7.29412436556828 17.642579194763023 19.98326266935394 0 0 0
696 1 1 0.5897 1.6464687789654304 21.958539203446797 2.7319691275698044 0 0 0
266 1 1 0.5897 5.140916909911996 21.78395914673871 2.9215261039663334 0 0 0
267 1 1 0.5897 6.6453084134525255 21.812330582069436 3.0883632507824097 0 0 0
265 1 2 -1.1794 5.869988571362445 21.292174487479926 3.2994470498115196 0 0 0
228 1 1 0.5897 5.670549719359883 19.6482470890559 2.2671041449046636 0 0 0
226 1 2 -1.1794 5.627453523582545 18.71723840333631 2.048855357796961 0 0 0
818 1 1 0.5897 8.679804612393482 22.59515358466222 2.474407047221037 0 0 0
187 1 2 -1.1794 3.5593187846450416 22.81740700553575 2.2713177419450328 0 0 0
189 1 1 0.5897 3.242336579641914 22.85821069572733 1.3690238492113223 0 0 0
817 1 2 -1.1794 7.851515497157597 23.07485956441061 2.4811236859597217 0 0 0
249 1 1 0.5897 5.622566917432928 21.668577677422938 4.956878901623543 0 0 0
695 1 1 0.5897 0.7253103530219176 20.768969991045537 2.5636106646179706 0 0 0
694 1 2 -1.1794 0.7622614281776725 21.651517769149336 2.9324081048535042 0 0 0
344 1 1 0.5897 1.4178129354378248 18.576864101666565 2.3946115562741004 0 0 0
345 1 1 0.5897 0.4613568934713028 18.860721854217815 1.2559749350143856 0 0 0
227 1 1 0.5897 4.744820798727121 18.45099828947216 2.3063266628454815 0 0 0
413 1 1 0.5897 0.8291408966757202 21.376160960488136 4.782389496131648 0 0 0
498 1 1 0.5897 7.5576469553603856 23.00993487153975 0.6957488380922731 0 0 0
343 1 2 -1.1794 0.5902609130994538 19.01319902921901 2.1921226366955504 0 0 0
602 1 1 0.5897 4.991673698068627 18.903046117603402 0.06666700411631957 0 0 0
188 1 1 0.5897 3.3264915449780172 23.666871120863675 2.646102489651951 0 0 0
450 1 1 0.5897 7.106627412209237 17.808290828055462 2.1373829155185224 0 0 0
292 1 2 -1.1794 3.0462766121088953 17.79336080487773 2.8414507439492285 0 0 0
294 1 1 0.5897 3.134854070901434 17.869854223223747 3.791485759131765 0 0 0
31 1 2 -1.1794 7.9992287216771505 22.895558125723213 6.4220710904183935 0 0 0
342 1 1 0.5897 0.4956672140470504 18.51840923381541 7.492558716486994 0 0 0
412 1 2 -1.1794 1.155494795441771 21.298762788737832 5.678916702093053 0 0 0
387 1 1 0.5897 5.588445773065327 19.645311702335547 6.347189649528391 0 0 0
101 1 1 0.5897 6.165341002751736 18.60936002496375 9.909014540133617 0 0 0
248 1 1 0.5897 4.801671426932654 22.24999560718382 6.0882550478192545 0 0 0
309 1 1 0.5897 8.363770689495828 17.879019201967125 5.943169171392189 0 0 0
100 1 2 -1.1794 5.3225982544737205 18.919933247581945 9.577952191067071 0 0 0
240 1 1 0.5897 3.9177000557040706 17.854929459464508 6.070233786028445 0 0 0
340 1 2 -1.1794 0.5616477787202194 18.617966120134525 6.542831779987781 0 0 0
414 1 1 0.5897 1.121192188857873 20.36076481904246 5.866647067322248 0 0 0
700 1 2 -1.1794 3.281862837433997 22.94797950580447 6.420719204063942 0 0 0
33 1 1 0.5897 7.167563476136197 22.488792140062678 6.17898046018725 0 0 0
553 1 2 -1.1794 5.136276553640024 21.560805367299373 10.29402477149565 0 0 0
341 1 1 0.5897 1.3963393368848245 18.208032697706244 6.315973061569272 0 0 0
247 1 2 -1.1794 5.593377865157212 21.7421006317725 5.91085475776036 0 0 0
385 1 2 -1.1794 5.534079128650007 18.76040512069575 6.708080877699051 0 0 0
39 1 1 0.5897 3.688088949859593 22.274481526960052 9.578084819617473 0 0 0
386 1 1 0.5897 6.179582976243001 18.258279511606 6.210666562742173 0 0 0
32 1 1 0.5897 8.656015742704868 22.2212806465512 6.248234284726054 0 0 0
403 1 2 -1.1794 0.6422726373909416 18.864343844640977 9.433402691491278 0 0 0
554 1 1 0.5897 5.767451321365035 22.04526209122492 9.761906160925081 0 0 0
94 1 2 -1.1794 0.7543578095919204 21.405877817537323 10.393661983820042 0 0 0
85 1 2 -1.1794 7.7863049155131545 22.86834556459035 9.057889412902808 0 0 0
37 1 2 -1.1794 2.9575565558847345 22.55915811296346 9.028995228421184 0 0 0
405 1 1 0.5897 0.6098329314975407 19.814475008086575 9.545073733715338 0 0 0
86 1 1 0.5897 7.889809298193026 22.742414164260268 8.114667860098951 0 0 0
702 1 1 0.5897 2.6170160597075895 22.333684006605665 6.109473372620942 0 0 0
404 1 1 0.5897 1.446710346122786 18.59772337299885 9.878390544264764 0 0 0
38 1 1 0.5897 2.1782259826144923 22.38269733469469 9.556037390489857 0 0 0
87 1 1 0.5897 8.587140081175134 22.50676462739772 9.437609425650344 0 0 0
102 1 1 0.5897 5.387779270722235 18.82377972612842 8.627808633016937 0 0 0
555 1 1 0.5897 5.262127639720654 20.645944994379384 10.042119587166356 0 0 0
701 1 1 0.5897 3.248922862332331 22.874322974412692 7.374533943957763 0 0 0
383 1 1 0.5897 3.834562737789532 18.310295483821832 10.179953321331169 0 0 0
382 1 2 -1.1794 3.0224966279685326 17.951871528216003 10.53819807232803 0 0 0
95 1 1 0.5897 -0.06627195088182544 21.87447686569851 10.2413086359751 1 0 0
185 1 1 0.5897 8.26625226361583 17.91296901313902 10.495452153294027 0 0 0
381 1 1 0.5897 1.520640945026215 21.717936563637807 13.494603971514882 0 0 0
738 1 1 0.5897 3.70954080500331 22.143413384569207 13.813222706360238 0 0 0
789 1 1 0.5897 6.834606525008275 22.037739159413448 13.571902172799014 0 0 0
90 1 1 0.5897 5.334608120373078 20.41235862095865 13.256788267476196 0 0 0
89 1 1 0.5897 4.9516185622420075 21.28029276610149 12.076898116379468 0 0 0
88 1 2 -1.1794 5.096078656448692 21.309369214895092 13.022714332030066 0 0 0
763 1 2 -1.1794 5.292718725932356 18.986893233494712 14.11535380467004 0 0 0
474 1 1 0.5897 5.356407289664127 19.216393702659637 16.21111035765872 0 0 0
788 1 1 0.5897 7.4740814753821265 22.254127599847877 14.92695939615151 0 0 0
736 1 2 -1.1794 2.9681023156367403 22.686593334905872 14.080585832706124 0 0 0