#include		in.partitions
include		in.temp
variable        temperature equal 277.11
variable	tempDamp equal 100.0
include		in.pressure
variable        pressure equal -2875.0
variable        pressureDamp equal 1000.0 # This is 1 ps
include		in.seed
variable        seed equal 745823

units		real
atom_style	full
#include		in.box
read_restart	restart.lmp.${pid}
read_restart	restart.lmp.0
Reading restart file ...
  restart file = 30 Jul 2021, LAMMPS = 30 Jul 2021
  restoring atom style full from restart
  orthogonal box = (-0.066441906 -0.33148726 -0.024604847) to (18.274014 23.960665 22.237801)
  2 by 4 by 2 MPI processor grid
  restoring pair style lj/cut/tip4p/long/omp from restart
  restoring bond style harmonic/omp from restart
  restoring angle style harmonic/omp from restart
  864 atoms
  576 bonds
  288 angles
Finding 1-2 1-3 1-4 neighbors ...
  special bond factors lj:    0        0        0       
  special bond factors coul:  0        0        0       
     2 = max # of 1-2 neighbors
     1 = max # of 1-3 neighbors
     1 = max # of 1-4 neighbors
     2 = max # of special neighbors
  special bonds CPU = 0.001 seconds
  read_restart CPU = 0.005 seconds
include 	in.setup
variable	out_freq equal 1000
variable	out_freq2 equal 10000
variable	out_freq3 equal 1000

timestep	2.0

neigh_modify    delay 7 every 1

include		in.tip4p
# This is TIP4P/Ice

# create groups ###
group ox type 2
288 atoms in group ox
group hy type 1
576 atoms in group hy

# set charges - beside manually ###
set group ox charge -1.1794
Setting atom values ...
  288 settings made for charge
set group hy charge 0.5897
Setting atom values ...
  576 settings made for charge

# ### TIP3P Potential Parameters ###
pair_style lj/cut/tip4p/long/omp 2 1 1 1 0.1577 8.5
pair_coeff 1 1*2 0.000 0.000
pair_coeff 2 2 0.21084 3.1668
bond_style  harmonic
bond_coeff  1 450 0.9572
angle_style harmonic
angle_coeff 1 55 104.52
kspace_style pppm/tip4p/omp 1.0e-5
pair_modify tail yes

thermo          ${out_freq}
thermo          1000
thermo_style    custom step temp pe etotal epair emol press lx ly lz vol pxx pyy pzz pxy pxz pyz enthalpy

restart 	${out_freq3} restart.lmp.${pid} restart2.lmp.${pid}
restart 	1000 restart.lmp.${pid} restart2.lmp.${pid}
restart 	1000 restart.lmp.0 restart2.lmp.${pid}
restart 	1000 restart.lmp.0 restart2.lmp.0


include         in.dump
dump            myDump all atom ${out_freq2} dump.water.${pid}
dump            myDump all atom 10000 dump.water.${pid}
dump            myDump all atom 10000 dump.water.0
dump            myDump2 all dcd ${out_freq2} dump.dcd
dump            myDump2 all dcd 10000 dump.dcd
dump_modify     myDump append yes
dump_modify     myDump2 append yes


variable natoms 	equal  "count(all)"                        # NUMBER ATOMS
variable H      	equal  "enthalpy/v_natoms"                 # ENTHALPY-per-atom
variable Vol      	equal  "vol/v_natoms"                 # volume-per-atom
fix AVG all 		ave/time ${out_freq} 1 ${out_freq} v_Vol v_H file vol_enthalpy.dat
fix AVG all 		ave/time 1000 1 ${out_freq} v_Vol v_H file vol_enthalpy.dat
fix AVG all 		ave/time 1000 1 1000 v_Vol v_H file vol_enthalpy.dat


timer           timeout 23:50:00 every 1000
New timer settings: style=normal  mode=nosync  timeout=23:50:00

fix 		1 all shake 1e-6 200 0 b 1 a 1
       0 = # of size 2 clusters
       0 = # of size 3 clusters
       0 = # of size 4 clusters
     288 = # of frozen angles
  find clusters CPU = 0.000 seconds
fix             2 all nph aniso ${pressure} ${pressure} ${pressureDamp}
fix             2 all nph aniso -2875 ${pressure} ${pressureDamp}
fix             2 all nph aniso -2875 -2875 ${pressureDamp}
fix             2 all nph aniso -2875 -2875 1000
fix             3 all temp/csvr ${temperature} ${temperature} ${tempDamp} ${seed}
fix             3 all temp/csvr 277.11 ${temperature} ${tempDamp} ${seed}
fix             3 all temp/csvr 277.11 277.11 ${tempDamp} ${seed}
fix             3 all temp/csvr 277.11 277.11 100 ${seed}
fix             3 all temp/csvr 277.11 277.11 100 745823


run             250000
PPPM initialization ...
  extracting TIP4P info from pair style
  using 12-bit tables for long-range coulomb (../kspace.cpp:340)
  G vector (1/distance) = 0.36985382
  grid = 24 27 25
  stencil order = 5
  estimated absolute RMS force accuracy = 0.0033734269
  estimated relative force accuracy = 1.0158975e-05
  using double precision FFTW3
  3d grid and FFT values/proc = 6300 1296
Last active /omp style is kspace_style pppm/tip4p/omp
Neighbor list info ...
  update every 1 steps, delay 7 steps, check yes
  max neighbors/atom: 2000, page size: 100000
  master list distance cutoff = 10.8154
  ghost atom cutoff = 10.8154
  binsize = 5.4077, bins = 4 5 5
  1 neighbor lists, perpetual/occasional/extra = 1 0 0
  (1) pair lj/cut/tip4p/long/omp, perpetual
      attributes: half, newton on, omp
      pair build: half/bin/newton/omp
      stencil: half/bin/3d
      bin: standard
Per MPI rank memory allocation (min/avg/max) = 12.24 | 12.27 | 12.30 Mbytes
Step Temp PotEng TotEng E_pair E_mol Press Lx Ly Lz Volume Pxx Pyy Pzz Pxy Pxz Pyz Enthalpy 
11500000    288.45616   -4130.9388   -3636.5348   -4130.9388            0   -4315.7531    18.340456    24.292152    22.262405    9918.5507   -3904.6809   -3963.6704   -5078.9081   -99.995998    176.90541    92.564486   -4260.8166 
11501000    274.11964    -4148.933   -3679.1013    -4148.933            0   -2618.5619    18.365394    23.637732    22.619696    9819.5781   -3088.5226   -1778.6386   -2988.5245   -389.29427    94.857146   -165.63058   -4054.1015 
11502000    276.56108   -4151.2929   -3677.2767   -4151.2929            0   -4189.4943    18.703625    23.693336    22.291385    9878.4552   -4379.3062   -4926.9663   -3262.2104   -87.931466   -200.27314    254.45664   -4280.8452 
11503000    283.02438   -4165.8636   -3680.7695   -4165.8636            0   -2656.4428    18.333665    23.804344    22.582366    9855.4156   -2581.5473   -2672.2163   -2715.5646    -300.7321    101.00585    912.61155    -4062.583 
11504000    258.84427   -4170.7947   -3727.1445   -4170.7947            0   -2026.5234    18.018031    24.136788      22.3775    9731.9165    -1846.142   -2843.7821   -1389.6462    445.15885    -410.3639   -222.38353    -4014.769 
11505000    267.13599   -4122.5256   -3664.6637   -4122.5256            0   -2674.9214    18.388651    23.824393    22.292906    9766.4876   -3206.7856   -3686.6606   -1131.3181   -170.47965   -327.10957    769.71485    -4045.664 
11506000    277.21979   -4142.3427   -3667.1975   -4142.3427            0   -1751.9813    18.326979    23.630856    22.444891    9720.4829   -2589.0682   -2348.6961   -318.17952    -100.9518    363.35339    515.06235   -3915.5641 
11507000    284.88232   -4172.5554   -3684.2768   -4172.5554            0   -1959.3004    18.378303    23.773241    22.274065    9731.8027   -1989.3542   -2564.5234   -1324.0235   -340.80164   -554.91085   -521.70742   -3962.3571 
11508000     272.1313   -4139.8686   -3673.4449   -4139.8686            0   -2575.5264    18.183868    23.891195    22.431028     9744.809   -1893.2364   -2980.7566   -2852.5863   -153.53441   -116.80841   -181.54901   -4039.4737 
11509000    285.66887   -4146.2708   -3656.6442   -4146.2708            0   -1604.5903    18.227323    23.881239    22.346676    9727.3081    -1315.882   -1770.9244   -1726.9644   -37.107166    715.34372    155.24865   -3884.2759 
11510000    284.20549   -4161.1128   -3673.9944   -4161.1128            0   -2309.4842     18.39171    23.734286    22.346341    9754.4933   -2330.9628   -2044.1639   -2553.3258    263.44285    254.33153     446.5538   -4002.5399 
11511000    274.06969   -4159.8861     -3690.14   -4159.8861            0   -865.99863    18.329297    23.506445    22.438295     9667.688   -1920.9738    -403.8939   -273.12818    1159.0571   -430.62888    407.41527     -3812.24 
11512000    288.62271   -4129.0887   -3634.3992   -4129.0887            0     -2315.47    18.289678    23.911346    22.328691    9765.0249   -3063.6042   -1844.0113   -2038.7945    278.36043    224.20464   -368.43952    -3964.152 
11513000    270.49365   -4109.3518   -3645.7349   -4109.3518            0   -2680.1197     18.15318    24.088443    22.505391    9841.1988   -2856.8534   -2311.5816   -2871.9241   -1390.0303    241.22371   -173.71492   -4030.3959 
11514000    274.50545   -4185.1338   -3714.6409   -4185.1338            0   -3117.8102    18.427259    23.744479    22.419633    9809.6133   -3684.3559   -2494.7271   -3174.3477   -632.88846   -469.70799    619.61156   -4160.6846 
11515000    284.70792   -4162.9945   -3675.0148   -4162.9945            0   -3658.0947     18.45972    23.747601    22.575089    9896.3338   -4763.3633   -3338.6214   -2872.2995   -331.35776   -396.39859   -37.355132   -4202.9799 
11516000    282.93636   -4152.3082   -3667.3649   -4152.3082            0   -3406.5175    18.494387    24.012739    22.258636    9885.0805   -4488.8888   -3520.3058    -2210.358    109.86933    456.37692    335.56552   -4158.4613 
11517000    275.82072   -4150.7126   -3677.9653   -4150.7126            0   -2796.8298      18.2834    23.858165    22.475749    9804.1102   -2498.4797   -3504.0595     -2387.95   -394.87529   -590.61986    304.65343   -4077.8641 
11518000    263.42857   -4164.0585   -3712.5509   -4164.0585            0   -2351.9276    18.291097    23.780846    22.440146    9760.9641   -1647.2755   -1641.5521   -3766.9552    150.01783     -761.999   -103.07126   -4047.3564 
11519000    284.09924   -4173.7097   -3686.7733   -4173.7097            0   -1024.6729    18.300811    23.803234    22.294431    9711.8664   -453.49135   -1077.7062    -1542.821    219.16568   -868.41726   -285.08591   -3831.9055 
11520000    273.71048   -4180.3094    -3711.179   -4180.3094            0   -2888.1139    18.367098    23.721702    22.466679    9788.7054   -3268.4654   -3755.2258   -1640.6507    138.16467   -379.30041   -135.46714    -4123.481 
11521000    273.86334   -4159.3182   -3689.9258   -4159.3182            0   -4362.8537      18.4911    24.025852    22.391122    9947.5793   -4745.9263   -4142.0944   -4200.5405   -1364.6285   -666.78989   -454.75082   -4322.8679 
11522000    273.47447   -4126.0989    -3657.373   -4126.0989            0   -4089.2347    18.298162    23.892774    22.605597    9883.0282    -2397.166   -4066.6582     -5803.88    162.87929    79.940077    489.42563   -4246.7701 
11523000     267.4577   -4159.6375   -3701.2242   -4159.6375            0   -3108.5168    18.351309    23.889489    22.420504     9829.225   -3845.2581   -3353.7191   -2126.5731     -142.237   -833.92103    33.631483   -4146.8274 
11524000    293.62709   -4119.1948   -3615.9281   -4119.1948            0   -2961.6889    18.502356    23.720043    22.379993    9822.0571   -3285.5316   -3083.7022   -2515.8328   -694.70153   -384.13642    243.86356   -4040.1741 
11525000    279.18052   -4153.0964   -3674.5906   -4153.0964            0   -2638.2644    18.443213    23.443843    22.624775    9782.4953   -1552.7383   -2766.1426   -3595.9123   -766.21702   -417.14638    286.68832   -4050.9856 
11526000    295.39259   -4153.3125   -3647.0197   -4153.3125            0   -2264.5209    18.306789    24.024628    22.339661    9825.2912   -1650.9109   -3221.3012   -1921.3506    291.57994    108.18698   -137.30029    -3971.507 
11527000    284.97275   -4144.1866   -3655.7531   -4144.1866            0   -1683.4408    18.146169    23.956824    22.441672     9755.946   -4.0320777   -3204.6519   -1841.6385   -194.27595    38.287145   -253.39139   -3895.2739 
11528000    286.06395    -4188.808   -3698.5042    -4188.808            0   -3394.2914    18.462688    23.734085    22.409861    9819.8895   -4935.7389   -3167.8385   -2079.2968    10.676082   -158.06685    111.22702   -4184.6109 
11529000    266.83033   -4172.1255   -3714.7874   -4172.1255            0   -2813.5596    18.497803    23.813522    22.183641    9771.8455   -4061.2925   -1428.8603    -2950.526   -299.80425   -134.64877    897.66519   -4115.7544 
11530000    299.03742   -4169.5934   -3657.0535   -4169.5934            0   -2078.8379    18.125377    23.949711    22.488692    9762.2862   -139.66834   -3455.5916   -2641.2537   -229.72736    605.62417    9.9966396   -3953.0237 
11531000    302.11769   -4159.5018   -3641.6824   -4159.5018            0   -3596.3078     18.36559    24.062931    22.303037    9856.3797    -3614.665   -4422.2508   -2752.0077    287.22872    265.01625    595.05745   -4158.6344 
11532000    275.48216   -4134.1378   -3661.9708   -4134.1378            0    -3478.068     18.46143    23.674588    22.674102    9910.0958    -3605.666   -2817.6548   -4010.8831    381.60277    124.97959    778.17276    -4164.651 
11533000    277.29181   -4145.6284   -3670.3597   -4145.6284            0   -2937.2994    18.626187    23.705783    22.256452    9827.2998   -3968.9701   -2195.6954   -2647.2327    436.14028    314.55499    176.56418   -4091.3367 
11534000    264.27853   -4172.1733    -3719.209   -4172.1733            0    -1289.214    18.246773    23.603938    22.369769    9634.5632    262.00066    25.101958   -4154.7447   -156.25531   -633.17942     927.8701   -3900.3567 
11535000     262.2093   -4186.5813   -3737.1635   -4186.5813            0   -2060.6718    18.166705    23.806091    22.393046    9684.5048   -3429.4898   -1263.7946   -1488.7308   -128.65074   -1401.3093     498.6125   -4028.2098 
11536000    271.38837   -4178.4072   -3713.2569   -4178.4072            0   -1365.0653    18.377858    23.861756    22.080771    9683.0353   -1126.8051   -1186.8418    -1781.549   -43.297225    754.98201    198.74596   -3906.0275 
11537000    283.35788   -4161.3097   -3675.6439   -4161.3097            0   -3405.8647    18.449393    23.667578    22.534022    9839.5357   -1872.0078   -4245.7759   -4099.8102    351.07884    -266.2102   -143.85738   -4164.3839 
11538000     265.7394   -4127.0715   -3671.6033   -4127.0715            0   -4309.5787    18.491191    23.869131    22.461718    9913.8983   -2878.2999   -5745.2027   -4305.2336   -1269.7509   -51.669706     402.2495   -4294.6996 
11539000    284.09673    -4165.616   -3678.6839    -4165.616            0   -2576.7655    18.213207    24.012721     22.48163    9832.3108   -2937.2548   -3349.9838   -1443.0578   -1127.3034   -764.65898    424.82023   -4048.1771 
11540000    267.77376   -4150.8246   -3691.8695   -4150.8246            0   -2695.3687    18.283263    24.014908     22.40921    9839.2312   -1771.1084   -3163.2278   -3151.7698   -138.26609    208.19215    701.95101   -4078.6417 
11541000    273.17286   -4150.9507   -3682.7417   -4150.9507            0   -3028.2428    18.466962    23.679941    22.466867    9824.6834   -3342.1819   -2679.3758   -3063.1707   -1157.7349   -502.53597    -181.7788   -4116.6372 
11542000    271.24272   -4162.4092   -3697.5085   -4162.4092            0   -1973.3128    18.454181    23.619374    22.430453    9776.9011   -2615.6154   -636.15423   -2668.1688    403.09252    59.680413    -223.5597   -3978.8754 
11543000    290.93762   -4169.4616   -3670.8044   -4169.4616            0   -2591.9822    18.153057    24.061926    22.455466    9808.4916   -1429.5034   -2213.9674   -4132.4759   -902.57068    56.578497    226.80963   -4041.5792 
11544000    274.75733   -4152.7961   -3681.8715   -4152.7961            0   -2512.3603     18.27294     23.95694    22.255405    9742.6091   -2887.8442   -2532.5445   -2116.6921   -566.05931   -340.91539    333.48085   -4038.8426 
11545000    255.36032   -4178.8327   -3741.1538   -4178.8327            0   -3202.6194    18.411484    23.608268    22.459037    9762.1177   -3346.2065   -3453.5693   -2808.0824   -21.411131    21.544756    221.16968   -4197.1123 
11546000    296.35568   -4173.2494   -3665.3059   -4173.2494            0   -3032.2834     18.45212    23.861518    22.352539    9841.7245   -3856.8221   -3448.4361   -1791.5919   -501.63422    -253.0684   -477.72876   -4100.5339 
11547000     279.7715   -4181.2154   -3701.6967   -4181.2154            0   -3913.8808    18.275954    24.063808    22.351126    9829.7802   -3712.9172   -4312.4027   -3716.3224   -111.47083   -475.31297     25.69786   -4262.7799 
11548000    281.83679   -4156.6473   -3673.5887   -4156.6473            0    -2609.848    18.113711    23.955803      22.5763    9796.5002   -2866.8097   -4120.8473   -841.88705    51.622396   -199.37847    730.36877   -4046.4627 
11549000    287.76918   -4159.4535    -3666.227   -4159.4535            0   -2905.7636    18.492343    23.700984    22.373148    9805.8539   -2717.8575   -3143.9869   -2855.4465     1018.655   -29.503115   -825.45729   -4081.7753 
11550000    280.07972   -4181.8329   -3701.7858   -4181.8329            0   -2144.7359    18.339799    23.463501    22.619024    9733.3251   -2080.2285   -1701.1359   -2652.8431    -430.7923    98.291214   -554.38001   -4006.2323 
11551000    278.78716   -4126.9168   -3649.0852   -4126.9168            0   -3188.5385     18.21865     24.10169    22.451484    9858.4528   -1658.5492   -3874.2051   -4032.8613   -207.78134    201.58152    -278.4171   -4107.5186 
11552000    272.04059   -4149.4391   -3683.1708   -4149.4391            0   -3101.4186    18.426375    23.954761    22.366752    9872.6707   -2723.7983   -3323.7414   -3256.7162    491.48252    650.16897   -1136.3637   -4129.7217 
11553000    282.11349   -4178.7389    -3695.206   -4178.7389            0    -3050.084    18.460415     23.66185    22.547447    9848.8958   -2163.6736    -3851.707   -3134.8715   -108.73612   -129.66883    767.11594    -4133.308 
11554000     274.1488   -4127.1819   -3657.3003   -4127.1819            0    -2984.445    18.493863    24.003213    22.232398    9869.2309   -3416.4922   -3072.8114   -2464.0315   -291.47759     534.4405   -373.05816   -4086.8592 
11555000    255.91745   -4117.3807    -3678.747   -4117.3807            0   -3697.8782    18.239167    24.059362    22.540027    9891.0763   -3251.3486   -4152.9907   -3689.2954    421.62463    73.258354    955.43839   -4212.1704 
11556000    285.98757   -4122.1745   -3632.0016   -4122.1745            0   -3116.8747    18.285111    23.979841    22.596936      9908.17   -2622.7429   -2495.1989   -4232.6823   -213.74419    280.99873    242.34319   -4082.3916 
11557000     281.9759   -4162.3149   -3679.0178   -4162.3149            0   -3803.5835    18.551996     23.78165    22.533933    9941.9055   -4201.4752   -3201.3961   -4007.8793   -289.62664  -0.36173304    327.86959   -4230.5089 
11558000    273.07094   -4136.2075   -3668.1732   -4136.2075            0   -3982.9764    18.459895    24.000211    22.472388    9956.1974   -3941.2434   -3852.5167   -4155.1691   -775.49575   -468.96059    455.68438   -4246.5051 
11559000    272.24635   -4138.2373   -3671.6164   -4138.2373            0   -1939.3412    18.130894    23.834861    22.669358    9796.5024   -278.68471   -1871.4594   -3667.8795   -366.22781    494.85961    547.06233   -3948.6938 
11560000    276.19972   -4204.1099    -3730.713   -4204.1099            0   -3253.9307    18.373178    23.815354    22.275202    9746.8208   -3370.8191   -3630.0543   -2760.9187    747.98863    -203.0162      135.594   -4193.2507 
11561000    274.75272   -4151.9578    -3681.041   -4151.9578            0   -3628.6644    18.444027    23.863909    22.515776    9910.2418   -3391.7592   -3348.3886   -4145.8455    211.61904    186.06647   -947.41884   -4205.4945 
11562000    277.90594   -4135.2828   -3658.9615   -4135.2828            0   -3988.3472    18.269034    23.920837    22.736188    9935.9552   -3161.2356   -3500.3684   -5303.4377    247.71682   -209.03582   -270.74757   -4236.8958 
11563000    300.29428   -4155.7472    -3641.053   -4155.7472            0   -2316.4608    18.468162     23.96844    22.232851    9841.4388   -4764.9494   -1905.9558   -278.47716    92.516118   -477.34691   -283.34037   -3973.5284 
11564000    275.56575   -4159.1875   -3686.8772   -4159.1875            0   -2593.6537    18.330579    23.585159    22.625104    9781.5026   -1730.3957   -1919.6598   -4130.9056   -1268.8866   -357.91202     -22.0905   -4056.8701 
11565000    276.84953   -4194.5744   -3720.0638   -4194.5744            0   -2435.6729    18.444622     23.78065    22.315321    9788.0597   -2617.8018   -2203.1205   -2486.0965   -788.74883   -361.64361    28.900316   -4067.7532 
11566000    283.68404   -4137.3203   -3651.0956   -4137.3203            0   -2949.5568    18.374333    23.912626    22.515148    9892.6734   -3236.0392   -4065.3057   -1547.3256    279.30604    147.17301   -255.99154   -4076.6414 
11567000    260.85473   -4172.8875   -3725.7915   -4172.8875            0   -4652.3607    18.358933    24.073365    22.356714    9880.8022   -4912.2503   -5043.4281   -4001.4035    188.88585   -299.74548   -455.08091    -4396.203 
11568000    270.72383   -4151.4277   -3687.4163   -4151.4277            0   -2756.8239    18.369869    23.840708    22.423173    9820.2437   -2769.8947   -3306.1069   -2194.4701    679.88784    178.81785    206.72777   -4082.2436 
11569000    260.22486   -4179.1416   -3733.1251   -4179.1416            0   -3238.7742    18.170092    23.679055    22.740699    9784.1993   -3590.4476    -2304.909   -3820.9661   -1146.0475   -374.94387    1105.3822   -4195.2739 
11570000     286.1277   -4168.8003   -3678.3872   -4168.8003            0   -3322.7705    18.366333    23.885949    22.323109    9793.0873   -2624.2215   -4008.4135   -3335.6766   -525.34117    598.17671   -610.92038   -4152.9524 
11571000    273.01238   -4153.7433   -3685.8094   -4153.7433            0   -3283.7747    18.279005    23.626263    22.695001    9801.1671   -2882.7661   -3893.8208   -3074.7372   -704.45343   -395.11906   -342.38651   -4155.1921 
11572000     293.1934   -4113.5005   -3610.9771   -4113.5005            0   -2432.2301     18.44527     24.06873    22.133903    9826.4396   -2223.3977   -2364.4206    -2708.872   -984.10717   -317.03207    445.37576   -3959.5364 
11573000    267.06853   -4175.7894   -3718.0431   -4175.7894            0   -2957.8091    18.190837    23.811845    22.582735    9781.8787   -1989.1829   -3429.2582   -3454.9862   -74.996384   -304.94915   -171.86398   -4140.0002 
11574000    274.54065   -4162.1204   -3691.5671   -4162.1204            0   -2083.2829    18.396692    23.823882     22.26394    9757.8533   -2846.1284   -1457.4392   -1946.2813    18.478514   -239.14993   -725.76409   -3988.0356 
11575000    273.55756   -4158.5672   -3689.6989   -4158.5672            0   -2003.1429    18.390352    23.768204     22.37993    9782.3936    -2728.518   -931.23189   -2349.6787    27.964715    110.04275   -265.59725   -3975.4797 
11576000    280.37207   -4180.5589   -3700.0108   -4180.5589            0   -2547.3066    18.229224    23.936025    22.347368     9750.943   -2144.9975   -3353.6965   -2143.2258   -1034.0569   -155.56089    -299.2087   -4062.2569 
11577000    271.44449   -4185.7465   -3720.4999   -4185.7465            0   -3155.8244    18.416194    23.835632    22.338419    9805.7083   -3832.3076   -3252.2123   -2382.9533   -69.079473   -581.13786     192.5823   -4171.8024 
11578000    298.46774   -4144.3481   -3632.7846   -4144.3481            0   -2742.0722    18.486775    23.447633    22.729344    9852.5138    -2705.517   -2914.2378   -2606.4617   -1446.0578    -786.6624    511.61125   -4026.7897 
11579000    272.09414   -4171.7743   -3705.4142   -4171.7743            0   -2103.1614    18.365989    23.877075    22.150114    9713.4035   -2678.4776   -2950.6901   -680.31644   -942.47659    166.36181   -239.75874   -4003.3481 
11580000    294.65778   -4138.7053   -3633.6719   -4138.7053            0   -2630.4213    18.186363    23.969999    22.585834    9845.7773   -1807.7145   -4436.0286    -1647.521    161.19345    295.52656    104.50141   -4011.3756 
11581000     284.6458   -4169.3054   -3681.4322   -4169.3054            0     -3012.75    18.356327    23.846612    22.447811    9826.2198   -2074.8848   -3938.1644   -3025.2007    761.80483    54.932567    420.84367   -4113.1754 
11582000    261.94597    -4159.424   -3710.4576    -4159.424            0   -3849.4201    18.526134    23.951784    22.231717    9864.9682   -5248.8959   -4285.6756    -2013.689   -21.772208    316.54776   -223.10718   -4264.2754 
11583000    275.93858   -4174.8928   -3701.9435   -4174.8928            0   -3362.1003    18.185799    23.673869    22.766045    9801.4252   -2053.8471   -2621.2229   -5411.2311     98.21677   -183.61789   -682.37588   -4182.5347 
11584000    285.09909    -4125.894    -3637.244    -4125.894            0    -3054.958    18.415513    24.240571    22.125711    9876.9741   -3232.7604    -4188.711   -1743.4026     259.3162    76.916899    319.61287    -4077.297 
11585000    276.47561   -4161.6167   -3687.7469   -4161.6167            0   -2467.8042     18.29278    23.746011    22.510798    9778.2528   -1253.2628    -1730.365   -4419.7848    62.414031    18.506955   -49.876429   -4039.6701 
11586000    273.47935   -4155.1129   -3686.3786   -4155.1129            0   -1613.9755    18.502658    23.600513     22.27261    9725.8295   -3116.3893   -2195.7998    470.26257   -180.19184     831.0088    248.00931   -3915.3069 
11587000    261.62972   -4164.6721   -3716.2477   -4164.6721            0   -1671.2699    18.269765    23.679584    22.410676    9695.3163   -1555.0701   -2550.0119   -908.72776   -7.5328534    51.244071    127.23732    -3952.559 
11588000    283.03957   -4142.4745   -3657.3544   -4142.4745            0   -2396.6347    18.243998    23.882049    22.409345    9763.8427   -3560.1033   -1974.0592   -1655.7415    325.95908   -243.22971    458.11207   -3998.6247 
11589000     264.4855    -4184.704   -3731.3849    -4184.704            0    -2947.813    18.455442    23.908783    22.192827     9792.522   -2729.1834   -3591.2635   -2522.9921    81.981159    274.39513    473.07442   -4152.3736 
11590000    280.33198   -4157.9608   -3677.4814   -4157.9608            0   -2544.3939    18.483523     23.46335    22.581244    9793.1552    -3268.682   -1838.7644   -2525.7352   -222.25073   -310.02586    176.03539   -4040.8797 
11591000    270.46504    -4182.954   -3719.3861    -4182.954            0   -2768.4282    18.268111    24.028705    22.240767    9762.7857    -1626.681   -3651.9364   -3026.6671   -1110.0793    488.10702    157.99578   -4113.5555 
11592000    294.49064   -4178.2792   -3673.5323   -4178.2792            0   -1193.7073    18.205304    23.620582     22.50347    9676.9397   -611.33902    253.13395   -3222.9169   -328.27605   -113.62222    315.44744   -3841.9981 
11593000    252.75879   -4146.3904   -3713.1705   -4146.3904            0   -2703.0947    18.539466    23.644829    22.317571    9783.1861   -3081.8465   -1614.2971   -3413.1405   -5.7316573    -347.4369   -520.38524   -4098.8419 
11594000     279.4244   -4165.2558    -3686.332   -4165.2558            0   -3120.5043    18.266103     23.59145    22.647034    9759.1475   -3045.4432   -2489.7169   -3826.3526    360.93811   -542.23712    72.401923   -4130.4645 
11595000    272.15978   -4177.4385   -3710.9659   -4177.4385            0   -2449.1702    18.267221    23.938125      22.2722    9739.2552   -2509.4773   -2984.9203    -1853.113   -233.81608    -544.2719    329.85336   -4058.8388 
11596000    284.43171   -4162.2226   -3674.7164   -4162.2226            0     -1429.37    18.325282    23.758896    22.364571    9737.2765   -1336.4637     223.9899   -3175.6363    120.68116   -880.22832    204.36817   -3877.6987 
11597000    279.89856   -4151.5878   -3671.8513   -4151.5878            0   -2076.2481    18.539854    23.563548    22.409072    9789.7335   -2533.4897   -2889.8297   -805.42484    -1220.731   -657.84545    68.848279   -3968.2839 
11598000    262.07937   -4168.7164   -3719.5213   -4168.7164            0   -2810.3666    18.276562    23.799709    22.473067    9775.2642   -2279.3567   -2124.9122   -4026.8308   -2040.0244    44.353103   -218.99193   -4120.1733 
11599000    271.49743   -4145.1631   -3679.8258   -4145.1631            0   -2001.5788     18.20182    23.922062    22.374096    9742.2423   -1049.2708   -2917.7593   -2037.7063     -657.648    88.885751    317.45122   -3964.2113 
11600000    278.60715   -4192.5121    -3714.989   -4192.5121            0   -1465.6462    18.337631    23.571123    22.357562    9663.7998   -2169.7965   -3207.4127     980.2706   -1348.3895    163.17647    958.21398   -3921.5522 
11601000    266.43001   -4186.2348   -3729.5829   -4186.2348            0   -2458.9514    18.387556    23.538357     22.39404    9692.4283   -2360.2454   -3178.3937   -1838.2152   -345.86389   -321.58854   -85.950147   -4077.1658 
11602000    285.53947   -4152.4787   -3663.0738   -4152.4787            0   -1491.7191    18.475222    23.789393    22.133002    9727.7712   -1108.6927   -2634.5435   -731.92111    606.10759    -587.4635    3.1280669   -3874.7034 
11603000    287.58532   -4165.2056   -3672.2942   -4165.2056            0   -2808.1931    18.161759    23.991926    22.456465    9785.0807   -2643.5226   -2959.8064   -2821.2502    295.43457   -723.74533    475.69922   -4073.0384 
11604000    277.21852   -4161.2731   -3686.1301   -4161.2731            0   -2914.2881    18.336516    23.850073    22.398319    9795.3951   -3337.6888   -1530.9848   -3874.1906   -406.08867    157.63786   -320.60469    -4102.453 
11605000    279.27219   -4138.1885   -3659.5255   -4138.1885            0   -2802.9526     18.65138     23.64668    22.315454    9842.0796   -4210.6402   -2519.9689   -1678.2487   -267.18618   -71.808868    693.99714   -4061.8519 
11606000    264.35638   -4164.7472   -3711.6494   -4164.7472            0   -3479.3537    18.295827    23.877578    22.568225    9859.1554   -3354.2545   -2660.1621   -4423.6445    216.97765    465.98301     502.2456   -4211.9306 
11607000    261.06927   -4151.2579   -3703.7941   -4151.2579            0   -3598.8328    18.250496    24.317401    22.216362    9859.7244   -3305.3498   -5449.0606   -2042.0881   -552.41826    -116.2132   -343.54479   -4221.2845 
11608000    276.88105   -4154.8013   -3680.2367   -4154.8013            0   -4106.3488    18.397766     23.84378    22.533254    9884.7141   -4067.6239     -2979.08   -5272.3426    304.40516    602.76777    248.25565   -4272.2014 
11609000    285.66239   -4185.5864   -3695.9708   -4185.5864            0   -4139.8826    18.587147    23.551942    22.472495    9837.6362   -4619.5604   -3350.9601   -4449.1273   -1038.9424   -719.09762   -70.414239   -4289.9274 
11610000    277.79398   -4168.1592   -3692.0298   -4168.1592            0   -3352.1297    18.444248    23.822897    22.323175     9808.701   -3844.7303   -1926.2351   -4285.4237    645.38399     -67.3241   -213.35696   -4171.5514 
11611000     281.7832   -4158.8274   -3675.8606   -4158.8274            0   -3661.6216    18.102007    24.010209    22.611252    9827.5958   -2384.9684   -4495.4939   -4104.4025    170.04476   -10.934885    -53.72266    -4200.664 
11612000    275.46914   -4164.9062   -3692.7615   -4164.9062            0   -2169.8106    18.393147    23.855933    22.270436    9771.9484   -2621.9514   -1974.1362   -1913.3443    19.389966    1354.7211    221.70091   -4001.9895 
11613000     272.2301   -4162.0339   -3695.4408   -4162.0339            0   -1354.9387    18.368721    23.252268    22.668077    9681.8627   -2250.8634    359.50642   -2173.4591     487.7402      776.794    395.08464   -3886.7582 
11614000    304.33095   -4160.0836   -3638.4707   -4160.0836            0   -2837.1863    18.417369     23.90749    22.245699    9795.0716   -2163.0694   -2937.6716    -3410.818    634.59813   -338.61073    684.31946   -4043.7658 
11615000    292.17124   -4165.2383   -3664.4668   -4165.2383            0   -2747.1457    18.196804    23.874381    22.533006    9789.1813   -1921.5945    -3590.079   -2729.7636   -218.55775   -314.19849    189.68276   -4056.6635 
11616000    265.07847   -4156.5413   -3702.2059   -4156.5413            0   -2104.3444    18.236958    23.800359    22.499718    9765.9158   -1778.8699   -3856.5166   -677.64665   -93.316323    26.773053    363.33661    -4001.919 
11617000    255.48191   -4163.6627   -3725.7755   -4163.6627            0   -3111.4069    18.617943    23.704644    22.211654    9802.7075   -4861.8875   -2212.3644   -2259.9688   -69.822676   -412.97139    246.57418   -4170.5898 
11618000    282.35776   -4198.4148   -3714.4633   -4198.4148            0   -2721.2212    18.266801    23.735616    22.505511    9757.7994    -3962.528   -1775.6047   -2425.5309   -547.41057   -522.45425    544.67603   -4101.7135 
11619000    265.07711   -4125.5495   -3671.2164   -4125.5495            0   -2588.3107    18.286676     24.12738    22.183752     9787.684   -3086.0708   -3501.4863   -1177.3751    857.67895   -379.58761    64.691161   -4040.6805 
11620000    274.48755   -4182.4222   -3711.9599   -4182.4222            0   -1856.6356    18.262488    23.660306    22.417145    9686.3597   -1715.7901   -2800.9581   -1053.1586    59.554818   -729.96651    407.78967   -3974.2387 
11621000    271.15575    -4173.765   -3709.0133    -4173.765            0   -768.53706     18.32058    23.720177    22.247511    9668.0433   -944.74516   -1101.4451   -259.42093    973.68662   -231.46801   -63.110484   -3817.3759 
11622000    288.92803   -4157.1922   -3661.9795   -4157.1922            0   -2601.9631    18.302984     23.71539    22.414559    9729.3173   -2252.5593   -1773.2274   -3780.1025   -507.91438   -290.79347   -319.98651   -4031.1775 
11623000    269.23838   -4197.4321   -3735.9667   -4197.4321            0   -2995.8041     18.39102    23.633566    22.451634    9758.4991   -3535.7893   -2320.2685   -3131.3544   -851.40434   -432.62372    400.96908   -4162.3226 
11624000    275.78969   -4130.0403   -3657.3462   -4130.0403            0   -2931.0758    18.462309    23.959788    22.209654    9824.5073   -2087.5996   -3828.3778   -2877.2501   -279.69756    -164.0743     294.1956   -4077.3118 
11625000    288.67867   -4133.9139   -3639.1285   -4133.9139            0   -2576.4206    18.147375    23.742897    22.689732    9776.3534   -1992.7901   -1738.9913   -3997.4804    37.771612   -423.91576    781.11807   -4006.4696 
11626000    267.13686   -4134.7781   -3676.9147   -4134.7781            0    -2302.097    18.425661    23.904288    22.336661    9838.2341    -2564.799   -2719.7913   -1621.7007    644.56467   -252.12797   -218.30377   -4007.2209 
11627000    271.73558   -4148.8763   -3683.1308   -4148.8763            0   -1468.6946    18.281636     23.71907    22.413391    9718.9709   -2325.1533   -327.94319   -1752.9873    429.55927   -634.28994    434.21923   -3891.3054 
11628000    300.24538   -4204.0325   -3689.4222   -4204.0325            0   -1914.2955    18.324955    23.680727    22.418784    9728.5922   -2672.0948   -2847.1544   -223.63721    426.36768    308.89465    132.84336   -3961.0254 
11629000    291.92509   -4153.7913   -3653.4417   -4153.7913            0   -2383.2379    18.368304    23.980329    22.251382    9801.2438   -1395.8582   -2170.8338   -3583.0216    681.20497    202.90458    530.01227   -3994.1043 
11630000    267.81995   -4177.8215   -3718.7872   -4177.8215            0   -3802.0374    18.242736    23.788712    22.740168    9868.5781    -3515.835   -3167.7656   -4722.5117   -27.246494    489.65893   -414.81414   -4265.9882 
11631000    281.30358    -4209.868   -3727.7232    -4209.868            0   -3106.3356    18.516135    23.769827    22.225432    9781.9755   -4254.2398    -3576.537   -1488.2302   -396.39359     481.8812   -269.39721   -4170.8733 
11632000    280.75766   -4137.4812   -3656.2722   -4137.4812            0   -1920.1203    18.335938    23.617933    22.517937    9751.5491   -2201.8167   -1673.2668   -1885.2775   -614.14051    811.51884   -656.31945   -3929.3447 
11633000    258.52454     -4141.43   -3698.3277     -4141.43            0   -3149.0347    18.321959     23.94253    22.518581    9878.3173   -2910.0545   -2649.4462   -3887.6034    736.38391   -270.44461    419.48877   -4151.9938 
11634000    268.46125   -4176.7843   -3716.6509   -4176.7843            0   -3684.1429     18.20138     24.21506     22.28452    9821.8466   -3473.7255   -3478.4632   -4100.2402    -428.5214   -230.97457    348.30269   -4244.3733 
11635000     262.1197   -4181.0005   -3731.7363   -4181.0005            0   -3354.6625    18.342383    23.628932    22.569329    9781.7939   -4798.9787   -2676.4411   -2588.5677    376.64655    459.57322    517.81086   -4210.3038 
11636000    274.54859   -4165.1113   -3694.5444   -4165.1113            0   -2666.9585    18.577253     23.70108     22.18151    9766.5399   -3055.3858   -3046.6467    -1898.843    17.939058    835.77316    462.15943   -4074.4125 
11637000    269.77136   -4172.1194   -3709.7405   -4172.1194            0    -2981.896     18.24592    23.917594    22.538618    9835.8191   -3618.1565   -2088.9244    -3238.607   -287.92123   -382.10058   -18.582838   -4137.4796 
11638000    286.62141    -4174.957   -3683.6977    -4174.957            0   -2227.3425      18.1228    24.080531    22.308739    9735.6818   -1771.5615   -4019.2309   -891.23522    399.59742   -876.63352    909.41903   -3999.9468 
11639000    267.42002   -4207.2043   -3748.8556   -4207.2043            0   -2837.9261    18.373417    23.845217    22.296916    9768.6827   -2754.4623   -2742.4155   -3016.9005    124.37597    164.26299    -524.5606   -4153.1642 
11640000    280.98121   -4160.8144   -3679.2222   -4160.8144            0   -3574.6219    18.514432    23.590738    22.587884    9865.6901    -4372.181   -1891.8614   -4459.8232   -133.43261    795.11245   -1046.2895   -4193.5423 
11641000    273.51729   -4187.4805   -3718.6812   -4187.4805            0   -2277.7921    18.320033    23.916007    22.211882    9731.9597   -1989.9981   -1682.2784   -3161.0998   -9.6422552   -87.566795    35.656779   -4041.9698 
11642000    269.59199   -4171.2642   -3709.1927   -4171.2642            0   -2671.7995    18.187156    23.876853    22.413426    9733.0759   -2471.0728   -2380.3268   -3163.9989    125.25089    449.09084    842.78328   -4088.4465 
11643000    268.47567   -4173.7829   -3713.6248   -4173.7829            0   -1183.3312     18.23743    23.807763    22.332817    9696.7397   -2226.5007    -1217.792   -105.70089    306.25239   -463.36918    206.46772    -3880.968 
11644000    274.53105   -4163.4321   -3692.8953   -4163.4321            0   -2930.5673    18.581759    23.580911    22.393386    9812.2176    -3509.773    -2236.157   -3045.7719    66.333181    22.437796    89.108779   -4112.2628 
11645000    289.70062   -4158.4377   -3661.9007   -4158.4377            0   -1920.7221    18.312352    23.663412    22.541318    9767.8911   -2309.7875   -846.91304   -2605.4657    216.03125   -501.15471    842.96181   -3935.5166 
11646000    271.55693   -4176.6344   -3711.1951   -4176.6344            0   -3074.3398    18.176416    24.208982    22.161241    9751.6666   -2430.4637   -3797.5173   -2995.0383   -608.37545   -1142.9016     327.8188   -4148.4217 
11647000    257.54189   -4163.1546   -3721.7366   -4163.1546            0   -2580.0979    18.299889    23.694671    22.567405    9785.4494   -2070.1236   -1451.9654   -4218.2047    396.14552    826.34122    -152.0155   -4089.9443 
11648000    269.35976   -4189.8722   -3728.1988   -4189.8722            0   -2053.8156    18.699703    23.394193    22.234184    9726.6654   -3523.7557   -1226.8929   -1410.7983    684.27065    5.7700975    451.81622   -4019.5396 
11649000    282.31767   -4128.7555   -3644.8727   -4128.7555            0   -3173.4209    18.409693    23.957788    22.422514    9889.5738   -3047.6197   -4668.9135   -1803.7293    270.59765   -598.33578    222.04361    -4102.573 
11650000    258.92956   -4141.2713   -3697.4749   -4141.2713            0   -3126.5702    18.072837    24.158429    22.517636    9831.4553   -2646.9585    -2961.986   -3770.7663   -518.26486   -283.29737    324.66009   -4145.7679 
11651000     286.0862   -4148.1018   -3657.7598   -4148.1018            0   -4274.6942     18.44288     24.00879     22.45119    9941.1902   -3557.7417   -3755.5644   -5510.7765    143.09207    181.25255   -426.81876   -4277.5138 
11652000    261.55083   -4153.4133   -3705.1241   -4153.4133            0   -4246.4304     18.56108    23.640723    22.543468    9892.0143   -5126.7655   -3723.4123   -3889.1134   -65.995899   -74.994816   -58.168281   -4317.7349 
11653000    282.47612   -4158.7179   -3674.5635   -4158.7179            0   -3679.4124    18.436584    23.902272    22.391184    9867.2626   -4007.4929   -4223.7248   -2807.0195      181.085     700.0153   -576.07838   -4204.0453 
11654000     262.1941   -4154.9461   -3705.5544   -4154.9461            0    -2459.446    18.147364    24.195194    22.319464    9800.0081    -1232.361   -3423.6824   -2722.2947   -621.80658   -435.15242   -60.239312   -4057.0659 
11655000    270.49184   -4160.0189   -3696.4051   -4160.0189            0   -2694.7282    18.344985    23.666784    22.571723    9799.8928   -3120.8646   -1246.2994   -3717.0207    940.94403   -593.06813   -361.61803   -4081.5394 
11656000    265.27686   -4206.6016   -3751.9262   -4206.6016            0   -2049.8379    18.547656    23.583059    22.197287    9709.3254     -2920.13   -1176.3467   -2053.0369   -980.18435    434.13668    600.52316   -4042.1843 
11657000    276.77872   -4187.9419   -3713.5526   -4187.9419            0    -2813.926     18.21162    23.874649    22.404637    9741.4474   -3467.3239   -2668.8095   -2305.6446   -817.65284   -106.56695    448.86107   -4113.3243 
11658000    282.81635   -4192.1443   -3707.4067   -4192.1443            0    -1707.845    18.163859    23.833027    22.398642    9696.3667    152.79146   -2813.1934   -2463.1332    874.02645   -452.68228   -445.78259   -3948.9158 
11659000    276.98154   -4179.9577   -3705.2209   -4179.9577            0    -2503.942    18.570334    23.622085    22.349726     9804.155   -2965.5064   -2037.2877   -2509.0319    516.33269    449.84007   -242.91884   -4063.2434 
11660000    288.38706   -4146.1327   -3651.8471   -4146.1327            0   -3033.6417    18.321208    23.652893    22.753891    9860.3887   -3602.0066   -1809.1003   -3689.8183   -456.29496    634.06558    52.155315   -4088.0959 
11661000    261.47518   -4179.4074   -3731.2479   -4179.4074            0   -2465.1693    18.269016    23.915983    22.383963    9780.0344   -1867.0044   -4005.3751   -1523.1285    -325.9879   -86.618266   -830.87445   -4082.8593 
11662000    278.02855   -4180.5382   -3704.0068   -4180.5382            0   -2767.8405    18.286412    23.692589    22.469897    9735.1379   -4428.9874   -2516.2911   -1358.2431   -76.685165    761.67569    239.33541   -4096.9765 
11663000    271.38918    -4153.999   -3688.8472    -4153.999            0   -2597.0938    18.644429    23.569809    22.258326    9781.3241   -4188.3933   -1739.3626   -1863.5255    377.28713    176.46458    426.87161   -4059.3241 
11664000    275.47075   -4184.1639   -3712.0165   -4184.1639            0    -2320.583    18.246956    23.820342    22.385464    9729.8133   -3853.6082   -2944.6531   -163.48767   -489.35704   -943.19079   -170.09755   -4041.3057 
11665000    259.03158   -4131.0123   -3687.0411   -4131.0123            0   -2871.7245    18.114027    23.891665    22.491574    9733.7746   -1473.1426   -3105.0186   -4037.0122   -203.24904   -240.49708   -608.37952   -4094.7028 
11666000     284.4226   -4155.5752   -3668.0846   -4155.5752            0   -1955.4536    18.472003    23.686938    22.292069    9753.7879   -1897.8217   -2458.6228   -1509.9164    693.11265    455.79528    146.70866   -3946.2459 
11667000    256.47981    -4168.028   -3728.4304    -4168.028            0   -2495.9777    18.261776     23.63973    22.472008    9701.2433   -3107.8335   -1445.8766    -2934.223    189.46537   -179.54651    114.09787    -4081.568 
11668000    278.80351   -4121.1021   -3643.2424   -4121.1021            0   -2873.8455    18.156686    24.142449    22.259585    9757.4193   -1955.8753   -4029.5183   -2636.1429    48.386452    321.02333   -117.23258   -4052.1962 
11669000    287.56628   -4144.2737    -3651.395   -4144.2737            0   -2743.2221    18.389371    23.732693    22.461318    9802.7772   -2504.0593   -2569.1639   -3156.4432   -19.879797     273.1241   -345.31601   -4043.5755 
11670000     281.6407   -4163.6128   -3680.8902   -4163.6128            0   -3480.4602    18.480241    23.612149    22.520851     9827.158   -3480.9911   -2977.8099   -3982.5798   -9.4534275   -353.82104    34.397917   -4179.7064 
11671000    267.80712   -4146.9924   -3687.9802   -4146.9924            0   -2775.9406     18.43471     23.94904    22.220117    9810.0397   -3040.3634   -3421.1117   -1866.3468    300.29028   -9.9715671   -275.97169   -4085.1322 
11672000     281.6042   -4173.7318   -3691.0718   -4173.7318            0   -3998.9717    18.199626    23.986925    22.539999     9839.906   -3476.5034   -4474.0219   -4046.3898   -243.14593   -291.72391     230.3592    -4264.944 
11673000    269.64274    -4161.631   -3699.4725    -4161.631            0   -3471.9124    18.476301    23.934444    22.259335    9843.5228   -3733.9017   -4122.5653   -2559.2702    -76.98456   -18.642802    131.28867   -4197.8922 
11674000      264.878   -4162.5811   -3708.5893   -4162.5811            0   -2213.6675    18.410722    23.405994    22.586887    9733.1696   -3195.4993   -952.80496   -2492.6983    117.98253   -847.67627    119.97541   -4022.8156 
11675000    282.16901   -4149.5253   -3665.8973   -4149.5253            0   -3402.0236    18.467922    23.883917    22.224821    9803.0644   -2781.3319    -4667.735   -2757.0038    790.55436    129.91946    425.21702   -4152.2766 
11676000    273.27582   -4171.9509   -3703.5655   -4171.9509            0    -2018.996    18.183109     23.76772    22.496804    9722.4673   -2327.4083   -1976.6367   -1752.9431    615.50392    693.48239    545.96056   -3989.8434 
11677000    283.52229   -4147.1591   -3661.2116   -4147.1591            0   -2955.7401     18.45525    23.793299    22.301496    9792.8384   -4354.0617   -1729.5114   -2783.6472   -1303.8064     255.7409    109.89985    -4083.346 
11678000    275.82253   -4142.2091   -3669.4587   -4142.2091            0   -2027.7706    18.446624    23.666315    22.237343    9708.0149   -2121.4033   -1258.8673   -2703.0411   -285.60095     397.2981    41.293892   -3956.5534 
11679000    276.01188   -4163.7733   -3690.6984   -4163.7733            0   -2773.0095    18.239537    23.741128    22.583984    9779.4789   -1730.3828   -3276.4764   -3312.1692   -395.86833   -264.30526    882.27707   -4086.1952 
11680000    264.91997   -4156.6816   -3702.6179   -4156.6816            0   -3194.0632    18.357831    23.852457    22.392912    9805.3945   -3848.5685   -2257.9486   -3475.6725    210.15088   -340.65064    464.71053   -4159.3741 
11681000     279.3874   -4146.7159   -3667.8554   -4146.7159            0   -3964.2522    18.397708    24.137972    22.414735    9954.0109   -5229.1439   -2662.6069   -4001.0058   -260.70543    300.12863    -21.65036   -4243.3421 
11682000    282.15041   -4133.0258   -3649.4297   -4133.0258            0     -3204.96    18.373566    23.812703    22.582498    9880.3913   -3709.3123   -2449.9455   -3455.6221    -579.1558   -240.88287   -201.83755   -4111.2496 
11683000    264.04089   -4145.9564   -3693.3994   -4145.9564            0    -2855.987    18.537463    23.727271    22.409316    9856.5896   -4692.1531   -2299.4853   -1576.3228    781.92989   -1031.0994     627.3898   -4103.9425 
11684000    284.44373   -4193.2649   -3705.7381   -4193.2649            0   -2824.4621    18.408867    23.825583    22.371777     9812.306   -2971.1953   -2345.3906   -3156.8004   -795.66526   -37.913317   -682.34323   -4109.9255 
11685000    278.17753   -4136.3172   -3659.5304   -4136.3172            0   -2761.4432    18.135198    24.008234    22.588238    9834.7849   -1175.7456   -4346.2788   -2762.3052    454.73187    203.20504    -282.3119   -4055.6049 
11686000    277.70209   -4134.1911   -3658.2192   -4134.1911            0   -2963.9394    18.350996    23.923061     22.41615    9840.9587   -2412.5967   -3151.5347   -3327.6869   -206.09905   -187.62939     313.7654   -4083.6047 
11687000    275.40464   -4172.0474   -3700.0133   -4172.0474            0   -3560.8813    18.593987    23.506072    22.474293    9822.8753   -4655.4258   -2079.6414   -3947.5768    346.29787    278.97518    578.13431   -4210.1329 
11688000     273.6357   -4117.2339   -3648.2317   -4117.2339            0   -3476.3451    18.482512    23.801861    22.400338     9854.316    -4310.182   -3251.9937   -2866.8595    -646.8809    8.4212582    127.35522   -4147.8349 
11689000    264.12422   -4173.3464   -3720.6465   -4173.3464            0    -3168.033    18.206039    23.975932    22.476833    9811.2897   -2300.1499   -3303.7718   -3900.1772     -891.566   -356.01269    -196.2304   -4173.9527 
11690000    296.32994   -4141.9518   -3634.0524   -4141.9518            0   -2637.9018    18.220928    24.141965    22.211481    9770.5865   -2198.5487   -3714.3485   -2000.8083    -115.6512    24.996051    445.82189   -4009.9375 
11691000    284.84714   -4167.8474   -3679.6292   -4167.8474            0   -2682.4213    18.427071    23.747413    22.449994     9824.011   -3341.6835     -3653.36   -1052.2202    325.47197    37.449458    616.36534   -4063.9481 
11692000    280.57379   -4161.5869   -3680.6931   -4161.5869            0   -3534.4197    18.454264    23.782404     22.56122    9901.8211    -3395.511   -3548.3212   -3659.4271    888.93365    260.94723   -51.608373   -4191.0912 
11693000    269.82176   -4139.1478   -3676.6825   -4139.1478            0   -3294.2028    18.268515    24.068024    22.336522    9821.0796    -2240.433   -3713.9007   -3928.2747    653.27873    91.696939    308.58968   -4148.5124 
11694000    291.16627   -4153.8577   -3654.8087   -4153.8577            0   -2385.0787    18.238049    23.761182    22.533486    9765.0575   -1550.6036   -2809.6682   -2794.9642    602.23871   -351.12437    500.76445   -3994.4757 
11695000    276.90932   -4168.7247   -3694.1116   -4168.7247            0   -1293.1127    18.504357    23.534746    22.303366    9713.0122   -804.21277   -2065.2114   -1009.9139    837.31472   -419.07629   -460.60483   -3877.2866 
11696000    274.53954    -4156.746   -3686.1946    -4156.746            0   -2359.3348    18.429702    23.699534    22.396036    9782.0363   -2259.2704   -1412.4618   -3406.2723   -520.13741    -433.2056   -319.83177   -4022.7796 
11697000     269.2702   -4146.5061   -3684.9861   -4146.5061            0    -1641.337    18.073853    24.033989    22.352234     9709.515   -1606.5325   -2847.7393   -469.73918   -81.583719   -617.71817   -87.859526   -3917.4049 
11698000    286.86887   -4167.1265   -3675.4431   -4167.1265            0   -3123.3091    18.308469    23.942501    22.471374    9850.3383    -2527.758    -3893.204   -2948.9654   -662.62558   -282.60499    418.91596   -4124.1285 
11699000    274.51527    -4120.728   -3650.2183    -4120.728            0   -3159.2624    18.684087    23.480034    22.477676    9861.0238   -3408.3343   -3512.4638   -2556.9892   -52.642667   -23.396111     441.8373    -4104.561 
11700000    277.85029   -4161.2451   -3685.0192   -4161.2451            0   -3287.0306    18.427532    23.796249    22.443523    9841.6224   -3408.1213   -2658.9611   -3794.0093    884.80754      45.0622   -307.11445   -4156.8066 
11701000    268.31894   -4137.2222   -3677.3327   -4137.2222            0   -3136.7974    18.152375    24.154856     22.49176    9861.9168   -615.57117   -4131.9929   -4662.8281   -134.30317     277.0786   -116.59387   -4128.4856 
11702000    260.81406   -4107.9202   -3660.8938   -4107.9202            0   -3207.2753    18.401679    23.859049     22.48277    9870.9833   -2001.9539   -3605.6905   -4014.1815    705.26711   -513.31244   -304.26555   -4122.6073 
11703000    288.36723   -4208.9826    -3714.731   -4208.9826            0   -3061.8991    18.604655    23.731966    22.164989    9786.3978    -3690.045   -2459.8889   -3035.7635    348.29897    85.430086   -44.682959   -4151.7393 
11704000    275.65039   -4184.9881   -3712.5327   -4184.9881            0   -2909.3659    18.192141    23.765884    22.601486    9771.8051   -3051.8412    -2450.218   -3226.0385     739.6657   -17.625919   -546.22491   -4127.1516 
11705000    262.25768   -4173.8208   -3724.3201   -4173.8208            0   -3064.0364    18.292741     24.11236    22.176232     9781.518    -2339.767   -4369.0735   -2483.2687     424.8058    525.45526    82.164117   -4161.4154 
11706000     280.7373    -4187.658   -3706.4839    -4187.658            0   -3075.4344    18.406732    23.711765    22.472157    9808.1104    -3186.674   -3000.0712    -3039.558   -1069.8841    426.21137    537.31899   -4146.3978 
11707000    274.20343   -4157.7667   -3687.7914   -4157.7667            0   -3681.3699      18.5329     23.58069    22.576073    9866.1631   -3599.6104    -3911.945   -3532.5544    492.03708   -618.90131     421.6305   -4217.4959 
11708000     279.7267   -4159.7716   -3680.3296   -4159.7716            0   -2006.3295    18.299868    23.967198    22.281324    9772.5122   -5.6724127   -2891.0275   -3122.2886     -201.478    622.14214    408.64526   -3966.2758 
11709000    293.76956    -4209.172    -3705.661    -4209.172            0   -2215.8634    18.054449    23.852813    22.579463    9723.8321   -1172.9803   -2445.0856   -3029.5244   -848.71955    238.83202    11.527639   -4019.8973 
11710000    291.41664   -4159.2383   -3659.7601   -4159.2383            0   -2666.5747    18.504944    23.776981    22.336275    9827.7757   -3423.9691   -2034.1871    -2541.568   -657.59283    343.39619   -81.914148    -4041.955 
11711000    279.74567   -4184.0003   -3704.5258   -4184.0003            0   -3138.6206    18.514439    23.704751    22.428166    9843.2772   -3470.9418   -3068.1183   -2876.8017    184.46611   -154.49692   -274.26263   -4155.0877 
11712000    287.40743   -4181.7358   -3689.1294   -4181.7358            0   -3759.2369     18.30244    23.852662    22.437615    9795.4082   -3778.0368   -3791.6485   -3708.0253   -465.00637   -300.29364   -438.36277   -4226.1588 
11713000    286.30635   -4146.0551   -3655.3358   -4146.0551            0   -3699.3389     18.21906    24.240786    22.366284    9877.9424   -3797.6884   -3021.4318   -4278.8964    78.708508    56.146598    190.62582   -4188.2613 
11714000    269.35581    -4153.199   -3691.5323    -4153.199            0   -3520.2091    18.469624    23.628426    22.548438    9840.3218   -4228.2946   -3443.1282   -2889.2045   -1232.8455    196.91683    -1054.742   -4196.7211 
11715000    258.07169    -4201.671   -3759.3449    -4201.671            0   -2024.4003    18.603028    23.512848    22.005984    9625.6413   -2280.4832    -1308.038   -2484.6797    -14.23294   -491.34252   -353.05205   -4043.5305 
11716000    269.81746   -4167.3299    -3704.872   -4167.3299            0   -2737.6349    18.155518    23.936772     22.50732    9781.3323   -1337.6934   -3687.6436   -3187.5679    332.09922   -488.54578      226.681   -4095.3975 
11717000    273.41679   -4184.0017   -3715.3747   -4184.0017            0   -3382.8426    18.312776    23.976379    22.397054    9833.9657   -2585.8314   -4235.4688   -3327.2276   -112.40938   -103.39687   -214.50895   -4200.5362 
11718000     297.6857   -4198.2409   -3688.0178   -4198.2409            0   -3458.1769    18.493267    23.721818    22.374365    9815.4976   -3805.6517   -3133.7904   -3435.0886    63.121731   -9.3925181   -608.02966   -4183.0522 
11719000    278.73955   -4150.1406   -3672.3905   -4150.1406            0   -3543.2452     18.43242    23.596158    22.599261    9829.1941   -3594.6408    -2988.539   -4046.5558   -929.54538    398.63154   -261.05984   -4180.3102 
11720000     275.4601   -4189.5356   -3717.4064   -4189.5356            0   -1575.5878    18.117772    24.030257     22.26789    9694.8762   -928.20675    -2672.554   -1126.0025    -275.1946    1116.3264   -537.45268   -3940.1785 
11721000     274.9284   -4166.6379     -3695.42   -4166.6379            0   -3486.1136     18.29454    23.802616    22.492224    9794.4172   -2933.5654   -2949.9153     -4574.86   -198.10638   -614.09667   -216.32152   -4193.3818 
11722000    269.15336    -4169.229   -3707.9093    -4169.229            0   -3145.9297    18.688978    23.517435    22.345726    9821.3225   -3593.0165    -1026.281   -4818.4915   -493.42479   -592.19213    520.05377   -4158.5132 
11723000    266.85711   -4151.4639     -3694.08   -4151.4639            0   -3322.6537    18.306019    23.917334    22.550749    9873.4204   -4010.5978   -1492.1854   -4465.1778   -770.81526   -248.47923    745.99961   -4172.5212 
11724000    263.23628   -4128.0055   -3676.8276   -4128.0055            0   -2838.8361     18.15089    24.115199    22.518768    9856.7423    -3116.365   -3208.6112   -2191.5322    949.70384   -784.38727    194.76101   -4084.9116 
11725000    279.30527   -4190.4812   -3711.7615   -4190.4812            0   -2106.9459    18.393459     23.61234    22.304069    9686.9383   -1883.7842   -1267.7991   -3169.2544    1.7401724    539.10144     100.7747   -4009.4183 
11726000    272.58784   -4145.8543   -3678.6481   -4145.8543            0   -2900.5214    18.441474    23.588711     22.51513    9794.3201   -2994.6952    -2423.975   -3282.8939    432.30863   -233.22031     924.8483   -4092.9589 
11727000    301.59259   -4134.9535   -3618.0341   -4134.9535            0    -3120.402    18.400688    23.911593    22.407229    9858.9511   -3052.8953   -2127.1658   -4181.1449    21.982908    -558.5074   -198.52922   -4066.6939 
11728000    282.14295    -4134.606   -3651.0227    -4134.606            0   -4096.9165    18.221204    24.128948    22.526693    9904.0517   -4248.9065   -3714.0723   -4327.7706   -1007.0295    498.24604    153.03246   -4242.7831 
11729000    279.46558   -4143.0473   -3664.0529   -4143.0473            0   -2732.0151     18.34752    23.818419    22.402852    9790.2462   -2319.3109   -2925.3487   -2951.3856   -1030.0979    76.004012    -103.0913   -4054.1319 
11730000    290.55008   -4144.8755   -3646.8826   -4144.8755            0   -4200.2909    18.779833    23.480211    22.367019    9862.8365   -5095.8886   -2581.3181    -4923.666    222.14901   -685.99521     261.3216   -4251.0497 
11731000     294.2534   -4173.0886   -3668.7483   -4173.0886            0   -2939.9941    18.300184    23.961406    22.500893    9866.5997   -2351.5503   -3697.7139    -2770.718    290.40571   -213.94266     288.5743   -4091.7965 
11732000    272.80634   -4157.1318   -3689.5511   -4157.1318            0   -2116.9673    18.074127    24.037928    22.424511    9742.6557   -269.37482   -3126.1876   -2955.3394     1140.889   -171.09232     400.3424   -3990.3438 
11733000    270.57865   -4172.5236    -3708.761   -4172.5236            0   -3134.0724    18.448146    23.776673    22.345555    9801.5547   -4406.4056   -2058.4302   -2937.3815    537.45706   -157.58358   -483.24656   -4156.7629 
11734000    283.22085   -4145.2099   -3659.7791   -4145.2099            0   -3040.9829    18.581072    23.624682    22.361689    9816.1533   -3418.6073   -2815.1059   -2889.2354   -558.74379    412.14799   -847.88482   -4095.1217 
11735000    268.07923   -4172.5874   -3713.1088   -4172.5874            0   -3161.0687    18.309347    23.755948    22.540402    9804.0806    -2088.548   -3758.5143   -3636.1438    593.16263   -10.762268   -98.927279   -4165.0862 
11736000    268.88341   -4150.8879    -3690.031   -4150.8879            0   -4356.6626    18.351406    24.061822    22.489816    9930.7892   -3337.1866   -5063.3645   -4669.4367     -52.2581    327.71823    -547.5761   -4321.0081 
11737000    272.04715   -4157.8128   -3691.5333   -4157.8128            0   -2920.4042     18.41485    23.819913    22.468929    9855.7739   -3170.5072    -2425.782   -3164.9233     254.2694    258.77305   -299.11224   -4111.3015 
11738000    277.78958   -4134.1538    -3658.032   -4134.1538            0   -4296.5082    18.652642    23.752839    22.534307    9983.8963   -5031.7164   -3212.0077   -4645.8004   -670.35068   -428.97568    473.68103   -4283.6246 
11739000    280.12293   -4166.3693   -3686.2481   -4166.3693            0   -2908.7794    18.309296    23.859137    22.566685    9858.1207   -2459.1888     -4317.94   -1949.2094    580.98409   -516.14849    893.09955    -4104.445 
11740000    276.13112   -4154.3712   -3681.0919   -4154.3712            0   -2831.2543    18.274055    24.059705    22.330427    9817.9827   -2767.5694   -2875.7483   -2850.4451    102.92405   -671.70033   -298.13269   -4086.4856 
11741000    267.90376   -4175.7219    -3716.544   -4175.7219            0   -3913.3686    18.483061    23.698741    22.573017    9887.5518   -3326.7344   -3810.7528   -4602.6188    124.84817   -54.460619     528.4787    -4280.851 
11742000    277.49732   -4146.2108   -3670.5899   -4146.2108            0   -4162.7006    18.480319     23.89251     22.55687    9959.7878   -3115.5879   -4339.0045   -5033.5093   -1129.0318    988.58582    922.77386   -4275.2359 
11743000    275.89055   -4112.5444   -3639.6775   -4112.5444            0   -3989.1913    18.356763    24.234694    22.406037    9967.7855   -4511.1547   -4397.4672    -3058.952   -48.143827    711.48508     273.7326   -4219.5859 
11744000    292.17833   -4182.5484   -3681.7648   -4182.5484            0   -3471.2806    18.220072    23.967415    22.434154    9796.7262   -3195.5774   -3761.4672   -3456.7972   -122.48224   -315.63125    652.22016   -4177.7247 
11745000    283.47127   -4125.4277   -3639.5677   -4125.4277            0   -2824.0942    18.544411    23.641199    22.411497    9825.4714   -3390.9528   -3183.0144   -1898.3155    697.78147    692.00561    182.58679   -4044.2446 
11746000    276.02326   -4155.3791   -3682.2846   -4155.3791            0    -3261.676    18.510162     23.62684    22.488612    9835.0937   -5285.2825   -1194.6865   -3305.0588   -632.36128   -170.15666    577.49388   -4150.1223 
11747000    266.04175   -4148.1861   -3692.1997   -4148.1861            0   -2675.3083     18.23437    23.894032    22.477579     9793.315   -1309.2811   -3599.7002   -3116.9438   -1023.8625   -446.61452   -753.71252   -4074.3018 
11748000    288.93673   -4136.0224   -3640.7948   -4136.0224            0   -2952.1888    18.224739    24.157022    22.385227    9855.2175    -1422.942   -4217.1796   -3216.4449   -464.29748    108.16157    635.82613   -4065.1077 
11749000    280.36706   -4184.4861   -3703.9466   -4184.4861            0    -3689.467    18.410875    23.741599    22.513618    9840.7835   -4614.9394   -3196.3421   -3257.1194    739.94018   -187.15044   -100.46808   -4233.4505 
11750000    272.39843   -4111.8823   -3645.0007   -4111.8823            0   -1786.1088    18.416122    23.766257    22.396187    9802.4145    -2754.085   -565.46693   -2038.7746   -736.64582   -312.01314    362.38686   -3900.3396 
Loop time of 427.442 on 64 procs for 250000 steps with 864 atoms

Performance: 101.066 ns/day, 0.237 hours/ns, 584.875 timesteps/s
377.5% CPU use with 16 MPI tasks x 4 OpenMP threads

MPI task timing breakdown:
Section |  min time  |  avg time  |  max time  |%varavg| %total
---------------------------------------------------------------
Pair    | 23.679     | 27.201     | 31.917     |  43.3 |  6.36
Bond    | 1.6803     | 1.9633     | 3.0878     |  29.7 |  0.46
Kspace  | 227.38     | 231.73     | 239.18     |  24.2 | 54.21
Neigh   | 1.7484     | 1.9192     | 2.0936     |   8.0 |  0.45
Comm    | 61.435     | 67.74      | 73.346     |  40.9 | 15.85
Output  | 0.61523    | 0.61551    | 0.61672    |   0.0 |  0.14
Modify  | 67.555     | 74.906     | 84.912     |  55.2 | 17.52
Other   |            | 21.37      |            |       |  5.00

Nlocal:        54.0000 ave          65 max          46 min
Histogram: 1 3 3 1 1 3 2 0 1 1
Nghost:        2424.12 ave        2457 max        2371 min
Histogram: 1 0 0 1 3 2 3 2 1 3
Neighs:        12440.2 ave       14417 max       10683 min
Histogram: 2 3 1 2 0 2 2 1 1 2

Total # of neighbors = 199044
Ave neighs/atom = 230.37500
Ave special neighs/atom = 2.0000000
Neighbor list builds = 7730
Dangerous builds = 0

unfix		3
unfix		2
unfix		1

write_data	data.final.${pid} nocoeff
write_data	data.final.0 nocoeff
System init for write_data ...
PPPM initialization ...
  extracting TIP4P info from pair style
  using 12-bit tables for long-range coulomb (../kspace.cpp:340)
  G vector (1/distance) = 0.37023181
  grid = 24 27 25
  stencil order = 5
  estimated absolute RMS force accuracy = 0.003325292
  estimated relative force accuracy = 1.0014018e-05
  using double precision FFTW3
  3d grid and FFT values/proc = 6300 1296
Last active /omp style is kspace_style pppm/tip4p/omp

write_restart   restart.lmp.${pid}
write_restart   restart.lmp.0
System init for write_restart ...
PPPM initialization ...
  extracting TIP4P info from pair style
  using 12-bit tables for long-range coulomb (../kspace.cpp:340)
  G vector (1/distance) = 0.37023181
  grid = 24 27 25
  stencil order = 5
  estimated absolute RMS force accuracy = 0.003325292
  estimated relative force accuracy = 1.0014018e-05
  using double precision FFTW3
  3d grid and FFT values/proc = 6300 1296
Last active /omp style is kspace_style pppm/tip4p/omp
Total wall time: 0:07:07
