LAMMPS data file via write_data, version 30 Jul 2021, timestep = 15000000

1920 atoms
2 atom types
1280 bonds
1 bond types
640 angles
1 angle types

-0.1458598217214906 24.875860821718234 xlo xhi
-0.1494060985771739 24.879407098574745 ylo yhi
-0.05649661651390403 22.86649661651697 zlo zhi

Masses

1 1.008
2 15.999

Pair Coeffs # lj/cut/tip4p/long/omp

1 0 0
2 0.21084 3.1668

Bond Coeffs # harmonic/omp

1 450 0.9572

Angle Coeffs # harmonic/omp

1 55 104.52

Atoms # full

1 1 2 -1.1794 4.43256609280317 1.568885758336373 4.274053408025717 0 0 0
2 1 1 0.5897 4.626423198425176 2.16535908102939 4.997073353926432 0 0 0
3 1 1 0.5897 5.122568138046817 1.7373210877333773 3.6324508171041274 0 0 0
4 2 2 -1.1794 2.7592269919122034 1.2266035689717611 1.98677888661696 0 0 0
20 7 1 0.5897 3.7406317037633126 2.7938568985527357 1.1589808900222975 0 0 0
6 2 1 0.5897 1.8050571407556164 1.2819098499613188 2.0383992585625306 0 0 0
24 8 1 0.5897 1.2111029887340126 5.280633634154865 0.5195355445564322 0 0 0
11 4 1 0.5897 2.879171628831753 5.2150195399023405 3.740773676323907 0 0 0
10 4 2 -1.1794 3.187263552679345 4.359119416378831 3.4430174445882415 0 0 0
387 129 1 0.5897 3.9136226844996767 0.20534858132179934 1.1540728771774689 0 1 0
12 4 1 0.5897 2.7440589842044645 4.222511266174359 2.6057498673205184 0 0 0
5 2 1 0.5897 3.0576245798911295 1.3856972470393742 2.882181548227342 0 0 0
1455 485 1 0.5897 1.1300366785056348 3.3602673332016275 0.015408769932366284 0 0 1
15 5 1 0.5897 1.2857971352008406 2.0241276719692762 4.86195580888006 0 0 0
14 5 1 0.5897 2.0862018642058215 3.2684227836431368 4.541369950191531 0 0 0
27 9 1 0.5897 4.6372525072505475 4.884283331132016 0.4431917026463214 0 0 0
19 7 2 -1.1794 4.557992197366897 3.0572493171123893 0.7362242574594889 0 0 0
21 7 1 0.5897 5.242534763111327 2.6261428090368644 1.2477801848421668 0 0 0
22 8 2 -1.1794 1.2466435142461139 4.634227771951498 1.22452669709764 0 0 0
9 3 1 0.5897 5.122949846172638 4.081457779901971 3.2317947925227797 0 0 0
47 16 1 0.5897 5.838802366095528 0.9006324106899399 1.9213459261821122 0 0 0
28 10 2 -1.1794 1.4497711872202184 0.15795546602386168 5.027349841623977 0 0 0
13 5 2 -1.1794 1.275929721955036 2.9763153420894572 4.958844735626621 0 0 0
23 8 1 0.5897 0.5946502779953314 4.933912252799124 1.8579501276061143 0 0 0
98 33 1 0.5897 0.28729417006312014 5.491362835941367 3.846776902634128 1 0 0
7 3 2 -1.1794 6.037385567620973 4.299878264100136 3.4114048741028937 0 0 0
25 9 2 -1.1794 4.5243033717785135 5.834729477713836 0.45011461388480367 0 0 0
99 33 1 0.5897 0.021286367646167093 4.001100540044786 3.840130910533428 1 0 0
16 6 2 -1.1794 0.05073829151420847 1.3305924914153568 1.8863822212311396 0 0 0
8 3 1 0.5897 6.0207108202303 5.227392047444965 3.6471840425777367 0 0 0
29 10 1 0.5897 2.2214000197791535 -0.13022476273784295 4.539821914415798 0 0 0
867 289 1 0.5897 4.539404417473122 -0.005223581504319508 5.505193741948964 0 1 0
149 50 1 0.5897 1.5017390713149075 6.039118901953798 5.5319209132823595 0 0 0
385 129 2 -1.1794 4.717528941232447 -0.1403375834237437 0.7662759887811481 0 1 0
504 168 1 0.5897 1.3354821635155103 4.062079991283974 6.391926627748092 0 0 0
481 161 2 -1.1794 4.068286311595582 1.4920296831006687 9.730755608126108 0 0 0
482 161 1 0.5897 4.926416102366149 1.4597052946267395 9.30800923772234 0 0 0
483 161 1 0.5897 4.197349819351526 2.0565263471284285 10.49286212894377 0 0 0
484 162 2 -1.1794 2.5404340991587206 1.624913374900803 7.40563093849308 0 0 0
485 162 1 0.5897 2.98678340874395 1.621818931619607 8.252313933602359 0 0 0
486 162 1 0.5897 2.959012085665239 0.9203481409117378 6.911137273410201 0 0 0
508 170 2 -1.1794 1.2219162500128347 -0.014806720034562154 10.604870561639459 0 0 0
488 163 1 0.5897 4.908610700328265 4.695023487686387 9.228791237268771 0 0 0
490 164 2 -1.1794 3.1178025992286864 4.762023066228999 9.258241021884828 0 0 0
491 164 1 0.5897 2.635982435503119 4.920484431975657 8.446543989757089 0 0 0
492 164 1 0.5897 2.74664091493655 3.9498979488189683 9.60297365038005 0 0 0
493 165 2 -1.1794 1.3229623728952673 2.67406999452559 10.34022894937002 0 0 0
629 210 1 0.5897 2.090656595388978 5.919832353758733 10.225199023195213 0 0 0
501 167 1 0.5897 4.488109193173308 4.010846359068265 6.516220192571047 0 0 0
498 166 1 0.5897 0.7708385073885972 1.5594082047630766 7.916210618318003 0 0 0
527 176 1 0.5897 5.666628994604292 0.43615436741689195 7.52503894435138 0 0 0
499 167 2 -1.1794 4.607803755568461 3.0664150354140083 6.6155640634968504 0 0 0
494 165 1 0.5897 1.2631969131667815 1.757748547786926 10.610275246148916 0 0 0
502 168 2 -1.1794 1.4115157784942935 4.790956964455707 7.007626054907043 0 0 0
500 167 1 0.5897 3.7279941010262054 2.7294826001021586 6.78458349380608 0 0 0
503 168 1 0.5897 0.6960582751819517 4.655872467309376 7.628917271305664 0 0 0
578 193 1 0.5897 0.1595071737280921 5.327124179578011 9.77897672629483 1 0 0
528 176 1 0.5897 5.686541660657803 1.9498524543660478 7.5269379738892095 0 0 0
487 163 2 -1.1794 5.847841351801686 4.872101557534896 9.280267096388696 0 0 0
579 193 1 0.5897 0.05394595416856404 3.818088517975084 9.721012030955555 1 0 0
505 169 2 -1.1794 4.9002935188641485 5.68334487080524 6.412195579642342 0 0 0
1347 449 1 0.5897 4.180807700886431 0.18693801032706703 11.022204893767086 0 1 0
526 176 2 -1.1794 6.087135651824514 1.1870793717750352 7.943878480881317 0 0 0
495 165 1 0.5897 1.1870403272176764 3.171292961977414 11.146704330764605 0 0 0
987 329 1 0.5897 4.479935680517549 5.009070719100317 12.122101567391583 0 0 0
961 321 2 -1.1794 4.609054148735103 1.4580353257001677 15.623267045737904 0 0 0
962 321 1 0.5897 5.1160421200649004 1.3329655949114552 14.821125876463725 0 0 0
1058 353 1 0.5897 -0.07878713329510845 4.613319670166341 14.23903360985889 1 0 0
964 322 2 -1.1794 2.5557638217862024 1.7636883887076038 13.327913578236792 0 0 0
965 322 1 0.5897 2.945741577001421 1.825560912479168 14.199802339788459 0 0 0
966 322 1 0.5897 1.6139561878627589 1.7086445935323888 13.489604780250957 0 0 0
981 327 1 0.5897 5.096909354565169 2.5821204324631895 12.366651974623952 0 0 0
970 324 2 -1.1794 3.2751505546014266 4.533075553958299 14.903931615603073 0 0 0
971 324 1 0.5897 4.22817396115322 4.536502381978227 14.992809867581055 0 0 0
972 324 1 0.5897 2.97689861537035 3.8855021968219745 15.542538979616095 0 0 0
980 327 1 0.5897 3.608116276043305 2.834843557226745 12.260116989945585 0 0 0
975 325 1 0.5897 0.7349404910255821 3.3803021219694407 15.919391924055384 0 0 0
990 330 1 0.5897 1.2304999338492841 1.1630227924186447 16.482411765189298 0 0 0
1109 370 1 0.5897 0.7058680453357917 5.7640167914107305 16.0611049949997 0 0 0
979 327 2 -1.1794 4.4472470227423155 3.079715955705028 11.870183137217483 0 0 0
963 321 1 0.5897 4.683920823373144 0.6240444185240321 16.08694588338002 0 0 0
982 328 2 -1.1794 1.2109291058984701 4.313579589093873 12.66837271363003 0 0 0
983 328 1 0.5897 1.3123011785177219 5.191238658715767 12.300158801222638 0 0 0
984 328 1 0.5897 1.841673421955201 4.280752715815461 13.387543520671242 0 0 0
1460 487 1 0.5897 4.687027056279601 2.6739635277875515 17.08866491048031 0 0 0
973 325 2 -1.1794 1.472334702687579 2.982831838890745 16.38244137281066 0 0 0
985 329 2 -1.1794 4.457002801422172 5.961942342594462 12.034602079083372 0 0 0
1346 449 1 0.5897 3.748444898249566 0.4149916139004266 12.454900244642452 0 1 0
1008 336 1 0.5897 5.789405283512181 0.598624030449044 12.72152337389813 0 0 0
976 326 2 -1.1794 -0.09758536094305167 1.3832857087600043 13.600994742658028 0 0 0
988 330 2 -1.1794 1.1136637168412737 0.2142538595422684 16.434041119482483 0 0 0
1006 336 2 -1.1794 6.069854828713562 1.2884167427101214 13.322903995346632 0 0 0
1110 370 1 0.5897 2.2047366577670924 5.957276553441506 16.14941528509115 0 0 0
974 325 1 0.5897 1.6356174427830592 3.568808614683427 17.12142316328324 0 0 0
1454 485 1 0.5897 1.9066019131756455 3.092519583212572 21.66685010623931 0 0 0
1538 513 1 0.5897 0.0016916399659933634 3.757132406132457 21.436532842585144 1 0 0
1441 481 2 -1.1794 4.58988798099574 1.5063383796258867 21.193489243623198 0 0 0
1442 481 1 0.5897 3.8823294444068273 1.556235205772374 20.550836030987238 0 0 0
1464 488 1 0.5897 0.7145504631950723 4.254864431878427 19.314489370568772 0 0 0
1444 482 2 -1.1794 2.7592438623956266 1.2180459137892343 19.01465800044325 0 0 0
1466 489 1 0.5897 4.4698772509891365 4.864745285223692 17.651173051885667 0 0 0
1446 482 1 0.5897 3.068830694782163 2.0151082380943874 18.58455975823316 0 0 0
1459 487 2 -1.1794 4.688331954059129 3.0273993504002816 17.978149270901305 0 0 0
1450 484 2 -1.1794 3.1016578363306224 4.507686008999159 20.999592614965863 0 0 0
1451 484 1 0.5897 4.05090727009182 4.417763758096214 20.915929700007986 0 0 0
1452 484 1 0.5897 2.7870093405874954 4.579022337852869 20.098479374981594 0 0 0
1453 485 2 -1.1794 1.2387177462296757 2.7154496437281437 22.23946267483677 0 0 0
1443 481 1 0.5897 4.408826508712481 2.2195525675828436 21.805591340028204 0 0 0
1487 496 1 0.5897 5.996555037835742 1.4351767854925492 19.990199356136063 0 0 0
1465 489 2 -1.1794 4.368285500827939 5.806927951867702 17.78577752547865 0 0 0
1461 487 1 0.5897 5.2556649803770705 2.4346676827690144 18.47104724001602 0 0 0
1462 488 2 -1.1794 1.5143943007163754 4.294388582454104 18.790249094986798 0 0 0
1463 488 1 0.5897 1.387707473741567 5.049409644143516 18.21577557350249 0 0 0
1469 490 1 0.5897 1.1897487483306237 0.8713755973134512 21.942291381344816 0 0 0
1445 482 1 0.5897 1.8063347437304453 1.3071878262287813 19.028008533785606 0 0 0
386 129 1 0.5897 4.77453908713536 0.2866572347981042 22.834556000609595 0 1 -1
1539 513 1 0.5897 0.10340735433289538 5.236683954841948 21.13278870067575 1 0 0
1456 486 2 -1.1794 -0.13149367491934402 1.223311157743807 19.354826627222803 0 0 0
1590 530 1 0.5897 2.2313725117510166 6.083016910408217 21.73175428418896 0 0 0
1467 489 1 0.5897 5.17565269725212 6.075104113259024 18.224393966652464 0 0 0
1488 496 1 0.5897 5.933298029557528 0.63820539737001 18.704733828232925 0 0 0
1447 483 2 -1.1794 5.883187150795468 4.265746716155529 20.632679218000405 0 0 0
1468 490 2 -1.1794 1.251843913767488 -0.07779688434122638 21.835687669536746 0 0 0
989 330 1 0.5897 1.2464416741937658 -0.08995790516076768 17.331776230946947 0 0 0
143 48 1 0.5897 1.5432058684972372 11.557574219820713 0.9023649466426449 0 0 0
121 41 2 -1.1794 4.801935305137303 7.292354167722439 4.031748349497166 0 0 0
122 41 1 0.5897 4.091135812725696 7.29395207359233 3.3907417498968297 0 0 0
123 41 1 0.5897 5.600174307413997 7.332061786980137 3.505079161152205 0 0 0
124 42 2 -1.1794 2.9536695305917107 7.524903253587706 2.0505623084028857 0 0 0
218 73 1 0.5897 0.11583484509535613 11.488553545315689 4.420718290203201 1 0 0
126 42 1 0.5897 3.3772915153178604 8.360525323402886 1.8545278314677134 0 0 0
125 42 1 0.5897 3.2622774609131286 6.932702442462702 1.36486658961259 0 0 0
129 43 1 0.5897 5.234631334162121 10.76878841574509 3.4201758274580203 0 0 0
130 44 2 -1.1794 3.390073053765281 10.901444312174345 3.338331839571569 0 0 0
140 47 1 0.5897 4.854995816838371 10.315982148788502 0.8674750078938719 0 0 0
132 44 1 0.5897 3.177771863314581 10.179111018691184 3.9293452202948527 0 0 0
133 45 2 -1.1794 1.7481269659576362 9.055201766214578 4.8873764072766015 0 0 0
135 45 1 0.5897 1.007392216480997 9.45776508372923 4.43416252459766 0 0 0
150 50 1 0.5897 1.6740769819279375 7.3220671850837435 4.747073863547187 0 0 0
137 46 1 0.5897 0.9530476007340225 7.68058773827674 2.16425257469951 0 0 0
139 47 2 -1.1794 4.927666318634925 9.363257224295962 0.9238765484223829 0 0 0
145 49 2 -1.1794 4.453469071597172 12.224410903422772 0.7489940042267772 0 0 0
142 48 2 -1.1794 1.4373333541705622 10.735616236231937 1.3812278829369553 0 0 0
131 44 1 0.5897 2.843604168189658 10.74923744305907 2.5674121496522426 0 0 0
144 48 1 0.5897 0.760696308173646 10.922426464827286 2.031922562484597 0 0 0
136 46 2 -1.1794 0.03132752517622883 7.938546811690992 2.1713629864464643 0 0 0
270 90 1 0.5897 2.3684120746601107 12.062447967726092 4.616830821885226 0 0 0
148 50 2 -1.1794 1.672953932140618 6.369826677147709 4.65020958318385 0 0 0
621 207 1 0.5897 4.683229077508877 8.480954126375394 5.329647183575666 0 0 0
141 47 1 0.5897 4.804796364401309 9.0595496656432 0.02456540283882727 0 0 0
1574 525 1 0.5897 1.182655000730554 9.4872294462934 0.04071475709088658 0 0 1
217 73 2 -1.1794 -0.12605439691251874 10.959584176658128 3.660584438697434 1 0 0
26 9 1 0.5897 5.249572428998158 6.1587028461326705 0.9841303154226622 0 0 0
507 169 1 0.5897 5.039244144899997 6.1445487633488325 5.585097687027668 0 0 0
612 204 1 0.5897 2.955179141445869 11.389015114637703 9.292571094979682 0 0 0
620 207 1 0.5897 5.223981406425789 8.824651554806614 6.701159769950233 0 0 0
601 201 2 -1.1794 4.636381731166915 7.633481886035717 9.992753266838303 0 0 0
134 45 1 0.5897 1.7803843323407087 9.498416596179066 5.735091629229379 0 0 0
603 201 1 0.5897 3.981380024323543 7.501210476350761 9.307477673139603 0 0 0
604 202 2 -1.1794 2.758866679410638 7.408441085873119 7.887011852148348 0 0 0
605 202 1 0.5897 3.130384890598393 8.068163957184233 7.301463772387118 0 0 0
606 202 1 0.5897 1.8181019989378877 7.584755774685119 7.881048218163676 0 0 0
625 209 2 -1.1794 4.663164929817943 11.683451851454002 6.33277585146619 0 0 0
610 204 2 -1.1794 3.3218782102156954 10.61556503566903 8.864258481943418 0 0 0
611 204 1 0.5897 4.2101232381529545 10.546012965692288 9.21402150157567 0 0 0
1101 367 1 0.5897 4.406546565229159 8.973727306229433 11.310731120294646 0 0 0
616 206 2 -1.1794 0.02951352209065128 7.36532089809671 7.956030449737508 0 0 0
698 233 1 0.5897 0.07400833942291024 11.212213692735698 9.915409135688412 1 0 0
614 205 1 0.5897 1.9716430665742628 9.554710295565318 9.982480308354706 0 0 0
624 208 1 0.5897 1.523545152421432 11.240209103518875 6.550541146641452 0 0 0
626 209 1 0.5897 4.565681090857532 10.755903493381103 6.547942769234798 0 0 0
613 205 2 -1.1794 1.3433259144825684 9.105828135291635 10.548037681743175 0 0 0
622 208 2 -1.1794 1.4418729343218832 10.438663860866189 7.067251062439627 0 0 0
623 208 1 0.5897 2.1464340495422207 10.496316312025563 7.712540617293602 0 0 0
615 205 1 0.5897 0.4881645273868954 9.325232071421395 10.178295594069391 0 0 0
602 201 1 0.5897 4.524775607450691 6.885170402338115 10.579012197699726 0 0 0
619 207 2 -1.1794 4.462543914455261 8.949198042627792 6.134733031493047 0 0 0
630 210 1 0.5897 1.4075234324080301 7.242893826284747 10.498191985740597 0 0 0
648 216 1 0.5897 6.006328958183973 7.781114899517932 8.591230897722664 0 0 0
627 209 1 0.5897 5.381878076385154 11.984498453613318 6.88862266291647 0 0 0
607 203 2 -1.1794 5.930772655929582 10.493602651894706 9.1597429726259 0 0 0
628 210 2 -1.1794 1.2964502024001612 6.297951045491076 10.602570060598502 0 0 0
647 216 1 0.5897 6.076713963240507 7.075600693036201 7.253742131221417 0 0 0
748 250 2 -1.1794 1.4364101287673248 12.353903988241948 10.540165502082798 0 0 0
506 169 1 0.5897 4.1923781961118065 6.165275329189792 6.8396809473314075 0 0 0
1107 369 1 0.5897 4.3021567901734015 11.260757440620145 11.976580835597671 0 0 0
1083 361 1 0.5897 4.728334480886207 6.889797222219084 16.321840283888378 0 0 0
1081 361 2 -1.1794 4.691367380680574 7.652537931393701 15.744790660235692 0 0 0
1082 361 1 0.5897 4.713956548514123 8.403475144680758 16.337839553692817 0 0 0
1230 410 1 0.5897 1.4677365202373458 12.236875690660993 16.917324190420384 0 0 0
1084 362 2 -1.1794 2.893364347872262 7.462070731736378 13.507161246880417 0 0 0
1127 376 1 0.5897 5.859227459543309 7.760364094442641 14.218342117419375 0 0 0
1086 362 1 0.5897 3.388940625259582 7.504774491928856 14.324897160462669 0 0 0
1097 366 1 0.5897 0.9537612709626879 7.494817294960903 13.883616010281711 0 0 0
1089 363 1 0.5897 4.836307383215744 10.834532431931018 14.994701037303544 0 0 0
1090 364 2 -1.1794 3.0569200634823366 10.747183780937302 14.974259401967261 0 0 0
1091 364 1 0.5897 2.629503983618261 11.529550847995662 15.322625708680098 0 0 0
1092 364 1 0.5897 2.5858336222200693 10.0172896889838 15.376111959382719 0 0 0
1087 363 2 -1.1794 5.764135171123368 10.608011889573913 15.057814233704432 0 0 0
1095 365 1 0.5897 0.7018119683743436 9.155768916689956 15.950714208073634 0 0 0
1100 367 1 0.5897 3.673983195143554 8.7844272681542 12.621878331901605 0 0 0
1128 376 1 0.5897 5.512573418111272 8.359368582051003 12.872017037596516 0 0 0
1094 365 1 0.5897 1.3566266653528385 8.07613590485061 16.785732177210043 0 0 0
1099 367 2 -1.1794 4.282292878326532 9.37112372601365 12.172553903304276 0 0 0
1103 368 1 0.5897 1.373455138330254 9.992490978660014 12.238113427247193 0 0 0
1102 368 2 -1.1794 1.2572128816022263 10.774805210942331 12.777186839465132 0 0 0
1085 362 1 0.5897 3.348972053614944 6.80211243924643 12.984650906933927 0 0 0
1104 368 1 0.5897 2.0729405730958437 10.848293365065144 13.272494491215067 0 0 0
1093 365 2 -1.1794 1.4714812575380714 8.9797685597023 16.491796902820145 0 0 0
1096 366 2 -1.1794 0.07839265493185407 7.881832090113399 13.872779523933904 0 0 0
1105 369 2 -1.1794 4.5243561128246235 12.161712426190515 12.211214278367116 0 0 0
1108 370 2 -1.1794 1.3915013710507298 6.1163857173877245 16.628461079227357 0 0 0
986 329 1 0.5897 5.170001267612012 6.2714489787721055 12.59314862287524 0 0 0
1179 393 1 0.5897 -0.08871278557910214 10.66882424855193 14.14121425466239 1 0 0
1178 393 1 0.5897 -0.13384322402322843 11.42983826479699 15.449035441508068 1 0 0
1126 376 2 -1.1794 6.100540303531239 7.732015392034687 13.292568104471084 0 0 0
750 250 1 0.5897 1.3418163475725133 12.092998831398846 11.456175148494996 0 0 0
1587 529 1 0.5897 4.668570507677093 11.02028394108189 17.805042861274412 0 0 0
1576 526 2 -1.1794 -0.0503417946251717 7.705930305424644 19.32945862401033 0 0 0
1658 553 1 0.5897 0.22996517854190862 10.483473548226279 20.913049562769135 1 0 0
1561 521 2 -1.1794 4.866242017582483 7.847721845227538 21.425912150674982 0 0 0
1562 521 1 0.5897 4.963456289469961 6.9227180574638805 21.65188682414981 0 0 0
1563 521 1 0.5897 4.047312244821561 7.889352484476987 20.932186076009504 0 0 0
1564 522 2 -1.1794 2.9280465615003615 7.754719457751584 19.656155883833787 0 0 0
1565 522 1 0.5897 1.9933715234814242 7.878104705515481 19.49087914614799 0 0 0
1566 522 1 0.5897 3.119672813042312 6.882676484508661 19.311250354659407 0 0 0
1584 528 1 0.5897 1.487961366814195 10.284563869632906 17.913908438781057 0 0 0
1570 524 2 -1.1794 3.221234639478065 10.596321003231566 20.8232432252382 0 0 0
1571 524 1 0.5897 3.1290732507822328 10.724228955740747 19.87918972768337 0 0 0
1572 524 1 0.5897 4.164546624269824 10.637839390593644 20.980077578621408 0 0 0
1581 527 1 0.5897 5.351626467316476 8.52308872183803 18.465022331789086 0 0 0
1575 525 1 0.5897 1.9963045533758819 9.263148475808883 21.706985162627102 0 0 0
1579 527 2 -1.1794 4.751516385886488 9.205996657100826 18.1656037203857 0 0 0
1585 529 2 -1.1794 4.713776787842737 11.976177915383042 17.785761750325303 0 0 0
1573 525 2 -1.1794 1.1156371962767107 9.158934232321158 22.067144050780467 0 0 0
1608 536 1 0.5897 5.98851150292081 7.659777068696504 19.868713622137875 0 0 0
1582 528 2 -1.1794 1.6518323812004714 11.0562446098216 18.45592594550771 0 0 0
1583 528 1 0.5897 0.8382277556570886 11.184102720544484 18.94361479092426 0 0 0
1580 527 1 0.5897 3.900894113366051 8.951686715353414 18.523258763641156 0 0 0
1589 530 1 0.5897 1.4383460959512335 7.321496726401907 22.090863722828722 0 0 0
1710 570 1 0.5897 2.115528003715666 12.047001808228405 21.771920333811423 0 0 0
1588 530 2 -1.1794 1.3789460222105825 6.366617238112372 22.062047016876644 0 0 0
1567 523 2 -1.1794 5.914786410707601 10.75854384480011 21.023402807730054 0 0 0
1586 529 1 0.5897 5.475021911693501 12.19133701628271 18.324603901651244 0 0 0
1709 570 1 0.5897 0.6073760719867993 12.172655911572146 21.734406415572906 0 0 0
255 85 1 0.5897 1.8581374214194666 15.58444689559076 4.513715030156088 0 0 0
254 85 1 0.5897 0.3840395194408689 15.267700857538713 4.64954062521331 0 0 0
241 81 2 -1.1794 4.879030408687827 13.94716575622287 4.691481778147308 0 0 0
242 81 1 0.5897 4.756785190574377 13.151585893053825 5.209404201251565 0 0 0
243 81 1 0.5897 4.194059677025527 13.906678455412981 4.024170189830857 0 0 0
244 82 2 -1.1794 2.9214822852871913 13.872526610252311 2.4934328215637174 0 0 0
245 82 1 0.5897 2.002992242482012 13.921349540765245 2.228578795215368 0 0 0
246 82 1 0.5897 3.375703210987506 14.465387674177956 1.8948293480367324 0 0 0
147 49 1 0.5897 3.8293560915003715 12.460053774449026 1.4353456836599698 0 0 0
250 84 2 -1.1794 2.7534268903770855 17.24880529454585 3.7332003109724385 0 0 0
251 84 1 0.5897 2.3058787760076807 17.120115366012477 2.896991465639001 0 0 0
252 84 1 0.5897 3.684384584361714 17.24049097122649 3.5109275732289835 0 0 0
253 85 2 -1.1794 1.2358579106319738 15.092592623976403 5.049422809242024 0 0 0
146 49 1 0.5897 5.298649062662748 12.530633689198691 1.0777059269434675 0 0 0
256 86 2 -1.1794 0.15172594470449313 13.993449566719864 1.7504598678814984 0 0 0
269 90 1 0.5897 1.6876941380947343 13.323357616777114 5.105105641742207 0 0 0
259 87 2 -1.1794 4.416303782811643 15.645845880896648 0.72422598764122 0 0 0
264 88 1 0.5897 1.451984016199268 17.646030803435856 0.7212467678680466 0 0 0
262 88 2 -1.1794 1.4519559310575283 16.887657299925152 1.305198446793829 0 0 0
263 88 1 0.5897 1.7639220230975399 16.165201748349524 0.7603297220679573 0 0 0
260 87 1 0.5897 4.400109467798271 16.598548164175675 0.6334402124566941 0 0 0
268 90 2 -1.1794 1.7060592240359729 12.374972484818063 5.233069605229052 0 0 0
338 113 1 0.5897 0.2811843837900049 17.04944859351584 2.6250765721455878 1 0 0
339 113 1 0.5897 0.334914389081068 17.702472324337183 3.989714826695251 1 0 0
265 89 2 -1.1794 4.680815965119397 18.346987218962322 0.8138645603645318 0 0 0
257 86 1 0.5897 -0.13535262484673893 14.770587720014447 1.2711043280311316 0 0 0
247 83 2 -1.1794 6.059875340215893 17.16865639935777 3.7797769958936476 0 0 0
288 96 1 0.5897 5.897654688260304 14.743097322575984 1.8409986977125046 0 0 0
287 96 1 0.5897 5.988999597196166 13.897262863596996 3.0931178498188614 0 0 0
818 273 1 0.5897 0.22345543655210048 17.016101933293115 8.441570359938522 1 0 0
721 241 2 -1.1794 4.669952695855036 13.919490169010297 10.194551853641483 0 0 0
722 241 1 0.5897 3.902904785404284 14.238037707884331 9.718833246955457 0 0 0
741 247 1 0.5897 4.49881289046336 16.66723686677354 6.366747606414048 0 0 0
724 242 2 -1.1794 2.796806401056922 13.879101717546526 7.945071079614985 0 0 0
725 242 1 0.5897 3.0097447646704083 14.50930604850658 7.256871891249158 0 0 0
726 242 1 0.5897 3.0278221010303574 13.028653578876535 7.571558226751346 0 0 0
817 273 2 -1.1794 -0.05274598435272747 17.060554157962777 9.35690377965567 1 0 0
728 243 1 0.5897 5.0208694036569685 17.13746349785298 9.251483464104728 0 0 0
730 244 2 -1.1794 3.1621766408914795 17.11571947878057 9.18428917727611 0 0 0
735 245 1 0.5897 1.016551297835621 15.782384801592372 10.287493910076412 0 0 0
732 244 1 0.5897 2.8292185508667864 16.32265954614299 9.604211762237544 0 0 0
733 245 2 -1.1794 1.7207147933368878 15.2488525093536 10.655792392715178 0 0 0
768 256 1 0.5897 5.853741706349053 14.474968356082304 7.651858465821207 0 0 0
723 241 1 0.5897 5.302360196804639 13.699654047253924 9.510551308613401 0 0 0
737 246 1 0.5897 0.7044507913985307 14.019520371789401 8.28775405229117 0 0 0
731 244 1 0.5897 2.824842851743668 17.073188593816095 8.289578732375439 0 0 0
1106 369 1 0.5897 4.709705106248524 12.588752877273485 11.374921577291328 0 0 0
742 248 2 -1.1794 1.2629074824280428 17.06256056110607 7.074951260274406 0 0 0
739 247 2 -1.1794 4.561803514546649 15.750701450828748 6.635333420485516 0 0 0
744 248 1 0.5897 1.4082391815023938 16.397926472092962 6.401704817876735 0 0 0
743 248 1 0.5897 1.1221930041859214 17.87306308682741 6.585638579790932 0 0 0
749 250 1 0.5897 1.6155416240490144 13.293484015610543 10.575524739270513 0 0 0
740 247 1 0.5897 4.791230137078563 15.280903771954337 5.833608790277915 0 0 0
869 290 1 0.5897 0.7714929266913622 18.524783897130458 10.233933986921203 0 0 0
727 243 2 -1.1794 5.8925635297269405 16.81595540602302 9.481561696638192 0 0 0
1221 407 1 0.5897 4.562575090997239 15.28954627050249 11.40420594950291 0 0 0
870 290 1 0.5897 2.2730324468880934 18.543838225611395 10.425647188348538 0 0 0
1220 407 1 0.5897 3.7567145231022496 15.315087324078974 12.685426562741652 0 0 0
1201 401 2 -1.1794 4.471155496888945 13.905328258012434 15.734733425051589 0 0 0
1217 406 1 0.5897 0.032389214643700176 14.980263789064017 12.745258458200535 0 0 0
1298 433 1 0.5897 -0.0567395865700443 17.292332194912067 14.060418396505083 1 0 0
1204 402 2 -1.1794 2.8008440098192504 14.04817755506709 13.43664617785691 0 0 0
1205 402 1 0.5897 3.245384696395595 14.044715184510094 14.284275547128948 0 0 0
1206 402 1 0.5897 3.0049166001752763 13.194379633975682 13.05517297155246 0 0 0
1215 405 1 0.5897 2.133696144087446 15.788554290098611 15.887821369165389 0 0 0
1210 404 2 -1.1794 3.30515934037632 17.18229068973387 15.14282542622017 0 0 0
1211 404 1 0.5897 3.0175421487580314 17.829679082408568 15.786476876359979 0 0 0
1212 404 1 0.5897 4.260236139718321 17.18939797317769 15.205583757380989 0 0 0
1214 405 1 0.5897 0.6441883496578912 15.696758443095241 15.63353715062018 0 0 0
1247 416 1 0.5897 5.81438694566627 14.682005729115382 13.09575608714877 0 0 0
1227 409 1 0.5897 4.42440600241713 17.618579518209277 12.16331611175855 0 0 0
1202 401 1 0.5897 5.167834091816884 13.896397980410852 15.078463410296408 0 0 0
1218 406 1 0.5897 1.0549466531862322 14.037978522205975 13.34371849292836 0 0 0
1203 401 1 0.5897 4.765024046559603 13.288525118220447 16.405044865536087 0 0 0
1229 410 1 0.5897 1.3618382194127416 13.520343759183048 16.121621344814038 0 0 0
1222 408 2 -1.1794 1.48576659323529 16.981514147234982 12.865686026548623 0 0 0
1223 408 1 0.5897 1.5403521052866596 17.72578399114 12.266347566663443 0 0 0
1224 408 1 0.5897 2.21364649521787 17.109358058149056 13.473943748125937 0 0 0
1213 405 2 -1.1794 1.3463548864034016 15.318970724065998 16.163049043128176 0 0 0
1228 410 2 -1.1794 1.3182146212443824 12.568393701246123 16.031978017114216 0 0 0
1219 407 2 -1.1794 4.43482989302513 15.793066629558025 12.208105908951143 0 0 0
734 245 1 0.5897 1.6611858540051176 15.3918150558681 11.600309600529702 0 0 0
1225 409 2 -1.1794 4.251289332310029 18.552797269452057 12.279170488783455 0 0 0
1216 406 2 -1.1794 0.120830629654892 14.117798384301741 13.150804960435124 0 0 0
1207 403 2 -1.1794 6.053192297128588 17.077070292566198 15.109036772111153 0 0 0
1700 567 1 0.5897 4.845136044045112 15.27627080982538 17.03987800607738 0 0 0
1248 416 1 0.5897 5.680057733190494 13.188410348387642 13.302659216812362 0 0 0
1350 450 1 0.5897 0.9817400666780609 18.397070703309538 16.184480515113453 0 0 0
1697 566 1 0.5897 1.0341343085222559 13.896111122188472 19.173619217862434 0 0 0
1708 570 2 -1.1794 1.3915250994423816 12.57623175762124 22.106408639273045 0 0 0
1681 561 2 -1.1794 4.445041570450361 13.952609226585306 21.49030939923829 0 0 0
1705 569 2 -1.1794 4.937695172206077 18.44438565286141 18.192068739299973 0 0 0
1683 561 1 0.5897 4.393035521023579 13.25408779413162 22.142601665473247 0 0 0
1684 562 2 -1.1794 2.9757410773643946 13.868320724202993 19.218200023216166 0 0 0
1695 565 1 0.5897 1.459268568938013 14.37020044828637 22.023831315334174 0 0 0
1686 562 1 0.5897 3.4773926404905646 14.062554967979057 20.009864047778557 0 0 0
1693 565 2 -1.1794 1.5704029944144495 15.320395707414262 21.993364005256474 0 0 0
1689 563 1 0.5897 5.124052373667561 16.953214606067917 20.723624191138185 0 0 0
1690 564 2 -1.1794 3.3211062802110587 17.07027522641138 20.693594634031218 0 0 0
1691 564 1 0.5897 2.816722565063786 16.422422950430473 21.185548879806568 0 0 0
1692 564 1 0.5897 2.793206514139805 17.244036059475082 19.91433831424745 0 0 0
1699 567 2 -1.1794 4.988349374406515 15.66510540475629 17.902664992638876 0 0 0
1685 562 1 0.5897 3.3144310202923224 13.023995110416331 18.920624586082194 0 0 0
1682 561 1 0.5897 5.211130613494753 13.730368837549928 20.96129601490902 0 0 0
1778 593 1 0.5897 0.054588442806139226 16.95299430282508 19.805690558747592 1 0 0
1694 565 1 0.5897 0.9218133185058137 15.617527060317332 21.355261904848618 0 0 0
1707 569 1 0.5897 5.201190568271086 17.532467628568725 18.069082156138233 0 0 0
1701 567 1 0.5897 4.144021950697376 15.583056531501828 18.345979413429323 0 0 0
1702 568 2 -1.1794 1.3992366743965043 16.90039905083718 18.480051331086877 0 0 0
1703 568 1 0.5897 1.3037561548339867 16.264828039167103 17.770792473128253 0 0 0
1704 568 1 0.5897 1.3748464522213895 17.75210189125953 18.043994644571846 0 0 0
1830 610 1 0.5897 2.2075441583032824 18.203399523157245 21.673327479850684 0 0 0
1698 566 1 0.5897 -0.032981898235488416 14.791118865278852 18.580397371488125 0 0 0
1687 563 2 -1.1794 6.058266537947223 17.096503249547723 20.874858437187555 0 0 0
1779 593 1 0.5897 0.12788616640282036 17.643593350372203 21.150780489978718 1 0 0
1696 566 2 -1.1794 0.0873848683209171 13.96689794602707 19.051891553651306 0 0 0
1728 576 1 0.5897 6.066331587617438 14.362437606230246 18.884628078786648 0 0 0
1828 610 2 -1.1794 1.412666862573429 18.60059757266717 22.029072042967446 0 0 0
261 87 1 0.5897 4.541175653733964 15.32186950622438 22.755286484106357 0 0 -1
390 130 1 0.5897 1.215290658135315 19.90817102272729 4.915109501530643 0 0 0
363 121 1 0.5897 4.503663037160593 20.939148320228902 4.887221785448369 0 0 0
361 121 2 -1.1794 4.721966093767124 20.219658777371976 4.294932688016325 0 0 0
362 121 1 0.5897 3.972960956825794 20.161408268647495 3.701862790441273 0 0 0
376 126 2 -1.1794 0.05351381272792449 19.891798524798773 2.0683252286911697 0 0 0
364 122 2 -1.1794 3.0439319543200445 20.16575739102967 2.1576707847768115 0 0 0
365 122 1 0.5897 3.268936569562076 20.79486358247978 1.4723108606203932 0 0 0
384 128 1 0.5897 1.6518077206794124 22.656756719230884 0.7486534910778886 0 0 0
366 122 1 0.5897 2.0888936564485836 20.20046777484977 2.2111335892192603 0 0 0