LAMMPS data file via write_data, version 30 Jul 2021, timestep = 19000000

1008 atoms
2 atom types
672 bonds
1 bond types
336 angles
1 angle types

-3.262173267922593 14.87217226747804 xlo xhi
-0.22558045360880996 22.80557945360889 ylo yhi
-0.12918205930481363 19.359180059301778 zlo zhi
-0.015616395835132631 -6.696748969457734 0.07104356196387869 xy xz yz

Masses

1 1.008
2 15.999

Pair Coeffs # lj/cut/tip4p/long/omp

1 0 0
2 0.21084 3.1668

Bond Coeffs # harmonic/omp

1 450 0.9572

Angle Coeffs # harmonic/omp

1 55 104.52

Atoms # full

122 41 1 0.5897 -2.554176586696352 1.795023919462146 1.5924995731781413 1 0 0
57 19 1 0.5897 0.18204829741106288 4.038827454869172 2.4501338214316193 0 0 0
56 19 1 0.5897 -1.0383462999487456 3.327663855121963 2.9954000689966853 0 0 0
123 41 1 0.5897 -3.515603163472263 2.5402556777056016 2.4938116466684708 1 0 0
86 29 1 0.5897 -2.793468703345317 1.4092590219176058 3.88211347851115 1 0 0
55 19 2 -1.1794 -0.4701281125869312 4.082542154903165 3.1494838987061002 0 0 0
121 41 2 -1.1794 -2.6225529403853733 2.197362406791644 2.458372648120747 1 0 0
163 55 2 -1.1794 -2.28369004580059 1.0665568143350939 0.05977550573304566 1 0 0
158 53 1 0.5897 -4.7513176254158385 4.347433433471985 4.622996923837632 1 0 0
114 38 1 0.5897 -3.780960255661375 5.2223107943079015 1.897779625147551 1 0 0
602 201 1 0.5897 -0.9155730855980142 5.439981450055267 0.13909463492295426 1 0 1
19 7 2 -1.1794 0.8675396896433627 2.582536666842179 -0.09025511336863733 0 0 0
113 38 1 0.5897 -3.737380591121031 5.385930472528424 3.4021819209845137 1 0 0
101 34 1 0.5897 -2.512553082608158 4.357140086214476 0.06275218418064207 1 0 0
85 29 2 -1.1794 -2.787702037001693 0.980753170075759 4.737960612074033 1 0 0
603 201 1 0.5897 -0.34431661084331644 4.053930807421716 -0.0714186110803369 1 0 1
134 45 1 0.5897 -2.5719911989793993 2.379275650768391 5.933497360907499 1 0 0
135 45 1 0.5897 -1.9785437459436457 3.4133986716219775 6.8666375742144465 1 0 0
69 23 1 0.5897 -3.2974141387044957 0.7405149396060543 8.798391797905449 0 0 0
124 42 2 -1.1794 -5.515948974188005 2.521069131068963 7.4694654881280895 1 0 0
157 53 2 -1.1794 -4.269869348445568 4.899111658105217 5.239682205797081 1 0 0
669 223 1 0.5897 -5.6869988045827435 1.659097675922063 8.97743170793849 1 0 0
133 45 2 -1.1794 -2.803331988689388 2.9843266732407785 6.638238060553742 1 0 0
126 42 1 0.5897 -4.652723346263953 2.8359216123082605 7.200781600269374 1 0 0
67 23 2 -1.1794 -2.8378576164565974 0.00586321335618159 8.39177607234415 0 0 0
159 53 1 0.5897 -3.6273448736275764 4.311149155832392 5.636688527743924 1 0 0
98 33 1 0.5897 -4.071684326844401 5.207210364760704 8.501139876605563 1 0 0
97 33 2 -1.1794 -4.0626951987552005 4.815317719212242 9.374325817055526 1 0 0
87 29 1 0.5897 -3.6918328464340835 0.6946653755541422 4.869227907009505 1 0 0
667 223 2 -1.1794 -5.768544696903882 0.9344648022724424 9.59737717598648 1 0 0
561 187 1 0.5897 -4.522501063700094 3.5857522798516905 12.449546419367937 0 0 0
559 187 2 -1.1794 -4.054506217848605 4.240755009660858 12.967608741637124 0 0 0
625 209 2 -1.1794 -5.92519952493863 2.2546991216303924 12.290762327212532 1 0 0
560 187 1 0.5897 -3.709408209044841 3.753421088784837 13.71561470322156 0 0 0
627 209 1 0.5897 -6.749644241311694 2.636759429701746 12.59189255231248 1 0 0
662 221 1 0.5897 -7.538557308547001 4.666180277273458 14.062819890010813 1 0 0
626 209 1 0.5897 -5.663364510427309 1.662802918633505 12.995874339657027 1 0 0
668 223 1 0.5897 -5.981074448843966 1.354410296739792 10.430870061369594 1 0 0
524 175 1 0.5897 -3.0724062526948086 3.2772497894504338 9.857704419332554 0 0 0
523 175 2 -1.1794 -2.70351687162954 2.4174410917937914 10.059543953820244 0 0 0
99 33 1 0.5897 -3.905161765759845 5.551055500862988 9.966062923366405 1 0 0
606 202 1 0.5897 -5.8807114244303005 4.725505671918503 9.644675947547828 1 0 0
629 210 1 0.5897 -8.954782370559919 3.189803821785839 16.86410621869144 1 0 0
630 210 1 0.5897 -8.506111833986072 1.7819571086656278 16.534754872448694 1 0 0
637 213 2 -1.1794 -5.958233934630048 3.1184876360941796 15.931097271939489 1 0 0
164 55 1 0.5897 -8.812678380408634 1.7017078270377641 18.793298294847528 1 0 -1
639 213 1 0.5897 -6.1487742184243235 3.7748193256468863 15.261022011743457 1 0 0
628 210 2 -1.1794 -8.430620098541766 2.4638668603451874 17.202315661654968 1 0 0
638 213 1 0.5897 -6.771985605172125 3.0409120206516307 16.42927961866624 1 0 0
589 197 2 -1.1794 -5.550165592333646 0.6642420451598438 14.65471354688328 1 0 0
590 197 1 0.5897 -5.560269883976896 1.4375050187559177 15.218870562631702 1 0 0
601 201 2 -1.1794 -7.520532886291875 4.822014028907169 18.969321313882496 1 0 0
571 191 2 -1.1794 -5.850174793095436 0.21236907422340795 18.281650943593643 0 0 0
20 7 1 0.5897 -6.039520670163944 1.807634486381434 19.002546906083097 0 0 -1
165 55 1 0.5897 -9.766910857736278 0.6461615502440654 19.31049774221106 1 0 -1
591 197 1 0.5897 -4.844181360105021 0.12097380760064447 15.004946992472695 1 0 0
593 198 1 0.5897 -7.394152003461582 0.3648308150800562 15.046408486315793 1 0 0
661 221 2 -1.1794 -6.97793428127673 5.305134907073752 14.503148628877545 1 0 0
592 198 2 -1.1794 -8.291570205875654 0.6504907933358127 14.874955646767122 1 0 0
549 183 1 0.5897 -4.639626261924698 4.29433616834218 16.84671729551271 0 0 0
291 97 1 0.5897 -3.608932320453426 10.29109356024073 2.657589941009678 1 0 0
146 49 1 0.5897 -1.8012372018687697 6.332523028942316 1.9599316383484306 1 0 0
147 49 1 0.5897 -1.406694572878521 7.369326321605713 0.9298275012613404 1 0 0
289 97 2 -1.1794 -2.734992649598973 9.918344889031754 2.5407155727217225 1 0 0
145 49 2 -1.1794 -1.092093568695776 6.577164340723433 1.3652554503466994 1 0 0
332 111 1 0.5897 -2.312897315288163 9.202311141776477 0.8571459320560375 1 0 0
290 97 1 0.5897 -2.138411439826368 10.611643787443242 2.823372996309092 1 0 0
255 85 1 0.5897 -2.3575257991422127 9.112907912004777 4.028537324909119 1 0 0
112 38 2 -1.1794 -3.6530419240911316 5.8765944505033305 2.584719320054108 1 0 0
8 3 1 0.5897 -0.9456011624538236 5.547974491634717 4.093832963264031 0 0 0
200 67 1 0.5897 0.19959996607145403 7.741898946816423 2.104845715475158 0 0 0
187 63 2 -1.1794 0.9634421473423531 10.05829080789681 0.4830427934467345 0 0 0
224 75 1 0.5897 -0.6039976586833555 11.14975157601824 4.381181639699034 0 0 0
331 111 2 -1.1794 -2.0796676782625116 8.779269179091118 0.030755987236923882 1 0 0
293 98 1 0.5897 -4.312535229898963 10.586954712222584 7.21696375083954 1 0 0
7 3 2 -1.1794 -1.0165782481658026 6.182447426999954 4.807042209370385 0 0 0
292 98 2 -1.1794 -5.177261978303369 10.209525435446766 7.379140902213108 1 0 0
294 98 1 0.5897 -5.120493759949046 9.851523216061207 8.264998241899935 1 0 0
111 37 1 0.5897 -4.987372202964085 7.083000207428387 7.157908455844171 1 0 0
236 79 1 0.5897 -2.922670248221431 7.566782587935514 8.001825058713175 0 0 0
237 79 1 0.5897 -2.2541527453243577 8.67861684167151 8.782397600570365 0 0 0
302 101 1 0.5897 -2.227867792422372 10.244204198740134 6.054329509790631 1 0 0
109 37 2 -1.1794 -4.186471110216431 6.562209411647358 7.217909785465187 1 0 0
235 79 2 -1.1794 -2.0665148428440987 7.9532918100685475 8.186592456204444 0 0 0
301 101 2 -1.1794 -2.5873761774200967 10.985278267410848 6.542004750906486 1 0 0
110 37 1 0.5897 -4.144634783089897 6.089729226821656 6.386488833918547 1 0 0
837 279 1 0.5897 -5.9967111100375625 8.56154099036361 9.442098434692813 1 0 0
256 86 2 -1.1794 -5.009000886647154 8.442690229403192 5.3582292479009315 1 0 0
258 86 1 0.5897 -5.217489185582691 9.072801763203943 6.047998543689247 1 0 0
257 86 1 0.5897 -4.053118091755486 8.451402827949758 5.3062032585944845 1 0 0
9 3 1 0.5897 -0.8348521149827564 5.675457980842219 5.598270465159758 0 0 0
253 85 2 -1.1794 -2.181540113448767 8.79519585062253 4.914101921399578 1 0 0
254 85 1 0.5897 -1.7915868921623326 7.9305489822220245 4.785674697317994 1 0 0
794 265 1 0.5897 -5.401685186320938 10.867988631382865 12.429082201573832 1 0 0
691 231 2 -1.1794 -2.3230986517195182 10.182761436089523 9.791717095748039 0 0 0
617 206 1 0.5897 -7.291162259971967 7.149668537343244 11.77510830848597 1 0 0
759 253 1 0.5897 -5.830446635896298 9.03573377588065 13.598579810475897 1 0 0
649 217 2 -1.1794 -4.103970506821259 6.952657314381486 11.06670196923519 1 0 0
616 206 2 -1.1794 -6.610996692052497 6.577096549833686 12.129699574578504 1 0 0
651 217 1 0.5897 -4.915205591934303 6.930048410035437 11.574449709961781 1 0 0
795 265 1 0.5897 -5.872400957210642 9.918032976557678 11.348205376753105 1 0 0
793 265 2 -1.1794 -6.086572433704015 10.230220394571873 12.22737318210858 1 0 0
650 217 1 0.5897 -3.448410883067529 7.291688393665518 11.676417295625807 1 0 0
836 279 1 0.5897 -4.716376539709435 8.381430347127464 10.229842235139639 1 0 0
513 171 1 0.5897 -4.246259596740523 5.912580547942944 13.960862165964551 0 0 0
618 206 1 0.5897 -6.515491887511574 5.884504107889028 11.475869783418718 1 0 0
835 279 2 -1.1794 -5.292193097936099 9.053126001473263 9.864602649874165 1 0 0
663 221 1 0.5897 -6.875776778615912 6.013269604920687 13.867353234264995 1 0 0
757 253 2 -1.1794 -5.7793357497672595 8.511076756517488 14.397462104790046 1 0 0
797 266 1 0.5897 -7.283656085233542 10.482535448023322 16.734210379162455 1 0 0
805 269 2 -1.1794 -5.670117212401641 10.773834080716135 15.835295010399985 1 0 0
758 253 1 0.5897 -5.706038546081356 9.154191879097887 15.102702772824548 1 0 0
739 247 2 -1.1794 -5.6458069250679985 8.235015223167823 17.755795080243995 0 0 0
796 266 2 -1.1794 -8.203599768918998 10.42889117989127 16.993651556192663 1 0 0
741 247 1 0.5897 -5.904484996928412 8.946819999540848 18.341185530567657 0 0 0
613 205 2 -1.1794 -7.747445107793173 6.4847079202884865 16.928855747585626 1 0 0
740 247 1 0.5897 -6.472674231949874 7.842522018688777 17.475137697300358 0 0 0
807 269 1 0.5897 -4.8953658398583055 11.157142397301678 16.24681708480306 1 0 0
798 266 1 0.5897 -8.575241625341338 9.756193798241648 16.42288606033344 1 0 0
615 205 1 0.5897 -7.6037876725323645 6.026569881972067 16.10074984905527 1 0 0
333 111 1 0.5897 -8.4519985423259 9.562587624463756 18.9680934816368 1 0 -1
762 254 1 0.5897 -7.554297726010257 8.405314479753322 14.595379588214083 1 0 0
512 171 1 0.5897 -4.605762707454728 7.173385812085813 14.717867706600845 0 0 0
614 205 1 0.5897 -7.421557559475861 5.881381267020024 17.59657969980407 1 0 0
511 171 2 -1.1794 -4.02237351393986 6.415004737288204 14.74430416109776 0 0 0
281 94 1 0.5897 -3.3953798184248543 13.630468329933729 1.9509053193750105 1 0 0
280 94 2 -1.1794 -3.381573168903475 14.305259605205148 2.629721935018642 1 0 0
314 105 1 0.5897 -1.5571630486766628 14.481345399554078 2.2122432072648457 1 0 0
223 75 2 -1.1794 -1.0211411549422356 11.695974094809445 3.715049781275376 0 0 0
423 141 1 0.5897 -2.466184048082752 16.673327900446008 3.7492263953295097 1 0 0
282 94 1 0.5897 -3.5148450750011935 13.825885348339886 3.447387772675737 1 0 0
313 105 2 -1.1794 -0.6723692295755486 14.53891149845729 1.8513132542361204 1 0 0
315 105 1 0.5897 -0.5229712879500727 13.685159236777116 1.4450672526176196 1 0 0
225 75 1 0.5897 -0.9182702094810518 12.590634303865816 4.039563085934819 0 0 0
500 167 1 0.5897 -1.4614763466978078 16.093704568342076 0.7512258342441629 1 0 0
499 167 2 -1.1794 -2.035726136562335 16.758056907312014 0.37041919215469954 1 0 0
769 257 2 -1.1794 -0.8744006610864785 12.124283383690067 0.26744649522397923 1 0 1
771 257 1 0.5897 -0.10424630949606906 11.559140881101449 0.3285085823863279 1 0 1
270 90 1 0.5897 -2.6146193332435756 12.127918416240814 0.47024121548387654 1 0 0
421 141 2 -1.1794 -2.266776386963179 16.34022024236425 4.6241080829508325 1 0 0
327 109 1 0.5897 -4.532363666033229 13.144135008326735 5.7453202874400215 1 0 0
403 135 2 -1.1794 -2.4722760293333432 15.85479836593522 8.013216290490648 0 0 0
279 93 1 0.5897 -5.3150191738264265 14.13296051412296 7.66259173167294 1 0 0
267 89 1 0.5897 -3.930924895366938 12.667196867171574 8.949707921477689 1 0 0
277 93 2 -1.1794 -4.42455648985387 13.853487658844292 7.4495986028412196 1 0 0
278 93 1 0.5897 -3.883870335153637 14.625377453334544 7.617743238634992 1 0 0
303 101 1 0.5897 -1.8186518143490211 11.455114307098372 6.865817734436407 1 0 0
326 109 1 0.5897 -3.491047418423265 12.060174176100862 5.564731994461598 1 0 0
176 59 1 0.5897 -1.1984971719856086 14.810246719968303 4.926686806514832 0 0 0
405 135 1 0.5897 -2.587905951584141 16.557321622018733 8.653042162264017 0 0 0
404 135 1 0.5897 -1.7016317506628038 16.11461504771093 7.508218607027734 0 0 0
175 59 2 -1.1794 -0.7220100994557415 14.001365759953677 5.1132691086053965 0 0 0
425 142 1 0.5897 -4.0120952325981 16.14585102726207 5.062781545869351 1 0 0
1003 335 2 -1.1794 -5.610433801522399 16.518642794199828 9.466433143473045 1 0 0
1004 335 1 0.5897 -5.243631597048825 16.934308901329132 8.68612854967634 1 0 0
424 142 2 -1.1794 -4.934042381811747 16.178174685616444 5.318597885953171 1 0 0
325 109 2 -1.1794 -4.198583333949895 12.51394339290885 5.106783188604482 1 0 0
930 310 1 0.5897 -7.4978571659273365 16.043330790213957 14.439667807273311 1 0 0
819 273 1 0.5897 -4.116063975402762 13.791757882444937 10.576752160643098 1 0 0
831 277 1 0.5897 -7.719076710784811 12.309139580702933 14.285657967218567 1 0 0
784 262 2 -1.1794 -6.74352283911713 13.863234817752495 12.12972048093083 1 0 0
818 273 1 0.5897 -5.126227390136007 14.415041330318392 11.516541570657445 1 0 0
729 243 1 0.5897 -4.1734968247144995 12.512353068470222 13.661165588872636 0 0 0
817 273 2 -1.1794 -4.2903746432982 14.585737808967131 11.08219459865766 1 0 0
786 262 1 0.5897 -6.881733318432366 13.618502736905219 13.04468688280575 1 0 0
1005 335 1 0.5897 -4.908755317627145 15.953297836060326 9.789304058729495 1 0 0
265 89 2 -1.1794 -4.109373000322593 12.225613782926953 9.779958007398537 1 0 0
727 243 2 -1.1794 -3.9115560299592764 11.777013166685832 13.107158307895157 0 0 0
773 258 1 0.5897 -6.819469859980841 12.593279905333185 10.82643992283957 1 0 0
266 89 1 0.5897 -3.4732726876800433 11.511148989302978 9.813197063159299 1 0 0
962 321 1 0.5897 -5.931749298376559 16.8161585615848 12.476006392483582 1 0 0
925 309 2 -1.1794 -5.771585183017206 16.061087913190384 14.282988413439591 1 0 0
774 258 1 0.5897 -5.941871073071251 11.992718133042573 9.7488365771339 1 0 0
926 309 1 0.5897 -5.070559098017714 15.421777932963048 14.40970753149727 1 0 0
907 303 2 -1.1794 -5.631778095079625 15.473371810603426 17.935590235314805 0 0 0
830 277 1 0.5897 -7.4300024914673894 13.182817880633294 15.487868424761047 1 0 0
770 257 1 0.5897 -7.541317739193261 12.546100305319817 18.865746951503617 1 0 0
822 274 1 0.5897 -9.768157007737203 15.416072280203409 19.020983824430857 1 0 0
783 261 1 0.5897 -6.986723601252985 14.493750065477188 17.43068645321858 1 0 0
781 261 2 -1.1794 -7.555486359241877 13.724342168740957 17.40104540275204 1 0 0
927 309 1 0.5897 -5.47442641581371 16.839528911425806 14.75427051522931 1 0 0
782 261 1 0.5897 -8.353482695867562 13.997941355736522 17.853433369661296 1 0 0
829 277 2 -1.1794 -7.049136312031131 12.87884436303862 14.663964068452431 1 0 0
908 303 1 0.5897 -4.948751929318635 15.938033840192514 17.451924728077387 0 0 0
806 269 1 0.5897 -6.0454514280438545 11.487174591469367 15.31922175119159 1 0 0
356 119 1 0.5897 -5.6974132080547335 17.099638991815794 19.031260381719616 0 0 -1
679 227 2 -1.1794 -3.9024464955806337 14.003534955316187 14.693200104998594 0 0 0
909 303 1 0.5897 -5.155157089241693 14.854652728449368 18.48889295026781 0 0 0
965 322 1 0.5897 -8.184473851963173 17.03357829475712 16.251813967539025 1 0 0
495 165 1 0.5897 -4.0783397372601575 20.940760780533516 4.0254328236865735 1 0 0
391 131 2 -1.1794 -1.1331692062195895 19.72439772933447 3.0126638092629916 0 0 0
457 153 2 -1.1794 -3.0989457305745756 17.977523879881687 2.5520967540044253 1 0 0
483 161 1 0.5897 -1.6767188481517024 21.940534136800753 1.7590006112644796 1 0 0
938 313 1 0.5897 -0.9625410551898188 20.274800091993836 0.47636214771820873 1 0 1
448 150 2 -1.1794 -3.7169382126306028 21.645421139475975 2.385682176507113 1 0 0
393 131 1 0.5897 -1.2425285112427376 20.54511345741435 3.4930147665441487 0 0 0
481 161 2 -1.1794 -0.8915693539483374 22.16777806611107 1.2606788176545969 1 0 0
459 153 1 0.5897 -2.5681811115031214 18.72710485511766 2.822023679932861 1 0 0
458 153 1 0.5897 -2.606853474996808 17.581699821324698 1.8327657321118673 1 0 0
355 119 2 -1.1794 0.9980186202504697 17.71971681683019 0.20522015278107325 0 0 0
449 150 1 0.5897 -3.6686026070937414 20.95050521107199 1.7291240193053865 1 0 0
392 131 1 0.5897 -0.700067604929643 19.13883559464393 3.633675217993288 0 0 0
437 146 1 0.5897 -2.914696788439409 19.491126854497274 0.13408574872301776 1 0 0
482 161 1 0.5897 -1.2166956222731389 22.68341758024365 0.5227714451667711 1 0 0
939 313 1 0.5897 -0.19883305056206924 19.097222692449982 -0.0910800674098031 1 0 1
493 165 2 -1.1794 -4.279648566203249 20.357309829149152 4.7570085916549605 1 0 0
462 154 1 0.5897 -4.972521413300083 17.426816144980428 6.61540592945691 1 0 0
471 157 1 0.5897 -3.067435131124554 18.37581537425185 6.501851060042855 1 0 0
470 157 1 0.5897 -2.834855698350821 19.42776183709722 5.438386936403382 1 0 0
445 149 2 -1.1794 -4.704678459073869 21.287639053569663 7.44086089105508 1 0 0
446 149 1 0.5897 -4.4998972360993665 20.757625715752503 8.211079088834254 1 0 0
494 165 1 0.5897 -4.379076683672699 20.94100434080534 5.509145286672913 1 0 0
469 157 2 -1.1794 -2.384787768740145 18.753424105693142 5.947107959016277 1 0 0
460 154 2 -1.1794 -4.8774286149666395 18.010511489086788 7.368123329674529 1 0 0
447 149 1 0.5897 -5.604578581184903 21.581066553809492 7.583869960468518 1 0 0
68 23 1 0.5897 -3.5455878385927058 22.519075690467655 7.980414280911134 0 -1 0
422 141 1 0.5897 -2.156421718344224 17.1253266500496 5.160545568403639 1 0 0
345 115 1 0.5897 -1.5714339391805223 22.52330546305094 4.827514828720278 0 0 0
380 127 1 0.5897 -1.3466935906725506 20.148904403291116 7.04228254880799 0 0 0
461 154 1 0.5897 -5.544110151422462 18.68431664054034 7.235006238922525 1 0 0
343 115 2 -1.1794 -0.793437084209236 21.96793663432566 4.776779030143507 0 0 0
985 329 2 -1.1794 -4.160153064537694 22.19949176734397 11.307391710123804 1 0 0
987 329 1 0.5897 -3.728443857804589 22.722304538538737 11.98317496864488 1 0 0
961 321 2 -1.1794 -6.153786314686374 17.56732147577202 11.925972464872016 1 0 0
954 318 1 0.5897 -5.812953889042442 21.608963184625793 12.065888849173373 1 0 0
952 318 2 -1.1794 -6.701503574953543 21.365934080813034 12.326492696028625 1 0 0
896 299 1 0.5897 -4.652217048308996 18.954158878975356 12.445381329654502 0 0 0
895 299 2 -1.1794 -4.204496957362947 19.502595440331984 13.08972225591617 0 0 0
859 287 2 -1.1794 -2.4203115521255163 17.988001774760605 9.841985913829706 0 0 0
434 145 1 0.5897 -4.1133466651680015 20.694930605714113 10.437493301148113 1 0 0
848 283 1 0.5897 -4.192298094049453 20.91835823092462 14.238648409996356 0 0 0
998 333 1 0.5897 -6.974336018296057 20.48320264521036 13.834229637131543 1 0 0
860 287 1 0.5897 -2.996287693603983 18.73454545297472 10.006645166089884 0 0 0
897 299 1 0.5897 -3.7523356374187173 18.881585589799833 13.660678034348965 0 0 0
953 318 1 0.5897 -7.203808926941994 22.17730613872535 12.25233794708154 1 0 0
986 329 1 0.5897 -4.550868014027527 22.844488820988204 10.717985049504222 1 0 0
435 145 1 0.5897 -5.217236740798145 19.799821380893466 9.915173945067975 1 0 0
963 321 1 0.5897 -6.136499739562106 17.22402202365963 11.032605788530487 1 0 0
433 145 2 -1.1794 -4.2741343873881705 19.952816909000425 9.85459519320539 1 0 0
966 322 1 0.5897 -8.680560490604936 18.25358062515022 16.998446868098743 1 0 0
997 333 2 -1.1794 -7.399716587283701 20.02319499377369 14.557891508693539 1 0 0
937 313 2 -1.1794 -7.6686657128650815 19.712378332704013 19.247126558758158 1 0 0
974 325 1 0.5897 -6.365267757358042 17.99575256851348 16.49222232055222 1 0 0
973 325 2 -1.1794 -5.66083866547517 18.25923714119278 15.89999994665271 1 0 0
949 317 2 -1.1794 -7.740112885391844 21.406295160914734 17.1026960220253 1 0 0
950 317 1 0.5897 -7.633524006561254 20.81270649002316 16.35932878743374 1 0 0
951 317 1 0.5897 -7.88781268271809 20.828863654700548 17.851626845321444 1 0 0
975 325 1 0.5897 -5.05170088296328 18.747870800986032 16.453763618433573 1 0 0
964 322 2 -1.1794 -8.02928604846181 17.553390387975174 17.040499385110106 1 0 0
573 191 1 0.5897 -5.28324083446148 22.629702828910798 18.72885791060276 0 -1 0
999 333 1 0.5897 -6.773847516485558 19.34500028855005 14.811894893629413 1 0 0
572 191 1 0.5897 -6.472059364168722 22.686568751407606 17.793064654817325 0 -1 0
847 283 2 -1.1794 -3.9909059352272047 21.43891243795816 15.016345270628543 0 0 0
501 167 1 0.5897 -8.248914621001814 17.15834458871302 19.101126598949755 1 0 -1
5 2 1 0.5897 3.3161361964351235 0.35067371477960885 4.67482139762215 0 0 0
31 11 2 -1.1794 1.1745422418235476 0.9927512598620647 2.156597811873332 0 0 0
54 18 1 0.5897 3.3648831128543186 3.6034541099109374 2.7502599456759067 0 0 0
32 11 1 0.5897 1.0101258577521683 1.220882399464577 3.0715704914344286 0 0 0
71 24 1 0.5897 2.9397022241873128 0.577254090605215 2.0052359966605904 0 0 0
53 18 1 0.5897 4.372712377629064 3.873713155646951 3.8473334678667976 0 0 0
52 18 2 -1.1794 4.068042207185549 3.189740346092246 3.2508888258992914 0 0 0
46 16 2 -1.1794 1.8729350269816045 4.639020155867892 1.8082556838014956 0 0 0
6 2 1 0.5897 3.887834457144642 1.6553828506617292 4.162091091161653 0 0 0
78 26 1 0.5897 0.5151706722192815 2.6330776488505605 4.3222017664097026 0 0 0
528 176 1 0.5897 3.85329976734893 1.8526506645618683 0.2651243427524675 0 0 1
47 16 1 0.5897 1.9273439465039628 5.101695949812935 0.9721328118115087 0 0 0
70 24 2 -1.1794 3.7815211396977295 0.4731043388817898 1.5614969211807295 0 0 0
48 16 1 0.5897 1.794272690506534 5.333573146308815 2.4622491330576732 0 0 0
21 7 1 0.5897 0.9597990138199792 2.394536676645115 0.8437185932058285 0 0 0
33 11 1 0.5897 0.6850313098667615 0.18153911029957548 2.019766271079759 0 0 0
72 24 1 0.5897 4.287396907732705 -0.0996642902954673 2.1378002885158587 0 0 0
76 26 2 -1.1794 1.0110991553176527 1.9018257547251598 4.6902393252311585 0 0 0
18 6 1 0.5897 4.67518028459771 3.9437242234719374 0.09585402533473014 0 0 0
16 6 2 -1.1794 5.24010559720181 4.697992113963237 0.2643833114327756 0 0 0
45 15 1 0.5897 0.5518821677203269 4.299062052324308 6.80896504631554 0 0 0
43 15 2 -1.1794 -0.3537358698177653 4.573910753776161 6.952848189682534 0 0 0
59 20 1 0.5897 1.9362256719374642 3.0271196861605456 5.699180968678786 0 0 0
34 12 2 -1.1794 -0.10116426636433218 0.9185484892296414 7.414541542751613 0 0 0
35 12 1 0.5897 -0.06164452512074181 1.6876914198075448 7.983031474852369 0 0 0
401 134 1 0.5897 1.367668573480536 -0.05326664013194263 8.077515229797093 0 1 0
58 20 2 -1.1794 2.137351540020811 3.835848876774665 6.170207036301327 0 0 0
60 20 1 0.5897 2.92924434397926 3.633051986249233 6.668315391124719 0 0 0
77 26 1 0.5897 0.655678135849123 1.7905871248489467 5.572011375610059 0 0 0
36 12 1 0.5897 -1.0349805752305223 0.7195642754688358 7.344373181940828 0 0 0
11 4 1 0.5897 1.955596320736663 5.458358912738412 5.1630806114733945 0 0 0
402 134 1 0.5897 2.4949686656066348 0.30509187497411006 9.022599681534148 0 1 0
522 174 1 0.5897 1.8987232925238189 5.122889094113024 9.49723764618109 0 0 0
44 15 1 0.5897 -0.33150415077635564 5.047469428665743 7.7844358520975065 0 0 0
4 2 2 -1.1794 3.955718279096901 1.0314025864539993 4.884671982805495 0 0 0
22 8 2 -1.1794 -0.07967220320377377 2.5421018512938662 9.455166719169105 0 0 0
557 186 1 0.5897 0.41600348260221054 2.7499783796133586 13.163248180082944 0 0 0
550 184 2 -1.1794 -1.6033349736495284 5.122742428383957 11.785192791932936 0 0 0
576 192 1 0.5897 -0.5503257434939233 0.7173087184334563 11.937513957183565 0 0 0
558 186 1 0.5897 -0.3169852884025417 3.8357697273766123 12.404716500638736 0 0 0
552 184 1 0.5897 -2.537997045530215 4.9496785439204265 11.899019933060853 0 0 0
556 186 2 -1.1794 0.5541327603500559 3.581189674925507 12.709198870691433 0 0 0
536 179 1 0.5897 -2.561172993703396 1.5659452145316537 13.29706014180326 0 0 0
535 179 2 -1.1794 -2.520383411594654 1.036375079540819 12.500699218203103 0 0 0
574 192 2 -1.1794 0.13654040197814377 0.5460790920165028 11.293116813213825 0 0 0
537 179 1 0.5897 -2.7797514156114245 1.6353360757940458 11.800668527347273 0 0 0
23 8 1 0.5897 -0.015312967984584258 1.8305275067631568 10.091985848071591 0 0 0
575 192 1 0.5897 0.7312085221230635 -0.06214510319950767 11.731970450651882 0 0 0
587 196 1 0.5897 -0.9869005729666842 5.499198285243227 10.029827519765792 0 0 0
525 175 1 0.5897 -1.776663280576095 2.4946295207502645 9.832647079147964 0 0 0
520 174 2 -1.1794 2.079944995956568 4.305408020533007 9.960866521057305 0 0 0
508 170 2 -1.1794 0.4499985947945335 1.1288530515141777 14.352448271902588 0 0 0
24 8 1 0.5897 0.6774904266075863 3.098257774745502 9.63923853526692 0 0 0
539 180 1 0.5897 -3.236840464340961 1.6602892243745009 17.691008325171925 0 0 0
526 176 2 -1.1794 -3.126522433225534 2.5912265125787317 19.12871291952058 0 0 0
581 194 1 0.5897 -3.1071523121462654 1.7960085711103706 15.534809160955035 0 0 0
564 188 1 0.5897 -2.084745596796356 4.344996283033972 16.54871931189866 0 0 0
562 188 2 -1.1794 -1.2481520548204257 4.027933716318688 16.20819101201429 0 0 0
538 180 2 -1.1794 -3.562925415929815 1.1153623753626176 16.974698345937483 0 0 0
547 183 2 -1.1794 -3.913167322107835 4.912156870549875 16.930793850200644 0 0 0
540 180 1 0.5897 -4.481057759244675 0.9552363207778913 17.193546234566547 0 0 0
563 188 1 0.5897 -0.9540018667947523 4.7178223823662835 15.613472979779026 0 0 0
582 194 1 0.5897 -2.152404667255003 2.918415156469724 15.186973791507938 0 0 0
580 194 2 -1.1794 -2.8701512130708835 2.396401832404393 14.828039168833369 0 0 0
548 183 1 0.5897 -4.012720501004544 5.502608956321248 16.18410346139426 0 0 0
509 170 1 0.5897 0.3881859377482275 1.2990234136255594 15.29237161858402 0 0 0
527 176 1 0.5897 -4.060096224661553 2.7060679175487348 19.306751562173456 0 0 0
245 82 1 0.5897 0.7789867552346479 9.348169837494504 4.435978447346227 0 0 0
240 80 1 0.5897 3.2799708762790853 7.187686588263639 0.9678328416308675 0 0 0
222 74 1 0.5897 3.2052712975418522 11.036338667133172 3.065014177490148 0 0 0
221 74 1 0.5897 4.523161812862723 10.29669712571921 2.974378471113193 0 0 0
238 80 2 -1.1794 3.6663506523697578 7.724172563083158 1.6601409890537302 0 0 0
199 67 2 -1.1794 0.7096038759232366 8.289400546201206 2.701983575746633 0 0 0
239 80 1 0.5897 3.8548020074184945 8.562091576196723 1.2376065608071107 0 0 0
201 67 1 0.5897 1.5956170046451987 7.929383106319975 2.660293135041197 0 0 0
12 4 1 0.5897 1.081485948254726 6.598435763656269 4.685771566292194 0 0 0
174 58 1 0.5897 3.6121689117216125 8.615131891142259 4.592080646440575 0 0 0
220 74 2 -1.1794 3.7225697783905387 10.35593838266969 3.495802678865926 0 0 0
10 4 2 -1.1794 1.9709390679971222 6.249787279829581 4.625009685251694 0 0 0
188 63 1 0.5897 1.895384629929298 10.245574375484724 0.36940526273018826 0 0 0
694 232 2 -1.1794 3.853222980576046 9.90835408772827 0.15341734641502908 0 0 1
696 232 1 0.5897 4.326489747594371 10.737055694917245 0.22875447974485635 0 0 1
189 63 1 0.5897 0.9118192954514663 9.595941893379658 1.3195189714395605 0 0 0
228 76 1 0.5897 2.1088471184264295 10.969519110588546 5.928126335723312 0 0 0
64 22 2 -1.1794 2.2189966372112195 6.676364342645396 8.345520129035755 0 0 0
172 58 2 -1.1794 3.8121145592836845 8.089307565008951 5.366440165181444 0 0 0
202 68 2 -1.1794 0.5527384495664323 8.508973565414543 7.208656715318172 0 0 0
246 82 1 0.5897 0.6069670400874556 9.689260252074048 5.900901542095886 0 0 0
203 68 1 0.5897 -0.3242455402597959 8.298173383134513 7.529517295177417 0 0 0
204 68 1 0.5897 1.0965633173037617 7.776130263292824 7.49732219002376 0 0 0
191 64 1 0.5897 0.8134240299283277 9.825473157937251 8.757439594483056 0 0 0
586 196 2 -1.1794 -0.550514599819472 5.89727807721473 9.276603421135336 0 0 0
173 58 1 0.5897 3.3090091672556827 7.283870910828512 5.245950932644037 0 0 0
65 22 1 0.5897 2.5234073480009585 7.292321932555416 9.012094628488358 0 0 0
244 82 2 -1.1794 0.7857469814917746 10.084449884883178 5.047664462827849 0 0 0
588 196 1 0.5897 -1.1568166970476041 6.575504415957964 8.979009349423656 0 0 0
678 226 1 0.5897 0.4034070615517251 8.75359678760951 13.807077173438193 0 0 0
744 248 1 0.5897 0.15799151588507288 7.214857894412373 10.268989367195323 0 0 0
703 235 2 -1.1794 -1.985087877764105 8.732850787749143 12.092191566934922 0 0 0
742 248 2 -1.1794 0.395799289000629 7.7071942699139315 11.054742196367991 0 0 0
705 235 1 0.5897 -1.8380510319981793 9.258190586722597 12.878792530745182 0 0 0
743 248 1 0.5897 0.6703047264398814 8.563783822556145 10.727446586173528 0 0 0
704 235 1 0.5897 -1.1134885979733298 8.425733380178036 11.842419500104656 0 0 0
724 242 2 -1.1794 0.7191718302004002 10.554770104308563 12.824142721291471 0 0 0
514 172 2 -1.1794 -1.07378406146014 6.063326799334019 14.437038366089018 0 0 0
726 242 1 0.5897 -0.06013399780995332 11.06076425097801 12.59410971073674 0 0 0
551 184 1 0.5897 -1.3531552383007002 5.6143905072537645 12.567516797114319 0 0 0
750 250 1 0.5897 -2.863313621960251 10.798974295390549 14.233576965079004 0 0 0
692 231 1 0.5897 -1.3920864344540962 10.377577090250481 9.683157750241845 0 0 0
192 64 1 0.5897 0.9821344512676298 10.977112046332591 9.725649132659425 0 0 0
693 231 1 0.5897 -2.3815460663575116 9.760231832506403 10.648563949997126 0 0 0
190 64 2 -1.1794 0.68239947419177 10.069490885986559 9.673690507839458 0 0 0
749 250 1 0.5897 -2.5680215169773453 9.850736456495872 15.37601198189028 0 0 0
569 190 1 0.5897 -1.4702010455493015 6.477957095520702 18.303530613869825 0 0 0
706 236 2 -1.1794 -3.0965380345013065 9.000175950987307 16.94481008330379 0 0 0
568 190 2 -1.1794 -1.1426186851692837 7.099834388480937 17.65378813546234 0 0 0
695 232 1 0.5897 -2.9247381456900188 9.834126469494594 18.699146854063525 0 0 0
708 236 1 0.5897 -2.412311321439322 8.338424030383626 16.84404923203576 0 0 0