LAMMPS data file via write_data, version 30 Jul 2021, timestep = 10000000

864 atoms
2 atom types
576 bonds
1 bond types
288 angles
1 angle types

0.5937337987164 17.613838601282293 xlo xhi
1.790871259091265 21.838306540914182 ylo yhi
0.7243538476323685 21.488841952355752 zlo zhi

Masses

1 1.00794
2 15.9994

Pair Coeffs # lj/cut/tip4p/long/omp

1 0 0
2 0.21084 3.1668

Bond Coeffs # harmonic/omp

1 450 0.9572

Angle Coeffs # harmonic/omp

1 55 104.52

Atoms # full

577 1 2 -1.1794 4.811842705290982 4.203146436337038 0.8624203355073814 2 5 1
503 1 1 0.5897 3.975649930513794 5.182881592310762 4.324542872239994 -4 1 1
485 1 1 0.5897 1.9526670858197044 2.424414020085582 2.2254414640660203 0 1 -2
484 1 2 -1.1794 2.7843952811856543 2.120174409344554 1.862271995732578 0 1 -2
794 1 1 0.5897 3.5485216229294965 1.8482953888564804 4.722711766378568 -8 2 8
681 1 1 0.5897 2.7260006011012674 6.295469208748084 1.644245973728696 -6 -7 -1
793 1 2 -1.1794 4.296380341418525 2.058224392563613 4.16339361908838 -8 2 8
837 1 1 0.5897 2.6547157112090103 6.129629304383829 5.376786824264346 -1 2 0
589 1 2 -1.1794 0.6216330753794437 3.6955406775548925 2.949835069217267 8 7 4
486 1 1 0.5897 3.3917554135208046 2.1426871512542602 2.601772496183946 0 1 -2
504 1 1 0.5897 4.616662662441811 3.9049966099177666 3.826614347483087 -4 1 1
502 1 2 -1.1794 4.528578027183538 4.836399977079879 3.6242193436573746 -4 1 1
578 1 1 0.5897 4.817509304314843 4.64992221482397 1.708930839061487 2 5 1
579 1 1 0.5897 4.0158153445915605 3.6717813323027046 0.8768420973283568 2 5 1
424 1 2 -1.1794 4.201568400687348 3.8468065540011125 7.616058376585213 11 -7 5
836 1 1 0.5897 3.0053211897288614 6.0570781095940935 6.847715284505046 -1 2 0
73 1 2 -1.1794 2.209606301482486 3.2567306208977955 10.438718351395648 2 0 1
152 1 1 0.5897 3.891504606567422 5.921131977338527 8.717083156910721 1 0 2
425 1 1 0.5897 3.8646189214468127 4.30091975370077 6.843758722012978 11 -7 5
714 1 1 0.5897 1.7169746503090537 4.5309350380536415 8.822123155282787 -6 -1 1
281 1 1 0.5897 1.0108624938790571 1.8942942884051832 7.224608413813693 0 0 0
74 1 1 0.5897 2.466515405959596 2.484908791702885 9.93424278182002 2 0 1
744 1 1 0.5897 0.6115193525802459 6.020461962657445 6.531151596433206 -4 -1 0
712 1 2 -1.1794 1.1470994884048542 4.954790570025619 8.180411893812908 -6 -1 1
239 1 1 0.5897 3.9113731237583274 2.2505537478679947 8.380847392712862 -5 -6 -1
151 1 2 -1.1794 3.7217405513156017 6.774030212396931 8.317141354701238 1 0 3
282 1 1 0.5897 0.6235788192497189 3.2746805404648915 7.710804464279242 0 0 0
835 1 2 -1.1794 3.0528132872985636 5.557365838742863 6.0327109368608065 -1 2 0
672 1 1 0.5897 3.200735086915988 5.676425408308334 13.607974472874893 4 1 4
815 1 1 0.5897 1.6593784410254082 1.9456576179799914 14.869029621781696 -4 11 -3
671 1 1 0.5897 3.943095240519791 6.199752408448877 12.396788921119809 4 1 4
814 1 2 -1.1794 2.6150276856989545 1.9112087815909167 14.910835540489511 -4 11 -3
381 1 1 0.5897 2.78590122459038 4.985708240566602 15.860816615870798 12 2 2
670 1 2 -1.1794 3.3320404563294836 5.516835858629863 12.67335748951985 4 1 4
379 1 2 -1.1794 2.451167230310237 5.660781851670064 15.270528193983774 12 2 2
506 1 1 0.5897 2.9880581705711697 3.0547316279877723 16.190685012912724 4 0 -5
252 1 1 0.5897 4.552151297705913 2.679726469451572 13.38608901007975 4 0 6
250 1 2 -1.1794 3.8350364510475954 2.9266645314837745 12.802150117369505 4 0 6
251 1 1 0.5897 3.7561847112983227 3.8748707748604785 12.906594017549457 4 0 6
816 1 1 0.5897 2.904064954500074 2.218806986131725 14.051739854778003 -4 11 -3
380 1 1 0.5897 2.7178937633218 6.486544209898434 15.674486286351337 12 2 2
717 1 1 0.5897 1.8038287082417688 6.772256258531655 12.54665130435006 5 -9 -3
213 1 1 0.5897 0.648084575615254 5.303276491653061 14.349683900672419 6 -1 2
75 1 1 0.5897 2.7634387201324917 3.228756114728414 11.218904901431388 2 0 1
732 1 1 0.5897 0.6495015015398025 4.0850388379902665 11.368055397892372 -2 -1 -4
305 1 1 0.5897 2.400028009262142 3.427758402657764 18.560294556495 5 -1 -8
96 1 1 0.5897 1.5783696817969572 6.109267274433786 18.169951638197475 -3 -1 -2
507 1 1 0.5897 4.222279031712713 3.3400970571149964 17.019627842504487 4 0 -5
443 1 1 0.5897 2.623752532829078 6.113654829576274 19.85890360350371 10 6 -4
304 1 2 -1.1794 2.2935281189206345 3.1541794895118747 19.47135359834221 5 -1 -8
94 1 2 -1.1794 0.7292504165041886 6.127326263248163 17.72848042603075 -3 -1 -2
306 1 1 0.5897 1.5294687159550366 2.5776917209853076 19.461068670000397 5 -1 -8
829 1 2 -1.1794 1.5666279859308763 5.152394770084655 20.975781051189312 7 2 3
442 1 2 -1.1794 3.217895593533301 6.436504023118459 19.181433504301403 10 6 -4
505 1 2 -1.1794 3.3040924223556782 3.5907541995299783 16.918025132595787 4 0 -5
830 1 1 0.5897 1.9081491272767952 4.447734132415993 20.425307551075 7 2 3
831 1 1 0.5897 0.6188850822434782 5.1208890223232615 20.845418183120785 7 2 3
111 1 1 0.5897 3.5011674918569566 2.0064877332134956 19.691617429787353 3 3 -9
125 1 1 0.5897 2.8464952575760534 7.475998868158394 3.2670333415132027 2 5 3
680 1 1 0.5897 2.3148624732940357 7.728268970057711 1.3796319847340333 -6 -7 -1
823 1 2 -1.1794 3.5919827610375434 9.928072325407793 1.7077384818443957 0 7 4
124 1 2 -1.1794 2.5874418118606584 7.642003524923655 4.173418664282325 2 5 3
825 1 1 0.5897 3.696919888407395 9.018289007920618 1.429363984125735 0 7 4
219 1 1 0.5897 1.1616752837391844 8.732400392414677 4.476781139685442 5 -1 1
126 1 1 0.5897 3.3132293006213316 8.145556750112684 4.542067714426489 2 5 3
746 1 1 0.5897 0.955769908890141 11.045286545990281 5.399482761361461 4 2 -9
679 1 2 -1.1794 3.0458608031468772 7.196257562250267 1.6941028114509957 -6 -7 -1
824 1 1 0.5897 3.837334113917108 9.92573505969257 2.6329640969051775 0 7 4
217 1 2 -1.1794 0.6207002065633276 9.521991323233525 4.467140044465014 5 -1 1
229 1 2 -1.1794 0.5940278409633457 8.086487161229325 1.1426061493799735 4 5 2
495 1 1 0.5897 2.535937813893728 9.216238220724495 10.32033919332717 -1 0 -1
153 1 1 0.5897 4.580437926072101 7.07493256667953 8.019988530406074 1 0 3
56 1 1 0.5897 3.9878056012210665 10.414533505722718 6.4864542847202165 -9 0 3
55 1 2 -1.1794 4.170956529539314 9.5438000211415 6.839372280786425 -9 0 3
57 1 1 0.5897 4.694023572667552 9.115378225016475 6.1617821335255325 -9 0 3
493 1 2 -1.1794 2.217774597089867 8.373953152866573 9.99543033214553 -1 0 -1
494 1 1 0.5897 3.001857973118574 7.929213496180033 9.673519661959231 -1 0 -1
576 1 1 0.5897 3.1345748114419845 11.193201789159026 10.637677618886034 2 -1 -2
184 1 2 -1.1794 1.164871272761998 9.309321574592786 7.4259538078673755 3 5 6
185 1 1 0.5897 1.9151724087545194 9.113240802318716 7.987034094294985 3 5 6
186 1 1 0.5897 0.6580444394776575 9.954044669417478 7.919590872996627 3 5 6
810 1 1 0.5897 1.5651565400368432 9.095378198524923 14.017853657486345 -1 -1 -1
707 1 1 0.5897 4.678061084020301 10.849471308995964 14.750344795921604 1 -7 -6
715 1 2 -1.1794 0.9833909139830992 7.14534983405115 12.224322036046082 5 -9 -3
789 1 1 0.5897 3.7204651976535774 8.676630694630315 14.183718657205333 2 2 4
787 1 2 -1.1794 3.1453371704204263 8.5362630425711 13.431566821759036 2 2 4
788 1 1 0.5897 3.688299150921656 8.746354456710485 12.671792074331211 2 2 4
706 1 2 -1.1794 4.211090411514261 11.676985105432726 14.866049244949313 1 -7 -6
575 1 1 0.5897 2.914825037354584 10.98007894303474 12.120287424688543 2 -1 -2
809 1 1 0.5897 1.1143114134974748 10.516928072980292 14.278223854730673 -1 -1 -1
716 1 1 0.5897 1.2527125440084221 7.7780594100402105 11.558436587288192 5 -9 -3
808 1 2 -1.1794 0.7836342413319775 9.624245534601874 14.178287568602478 -1 -1 -1
574 1 2 -1.1794 3.347049520140829 10.59790237908699 11.35651029164823 2 -1 -2
708 1 1 0.5897 4.038693048810991 11.725820033879799 15.80639029470008 1 -7 -6
173 1 1 0.5897 1.2273235993679275 10.964815441001571 16.80839262815592 2 4 -2
364 1 2 -1.1794 3.817074757449824 9.00615861716549 19.364570499497276 4 5 3
172 1 2 -1.1794 2.0228003388838256 10.610658844529057 17.205888116969877 2 4 -2
519 1 1 0.5897 4.031126989087777 7.822167200068098 16.782400771524735 -1 0 -5
366 1 1 0.5897 3.0384227688549617 9.43963314061393 19.713881767218425 4 5 3
365 1 1 0.5897 4.471632321853443 9.701824419403003 19.302801769210994 4 5 3
517 1 2 -1.1794 3.184378708661385 8.13575026849485 16.464734437741743 -1 0 -5
658 1 2 -1.1794 1.682489001129617 10.65678816945379 20.164567195829637 -2 0 3
518 1 1 0.5897 3.046688656346832 8.963320854814151 16.925571866013588 -1 0 -5
174 1 1 0.5897 1.8981526100328125 10.737676601047408 18.146404671395384 2 4 -2
444 1 1 0.5897 3.2605179570870413 7.381150331007401 19.329914574761546 10 6 -4
572 1 1 0.5897 4.426514271299958 11.23413479126646 21.17315056419956 -2 -5 -7
660 1 1 0.5897 1.6655565189688182 10.543951735435448 21.114926731912615 -2 0 3
659 1 1 0.5897 0.7867410876607636 10.468553717971515 19.88455297752324 -2 0 3
573 1 1 0.5897 4.448058813778992 11.768421071231511 19.756848233611333 -2 -5 -7
803 1 1 0.5897 1.051655473435267 16.758660486922103 2.93356501833604 3 -1 -2
45 1 1 0.5897 3.188005270789706 15.507524142247295 3.4012711407542486 1 5 -1
461 1 1 0.5897 3.278891990972144 13.36006623215669 1.6681748480359997 2 8 -2
462 1 1 0.5897 1.8083169994270938 13.488023990592971 1.3321834595571944 2 8 -2
43 1 2 -1.1794 2.827271167789778 16.055359661562008 2.7041670252627004 1 5 -1
460 1 2 -1.1794 2.6722086440314015 13.820299345963388 1.0882356572957321 2 8 -2
747 1 1 0.5897 1.0962589494490476 12.39390517604054 4.726203213406563 4 2 -9
44 1 1 0.5897 2.650770977025812 15.446185514346476 1.9872582745616494 1 5 -1
745 1 2 -1.1794 1.083261464013919 11.975250759213615 5.586879067874745 4 2 -9
97 1 2 -1.1794 4.8427432529024 13.075243280468062 2.759709129091732 -1 -7 7
553 1 2 -1.1794 0.6239597585374457 12.975057846985356 2.784954405457376 -6 -9 2
268 1 2 -1.1794 3.213332902480577 14.643180673274626 4.914994865397009 1 5 6
99 1 1 0.5897 4.658973015703169 13.689562386917995 3.470384500044754 -1 -7 7
270 1 1 0.5897 2.3468412228984343 14.842467002346671 5.269534267058103 1 5 6
418 1 2 -1.1794 0.6383841662216012 15.401142665282803 5.340460731229987 -4 -6 6
269 1 1 0.5897 3.4117066325485794 13.766649748271082 5.2445652780532575 1 5 6
811 1 2 -1.1794 4.729133938999811 14.162168082547145 9.706913657369087 -4 5 -3
705 1 1 0.5897 1.978289127080516 12.770764447050322 9.83917583689507 6 0 1
193 1 2 -1.1794 2.127690960989656 15.831747289728742 7.946458498450639 2 -3 3
703 1 2 -1.1794 2.747461547672216 12.389514448002933 9.415812858239688 6 0 1
195 1 1 0.5897 2.767261875304979 16.14867333867378 8.584199109890815 2 -3 3
348 1 1 0.5897 3.1575837308229713 12.329874178611057 7.448428651039913 -6 3 -1
194 1 1 0.5897 1.7331365937779872 15.065429884632481 8.362759713965984 2 -3 3
704 1 1 0.5897 3.443720325974254 13.030001532904729 9.561422493944201 6 0 1
347 1 1 0.5897 2.7118990584551677 11.984455128235972 6.043484971977853 -6 3 -1
346 1 2 -1.1794 3.478428329272394 12.25313628001989 6.549890762590151 -6 3 -1
568 1 2 -1.1794 1.7169926661864734 15.608071767067702 13.622819169115052 3 2 1
7 1 2 -1.1794 1.9214797809355575 11.986842315259747 13.449092636674669 -2 -5 0
666 1 1 0.5897 4.299013365166916 14.600838807383266 11.359239833079435 -1 3 -2
8 1 1 0.5897 2.1101409728185794 12.744025716771821 12.89474861371753 -2 -5 0
665 1 1 0.5897 4.846117285984568 14.624737701595413 12.77060141753388 -1 3 -2
664 1 2 -1.1794 4.027245964731106 14.651057026505764 12.275662085677231 -1 3 -2
570 1 1 0.5897 2.5084691038998086 15.367046834150402 13.14147604056649 3 2 1
569 1 1 0.5897 1.6248492258331788 16.54960267369875 13.47706857487623 3 2 1
64 1 2 -1.1794 2.882302680929944 14.221428941397352 15.827865648124291 2 0 -2
66 1 1 0.5897 2.4267945843217777 14.645861472005631 15.100835081808036 2 0 -2
9 1 1 0.5897 2.6636195078991776 11.939811089740864 14.051781969065935 -2 -5 0
5 1 1 0.5897 4.612142646453666 14.57381556425139 15.238792628794013 -3 -1 -3
166 1 2 -1.1794 4.573981496975394 12.123440248378047 17.78551326648523 -2 -4 4
168 1 1 0.5897 4.102993150331486 12.917384077380047 18.038578268130692 -2 -4 4
46 1 2 -1.1794 3.3228960347095344 14.292169404815787 19.152486027146427 3 0 0
65 1 1 0.5897 2.2245594220682223 14.160984025730732 16.52063054132386 2 0 -2
47 1 1 0.5897 3.104057743289578 14.062023250175145 20.05545492601898 3 0 0
369 1 1 0.5897 1.637643446982096 16.12901398530831 18.477855607633682 3 1 -6
48 1 1 0.5897 4.07011756742004 14.885299016447068 19.230360473157226 3 0 0
341 1 1 0.5897 3.3038397068982035 15.894177850832074 16.58622875070523 2 3 0
367 1 2 -1.1794 1.0606154632060953 16.69693641613101 18.988449928978138 3 1 -5
340 1 2 -1.1794 3.2590675557344206 16.77030385547632 16.9691190823611 2 3 0
648 1 1 0.5897 1.7741083558020574 20.663882953485878 5.052247442291505 -8 0 -2
511 1 2 -1.1794 1.9828447506850018 19.77552068023 0.8060516956676751 0 3 -2
338 1 1 0.5897 3.8603766908082364 17.75868574633359 3.2002664149613236 -1 1 2
767 1 1 0.5897 0.71292048582634 18.94789110042332 3.3729632234692657 -1 1 -3
768 1 1 0.5897 1.6754498070078179 19.88104216446726 2.6696694011663578 -1 1 -3
766 1 2 -1.1794 1.1931391916388001 19.767789231587503 3.4886677754812054 -1 1 -3
339 1 1 0.5897 3.0174626158107745 18.896992033254975 3.7346632804811555 -1 1 2
337 1 2 -1.1794 3.8853371036337694 18.697847924653235 3.383466331071075 -1 1 2
646 1 2 -1.1794 2.2955585476809612 20.99646504171033 5.782789623374761 -8 0 -2
513 1 1 0.5897 2.245942353818649 20.692200354204193 0.8878323168811861 0 3 -2
734 1 1 0.5897 4.733442528997219 19.20457584356978 1.6207656520184583 -3 -3 -3
581 1 1 0.5897 3.890004642599804 18.036581523794965 5.825265604831031 3 -5 -3
18 1 1 0.5897 1.9508941246896965 17.060058292005493 10.806758789149297 -3 2 5
244 1 2 -1.1794 2.020050771493145 19.235496258868412 8.700031469639093 -7 5 -2
17 1 1 0.5897 2.725249903030865 18.047833824448023 9.960232991265856 -3 2 5
245 1 1 0.5897 2.591780364820052 19.996010094132316 8.804650568791738 -7 5 -2
246 1 1 0.5897 2.087499072438984 19.010392769039356 7.772140904322576 -7 5 -2
580 1 2 -1.1794 3.0859457824120775 18.31635898668627 6.262779053308831 3 -5 -3
240 1 1 0.5897 4.311296243029291 21.515986860249146 9.613877972418296 -5 -7 -1
238 1 2 -1.1794 3.718428884115266 21.493769757215148 8.86273584550675 -5 -7 -1
16 1 2 -1.1794 2.8312446385352676 17.25446026680371 10.485160053604654 -3 2 5
582 1 1 0.5897 2.685254360816044 17.503605072311686 6.5711432697564796 3 -5 -3
647 1 1 0.5897 2.4731841519927293 20.225433808209896 6.321460618849356 -8 0 -2
273 1 1 0.5897 2.537479848503334 20.220208250796524 15.216809112290205 1 4 2
583 1 2 -1.1794 1.7067887819968135 20.729800815011593 11.834447459077397 3 -6 4
750 1 1 0.5897 3.6258661782135526 20.457232983942422 11.597247350851692 2 2 -2
492 1 1 0.5897 1.6582147335593207 19.099983486616008 12.645187163466385 1 2 3
272 1 1 0.5897 2.375241738188307 18.79712435633713 14.726569516537161 1 4 2
491 1 1 0.5897 0.7669767635913366 18.432559532581376 13.670888455535469 1 2 3
748 1 2 -1.1794 4.482295574387551 20.102233014870418 11.359104582320029 2 2 -2
271 1 2 -1.1794 2.6434544204283728 19.30888336286984 15.489698766189978 1 4 2
603 1 1 0.5897 4.524513784693472 19.608384698048255 16.24444739476634 2 3 -1
490 1 2 -1.1794 1.5840980790609374 18.31414853303437 13.186641905890198 1 2 3
584 1 1 0.5897 1.4155791238332887 21.38750943024625 12.465974727601512 3 -6 4
678 1 1 0.5897 4.270153924754079 17.224340893249007 11.83147703918428 0 1 -1
749 1 1 0.5897 4.446891120631019 19.185838027416295 11.63327151516449 2 2 -2
585 1 1 0.5897 0.9245706560544065 20.52672620665093 11.321514942724706 3 -6 4
342 1 1 0.5897 2.9429080981462157 17.327229912202185 16.25772659533432 2 3 0
608 1 1 0.5897 1.0815384553764873 20.317140605384612 18.291789002503883 5 6 2
609 1 1 0.5897 2.007967556909132 19.674102531483044 17.281804185492064 5 6 2
642 1 1 0.5897 2.715260845440282 17.10588450747175 20.84704994662895 4 3 -5
368 1 1 0.5897 1.2049985897458415 17.57193199982313 18.628259213477854 3 1 -5
109 1 2 -1.1794 4.241975040222334 21.448488088623783 19.72141200969193 3 2 -9
154 1 2 -1.1794 4.749013896953304 18.5663504154305 18.62158147871189 0 3 -3
640 1 2 -1.1794 3.5266749993876347 17.555359364838047 21.08324073592952 4 3 -5
607 1 2 -1.1794 1.7529980935869796 19.640673146497342 18.203800107733944 5 6 2
110 1 1 0.5897 3.916100396189686 20.649883828201297 19.306381486046345 3 2 -9
641 1 1 0.5897 3.8527000405003453 17.91205548595479 20.25699348863485 4 3 -5
156 1 1 0.5897 4.321265943767536 17.881152122585863 18.10798342779058 0 3 -3
512 1 1 0.5897 2.7837672487399763 19.317883311604735 21.314908911931518 0 3 -3
13 1 2 -1.1794 8.15972340214211 6.01864429680676 0.8668116087023194 0 -4 -6
856 1 2 -1.1794 8.810435524787886 4.364713404660081 2.9642350168742717 2 -2 -5
857 1 1 0.5897 8.698697840304781 5.021660054460913 2.2770956012400303 2 -2 -5
147 1 1 0.5897 5.770850931821619 6.190199274082073 4.359215830512413 0 -2 -5
631 1 2 -1.1794 6.717565389663033 2.2750025523723987 2.0089188025550206 2 4 5
14 1 1 0.5897 7.3468822824467965 6.512305731173826 0.9754808055127089 0 -4 -6
633 1 1 0.5897 5.988400963401141 2.879668398493423 1.8713523209693699 2 4 5
769 1 2 -1.1794 8.800793426434048 4.93599583197829 5.727158276295704 6 -4 0
858 1 1 0.5897 8.425203283972166 3.5679999091141723 2.5994762545273886 2 -2 -5
771 1 1 0.5897 8.799307932194232 5.005753670294911 4.772510097873879 6 -4 0
630 1 1 0.5897 8.487205103875894 2.0185962868280063 5.050729174967023 -2 -3 1
253 1 2 -1.1794 5.609167464865021 2.7193981527814026 10.47330103280969 -3 10 -6
720 1 1 0.5897 7.051161529484879 2.849228477174287 6.641142194100714 5 3 -1
718 1 2 -1.1794 6.954768635059154 3.6328141256324216 7.182388747527143 5 3 -1
107 1 1 0.5897 8.384810694078428 3.7710601071534318 8.13698446780608 1 2 2
402 1 1 0.5897 5.868353588962972 6.395208077151714 10.217980792202498 -2 -4 1
400 1 2 -1.1794 6.2765997342762025 5.584163388347455 9.915092551827707 -2 -4 1
426 1 1 0.5897 5.1496121105445285 3.823367598909604 7.486084159360175 11 -8 5
233 1 1 0.5897 6.466781123501775 6.359922476015692 8.13372969089841 -5 2 3
254 1 1 0.5897 5.579187427425691 3.632667748202825 10.188274453906025 -3 10 -6
719 1 1 0.5897 7.3329843281896565 4.336589446589908 6.655203723079709 5 3 -1
401 1 1 0.5897 6.88668127136767 5.347184629545547 10.613553379918306 -2 -4 1
465 1 1 0.5897 7.510786731084703 2.4899155518126803 10.83544664703412 7 2 0
384 1 1 0.5897 8.828380407902102 6.125943974941604 10.979284860725295 -8 0 -6
200 1 1 0.5897 6.224703984931408 2.5483374002280246 14.928909338327646 0 1 0
509 1 1 0.5897 6.217143763700241 5.145851712545149 14.415585462246888 4 -1 5
382 1 2 -1.1794 8.48589711738327 5.9674056461018505 11.858933899319728 -8 0 -6
510 1 1 0.5897 5.548825091249799 6.481076243614528 14.66528861756458 4 -1 5
255 1 1 0.5897 4.9963427102262 2.676856919084267 11.207360095476675 -3 10 -6
691 1 2 -1.1794 6.994576077539478 4.24228230927446 15.871892455327947 2 -2 0
508 1 2 -1.1794 5.923697421651427 5.94052449124769 13.969957550651696 4 -1 5
334 1 2 -1.1794 8.8803099542844 6.617012592239127 15.144708307756899 5 1 3
464 1 1 0.5897 8.41854891638982 2.5879455607770545 12.042996661680396 7 2 0
336 1 1 0.5897 8.078198568542398 6.557274936049478 14.62581305825254 5 1 3
199 1 2 -1.1794 5.668934021923165 1.8938468087116989 14.505860229081131 0 1 0
50 1 1 0.5897 8.674150546216572 2.0499593954282855 14.917653167020456 5 2 0
49 1 2 -1.1794 8.796034605416349 2.286648079314175 13.99823604971499 5 2 0
383 1 1 0.5897 9.086835536313517 5.326295335429972 12.238513562670365 -8 0 -6
692 1 1 0.5897 7.940263732492124 4.1766555640388505 16.00452358265062 2 -2 0
463 1 2 -1.1794 8.413306478321795 2.3420457778876314 11.11794961559027 7 2 0
175 1 2 -1.1794 5.709330394927266 2.886409426900267 17.978914465694498 0 -2 7
297 1 1 0.5897 5.468990122069768 5.030254601334557 20.091753249543164 -6 5 2
295 1 2 -1.1794 5.880703224660455 5.410771314615872 19.31592239934615 -6 5 2
558 1 1 0.5897 7.700888009167047 5.225781895569378 18.980946612018336 5 4 -2
556 1 2 -1.1794 8.598147159240455 4.9616539284724634 19.18439424752764 5 4 -2
557 1 1 0.5897 8.500807132552868 4.178370835441115 19.725866701591723 5 4 -2
15 1 1 0.5897 8.133626115932774 5.709751599832849 20.72567517582663 0 -4 -7
176 1 1 0.5897 5.149157244641444 2.2625208788751086 18.44062255222096 0 -2 7
177 1 1 0.5897 5.80776079110464 3.6175549243863405 18.58878558003318 0 -2 7
693 1 1 0.5897 6.619502953491124 4.091117704300181 16.739465092856097 2 -2 0
343 1 2 -1.1794 8.773846277947412 2.578745908534038 20.736107045915368 -2 3 -1
209 1 1 0.5897 8.999929033254071 2.0519979907938333 17.036302974706885 0 -4 4
296 1 1 0.5897 5.1497152152726375 5.742946893270281 18.79483006825739 -6 5 2
344 1 1 0.5897 8.097210016748548 2.2325763743486946 21.317958253917304 -2 3 -1
526 1 2 -1.1794 8.562112844436795 7.901419560787542 3.712183503607074 0 -2 1
284 1 1 0.5897 5.584566745025988 9.092038410131 4.358286574432198 0 -1 -1
826 1 2 -1.1794 8.064781588463571 10.365313657333964 2.4936243396825644 3 2 2
283 1 2 -1.1794 4.848857267780187 9.674588796081316 4.169628588206489 0 -1 -1
527 1 1 0.5897 7.625135050239597 7.748211605796522 3.8338451728443896 0 -2 1
828 1 1 0.5897 7.724895606857901 9.993372797384833 1.679772892016727 3 2 2
285 1 1 0.5897 5.246816375764487 10.53964300614629 4.071559613420856 0 -1 -1
840 1 1 0.5897 8.033946088341882 10.315355980139875 5.669215308867875 -3 -1 -6
145 1 2 -1.1794 5.986849301825413 7.07986092768157 4.638596237112559 0 -2 -5
827 1 1 0.5897 8.159202892646086 9.614380975550414 3.0796316154555217 3 2 2
375 1 1 0.5897 6.36344181359215 11.131760488920895 5.778837665353525 5 6 1
146 1 1 0.5897 6.279461757201531 6.9824466843244135 5.544754132588622 0 -2 -5
331 1 2 -1.1794 5.689496878655647 7.300241241339419 1.0061776686055843 3 -3 -5
528 1 1 0.5897 8.934473028102428 7.8207701514978165 4.590274300937453 0 -2 1
332 1 1 0.5897 4.922094865537665 7.382644664500241 1.5723416913634125 3 -3 -5
234 1 1 0.5897 7.418823942126823 7.365952813604431 7.522707939912714 -5 2 3
839 1 1 0.5897 7.737641162285908 9.495061301974918 6.906606291934535 -3 -1 -6
388 1 2 -1.1794 5.557276029500608 9.521865744689887 9.373153303458267 4 6 3
541 1 2 -1.1794 8.826825070577433 10.20989058978758 10.716757656950477 -5 0 3
389 1 1 0.5897 5.016983778650529 9.591453755152646 8.586101648410645 4 6 2
688 1 2 -1.1794 8.604233098962286 8.89574229932635 8.211455124356037 1 0 0
390 1 1 0.5897 5.990132451964834 10.37271489992435 9.44309360103131 4 6 3
689 1 1 0.5897 8.963698600486083 8.093164325454598 8.589438732285227 1 0 0
690 1 1 0.5897 8.548612672437034 9.50410103843248 8.948357282699694 1 0 0
522 1 1 0.5897 5.238853788783095 8.422202504188608 10.957622008128183 -3 1 -5
232 1 2 -1.1794 6.605634205520817 6.8915232287739 7.34993996479342 -5 2 3
838 1 2 -1.1794 7.357319521774368 9.77190154282438 6.0729902359485015 -3 -1 -6
725 1 1 0.5897 7.948400117712344 7.694489981654236 12.350646109264332 3 2 2
520 1 2 -1.1794 4.978522186024276 7.660478865151747 11.475508145606975 -3 1 -5
726 1 1 0.5897 8.15921214794037 9.025916792197425 13.039616023563195 3 2 2
724 1 2 -1.1794 7.523984153588023 8.536085307408687 12.517359542932398 3 2 2
784 1 2 -1.1794 5.605341934315694 11.776149646380098 12.333738215016862 9 8 2
455 1 1 0.5897 7.659229876287732 11.760260195341957 15.782660070647303 4 -6 0
181 1 2 -1.1794 5.836389048868541 9.412786052251267 14.75484993744808 -3 0 -3
182 1 1 0.5897 6.204790454534722 9.211373477298356 13.894666199712404 -2 0 -3
183 1 1 0.5897 6.536089020868545 9.878902704974534 15.21241640119599 -3 0 -3
521 1 1 0.5897 5.739374478450922 7.472491247106545 12.025035117572662 -3 1 -5
861 1 1 0.5897 8.907035851742316 10.449814903123158 14.599367509622361 0 -3 2
786 1 1 0.5897 4.912207302440251 11.267519308683399 11.912894451114889 9 8 2
454 1 2 -1.1794 7.800461781634269 10.88270791970107 16.13784583970402 4 -6 0
644 1 1 0.5897 6.254614312401453 7.885314393392309 16.026910223669603 1 -1 -3
543 1 1 0.5897 8.302034785422075 9.587851045344081 11.220638040677741 -5 0 3
542 1 1 0.5897 8.962530913359036 10.947029661468349 11.31223515079405 -5 0 3
289 1 2 -1.1794 7.7293025318501005 8.115940342322087 18.926319166802813 -8 -6 -9
645 1 1 0.5897 6.26900347190808 7.382008812171096 17.454616023354014 1 -1 -3
290 1 1 0.5897 7.374623519222447 8.807064827004844 19.48556551355121 -8 -6 -9
291 1 1 0.5897 8.630875637254892 8.386633966209715 18.75281578691945 -8 -6 -9
643 1 2 -1.1794 5.851647591607233 7.2378267147368485 16.605356662730664 1 -1 -3
63 1 1 0.5897 6.325419613664546 8.872090435353318 21.380710298959492 -5 1 4
456 1 1 0.5897 8.13719335087367 11.032683497078498 17.021210511415507 4 -6 0
333 1 1 0.5897 5.32863432061716 7.1290780660182875 20.90076135331865 3 -3 -6
738 1 1 0.5897 8.894853837281403 11.252026660470841 19.23172788285867 -2 -5 -1
62 1 1 0.5897 6.242540553264181 10.259481665357352 20.78062596608474 -5 1 4
61 1 2 -1.1794 6.859791288293809 9.553670470666852 20.97314431246723 -5 1 4
571 1 2 -1.1794 5.001915151197239 11.644533327903229 20.527630165815136 -2 -5 -7
78 1 1 0.5897 6.482687427726344 16.000778546431288 2.8263793168618405 -11 -1 -7
77 1 1 0.5897 6.999572637397547 14.871041312715235 3.6914501167166556 -11 -1 -7
98 1 1 0.5897 5.533517356907997 13.498096475254805 2.249581020786545 -1 -7 7
701 1 1 0.5897 7.616125078231588 12.791716749343893 2.8280954353579584 3 2 3
702 1 1 0.5897 7.2016992141931375 12.740253942524012 4.283235389177573 3 2 3
76 1 2 -1.1794 6.489855955083143 15.68039109581244 3.7283282650859952 -11 -1 -7
487 1 2 -1.1794 5.759375341531983 16.151746444429975 1.2273846604353764 0 -7 -1
700 1 2 -1.1794 7.795345968155444 13.188236357863651 3.680657669831623 3 2 3
709 1 2 -1.1794 7.031174241131167 13.279062413735483 0.7498725052674493 -6 -3 0
863 1 1 0.5897 8.916605496732474 14.985592007974326 5.143169801787286 -1 -4 4
373 1 2 -1.1794 6.0010811597079705 11.987868039783045 5.550835148448982 5 6 1
489 1 1 0.5897 4.956596743259501 16.67305811099495 1.2277300766537196 0 -7 -1
263 1 1 0.5897 5.764798776276944 16.617976294708633 5.06535109147159 1 -2 8
374 1 1 0.5897 5.094571451835644 11.953839441182481 5.856263465401029 5 6 1
812 1 1 0.5897 5.5243023144481676 13.647799031418835 9.567837668379365 -4 5 -3
536 1 1 0.5897 6.524094637192325 15.087611465974025 5.941051575121806 6 5 2
537 1 1 0.5897 6.593380485741526 13.648816778552314 6.406805615991253 6 5 2
535 1 2 -1.1794 6.995738930906273 14.507295014901446 6.538539426743522 6 5 2
93 1 1 0.5897 7.18286766326953 16.315730075609466 8.97062430190727 2 -7 -1
279 1 1 0.5897 7.5172326133477165 12.76802360171197 8.59655153667665 -1 -5 -1
91 1 2 -1.1794 7.746928593783615 15.544502003768558 9.027819768463184 2 -7 -1
278 1 1 0.5897 7.506214184138197 12.30283782413811 10.037151721962852 -1 -5 -1
92 1 1 0.5897 7.735488143867885 15.172881677731722 8.14579336779579 2 -7 -1
277 1 2 -1.1794 6.928772521755995 12.481032217209107 9.294832519510688 -1 -5 -1
198 1 1 0.5897 7.148459881371128 15.61180807423891 10.937473295416835 -1 -4 1
256 1 2 -1.1794 5.116388916873869 16.8033951292106 8.526238737497948 1 -1 1
813 1 1 0.5897 4.91983721499916 15.0113129942076 9.308429909766788 -4 5 -3
258 1 1 0.5897 5.279643575064513 16.788461269128863 7.583191971972009 1 -1 1
196 1 2 -1.1794 7.0538697316242445 15.392539003821335 11.86439418758951 -1 -4 1
32 1 1 0.5897 7.255996795110541 16.325867068072228 15.889278149175746 4 6 -1
228 1 1 0.5897 7.846785515266497 13.673656638609662 11.623764785674755 0 -2 0
6 1 1 0.5897 5.517207907093857 15.725425212849274 14.85602961310017 -3 -1 -3
226 1 2 -1.1794 7.991820968579059 12.75411460224945 11.846508104464432 0 -2 0
197 1 1 0.5897 7.793819363225368 15.82547661714811 12.290127378541536 -1 -4 1
481 1 2 -1.1794 7.87272780845225 13.32658854979907 14.419329264525038 2 4 0
482 1 1 0.5897 8.000814240591154 13.171736640324399 13.483474721547497 2 4 0
480 1 1 0.5897 8.565865714015251 16.378379637639675 14.569107586828007 -6 3 -3
227 1 1 0.5897 7.113585525806906 12.37561667434478 11.887080626891622 0 -2 0
483 1 1 0.5897 6.961456247557731 13.610020174748405 14.493163393627787 2 4 0
4 1 2 -1.1794 5.476698516898775 14.76933021080216 14.877508983463708 -3 -1 -3
31 1 2 -1.1794 8.043778913234899 15.884697099607848 16.207057359358103 4 6 -1
478 1 2 -1.1794 8.91306455263594 16.395559569126824 13.677255561942584 -6 3 -3
785 1 1 0.5897 5.192777230693079 12.14306646904303 13.115636317297097 9 8 2
241 1 2 -1.1794 6.8272328392194455 13.707935491222045 17.47591176738333 -2 -4 1
242 1 1 0.5897 7.276651951751388 14.32646490715181 16.90002597315149 -2 -4 1
33 1 1 0.5897 8.138014214492744 16.183722873499516 17.11144115242974 4 6 -1
243 1 1 0.5897 7.528187369380436 13.302298887986382 17.986143121607363 -2 -4 1
394 1 2 -1.1794 5.843256936624374 15.605699668775522 19.272075135667876 4 -1 4
396 1 1 0.5897 6.116253849981619 16.416848047353483 18.84345367184695 4 -1 3
711 1 1 0.5897 7.602160952276645 13.65854166699395 20.846391105733808 -6 -3 -1
736 1 2 -1.1794 8.661942116659315 11.940352031467965 18.60869676852316 -2 -5 -1
395 1 1 0.5897 6.2585432827629495 14.911996947027351 18.759698663174913 4 -1 4
488 1 1 0.5897 5.837399425113089 15.831869009166999 21.093096690057198 0 -7 -2
737 1 1 0.5897 8.963358967253571 12.749663410889129 19.021447533467857 -2 -5 -1
710 1 1 0.5897 6.344689215570303 12.833266732011346 21.018167622890935 -6 -3 -1
167 1 1 0.5897 5.426466520830003 12.436286629056312 17.482810485433774 -2 -4 4
632 1 1 0.5897 6.370799778373343 21.466873031465678 1.755970844006478 2 3 5
629 1 1 0.5897 7.43585147876068 20.991632715776294 5.230117334412263 -2 -4 1
699 1 1 0.5897 7.133104539341303 19.345259922361443 1.932782957569972 -2 3 0
733 1 2 -1.1794 5.3723617446120295 19.69977216037593 1.108129456714622 -3 -3 -3
102 1 1 0.5897 5.322281111944949 19.49487598752476 4.110356283779437 9 -6 -3
628 1 2 -1.1794 8.000756915021942 21.58752098092591 5.722061440157511 -2 -4 1
698 1 1 0.5897 7.2359185583111865 19.264239695731995 3.441014472628252 -2 3 0
100 1 2 -1.1794 5.956061131391592 19.936458719990668 4.675635092340576 9 -6 -3