#include		in.partitions
include		in.temp
variable        temperature equal 70.10
variable	tempDamp equal 100.0
include		in.pressure
variable        pressure equal 2025.7
variable        pressureDamp equal 1000.0 # This is 1 ps
include		in.seed
variable        seed equal 745823

units		real
atom_style	full
#include		in.box
read_restart	restart.lmp.${pid}
read_restart	restart.lmp.1
Reading restart file ...
  restart file = 30 Jul 2021, LAMMPS = 30 Jul 2021
  restoring atom style full from restart
  orthogonal box = (0.17559086 0.20246668 0.14892988) to (18.031982 23.426711 22.064266)
  2 by 4 by 2 MPI processor grid
  restoring pair style lj/cut/tip4p/long/omp from restart
  restoring bond style harmonic/omp from restart
  restoring angle style harmonic/omp from restart
  864 atoms
  576 bonds
  288 angles
Finding 1-2 1-3 1-4 neighbors ...
  special bond factors lj:    0        0        0       
  special bond factors coul:  0        0        0       
     2 = max # of 1-2 neighbors
     1 = max # of 1-3 neighbors
     1 = max # of 1-4 neighbors
     2 = max # of special neighbors
  special bonds CPU = 0.001 seconds
  read_restart CPU = 0.005 seconds
include 	in.setup
variable	out_freq equal 1000
variable	out_freq2 equal 10000
variable	out_freq3 equal 1000

timestep	2.0

neigh_modify    delay 7 every 1

include		in.tip4p
# This is TIP4P/Ice

# create groups ###
group ox type 2
288 atoms in group ox
group hy type 1
576 atoms in group hy

# set charges - beside manually ###
set group ox charge -1.1794
Setting atom values ...
  288 settings made for charge
set group hy charge 0.5897
Setting atom values ...
  576 settings made for charge

# ### TIP3P Potential Parameters ###
pair_style lj/cut/tip4p/long/omp 2 1 1 1 0.1577 8.5
pair_coeff 1 1*2 0.000 0.000
pair_coeff 2 2 0.21084 3.1668
bond_style  harmonic
bond_coeff  1 450 0.9572
angle_style harmonic
angle_coeff 1 55 104.52
kspace_style pppm/tip4p/omp 1.0e-5
pair_modify tail yes

thermo          ${out_freq}
thermo          1000
thermo_style    custom step temp pe etotal epair emol press lx ly lz vol pxx pyy pzz pxy pxz pyz enthalpy

restart 	${out_freq3} restart.lmp.${pid} restart2.lmp.${pid}
restart 	1000 restart.lmp.${pid} restart2.lmp.${pid}
restart 	1000 restart.lmp.1 restart2.lmp.${pid}
restart 	1000 restart.lmp.1 restart2.lmp.1


include         in.dump
dump            myDump all atom ${out_freq2} dump.water.${pid}
dump            myDump all atom 10000 dump.water.${pid}
dump            myDump all atom 10000 dump.water.1
dump            myDump2 all dcd ${out_freq2} dump.dcd
dump            myDump2 all dcd 10000 dump.dcd
dump_modify     myDump append yes
dump_modify     myDump2 append yes


variable natoms 	equal  "count(all)"                        # NUMBER ATOMS
variable H      	equal  "enthalpy/v_natoms"                 # ENTHALPY-per-atom
variable Vol      	equal  "vol/v_natoms"                 # volume-per-atom
fix AVG all 		ave/time ${out_freq} 1 ${out_freq} v_Vol v_H file vol_enthalpy.dat
fix AVG all 		ave/time 1000 1 ${out_freq} v_Vol v_H file vol_enthalpy.dat
fix AVG all 		ave/time 1000 1 1000 v_Vol v_H file vol_enthalpy.dat


timer           timeout 23:50:00 every 1000
New timer settings: style=normal  mode=nosync  timeout=23:50:00

fix 		1 all shake 1e-6 200 0 b 1 a 1
       0 = # of size 2 clusters
       0 = # of size 3 clusters
       0 = # of size 4 clusters
     288 = # of frozen angles
  find clusters CPU = 0.000 seconds
fix             2 all nph aniso ${pressure} ${pressure} ${pressureDamp}
fix             2 all nph aniso 2025.7 ${pressure} ${pressureDamp}
fix             2 all nph aniso 2025.7 2025.7 ${pressureDamp}
fix             2 all nph aniso 2025.7 2025.7 1000
fix             3 all temp/csvr ${temperature} ${temperature} ${tempDamp} ${seed}
fix             3 all temp/csvr 70.1 ${temperature} ${tempDamp} ${seed}
fix             3 all temp/csvr 70.1 70.1 ${tempDamp} ${seed}
fix             3 all temp/csvr 70.1 70.1 100 ${seed}
fix             3 all temp/csvr 70.1 70.1 100 745823


run             250000
PPPM initialization ...
  extracting TIP4P info from pair style
  using 12-bit tables for long-range coulomb (../kspace.cpp:340)
  G vector (1/distance) = 0.37222012
  grid = 24 27 25
  stencil order = 5
  estimated absolute RMS force accuracy = 0.0031030288
  estimated relative force accuracy = 9.3446791e-06
  using double precision FFTW3
  3d grid and FFT values/proc = 6300 1296
Last active /omp style is kspace_style pppm/tip4p/omp
Neighbor list info ...
  update every 1 steps, delay 7 steps, check yes
  max neighbors/atom: 2000, page size: 100000
  master list distance cutoff = 10.8154
  ghost atom cutoff = 10.8154
  binsize = 5.4077, bins = 4 5 5
  1 neighbor lists, perpetual/occasional/extra = 1 0 0
  (1) pair lj/cut/tip4p/long/omp, perpetual
      attributes: half, newton on, omp
      pair build: half/bin/newton/omp
      stencil: half/bin/3d
      bin: standard
Per MPI rank memory allocation (min/avg/max) = 12.26 | 12.29 | 12.31 Mbytes
Step Temp PotEng TotEng E_pair E_mol Press Lx Ly Lz Volume Pxx Pyy Pzz Pxy Pxz Pyz Enthalpy 
34250000    72.474136   -4610.2684   -4486.0502   -4610.2684            0    3217.1653    17.856391    23.224244    21.915336    9088.3158    3664.4299    3459.8146    2527.2514   -189.42164    47.452438    202.00229    -4059.635 
34251000    69.718652    -4614.915   -4495.4196    -4614.915            0    2446.9513    18.057985    23.106064    21.866492     9123.771    1505.5177    3252.9029    2582.4333   -401.50577     54.49393    682.04501   -4169.8262 
34252000    69.331767   -4615.4377   -4496.6055   -4615.4377            0     1809.853    18.059678    23.288243    21.767678    9155.0101    940.20067    1022.2459    3467.1125   0.19987312   -350.90887     432.5155   -4254.9604 
34253000    70.953495   -4618.1009    -4496.489   -4618.1009            0    2478.9566    17.996082    23.117192    21.963382    9137.1816    2189.3869    2952.7789    2294.7041   -324.55358    -446.3242   -25.733388   -4166.1521 
34254000    68.498144   -4623.7848   -4506.3814   -4623.7848            0    1536.2395     17.88204    23.378671    21.893504    9152.7615    606.50033    2166.7148    1835.5034   -162.83556   -479.60404   -244.91899   -4301.3185 
34255000     69.03388   -4610.7709   -4492.4492   -4610.7709            0    1663.3865    17.917734     23.23109    21.972511    9146.0248    2039.6672     1635.506    1314.9864    164.49391   -497.52692    119.14213   -4270.5777 
34256000    70.784478   -4611.6995   -4490.3773   -4611.6995            0    2213.1187    17.966713    23.171874    21.944156    9135.8443    2109.1533    2840.7669    1689.4357    494.08195   -428.38471    211.95512   -4195.5082 
34257000    73.521017   -4622.7602   -4496.7477   -4622.7602            0    2099.3852    17.914017    23.214781    21.968298    9135.9559    1986.6485    1405.8591    2905.6479    135.90005   -119.95048    19.094539   -4217.0286 
34258000    74.411495   -4616.4204   -4488.8817   -4616.4204            0    2818.4466    17.940946    23.356603    21.719978    9101.5298    2136.7717    3148.4674    3170.1007   -294.20442    -67.75174    28.579642    -4114.771 
34259000    73.275833     -4613.67   -4488.0778     -4613.67            0    1638.9794      17.8131    23.370318    22.019834    9166.8086    1859.0735    1465.8302    1592.0345    62.921872    195.48228    317.49184   -4268.9651 
34260000    72.052307   -4618.6735   -4495.1783   -4618.6735            0    1840.8047    17.840568    23.355977    21.956449    9148.8989    1812.4228    1904.7985    1805.1928    286.59183      550.618    166.15311   -4249.5647 
34261000    70.406342   -4616.5433   -4495.8693   -4616.5433            0    1791.2828    17.859314    23.417767    21.882243    9151.7068    1926.0572    1245.5904    2202.2008    208.92404   -462.50005   -142.79561   -4256.7899 
34262000    69.599503   -4601.1497   -4481.8585   -4601.1497            0    2339.3515    18.089706    23.133247    21.804195    9124.4809    1702.6712    3310.2767    2005.1067    307.09611   -99.503253    484.71454   -4170.5582 
34263000      71.7824   -4608.6964   -4485.6639   -4608.6964            0    2263.3027    17.862189    23.380136    21.848885    9124.5402    2206.1431    1907.1581     2676.607   -856.21587   -199.10413   -15.620185   -4184.4815 
34264000    71.688325   -4624.8674   -4501.9961   -4624.8674            0    2039.5692    17.980902    23.251346    21.868953    9142.9758    2135.4371    1991.9215     1991.349    95.499692     429.5709      279.943   -4230.0381 
34265000    70.176383   -4614.5496   -4494.2697   -4614.5496            0    1452.7584    17.886031    23.233709    22.065631    9169.5677    2048.2504    1434.9921    875.03272    136.03459   -44.605246    14.061917   -4299.9942 
34266000    70.056122   -4614.9193   -4494.8455   -4614.9193            0    1586.9472    17.872928    23.334761    21.970205    9162.9044    1697.3917    1422.0826    1641.3673   -141.64649   -146.77042    276.71986   -4282.7792 
34267000    71.080454   -4616.2022   -4494.3728   -4616.2022            0    1481.3549    17.975784    23.222717    21.984759    9177.4617    1686.4042     1429.677    1327.9837     68.45499   -485.83387    379.69492   -4296.1025 
34268000    68.568829   -4619.7448   -4502.2202   -4619.7448            0    2348.1929     17.88225    23.297117    21.866749    9109.7939    2382.5113    2173.2917    2488.7756   -644.64492    303.42205    20.049918   -4190.2464 
34269000    69.003677   -4614.4338   -4496.1639   -4614.4338            0      2060.29    17.806387    23.426069    21.913608    9140.9031    3000.7747    961.98317    2218.1122   -248.12962    53.258187   -525.01313   -4221.5052 
34270000    68.095066   -4616.6115   -4499.8989   -4616.6115            0    2107.0961    17.942678    23.129538    22.009208    9133.9501    1360.2632    3312.7382     1648.287    189.44151   -261.58302    480.14319   -4219.2141 
34271000    69.689391   -4620.5006   -4501.0554   -4620.5006            0    1505.4467    17.787135    23.522741    21.886639    9157.4173    2411.8017    990.16286    1114.3755    249.94977   -175.47806    261.79619   -4300.0007 
34272000    71.626594   -4612.9076   -4490.1421   -4612.9076            0    1846.6014    17.933656    23.394884    21.791981    9142.9521    2057.6994    1244.8119     2237.293     124.0986    34.540165    149.73606   -4243.9152 
34273000    69.432381   -4620.3472   -4501.3424   -4620.3472            0    2349.3076    17.911206    23.291721    21.846252    9113.8812    2999.0221    2016.6485    2032.2521   -842.01082     105.4373    90.371834   -4189.0805 
34274000    76.866094   -4612.1349    -4480.389   -4612.1349            0    1975.4584    17.919547    23.231303    21.954748    9139.6397    1692.3366    2064.6563    2169.3821   -313.08893   -377.82088    -221.3488   -4217.0757 
34275000     68.60839   -4611.4291   -4493.8366   -4611.4291            0    1998.1845    17.959022    23.175217    21.935519     9129.656    2134.5742    1433.1376    2426.8418   -147.09617   -109.37335    168.13748    -4227.785 
34276000    76.004422   -4619.0586   -4488.7897   -4619.0586            0    1823.6294    17.821539    23.371155    21.967467    9149.6682    1425.1526    1790.4236     2255.312   -255.30069    288.10696    -87.04929   -4245.4472 
34277000    72.326361   -4614.6653   -4490.7004   -4614.6653            0    2377.4612    17.862125    23.321381    21.909261    9126.7284    2209.3105    2979.7508    1943.3223   -361.47416    46.417464   -145.22303   -4174.2509 
34278000    69.817027    -4616.623    -4496.959    -4616.623            0    2732.7096    17.979908    23.161219    21.864145    9105.0299     2752.026    2777.8309    2668.2718    263.91131     41.46831   -1.3841776   -4134.0893 
34279000    70.054713   -4627.9807   -4507.9093   -4627.9807            0    2071.9938    17.984169    23.238876    21.871611    9140.8435    1992.4541    2087.6961    2135.8311   -275.32596   0.83577383    240.23228   -4231.6921 
34280000    73.378373   -4615.3457   -4489.5777   -4615.3457            0    1640.8644    17.808374    23.444964      21.9281    9155.3478    2279.1004    1517.3451    1126.1478   -458.92871   -188.84744    77.834787   -4270.4873 
34281000    74.004592   -4615.2773    -4488.436   -4615.2773            0    1952.8211    17.903751    23.243927    21.981696    9147.7596     2451.183    1601.6959    1805.5844    184.92827   -383.62266    155.50941   -4227.9088 
34282000    70.852464   -4611.1401   -4489.7014   -4611.1401            0    2562.7484    17.986293    23.200058    21.857545    9120.7828    2070.1323    2769.2922    2848.8208    491.21407   -193.51608    43.253201   -4148.8116 
34283000    72.029689   -4617.7132   -4494.2568   -4617.7132            0     2672.331    17.844628    23.354567    21.889725    9122.6208    2906.2131     2264.211    2846.5691    263.03069   -493.91861    155.48203    -4138.719 
34284000    65.808082   -4616.7246   -4503.9318   -4616.7246            0    670.11968    17.993286    23.329595    21.932215    9206.6192    224.65752    894.92239    890.77914    576.89166   -194.58473     622.0251   -4413.9555 
34285000    67.720769   -4620.8808   -4504.8098   -4620.8808            0    1909.3827     17.94619    23.226776    21.951541    9150.1076    2136.7528    2168.9182    1422.4771   -251.65606   -267.54307    90.847159   -4250.0123 
34286000    70.840153   -4622.3366    -4500.919   -4622.3366            0    2347.7305    18.047432      23.2676    21.698117    9111.4829    1221.8842    2694.4224    3126.8847    -347.6009   -269.35996    18.760331   -4188.9487 
34287000    74.112885   -4620.6044   -4493.5774   -4620.6044            0    1121.5819    17.876826      23.3609    21.979596     9179.091    1075.6029    795.94699    1493.1958    207.79854   -94.620936   -635.10298   -4343.4339 
34288000    71.035382   -4617.9552    -4496.203   -4617.9552            0    2263.2228    17.949922    23.311691    21.810391    9126.4065    2212.7956    2143.7844    2433.0882    301.16634    24.110006   -101.84164   -4194.9697 
34289000    73.378638   -4619.3712   -4493.6027   -4619.3712            0    2170.2444      17.9894    23.265363    21.825463    9134.6095    1713.4106    2163.2045    2634.1181    710.74452   -23.990084    209.62098   -4204.4852 
34290000    69.419493   -4616.2317    -4497.249   -4616.2317            0    1850.0308    17.974553    23.223326    21.854722    9122.7928     1419.276    1707.1437    2423.6728   -325.61992    49.690389   -10.885799   -4251.1088 
34291000      69.5766   -4616.1217   -4496.8698   -4616.1217            0    2103.6222    17.891001    23.260135    21.981274    9147.4435    1662.1778    2841.5852    1807.1036   -25.596927   -651.38922   -81.099938   -4216.2338 
34292000    72.118539   -4622.6712   -4499.0625   -4622.6712            0    2149.3544    17.917625    23.276652    21.945912    9152.8132    2647.1916    1146.3443    2654.5273    -337.4181   -140.86093   -392.64306   -4212.1572 
34293000    70.633866   -4615.6487   -4494.5846   -4615.6487            0    1500.3958    17.922539    23.324365    21.942676    9172.7376    1685.1491    1977.0353    839.00303   -78.466806   -164.43697   -136.41876   -4293.8692 
34294000    69.231014   -4612.9482   -4494.2886   -4612.9482            0    1919.0141     17.99975    23.262982    21.886918    9164.6623     1834.482    1771.6745     2150.886   -447.98842   -37.096693    247.18344   -4237.7986 
34295000    67.419257   -4624.8519   -4509.2976   -4624.8519            0    1759.0986     17.80519    23.328348    22.051703    9159.5202    2179.5241    1738.4372    1359.3344    286.33077    -126.7543    71.318079   -4274.3133 
34296000    72.723583   -4612.1101   -4487.4644   -4612.1101            0    2771.2408    17.777026    23.431531    21.862023    9106.4714    2981.7464    2146.4924    3185.4837     413.9923   -391.74775   -397.18301   -4119.4199 
34297000    67.093436   -4615.2641   -4500.2682   -4615.2641            0    2138.4962    17.993877     23.13763    21.905466    9120.0267    2457.9726    2173.5729    1783.9431    131.68732   -29.960924   -196.87174   -4215.8349 
34298000    70.064025   -4613.9588   -4493.8715   -4613.9588            0    1491.6573    17.916424    23.370685    21.880439     9161.758    1120.9984    1934.6735       1419.3   -21.628088    245.39778    432.40608   -4294.5639 
34299000    74.005142   -4619.4988   -4492.6565   -4619.4988            0    1215.5812    17.927322    23.254429    22.014509    9177.6209    1471.5255    1106.0391     1069.179    130.50482   -15.770783    263.86704   -4329.9556 
34300000    71.471368    -4622.077   -4499.5775    -4622.077            0    1671.4152    17.914218    23.309191    21.957672    9168.7761    1679.9823    1744.7504    1589.5129    486.00484    156.84979   -300.57254   -4276.0805 
34301000    71.031377   -4608.3584   -4486.6131   -4608.3584            0    2968.9269    17.869941    23.175333    21.985352    9105.0543    2943.5487    3401.8411     2561.391   -210.59413   -270.96063    37.190479   -4092.3756 
34302000    69.421655   -4615.8071   -4496.8207   -4615.8071            0    2642.0301    18.002397    23.192073    21.860382    9126.9916     2656.026    2351.4459    2918.6184   -520.84356   -201.40561   -133.24992   -4145.1459 
34303000    69.163957   -4620.5148   -4501.9702   -4620.5148            0    2100.5483    17.908734    23.278396    21.956711    9153.4588    2259.0054    1588.4151    2454.2245   -93.693125    38.389653   -79.413681     -4221.56 
34304000     74.09766   -4617.0231   -4490.0222   -4617.0231            0    2444.8703    17.883553    23.362574    21.834157     9122.438    3048.3652    1453.1902    2833.0556    479.09113    169.49327    645.42819   -4164.7532 
34305000    70.664266    -4616.156   -4495.0398    -4616.156            0     1362.816    17.890702    23.288768    22.005917    9168.8182    1373.8186    2136.8301     577.7994   -130.04262   0.59308142    324.08872   -4312.8071 
34306000    71.762647   -4608.6107    -4485.612   -4608.6107            0    1885.9591    17.884608    23.293675    21.941691    9140.8701    2168.3981     1174.144    2315.3352   -350.78725   -331.86605   -290.48315   -4234.1944 
34307000    70.312874    -4616.835   -4496.3212    -4616.835            0    1088.8214    18.032806     23.32586    21.852161    9191.6902    1139.9148    1408.8832    717.66608   -268.95561   -155.59794   -61.195872   -4350.3632 
34308000    70.071934   -4616.3582   -4496.2573   -4616.3582            0    2177.8719    17.866563    23.401459    21.898911    9156.0145    2102.0877    1974.2432    2457.2848   -447.60233    54.622413   -49.296489   -4205.4437 
34309000    70.833257   -4616.7172   -4495.3114   -4616.7172            0    1406.8826    17.878166    23.327545     21.99703    9173.9433    1440.4329    1254.4899    1525.7249    366.46771   -387.48933    362.58532    -4307.081 
34310000    68.594425   -4623.3129   -4505.7444   -4623.3129            0     1902.573    17.988642     23.27081    21.861794    9151.5718    1599.6234    1603.3281    2504.7676   -185.29555   -126.64121   -22.726129   -4251.8151 
34311000    67.927468   -4614.8709   -4498.4455   -4614.8709            0    1131.2031    17.903586    23.368656    21.977044    9194.8156    1626.5302    981.54257    785.53664   -421.82645    91.383167   -229.10813   -4346.7546 
34312000    70.521961   -4612.3937   -4491.5214   -4612.3937            0     1612.372    17.971333    23.339837    21.860878    9169.5014    1729.3037    1854.8891    1252.9233   -497.41472    244.86606   -155.26628   -4275.9025 
34313000    70.632449   -4609.3189   -4488.2573   -4609.3189            0    1532.7225    17.932994    23.310942    21.981672    9189.1081    1105.3104    1683.3948    1809.4623     211.8267   -308.14211    134.38172   -4282.8515 
34314000      70.5117   -4616.6824   -4495.8278   -4616.6824            0    1410.4068    18.008292    23.245413    21.909724    9171.6336    588.48203    1988.2427    1654.4956    496.45295   -166.97745   -30.540531   -4307.1733 
34315000     68.79383   -4622.1395   -4504.2292   -4622.1395            0    2209.3146    17.863046    23.335677    21.905168    9131.0877    2541.7474    2276.3758    1809.8205    135.22885   -46.140401    395.32513   -4210.0202 
34316000    73.434245   -4615.0465   -4489.1827   -4615.0465            0    1543.3007     18.02995    23.315547    21.829429    9176.6145    948.97302    1473.4652    2207.4637   -1389.4248    274.21999    156.21456   -4282.6404 
34317000    70.949706   -4626.9688   -4505.3634   -4626.9688            0    2259.0385     17.89149    23.228278    21.986159    9137.1949     2572.098    2092.5866    2112.4309    309.96038    103.33521    35.968683   -4204.3316 
34318000     71.07967   -4618.2843   -4496.4562   -4618.2843            0    2802.1356    17.938602    23.317781    21.800155    9118.7517    3156.3243    2635.8527    2614.2299    118.07138    359.47046    366.60307   -4123.8068 
34319000    63.839083   -4617.6917   -4508.2737   -4617.6917            0    995.27019    18.011437     23.22408     21.98277    9195.3714    733.97723    1316.4826    935.35072   -139.97191   -3.7495572   -242.35144   -4374.8029 
34320000    67.568512   -4612.3184   -4496.5082   -4612.3184            0    2497.4094    17.905508    23.363892    21.800929     9120.252    2328.2708    2158.3865     3005.571     4.179996    10.690547   -100.47454    -4164.329 
34321000    68.559625   -4614.3213   -4496.8124   -4614.3213            0    1646.6307    17.823572    23.369679    22.019931    9171.9872    1346.4685    1359.0839    2234.3398    99.530513   -31.760769    245.37335   -4276.5525 
34322000    75.828568   -4609.8231   -4479.8556   -4609.8231            0    1854.4711    18.056591    23.218595    21.858602    9164.1895    2086.8381    1720.7678    1755.8074    159.80136    120.17731   -207.86492   -4232.0049 
34323000    68.554321   -4620.8125   -4503.3128   -4620.8125            0    1873.0197    17.877301    23.284312    21.977249    9148.2643    2038.7341    1222.1239    2358.2011    117.45142   -143.80047    -111.3706   -4253.4181 
34324000     69.95196   -4616.9093    -4497.014   -4616.9093            0    2272.7903     18.11558    23.215971    21.720168    9134.8678    1729.5277    1685.8851     3402.958   -92.704152    468.91815    558.90498   -4194.2268 
34325000    70.882242    -4619.253   -4497.7632    -4619.253            0    1742.9362    17.825784    23.301991    22.080043    9171.5259    2118.5243    2082.5728    1027.7115    263.44346   -149.88098     217.8026   -4264.6328 
34326000     70.56928   -4620.4932   -4499.5399   -4620.4932            0    1942.2164    18.005612    23.230067    21.869445    9147.3672    1265.2356    2613.5998    1947.8139    177.51998   -748.89017   0.42128053   -4240.4386 
34327000    68.887361   -4619.2992   -4501.2286   -4619.2992            0    2273.7953    17.908101     23.29871    21.893647    9134.8098    2280.9232    1976.0873    2564.3755   -347.95404   -222.17648    186.63845   -4198.3094 
34328000    76.395875   -4615.3816   -4484.4417   -4615.3816            0    1518.7091    17.849786    23.348208    21.987446    9163.4995    1887.4979    1059.4094    1609.2199    189.85427   -209.35315   -124.04823    -4281.481 
34329000    69.168066   -4616.6243   -4498.0726   -4616.6243            0    2086.9632    17.865206    23.334155    21.916295    9136.2348    1578.7106    1666.3979    3015.7813    442.90947     774.4679    -158.2552   -4220.0001 
34330000    73.334927   -4611.3788   -4485.6853   -4611.3788            0    1842.3573    17.994542    23.324221    21.810345    9153.9911    1566.6766    1825.8262    2134.5691    1.9931461    460.05801   -151.20958   -4239.7277 
34331000    70.324683   -4618.4665   -4497.9324   -4618.4665            0    1774.8643    17.962052    23.383302    21.843424     9174.502    1943.8566    1178.3149    2202.4215    241.52498   -56.536052    73.811384   -4260.4543 
34332000     67.81373   -4618.5227   -4502.2923   -4618.5227            0    2208.8026    17.957768     23.33113    21.846994    9153.3446    1150.2347    2527.3226    2948.8505    96.412328   -87.403433    269.17481   -4207.4345 
34333000    63.915374   -4611.3971   -4501.8483   -4611.3971            0    2084.6437    17.772081    23.472663    21.905508    9138.0593    2471.0475    1643.8756     2139.008   -830.41523    16.396417    176.44629   -4224.0294 
34334000    72.582641   -4610.0933   -4485.6891   -4610.0933            0    1946.8166    17.843087    23.372979    21.939842    9149.9257    2188.7151     2020.795    1630.9397   -143.04617    305.17536   -188.57995   -4225.9015 
34335000    71.674264   -4620.1735   -4497.3263   -4620.1735            0    1800.1628    17.986327     23.32423    21.846353    9164.9215    1417.1803    2054.8982      1928.41    123.47553    175.73959   -13.179059   -4256.7148 
34336000    69.689632   -4614.9543   -4495.5087   -4614.9543            0    2102.0636    17.973131    23.201207    21.949393    9152.8602    1779.2235    1947.7121    2579.2551   -257.29808    576.95606    10.397576   -4214.9146 
34337000    69.149647   -4617.0362   -4498.5161   -4617.0362            0    2630.1397    17.984306    23.198915    21.884204    9130.4482    2996.2237    3535.7449    1358.4505    140.26834    512.70039    241.12376   -4148.2914 
34338000    70.454238   -4609.3152   -4488.5591   -4609.3152            0    2194.6949    17.931537    23.236595    21.962702    9151.1524    2127.9326    1939.7898    2516.3622   -51.910566    115.02785    272.34371   -4195.6547 
34339000    66.085969   -4617.5244   -4504.2553   -4617.5244            0    1607.6961    17.894145    23.251598    22.014357    9159.4577    1402.2821    2557.3986    863.40746    346.71453   -10.229483    1.0247146   -4289.4972 
34340000    69.229076   -4613.6012   -4494.9449   -4613.6012            0    1638.4714    17.894913    23.454613    21.821602    9158.9252    1747.7341    1118.6513    2049.0288    442.79556    33.119694    28.446914   -4276.0885 
34341000     67.27575    -4620.785   -4505.4766    -4620.785            0    1148.7343    17.933287    23.360477    21.902386    9175.5698    1186.8924     1357.451    901.85931    297.62236    -266.5526    227.63058   -4351.7573 
34342000    72.364513   -4614.0094   -4489.9791   -4614.0094            0    2135.2462    17.893881    23.279483    21.971113    9152.2932    3349.7548    1653.2899    1402.6938    493.01697    28.514678    659.35806   -4204.9732 
34343000     68.51389   -4619.7213   -4502.2908   -4619.7213            0    2635.4574    17.839259    23.281328    21.930204    9108.0882    2411.2849    2436.2068    3058.8805   -337.50258    189.13959    144.00374   -4152.2174 
34344000     68.73785   -4614.4564   -4496.6421   -4614.4564            0    2498.6916    17.862136    23.237533    21.982678    9124.3934    2685.5498    2421.5443    2388.9807    107.89888    200.24745    168.39365   -4164.1414 
34345000    67.654878   -4617.2579   -4501.2997   -4617.2579            0    2338.3395    17.952888    23.390971    21.747334    9132.4777    2276.8299    1999.0098    2739.1787   -256.96704      381.936   -112.87177   -4189.8614 
34346000    72.770203   -4614.9629   -4490.2372   -4614.9629            0     1902.973    17.853521    23.406991    21.886553    9146.3293    1856.2914    1168.1547    2684.4729   -970.98365    292.80496   -340.88226      -4236.4 
34347000    68.805669   -4613.3412   -4495.4106   -4613.3412            0    1889.3936    17.950604    23.443272     21.72692    9143.1417    2052.2638     2341.883    1274.0339    786.91515   -327.13575    39.615732   -4243.4726 
34348000    67.496546    -4619.841   -4504.1543    -4619.841            0    2204.8135    17.867998    23.406461    21.853349    9139.6517    1980.7272    2021.6725    2612.0408   -150.65498    31.692964     360.9828   -4210.2693 
34349000    72.684422   -4618.6915   -4494.1128   -4618.6915            0    1387.0443    18.014348    23.418046    21.754363    9177.3136     1549.093    1771.0365    841.00339   -337.21641   -170.27186   -173.72749   -4308.4685 
34350000    68.334419    -4618.781   -4501.6582    -4618.781            0    1547.8892    17.838966    23.328156     22.00937    9159.2036    1703.8505    869.42328    2070.3938   -105.61102   -7.8161634   -324.56967   -4294.8949 
34351000    68.304185   -4619.6012   -4502.5302   -4619.6012            0    2329.6813    17.908288    23.138344    22.032348    9129.5029    2817.8185    3338.9341    832.29134   -247.44116   -132.04872     96.16105   -4192.3461 
34352000    73.841596   -4617.1925   -4490.6306   -4617.1925            0    3081.6533    17.874433    23.210419    21.932246    9099.0983     2906.534    2370.9129    3967.5131   -247.65264   -158.14735    171.82269   -4081.6921 
34353000    70.955127   -4614.4835   -4492.8688   -4614.4835            0    2327.7167    17.908575    23.240464    21.937483     9130.459    2074.6396    2989.6122    1918.8984   -191.19126   -508.23594      130.665   -4182.9138 
34354000    70.838485   -4616.9765   -4495.5618   -4616.9765            0     2337.117     18.03138    23.235596    21.778461    9124.5189    1641.9895    2564.7234    2804.6381    352.12079   -177.02905    248.62598   -4184.5576 
34355000    71.324333   -4612.9607   -4490.7132   -4612.9607            0    1920.5204    17.994493    23.274726     21.82447    9140.4565    1708.3068    2418.6008    1634.6537   -45.325633   -163.52861    48.161744   -4234.6998 
34356000    68.179855   -4619.2581   -4502.4002   -4619.2581            0    2307.4812    17.844744    23.487707    21.771726    9125.2295    2081.9209    1634.4299    3206.0928   -234.13255   -357.41232   -374.65397   -4195.3157 
34357000    70.672798   -4623.3342   -4502.2034   -4623.3342            0    1915.5245    17.840648    23.262663    22.017636    9137.7806    2269.2858    1849.5753    1627.7124   -248.11637   -9.8410825    172.91851   -4246.9307 
34358000    69.556971   -4617.8419   -4498.6236   -4617.8419            0     1767.274    17.925081    23.386543    21.858737    9163.3066    1823.6448    2287.5959    1190.5813   -893.72713   -203.68317    77.791597   -4262.4497 
34359000    67.360762      -4614.9    -4499.446      -4614.9            0    1867.2294    17.909151    23.335866    21.920508    9161.1404    2145.7725    1891.8906    1564.0251   -272.01424    114.83958    481.40676   -4249.9732 
34360000     68.73675   -4617.3114    -4499.499   -4617.3114            0    2001.4827    17.898871      23.3177    21.898073    9139.3908    2432.4379    1788.7226    1783.2875    218.28419    124.55002     226.2065   -4232.7241 
34361000    72.204435   -4618.4827   -4494.7268   -4618.4827            0    1558.2386    17.932233    23.374012    21.891101    9175.6161    1666.6074    1330.3362    1677.7723   -18.198843    366.85498    190.41233   -4286.2081 
34362000     73.79296   -4622.4895   -4496.0109   -4622.4895            0    2182.7287    17.952604     23.38808    21.762571    9137.6018     1583.095    1905.6077    3059.4835   -346.85856    77.798115    17.884336   -4205.1349 
34363000    69.812114   -4617.0433   -4497.3877   -4617.0433            0    1644.9147    17.842769    23.375616     21.96732    9162.2549    1784.4494     1853.534    1296.7607    566.59001   -97.698134   -119.69916   -4277.5908 
34364000    70.842867   -4608.2116   -4486.7894   -4608.2116            0    1781.0092    17.872506    23.408838    21.921089    9171.2268    2397.7783     1142.046    1803.2033    404.66576    253.80662    65.765291   -4248.5741 
34365000    73.584918   -4614.3657   -4488.2436   -4614.3657            0    1925.9461     17.93183    23.324627     21.88939    9155.3085    1593.0296      2142.96    2041.8486   -50.667747   -25.675115   -388.05629   -4231.0898 
34366000    68.562846   -4617.8842   -4500.3698   -4617.8842            0    2440.9121    17.962461    23.109355    22.038382     9148.152    2354.1265    3192.0196    1776.5901      7.17387   -141.04372   -105.76193   -4174.7121 
34367000    67.523403   -4623.5773   -4507.8445   -4623.5773            0    1521.1899     17.89572     23.31019    21.992359    9174.1704    2030.5299     1077.654    1455.3859    530.16945   -507.07172    436.53031   -4304.3155 
34368000    70.165392   -4622.8188   -4502.5577   -4622.8188            0    2059.1432    17.895155    23.313197    21.894065    9134.0565    1821.8616    2446.2746    1909.2935   -373.52542   -13.190011     333.6431   -4228.2575 
34369000     71.20872   -4613.9072   -4491.8579   -4613.9072            0      2697.56    17.914041    23.422976    21.717012    9112.4616    2271.0641    2539.3512    3282.2646   -324.57039    3.6292512    67.441726   -4133.3633 
34370000    69.006201   -4621.7502   -4503.4759   -4621.7502            0    776.57003     17.82708    23.453078    22.004152    9199.9335    891.70822    602.54909    835.45278   -445.58268      112.947     188.7924   -4399.2822 
34371000     68.08941   -4616.9273   -4500.2243   -4616.9273            0    1813.6758    17.909247     23.37078    21.849518    9145.1829    1796.7669    1945.4608    1698.7998    457.62829   -521.26197   -4.7346051   -4258.3288 
34372000    71.050669   -4611.2932   -4489.5148   -4611.2932            0     1004.155    18.034959    23.367891    21.833511    9201.4919    1307.5715    739.55819    965.33542    444.09445   -113.07893   -217.30372   -4354.7629 
34373000     69.32988   -4624.9523   -4506.1232   -4624.9523            0    2102.7654    17.898186     23.39666    21.829877     9141.431    2063.6534    1471.3551    2773.2878    691.67392    261.24585   -37.238787   -4225.7859 
34374000     71.13906   -4613.5524   -4491.6225   -4613.5524            0    1715.3351    17.948008     23.29496    21.907927    9159.6633    1937.3797    1746.5487    1462.0769    185.22867    41.545297   -90.798655   -4262.4807 
34375000    72.054085   -4609.0384   -4485.5401   -4609.0384            0    2055.7527    17.833001    23.287419    22.005339     9138.478    992.46358    2722.2305     2452.564     91.75068    412.00094    36.788165    -4211.559 
34376000    73.467849   -4623.1162   -4497.1948   -4623.1162            0    1841.7218    17.985194    23.363366    21.817836    9167.7387    906.38319     1982.795    2635.9873    -914.4708   -75.973246   -61.354497   -4250.9528 
34377000    69.677552   -4611.5336   -4492.1087   -4611.5336            0    2316.4959    17.847325    23.228661    22.032805    9134.1283     1792.955    3152.1225    2004.4101    -20.05173   -25.452419   -170.34493   -4183.5239 
34378000    70.316022   -4616.4642   -4495.9449   -4616.4642            0    2124.0214    17.964062    23.348272    21.791927    9140.1836    2224.2296    2066.6497    2081.1851   -125.62268   -32.335166   -168.04897   -4212.8124 
34379000    74.561565     -4617.61   -4489.8141     -4617.61            0    1941.0179    17.842814    23.277793    22.003936    9139.1442    2014.3641    2070.1148    1738.5748    861.42317    -196.4776   -227.00936   -4231.1054 
34380000     68.23615   -4621.7802   -4504.8257   -4621.7802            0    1624.5155    17.984739     23.23416    21.922469    9160.5296    935.18142    1859.1101    2079.2549   -1257.3753   -281.26027    94.063391   -4287.7955 
34381000    69.985132   -4622.0597   -4502.1076   -4622.0597            0    2847.6104     17.98309    23.089082     21.92063    9101.7315    2591.7297    2936.5539    3014.5474   -30.390656    516.74395    108.48401   -4124.1174 
34382000    70.961789    -4609.337   -4487.7109    -4609.337            0    1693.9589     18.05623    23.272481    21.820266    9169.1651    894.75107    2017.8995    2169.2262    98.717432   -286.50193   -259.47132   -4261.1899 
34383000    68.927824    -4617.865   -4499.7251    -4617.865            0     2338.527    17.814085    23.327645    21.942948    9118.6257    2421.1299    3234.5611    1359.8901   -388.66083    90.041344   -319.59113   -4188.7342 
34384000    67.352426   -4619.8039   -4504.3642   -4619.8039            0     1413.715    17.981226    23.244726    21.956815    9177.2604    1601.0385    1003.0348    1637.0716     296.4059    204.55871    160.72033   -4315.1513 
34385000    66.113849   -4619.4438   -4506.1269   -4619.4438            0    2417.6951    17.782752    23.390485    21.909196    9113.0688    3412.3935    2091.1344    1749.5574   -383.77089   -251.27046   -144.92111   -4184.8037 
34386000    67.925727   -4611.7634    -4495.341   -4611.7634            0    2304.7763    17.905766    23.309394    21.877565    9131.0955    1640.5849    2010.9641      3262.78     19.23569   -251.73817    101.99298   -4188.4193 
34387000    68.073382   -4619.4286   -4502.7532   -4619.4286            0    2149.3286    17.931136    23.246309    21.912505    9133.8494    1987.6411    2519.7012    1940.6434   -273.36844   -142.06829    177.04919   -4216.4458 
34388000    69.941477   -4615.8515   -4495.9742   -4615.8515            0    2279.6032    17.971167    23.251874    21.886681    9145.6411    2402.0114     2157.788    2279.0101   -647.08045   -253.54612    135.46059   -4191.9212 
34389000     66.27855   -4623.5283   -4509.9291   -4623.5283            0    1741.7439    17.908192    23.424886    21.808839    9148.7506    1315.1896    762.23005    3147.8121   -29.077202    329.57998    428.18303   -4277.5367 
34390000    71.542768   -4618.8963   -4496.2744   -4618.8963            0    2021.2153    17.875426    23.275453    21.958508    9136.0268    1888.7539    2541.8314    1633.0606   -624.18293    361.51876   -20.167473   -4226.9685 
34391000    67.655254    -4619.724   -4503.7652    -4619.724            0    2532.4244    17.930554    23.295985    21.821412    9115.0204    3397.8722     2554.168     1645.233   -204.24816    8.2070083   -121.79485   -4167.1219 
34392000    67.254813   -4617.0554   -4501.7829   -4617.0554            0    2482.7672    17.855444    23.478777    21.763794    9123.9041    2207.7828    1586.5677     3653.951    98.017141   -79.940399     471.1417    -4171.419 
34393000    66.597338   -4615.8395    -4501.694   -4615.8395            0    1835.9957    17.996396    23.211379    21.927039    9159.3884    1440.1712    2794.7179    1273.0981   -153.71474     190.4365   -213.50886   -4256.4412 
34394000    69.840011    -4616.759   -4497.0556    -4616.759            0    2152.9658    18.006673    23.196582      21.8691     9134.576     1316.753    2004.3005     3137.844    43.614631    13.830454   -407.61712   -4210.2409 
34395000    73.721497   -4614.9649   -4488.6088   -4614.9649            0    2333.7925    17.882088    23.358372    21.849211    9126.3384    2096.9051    1990.5653    2913.9069    1.3259397   -209.61101   -284.65598    -4177.985 
34396000    70.765167   -4621.5939   -4500.3049   -4621.5939            0    2299.9208    17.992553    23.152727    21.949487     9143.644    1592.4762    2995.7852     2311.501    90.555497   -122.32663   -145.73384   -4193.6089 
34397000    67.553742   -4622.3753   -4506.5905   -4622.3753            0    1905.9702     17.90315    23.336422    21.889332    9145.2636    2092.7966    1788.8392    1836.2749    47.094317     109.0489    45.354494   -4252.3831 
34398000    66.270637   -4618.5706    -4504.985   -4618.5706            0    2826.4487    17.812872    23.346532    21.904031    9109.2025    2840.0337    2975.2331    2664.0792   -632.41989    31.443931    90.272057   -4129.4959 
34399000    74.527822   -4617.5008   -4489.7627   -4617.5008            0    1960.6004    17.881512    23.334394    21.890619     9133.954    2925.3439    989.85929    1966.5979   -616.45103   -44.870963    289.37734   -4228.5924 
34400000    72.005213   -4621.6911   -4498.2766   -4621.6911            0    1574.0916    17.964518     23.28335    21.926852    9171.4358    1172.1252     1275.869    2274.2806    405.63574   -220.70684   -81.369825   -4287.7324 
34401000    73.629015   -4617.6343   -4491.4367   -4617.6343            0    1932.7078    17.829735    23.381821     21.95113    9151.2432    2096.6194    1451.0565    2250.4475    -164.0727    14.711822   -332.95665   -4233.4947 
34402000    66.580832   -4618.9677   -4504.8504   -4618.9677            0    2500.4804    17.902504    23.318305    21.802463    9101.5701     2289.659    2212.8198    2998.9624   -870.00133   -272.73368    -598.3917    -4172.944 
34403000    68.263773   -4610.4145   -4493.4127   -4610.4145            0    2154.2382    17.921034    23.285005    21.898158    9137.9124    1746.2676     2677.038     2039.409   -406.49318    273.22062    344.90909   -4206.3237 
34404000    69.508712    -4621.402   -4502.2664    -4621.402            0    2405.5366    17.828843    23.328119    21.921495     9117.443    2190.4016    2204.3279    2821.8803    379.48371   -160.82334    288.76494   -4182.4057 
34405000    69.955922   -4617.3426   -4497.4406   -4617.3426            0    2014.1912    18.004202    23.197196    21.894302    9144.0898    1503.9758    2722.2191    1816.3787    6.7802191    133.04489    188.80764   -4228.8337 
34406000    64.999927    -4621.541   -4510.1334    -4621.541            0    1853.3026    17.986731    23.208631    21.896589    9140.6742     1807.928    1808.8259     1943.154   -211.31334   -67.747676    181.05672   -4263.0745 
34407000    70.974509   -4622.8047   -4501.1568   -4622.8047            0    2554.7903    17.906295    23.240406    21.896647    9112.2802    2912.9764    2430.0964     2321.298    252.19133   -49.436882   -155.67605   -4161.6424 
34408000    71.161395   -4624.6641   -4502.6959   -4624.6641            0    1098.3783    17.854375    23.366702    22.003479    9179.8044    1164.2585    1181.9032    948.97315    284.09633   -149.83761   -39.733302   -4355.6472 
34409000     68.59648   -4616.1866   -4498.6146   -4616.1866            0     1934.308    17.988065    23.236881    21.875946    9143.8509    2226.0284    1593.9381    1982.9575    637.76169    36.522786   -111.28898   -4240.6675 
34410000    75.644349   -4618.8697   -4489.2179   -4618.8697            0    2339.3485    18.011705     23.11803    21.921659     9128.072    2080.7232    2489.3808    2447.9415    835.65166   -303.77942    46.162523   -4177.7955 
34411000    66.351373   -4619.6161   -4505.8921   -4619.6161            0    2094.2929    17.920543    23.286265    21.893826    9136.3486    1780.4078     1798.938    2703.5328    622.58029    153.25746    293.62762   -4226.8396 
34412000    69.672008   -4618.7333   -4499.3179   -4618.7333            0    1790.9311    17.803713    23.417831     21.95198    9152.3146    1519.2624    1609.3577    2244.1733   -627.37206     188.0333   -66.476761   -4260.2695 
34413000    69.078972   -4616.9722   -4498.5732   -4616.9722            0    1377.1662     17.92526    23.391285    21.889754    9178.2615    1745.8072    1135.3313    1250.3599   -65.591412   -240.82056    251.88955   -4314.2319 
34414000      68.8361   -4618.5871   -4500.6044   -4618.5871            0    1306.6676    18.022593    23.402756    21.712591    9157.9013    1176.0262    662.45811    2081.5184    204.80528    13.745638    253.59204   -4326.0877 
34415000    68.325836   -4614.7843   -4497.6762   -4614.7843            0    2600.4812    17.939819     23.32244    21.809606    9125.1468    2348.5649    2507.7479    2945.1308    89.360763    186.62827   -6.9200424   -4151.6018 
34416000    70.932352   -4616.4973   -4494.9216   -4616.4973            0    1948.1989    17.810017      23.4059    21.935236    9143.9108    2197.0339    1382.6848    2264.8779    12.310153   -122.92168    100.74337   -4235.1204 
34417000    67.885292   -4621.8639   -4505.5109   -4621.8639            0    1847.7056    17.817777    23.428191    21.920683    9150.5325    2654.4851    901.31473     1987.317    15.412403    41.892998    30.186015   -4258.9325 
34418000    72.383857   -4608.6809   -4484.6175   -4608.6809            0    2306.6805    17.891647    23.302148    21.952713     9152.389    2312.5553    2553.8755    2053.6109    586.71255   -64.660025    280.25704   -4176.7259 
34419000     73.87495   -4617.7259   -4491.1067   -4617.7259            0    2116.8713    17.977094    23.278544    21.881336    9156.9141    1698.0386    1773.9411    2878.6341    757.29468   -183.55158   -396.98959   -4208.4108 
34420000    72.230946   -4623.4909   -4499.6895   -4623.4909            0    1136.4918    17.917483     23.33871    21.981268    9191.9271    1396.4308    1133.8861    879.15843    49.790617    126.06245   -37.338291   -4347.3373 
34421000     68.08905    -4614.474   -4497.7717    -4614.474            0    2282.8141    17.844618    23.351905    21.925992    9136.6888    2871.5359    1528.1826    2448.7239     348.3702    269.74663    73.956822   -4193.5884 
34422000    67.343827   -4614.8546   -4499.4296   -4614.8546            0    2447.3663     17.94165    23.199171    21.919424    9123.5528    1820.6198    2793.1722    2728.3069   -96.273927    234.40425   -41.139382   -4173.7887 
34423000    66.432074   -4615.3173    -4501.455   -4615.3173            0    1687.0716    17.935207    23.298652    21.940752    9168.2975    2291.8966    1056.0445    1713.2738    6.6942675     541.7616    370.20254   -4275.8763 
34424000    69.147994   -4620.7369   -4502.2196   -4620.7369            0    1368.7561    17.912356    23.313643    21.970808    9175.0595    1466.7083    1441.6413    1197.9186    389.94082    205.69717   -560.89178   -4319.0679 
34425000    73.753716   -4618.3727   -4491.9613   -4618.3727            0    2114.5514    17.832018    23.297637    21.984901     9133.493    2092.9859    2527.7602     1722.908    -164.1941    92.438053   -50.955477   -4210.2975 
34426000    70.507831   -4621.6428   -4500.7948   -4621.6428            0    2133.3833    17.862977    23.446676     21.79732    9129.3158    1829.5739    2418.6342    2151.9417   -509.72362    265.59969   -9.5706179   -4216.7525 
34427000    72.693325   -4612.6196   -4488.0257   -4612.6196            0    1708.4916    18.009649    23.145475    21.980301    9162.3101    1206.7971    1858.0089     2060.669   -150.22417   -390.50366   -397.43666   -4259.7321 
34428000    71.185373   -4612.0667   -4490.0574   -4612.0667            0    2846.0703    17.961994    23.217676     21.82802     9103.065    2874.4795    3264.7573    2398.9741   -436.47445   -29.034662    257.95071   -4112.2164 
34429000    70.654167   -4620.7409   -4499.6421   -4620.7409            0    2285.4458    18.020612    23.189376    21.865528    9137.3145    1610.2742    2764.7373    2481.3258    503.37902     265.6137    200.14078   -4195.0873 
34430000    70.500045   -4619.6977   -4498.8631   -4619.6977            0    2358.5689    17.793452    23.306169     22.01799    9130.7987    2588.3118    2152.1652    2335.2298   -109.48406    -204.8695    7.1922138   -4184.7882 
34431000    68.810973    -4611.827   -4493.8874    -4611.827            0    1842.1285    17.982364    23.403849    21.774603    9163.9839    1282.0258    2578.3147     1666.045    48.061554   -136.31489     102.1025   -4247.6919 
34432000    70.479837   -4607.5884   -4486.7884   -4607.5884            0    2104.1224    17.923401    23.268276    21.906647    9136.0937    1774.4179    2097.3083     2440.641    95.465163    249.71197    84.255727   -4206.4339 
34433000    66.506629   -4614.1802   -4500.1901   -4614.1802            0    2653.0835    17.929049    23.308529    21.808098    9113.5988      1832.85    3387.5348    2738.8657    132.98195    126.52761    470.20529   -4147.5622 
34434000    68.070245   -4618.6164   -4501.9463   -4618.6164            0    2414.1826    17.834752    23.326069    21.949633     9131.369    2595.1446    1966.9225    2680.4806    424.06877     236.7379    326.63224   -4180.4456 
34435000    73.030675   -4617.3068   -4492.1347   -4617.3068            0    1490.6806    17.999426    23.363019    21.800499    9167.5666    1893.8906    456.40209     2121.749   -228.89563   -49.972761   -128.05186   -4292.8314 
34436000    70.603332   -4612.0468   -4491.0351   -4612.0468            0    1498.6156     17.91642      23.2137    22.060703    9175.1875    1709.9177     2112.704     673.2253    391.40313   -286.46723    460.07871   -4290.5043 
34437000     69.33755   -4618.8988   -4500.0566   -4618.8988            0     2214.821     17.98082    23.325605    21.767904    9129.7531    1624.7643    1360.5757     3659.123    -0.493692    204.35164   -76.218179   -4205.1574 
34438000    73.991456   -4612.4601   -4485.6413   -4612.4601            0     2848.217    17.818941     23.28939    21.965227    9115.3998    3462.8827    3453.2862     1628.482    899.34862    81.537897    213.28719   -4107.0029 
34439000    66.224482   -4617.7613   -4504.2548   -4617.7613            0    2248.2408    17.977859    23.216344    21.870779    9128.4291    1079.9651    2391.8535     3272.904    302.49206    233.11918   -155.96983   -4204.9492 
34440000    71.879197   -4608.8424   -4485.6439   -4608.8424            0    2577.4371    17.870743    23.313585    21.935136    9138.8595     3250.706    2901.9601    1579.6451   -353.55358    -417.2632    146.36448   -4142.1208 
34441000    71.261012   -4616.3868   -4494.2479   -4616.3868            0    1992.5052    17.969397    23.193584    21.925533    9138.0079    1689.6325    1828.4555    2459.4275   -503.40305   -114.20014    81.422657   -4228.7098 
34442000    69.326697   -4610.8796    -4492.056   -4610.8796            0    2922.2189    17.851547    23.225091    21.949121     9100.189    3577.8779    3127.4957     2061.283    55.760523    256.71423   -524.81023   -4104.2281 
34443000    71.161387    -4616.762   -4494.7938    -4616.762            0    2616.4778    17.877562    23.321012    21.879907     9122.233    2457.7367    2370.6114    3021.0853    1.1804874    269.25121    63.427649   -4146.7018 
34444000    71.378724   -4610.9733   -4488.6326   -4610.9733            0    2199.0088    17.822609    23.327169    21.975947    9136.5224     1650.742    2277.5672    2668.7172   -665.51753   -77.263271   -410.88056   -4195.6217 
34445000     69.68683   -4620.4539    -4501.013   -4620.4539            0    1071.6536    17.960361    23.293941    21.951611    9183.8427    1149.7222    1955.5417    109.69684   -119.17654    73.296143    153.95477   -4357.4791 
34446000    68.418564   -4614.1162   -4496.8491   -4614.1162            0    1680.9278     17.98128    23.338852     21.84704    9168.3819    827.44716     1317.402    2897.9342   -337.40407   -60.781158   -51.595665   -4272.0898 
34447000    70.978303     -4617.62   -4495.9657     -4617.62            0    1941.1592    17.970722    23.340648    21.819772    9152.2666    2782.9148    1617.8069    1422.7559    -257.8993    202.01106    136.19058   -4236.8667 
34448000    72.090432   -4618.7022   -4495.1417   -4618.7022            0    1950.5982    17.848577    23.356349    21.930136    9142.1826    2527.6051    1755.4013    1568.7882    148.08277   -235.10366   -181.35528   -4235.0697 
34449000    70.990439   -4613.5678   -4491.8926   -4613.5678            0    1412.3072    17.997109    23.347148    21.846077    9179.3099    1791.3808    1438.5134    1007.0273    388.96998   -256.55718    28.984203   -4302.8259 
34450000     69.36599   -4614.6871   -4495.7961   -4614.6871            0    1451.9888    17.697893    23.463779    22.026796    9146.8352     1784.678    93.358256    2477.9302    121.34531   -108.39207    20.660424   -4302.1049 
34451000     66.88289   -4611.2256   -4496.5906   -4611.2256            0    2082.6313    17.870886    23.437039     21.85494     9153.737    2163.5215    2173.4915    1910.8807   -803.26514   -246.08527    348.14064   -4218.5638 
34452000    71.264858   -4615.8387   -4493.6932   -4615.8387            0    1893.3789    17.856224    23.408916    21.880024    9145.7374    1504.5382    1198.6597    2976.9389    306.87306   -80.960566    349.73716    -4241.152 
34453000    72.015898   -4625.9938    -4502.561   -4625.9938            0    2195.7942    17.890664     23.46061    21.798804    9149.5223    2488.5018    1650.7043    2448.1764    121.48758    32.120122    639.32951   -4209.5622 
34454000    68.344216   -4619.8391   -4502.6994   -4619.8391            0    1374.0617    17.855791    23.351779    21.990088    9169.0855     1896.684    914.45365    1311.0474     257.9261    321.22004   -663.52588   -4318.9575 
34455000    69.276166   -4620.7557   -4502.0187   -4620.7557            0    2542.4931    18.046412    23.177723    21.794996    9116.2961    1449.2786    3691.5363    2486.6643   -116.46916   -166.30243   -517.55967   -4163.9896 
34456000     70.26793   -4622.7468     -4502.31   -4622.7468            0    2237.1745    17.989788    23.239568    21.863205    9140.4571    1869.2683    2082.7045    2759.5508    530.59464   -275.14576   -331.19038   -4204.0852 
34457000    70.871027   -4617.8957   -4496.4252   -4617.8957            0    2420.7396    17.914125    23.253633    21.881716    9115.2335    2411.5746    2820.1788    2030.4656    237.96365   -2.2090272    510.77128   -4174.6209 
34458000    70.511594   -4613.5601   -4492.7056   -4613.5601            0    2489.1553    17.916011    23.205639    21.931336    9118.0076    1801.0963    2039.4611    3626.9086    81.412527   -126.20373    286.54401   -4161.7057 
34459000    70.204381   -4618.2326   -4497.9047   -4618.2326            0    2025.1163    17.789451    23.353746    21.985146    9133.7359    2516.3376    2010.6808    1548.3304    27.503018   -44.379804    522.61277   -4228.1467 
34460000    72.441879   -4614.2033   -4490.0404   -4614.2033            0    1392.8276    17.930174    23.455265    21.830317    9180.8922    846.50902    1490.8213    1841.1526    408.92353    357.40107    169.33924   -4303.5493 
34461000     68.07729   -4616.1304   -4499.4482   -4616.1304            0    2233.6738    17.867296    23.453608    21.814327    9141.3497    2182.1024    1539.3712    2979.5479   -1094.9661    373.83662   -8.7282295   -4201.6611 
34462000    70.474113   -4617.0847   -4496.2945   -4617.0847            0    2363.9559    17.999428     23.24379    21.794531    9118.2849     2806.859    2451.0537    1833.9551    250.76678    126.87005    135.67312   -4181.9336 
34463000    70.522065   -4611.4894    -4490.617   -4611.4894            0    1687.0912    17.935633    23.375661    21.855704    9163.1629    1884.9304    824.15378    2352.1895    310.34316    446.25584   -330.67749    -4265.162 
34464000    69.311845   -4616.3916   -4497.5935   -4616.3916            0    1913.8312    17.935785    23.280257    21.868201    9131.0603    1224.1495    2089.4719    2427.8722    265.77509   -126.22523   -118.87473   -4242.7341 
34465000    65.933397   -4622.0957   -4509.0882   -4622.0957            0    2201.1948    17.929876    23.351758    21.795835    9125.7882    1664.3676    2233.3429    2705.8738    56.087759   -100.84108   -280.65309   -4216.1306 
34466000    68.443834   -4618.5555   -4501.2452   -4618.5555            0    1636.1702    17.839474    23.388137    21.933823    9151.4941    1682.9407     1757.233    1468.3368   -465.73242    204.59105   -26.216582   -4282.8735 
34467000    69.248389   -4622.2349   -4503.5455   -4622.2349            0    2208.4655    17.997614    23.266087    21.809764    9132.4909    1698.5837    1677.0401    3249.7729   -82.999064   -65.955197    267.37662   -4209.4044 
34468000    70.808163   -4615.6734   -4494.3107   -4615.6734            0    2536.2249    17.873102    23.304604    21.912135    9126.9642    2668.4986    2454.3524    2485.8237    196.17937   -241.48857    249.70527   -4156.7203 
34469000    69.456613   -4614.0633    -4495.017   -4614.0633            0    1906.9917    18.011411    23.281837    21.814538    9147.6806    1554.1263    1661.7012    2505.1476    257.35466    247.29797    226.02991   -4240.6061 
34470000    65.795011   -4615.9087   -4503.1383   -4615.9087            0    2705.2617    17.860174    23.290106    21.901385    9110.2171    2640.5471    2363.6668    3111.5711   -511.76301    -148.3677    106.03027   -4143.7087 
34471000    71.473491   -4620.8211    -4498.318   -4620.8211            0    2324.3533    17.964341    23.170692     21.90238    9116.7833    1757.9173    2774.4443    2440.6981    178.03745    158.83424    131.98484   -4189.2744 
34472000    70.551153   -4622.8751   -4501.9528   -4622.8751            0    1615.5432    17.980462    23.209028    21.956259    9162.5454    986.58792    1838.3014    2021.7401    138.75429   -98.328706    -173.9207   -4286.0737 
34473000    71.464108   -4621.3828   -4498.8958   -4621.3828            0    2547.5208    18.030749    23.284567    21.663509    9095.1679    1756.2435     3186.581    2699.7378    55.195936    157.11651    268.64567   -4160.9832 
34474000    70.339993    -4616.135   -4495.5747    -4616.135            0    2206.0663     17.86588    23.216245     22.00548    9127.4033    1974.0718    2355.9345    2288.1926    451.82436   -7.9094946   -239.08753   -4201.9168 
34475000    67.893456   -4619.4897   -4503.1226   -4619.4897            0    2340.1585    17.838252     23.28355    21.957056    9119.5956     2813.777    3066.4879    1140.2107   -98.500366    111.47775   -150.88491   -4191.8816 
34476000    71.592586   -4620.4567   -4497.7494   -4620.4567            0    1815.6297    17.845422    23.319025    21.979373    9146.4491     2044.287    1694.5051     1708.097   -101.65527    -170.8047   -326.14606   -4255.5597 
34477000    75.962383   -4611.5818   -4481.3849   -4611.5818            0    1756.7958    17.897071    23.301806    21.980697    9166.6997    1907.1748    2713.0598    650.15265   -452.64772    335.40451   -60.268339   -4246.5243 
34478000    73.767658    -4615.751   -4489.3158    -4615.751            0    1730.6162    18.035643    23.241424    21.843282    9156.1366    743.19255     1712.504     2736.152   -341.48776    38.871011   -80.096842   -4258.2217 
34479000     70.60404   -4611.0507   -4490.0378   -4611.0507            0    2988.3218    17.974039    23.067111    21.952494    9101.7048    2231.4771    4136.4312    2597.0572   -121.81175    8.6333444    553.87911   -4093.3709 
34480000    73.820222   -4614.3563   -4487.8309   -4614.3563            0    1897.8587    17.918432    23.403362    21.825983    9152.7596    2343.1974    874.80161    2475.5772   -261.67445     391.3878   -305.25933   -4234.4979 
34481000    68.828984   -4608.4128   -4490.4423   -4608.4128            0     2698.654    17.732422    23.385911    21.960191    9106.6465    3307.2986    1642.7515    3145.9119    403.28153    342.66894   -337.65576   -4132.0311 
34482000    69.402283   -4616.1419   -4497.1888   -4616.1419            0    1707.1679     17.89684    23.413588    21.896117    9175.1133    1631.4802    2059.6354    1430.3881    112.47323    206.88844    22.537681   -4268.7533 
34483000    66.678808   -4616.6083   -4502.3231   -4616.6083            0    1511.9787      17.9537    23.391377    21.837025    9170.7156    1429.2547    1445.5245    1661.1569    53.028978    544.85454    357.18045   -4300.1028 
34484000    70.021839   -4609.3811   -4489.3661   -4609.3811            0    2393.0799      17.9661    23.248629     21.86111    9131.1057    3010.3398     1818.091     2350.809   -438.98344    754.20737    386.89663   -4170.6849 
34485000     65.54054    -4614.829   -4502.4947    -4614.829            0    2365.1468    17.919131    23.244361    21.923008    9131.3439    2115.8289    2339.4651    2640.1463   -537.82294   -178.72195   -197.28335   -4187.5251 
34486000    66.338211    -4614.622   -4500.9206    -4614.622            0    1268.9918      17.9337    23.404497    21.863574    9176.7807    792.78619    1286.9084    1727.2808    141.41272   -452.80454    97.057487   -4331.0864 
34487000    68.819314   -4613.2686   -4495.3146   -4613.2686            0    1923.3084    17.898926    23.217382    21.946041    9120.0331    1863.3479    1671.7549    2234.8223    53.344415   -273.01499    552.94478   -4239.5025 
34488000    71.135944   -4614.7093   -4492.7848   -4614.7093            0    2069.6364    17.910119     23.26021    21.963087    9149.6712    2258.0612     2510.447     1440.401   -110.93936   -159.42066   -150.14333   -4216.6154 
34489000    73.977625   -4620.5297   -4493.7346   -4620.5297            0    2929.1125    17.984854    23.303798    21.704036    9096.4954    3284.1232    2590.2576    2912.9567   -188.16357    497.32952   -101.50076   -4105.1496 
34490000    70.912581   -4616.6112   -4495.0694   -4616.6112            0    2160.1159    17.982271    23.219371    21.864217    9129.1201    2049.4915    2440.5267    1990.3295    298.12966     466.9959   -9.8484977   -4207.4741 
34491000    67.692581    -4618.217   -4502.1942    -4618.217            0    1965.9775    17.926944     23.27598    21.884732    9131.7811    1491.4209    2586.3959    1820.1157   -391.83174    17.914829   -220.51213   -4240.3699 
34492000    70.298332   -4616.4038   -4495.9149   -4616.4038            0    2417.5741    18.043306    23.126274    21.863806    9123.2077    1814.3226    2756.5452    2681.8546    158.18042    12.889792   -83.542387   -4174.2503 
34493000    68.654307   -4606.1334   -4488.4623   -4606.1334            0    2345.4705    17.941266    23.198002    21.892722    9111.7843    2346.1029    2406.4662    2283.8424   -129.57937     101.7547    242.27824   -4176.7821 
34494000    69.860036   -4612.5217    -4492.784   -4612.5217            0    1800.5998     17.88927    23.371562    21.922511    9165.8056    2394.4308    1868.2144    1139.1541    351.30782   -18.538301   -150.71057   -4252.0908 
34495000    72.042566   -4609.9899   -4486.5114   -4609.9899            0    2627.3116    17.980787    23.210462    21.870138    9127.3349     2156.826    2667.7841    3057.3247    904.38819   -115.33562    10.832532   -4136.7826 
34496000    69.881512   -4615.5906    -4495.816   -4615.5906            0    2625.9385    17.797208    23.343163    21.984897    9133.4745    2924.6506    2311.7208    2641.4442    14.844262    294.38911   -17.863827   -4146.0348 
34497000    67.760162   -4613.0719   -4496.9333   -4613.0719            0    2248.7409    17.800884    23.499233    21.826375    9130.1279    2646.4147    2342.7883    1757.0198   -413.50367   -68.452734   -32.314194   -4197.5055 
34498000    70.189669   -4610.0339   -4489.7312   -4610.0339            0    1849.3077    17.837583    23.351993    21.969483     9151.237    1616.2644    1529.5055    2402.1532   -348.25844    302.71676   -347.41301     -4242.92 
34499000    71.009824   -4626.0084      -4504.3   -4626.0084            0    2161.2054    17.857625    23.459598    21.794372    9130.3753    2598.0876    1351.6018    2533.9269    315.94963    -115.3683   -77.071085     -4216.52 
34500000    68.421264   -4602.2051   -4484.9334   -4602.2051            0    2805.8653    17.986984    23.118751    21.906543    9109.5427    3085.2601    2662.2722    2670.0636    562.83937    249.54669    126.93676   -4112.1649 
Loop time of 289.039 on 64 procs for 250000 steps with 864 atoms

Performance: 149.461 ns/day, 0.161 hours/ns, 864.934 timesteps/s
391.5% CPU use with 16 MPI tasks x 4 OpenMP threads

MPI task timing breakdown:
Section |  min time  |  avg time  |  max time  |%varavg| %total
---------------------------------------------------------------
Pair    | 23.92      | 26.428     | 28.425     |  25.7 |  9.14
Bond    | 1.5489     | 1.6972     | 1.8958     |   7.2 |  0.59
Kspace  | 153.54     | 156.98     | 161.15     |  17.3 | 54.31
Neigh   | 0.13065    | 0.14094    | 0.15054    |   1.8 |  0.05
Comm    | 36.396     | 39.347     | 43.23      |  30.1 | 13.61
Output  | 0.42035    | 0.4206     | 0.4221     |   0.1 |  0.15
Modify  | 48.191     | 52.757     | 57.251     |  46.7 | 18.25
Other   |            | 11.27      |            |       |  3.90

Nlocal:        54.0000 ave          60 max          46 min
Histogram: 2 0 4 1 1 0 0 1 2 5
Nghost:        2591.25 ave        2633 max        2555 min
Histogram: 3 3 2 0 0 0 1 4 2 1
Neighs:        13337.5 ave       14909 max       11507 min
Histogram: 1 2 3 2 0 0 0 2 3 3

Total # of neighbors = 213400
Ave neighs/atom = 246.99074
Ave special neighs/atom = 2.0000000
Neighbor list builds = 570
Dangerous builds = 0

unfix		3
unfix		2
unfix		1

write_data	data.final.${pid} nocoeff
write_data	data.final.1 nocoeff
System init for write_data ...
PPPM initialization ...
  extracting TIP4P info from pair style
  using 12-bit tables for long-range coulomb (../kspace.cpp:340)
  G vector (1/distance) = 0.37224969
  grid = 24 27 25
  stencil order = 5
  estimated absolute RMS force accuracy = 0.0030944271
  estimated relative force accuracy = 9.3187752e-06
  using double precision FFTW3
  3d grid and FFT values/proc = 6300 1296
Last active /omp style is kspace_style pppm/tip4p/omp

write_restart   restart.lmp.${pid}
write_restart   restart.lmp.1
System init for write_restart ...
PPPM initialization ...
  extracting TIP4P info from pair style
  using 12-bit tables for long-range coulomb (../kspace.cpp:340)
  G vector (1/distance) = 0.37224969
  grid = 24 27 25
  stencil order = 5
  estimated absolute RMS force accuracy = 0.0030944271
  estimated relative force accuracy = 9.3187752e-06
  using double precision FFTW3
  3d grid and FFT values/proc = 6300 1296
Last active /omp style is kspace_style pppm/tip4p/omp
Total wall time: 0:04:49
