LAMMPS data file via write_data, version 30 Jul 2021, timestep = 18000000

864 atoms
2 atom types
576 bonds
1 bond types
288 angles
1 angle types

0.07506534516323171 18.132507054844893 xlo xhi
0.08728279190848554 23.541895008103523 ylo yhi
0.17248803827365755 22.04070776172713 zlo zhi

Masses

1 1.00794
2 15.9994

Atoms # full

707 1 1 0.5897 3.06179242366806 1.9476031918031547 4.146821219545341 0 0 0
706 1 2 -1.1794 3.0521065406192025 2.089800175223258 3.2003651700214193 0 0 0
30 1 1 0.5897 5.363530248830937 4.172485751244156 2.5150635167627975 0 0 0
708 1 1 0.5897 2.199038779744876 2.4876299629064933 3.026181118080278 0 0 0
29 1 1 0.5897 4.459674596794432 2.9668984752829024 2.6624435734286913 0 0 0
28 1 2 -1.1794 5.253005282954522 3.2686427806207843 2.2198695799197163 0 0 0
597 1 1 0.5897 0.7169033453355522 5.552249216933631 4.042192578516817 0 0 0
188 1 1 0.5897 3.0417448444942523 0.3226474596474921 2.512026850854609 0 1 0
495 1 1 0.5897 8.19315294578061 2.3631614355381885 2.8561038478159118 0 0 0
494 1 1 0.5897 6.679902768203529 2.410376407486421 2.8556475889513346 0 0 0
493 1 2 -1.1794 7.42174283534521 1.9163304559298557 3.204768451820077 0 0 0
3 1 1 0.5897 0.7220235148753021 3.7341462039562074 2.7804077535247185 0 0 0
1 1 2 -1.1794 0.5572260417981936 2.852009445969248 2.4472457245625456 0 0 0
846 1 1 0.5897 7.501236000179672 1.619830967506347 5.027252759404486 0 0 0
136 1 2 -1.1794 5.4276089960580824 5.798350123434345 3.182094761058833 0 0 0
595 1 2 -1.1794 0.773351425080886 5.395011756149743 3.099752754752902 0 0 0
819 1 1 0.5897 7.455232652105333 0.4372588787884701 2.357467306459443 0 0 0
137 1 1 0.5897 5.389343102194337 5.7720839785574505 4.138095259167746 0 0 0
668 1 1 0.5897 5.477796541103266 3.065211791683464 0.394668610253153 0 0 0
20 1 1 0.5897 0.6571479364589519 2.613891158130228 0.505847971841584 0 0 0
83 1 1 0.5897 4.59899472938161 2.5848105393333642 6.426034485491744 0 0 0
784 1 2 -1.1794 0.7664644742266795 3.0032432211875033 6.874258240116344 0 0 0
82 1 2 -1.1794 5.371833185428753 3.059685333265432 6.7318360530734624 0 0 0
673 1 2 -1.1794 2.9574046410190777 1.6853481927096228 10.435755138089245 0 0 0
674 1 1 0.5897 3.7002468680425995 2.147651789379456 10.0474926029512 0 0 0
356 1 1 0.5897 7.219237114910933 1.12520168264393 9.943273480115886 0 0 0
488 1 1 0.5897 2.2382269780748194 2.079707635873681 6.210066008695818 0 0 0
489 1 1 0.5897 3.036590634600631 0.8525975561580305 5.824219702774463 0 0 0
35 1 1 0.5897 0.7634927677522729 3.853033861551199 9.920689881627682 0 0 0
34 1 2 -1.1794 0.6676816614578863 2.929265304921968 9.688803655589359 0 0 0
176 1 1 0.5897 8.961828937620387 3.07333754568746 9.670484138866096 0 0 0
274 1 2 -1.1794 5.07499292865953 3.0194356480289843 9.561885517927962 0 0 0
678 1 1 0.5897 5.37581761105583 4.763753998630943 10.356418553308735 0 0 0
112 1 2 -1.1794 0.86169500455935 5.694673714195023 10.483870549678267 0 0 0
36 1 1 0.5897 1.506786784886323 2.5340959352913788 9.925560495534393 0 0 0
355 1 2 -1.1794 7.436603702747593 1.9799626230336274 10.315329103709567 0 0 0
785 1 1 0.5897 0.9080970385341657 3.0325409370626 7.820402799176035 0 0 0
84 1 1 0.5897 6.108180650119269 2.4924114820436483 6.503128587803598 0 0 0
276 1 1 0.5897 5.888181976941809 2.688697977386908 9.943501606143089 0 0 0
675 1 1 0.5897 2.9494134645034262 0.8338846771077585 9.998463116973825 0 0 0
275 1 1 0.5897 5.197116883834368 2.924177721571148 8.61735108044287 0 0 0
686 1 1 0.5897 5.542388229781497 4.670794255010787 6.134573899149344 0 0 0
676 1 2 -1.1794 5.535408934578643 5.606416818642265 10.781543953820542 0 0 0
845 1 1 0.5897 7.391088961171484 0.6580526966172615 6.191149271331375 0 0 0
183 1 1 0.5897 0.8895209803952495 4.652782463268006 6.209337433208672 0 0 0
844 1 2 -1.1794 7.5109102440941475 1.5848276276499036 5.983697087230672 0 0 0
487 1 2 -1.1794 3.0827442646062067 1.80836927332245 5.8502670841113495 0 0 0
181 1 2 -1.1794 0.9251080407653863 5.552568459961887 5.884662544530607 0 0 0
687 1 1 0.5897 4.699239542387638 5.920956160375898 6.2700094960743735 0 0 0
685 1 2 -1.1794 5.4613771238802 5.567982948355925 5.81084814605 0 0 0
166 1 2 -1.1794 2.981758085008413 2.1853883251586064 13.15093155712689 0 0 0
167 1 1 0.5897 2.962609858804562 2.0862864011408053 12.199140720897148 0 0 0
457 1 2 -1.1794 5.4679523812483115 3.136622015029632 13.992283854090122 0 0 0
458 1 1 0.5897 6.119250037076289 2.549188437256536 13.608856543889457 0 0 0
459 1 1 0.5897 4.6269577758907365 2.7897603460305165 13.694399324666087 0 0 0
762 1 1 0.5897 5.441048546403655 4.966405319413028 13.79871355074991 0 0 0
594 1 1 0.5897 8.192825503205569 2.035557921720395 13.258156309661551 0 0 0
168 1 1 0.5897 2.082830214087809 2.4151590246068566 13.386410500985663 0 0 0
468 1 1 0.5897 0.7664234692335609 3.3882027798316083 14.967757830585905 0 0 0
365 1 1 0.5897 0.5852494058508584 5.068716768694391 13.388045344726514 0 0 0
593 1 1 0.5897 7.676600440718634 0.6127434872118694 13.293095242393875 0 0 0
592 1 2 -1.1794 7.476231486359409 1.4824272583500644 12.94697480133174 0 0 0
466 1 2 -1.1794 0.6907376541319352 3.463895838803855 14.016634797568019 0 0 0
71 1 1 0.5897 5.466955820692499 3.3337885690671505 15.8359819342865 0 0 0
737 1 1 0.5897 2.828114216093825 0.4940175997264619 14.098143437745328 0 1 0
760 1 2 -1.1794 5.472027934770478 5.877976354998467 13.508166506022652 0 0 0
761 1 1 0.5897 5.600926426264183 5.8237550248365375 12.561309810714793 0 0 0
113 1 1 0.5897 0.9151151145075991 5.730766205969228 11.43882460857259 0 0 0
357 1 1 0.5897 7.498257288563763 1.8228478517004416 11.257479376977102 0 0 0
754 1 2 -1.1794 7.826754353760677 1.663421496976144 17.32479103205531 0 0 0
360 1 1 0.5897 9.03269116169734 2.6290951132431575 20.82984162976149 0 0 0
72 1 1 0.5897 4.905647684542598 2.7284571960845754 17.104958013788654 0 0 0
755 1 1 0.5897 7.805918262359347 1.7260590255906747 18.279638983583297 0 0 0
290 1 1 0.5897 3.2192064730736254 1.001802295473004 17.616655315688696 0 0 0
42 1 1 0.5897 7.740650253420996 0.9642742867735823 20.49697683019356 0 0 0
289 1 2 -1.1794 3.3597753756831903 1.9320008658725016 17.793526182365312 0 0 0
41 1 1 0.5897 6.900768359082977 2.223533841437078 20.52804857187145 0 0 0
143 1 1 0.5897 5.4610843393442625 4.877724052382512 20.774740118681336 0 0 0
569 1 1 0.5897 2.399279725393548 2.062270607949667 20.792577694636904 0 0 0
648 1 1 0.5897 0.6479742994075081 5.529325770398523 19.591612608240062 0 0 0
570 1 1 0.5897 3.309792631504948 1.7717853599963231 19.618539227125297 0 0 0
40 1 2 -1.1794 7.691392699306534 1.8503687628430234 20.138246812603256 0 0 0
19 1 2 -1.1794 0.8080113070147773 2.710874618593735 21.433888681077327 0 0 0
667 1 2 -1.1794 5.475980772939295 3.072093012193708 21.305789778995404 0 0 0
134 1 1 0.5897 0.9955832987977438 4.046888140637648 17.069318842497125 0 0 0
568 1 2 -1.1794 3.249236780615945 1.6825926132091706 20.569584936247054 0 0 0
756 1 1 0.5897 7.071538663544135 2.1748665560415423 17.034245673220127 0 0 0
669 1 1 0.5897 4.6554214633109385 2.642369893995456 21.064281016137244 0 0 0
278 1 1 0.5897 5.466550157519123 5.029261248914126 17.4524906916701 0 0 0
291 1 1 0.5897 2.625816633220194 2.371555128008045 17.364139427463414 0 0 0
21 1 1 0.5897 0.7828992032084139 3.6558143253428006 21.283016555554397 0 0 0
70 1 2 -1.1794 5.632026996249664 3.2579033323803706 16.775725001016944 0 0 0
142 1 2 -1.1794 5.628754541154345 5.7764355586007925 20.49102657039355 0 0 0
571 1 2 -1.1794 0.7579186200785551 5.724855219554865 17.734180036616756 0 0 0
277 1 2 -1.1794 5.333805802941587 5.884278250165691 17.86187249511525 0 0 0
144 1 1 0.5897 5.557268684088866 5.744188394550486 19.537118756949297 0 0 0
646 1 2 -1.1794 0.7021675915071119 5.4603733557769685 20.544728285432647 0 0 0
135 1 1 0.5897 0.3570357137898556 2.6930099715889124 16.842680965567396 0 0 0
133 1 2 -1.1794 1.1549875565107777 3.1923110972307382 16.668602297552646 0 0 0
647 1 1 0.5897 1.5713090755493901 5.79838021134832 20.76073686099167 0 0 0
253 1 2 -1.1794 2.9772003767448556 6.719092563290847 2.121601085373541 0 0 0
123 1 1 0.5897 2.7814434059354576 8.624837517762856 2.6566093828028485 0 0 0
121 1 2 -1.1794 2.6900035097248995 9.559414790987326 2.842363631833516 0 0 0
122 1 1 0.5897 2.9398862116278304 9.646813211438042 3.7621731235259537 0 0 0
44 1 1 0.5897 1.2599880945599147 10.358961367846913 2.3349492260243956 0 0 0
218 1 1 0.5897 5.684495729368452 10.249270542791987 2.196754673892552 0 0 0
43 1 2 -1.1794 0.4819068839369033 10.794637994259437 1.987005870775634 0 0 0
219 1 1 0.5897 4.17184938782341 10.240352688367562 2.259595028193577 0 0 0
45 1 1 0.5897 0.5328920263426987 11.686896634529976 2.3298948963046633 0 0 0
415 1 2 -1.1794 7.495017572230069 7.289381116888705 2.286837271581072 0 0 0
255 1 1 0.5897 2.196160270581745 6.25218435612672 2.4187225455735164 0 0 0
254 1 1 0.5897 2.9511404931097163 6.647393481185194 1.1675088333388293 0 0 0
217 1 2 -1.1794 4.913159984219764 10.754293139101879 1.9392424802819337 0 0 0
66 1 1 0.5897 7.484689304131259 10.02452143928813 3.7579153485744072 0 0 0
65 1 1 0.5897 7.488116110815461 9.03200213309996 2.6148191013346236 0 0 0
64 1 2 -1.1794 7.3477662361236025 9.95792675231645 2.812974708308493 0 0 0
416 1 1 0.5897 6.7452514841310505 6.769341101629885 2.576170103648306 0 0 0
773 1 1 0.5897 8.99016638292407 10.629869133545334 2.1910898606365543 0 0 0
417 1 1 0.5897 8.258614855899351 6.804932433271579 2.60072798342085 0 0 0
162 1 1 0.5897 7.761039590491076 7.260388443533299 0.5052106810174056 0 0 1
712 1 2 -1.1794 7.357380963465239 9.953152000442754 5.584707678471429 0 0 0
138 1 1 0.5897 4.575627972415999 6.1452909177583965 2.9172932500266366 0 0 0
793 1 2 -1.1794 2.897162049589032 9.492032716245532 5.616920112092116 0 0 0
677 1 1 0.5897 6.1877854514858655 6.035058898765361 10.227547756360826 0 0 0
12 1 1 0.5897 3.023954912029602 7.7606364363161 6.616269210110655 0 0 0
10 1 2 -1.1794 3.2166427798477115 6.878013065665241 6.93272925449499 0 0 0
794 1 1 0.5897 2.1158316335188307 9.922859988272029 5.963627589491235 0 0 0
526 1 2 -1.1794 7.3597875863298166 7.237269557612726 9.43255884341987 0 0 0
577 1 2 -1.1794 5.001432267304445 10.745321179703787 6.818445194566282 0 0 0
145 1 2 -1.1794 7.62608770586212 7.195038460369583 6.56170623034676 0 0 0
795 1 1 0.5897 3.628372418933357 9.98173216543432 5.993500844709022 0 0 0
11 1 1 0.5897 2.4356010402492623 6.369163096227127 6.7150784444052665 0 0 0
580 1 2 -1.1794 5.415501522033137 11.208973193333728 9.5459483588759 0 0 0
650 1 1 0.5897 3.1712601890860466 6.950243339800846 8.772473841300144 0 0 0
822 1 1 0.5897 8.221254032807625 10.535365148731467 10.280204790499331 0 0 0
527 1 1 0.5897 7.372105800965164 8.082469338998887 9.881725031071406 0 0 0
15 1 1 0.5897 1.6425471981329176 10.661429247600697 9.685481099937972 0 0 0
582 1 1 0.5897 5.3746035974991955 11.019192240756656 8.608711258325359 0 0 0
820 1 2 -1.1794 7.639593896676656 9.813461540261677 10.5185979915897 0 0 0
581 1 1 0.5897 6.202561691838974 10.755810148309276 9.84840808662167 0 0 0
147 1 1 0.5897 7.638249773578369 7.196167905624003 7.518762396070373 0 0 0
649 1 2 -1.1794 3.158872469614743 6.995847512638124 9.72843549891775 0 0 0
182 1 1 0.5897 0.15079182819210502 5.97339293266611 6.258339304914803 1 0 0
256 1 2 -1.1794 3.116381345325807 9.75790693752818 10.325726223049719 0 0 0
258 1 1 0.5897 3.9113541599765433 10.195225488834971 10.020592677362634 0 0 0
146 1 1 0.5897 6.774076886844738 6.823441837616771 6.332964819864358 0 0 0
257 1 1 0.5897 3.211453672077455 8.852776724800403 10.029038521265441 0 0 0
13 1 2 -1.1794 0.7588597001501322 10.97050589532337 9.48577956422626 0 0 0
578 1 1 0.5897 5.717486385450015 10.48710934866218 6.23807381184046 0 0 0
579 1 1 0.5897 4.850151943600055 11.668792694599292 6.616848077591126 0 0 0
550 1 2 -1.1794 0.7335604111711287 10.866900146447438 6.639389293044978 0 0 0
651 1 1 0.5897 3.8933837692648114 6.4474972188423845 10.004368822139016 0 0 0
551 1 1 0.5897 0.8717940338557527 11.038061721427978 7.570894196748158 0 0 0
528 1 1 0.5897 8.140387268227377 6.784410698837418 9.751755896138226 0 0 0
713 1 1 0.5897 8.118580289255862 10.393911297381312 5.962330405449203 0 0 0
714 1 1 0.5897 7.376794492176118 9.074100021196074 5.96310726525599 0 0 0
552 1 1 0.5897 0.6959762559087196 11.735473505330566 6.238827359616541 0 0 0
114 1 1 0.5897 1.6600540356973874 6.128261382494303 10.182319094551227 0 0 0
826 1 2 -1.1794 7.6985971656472465 7.297128709891095 14.572795403479416 0 0 0
827 1 1 0.5897 6.889370031544375 6.873956328251792 14.285741894018999 0 0 0
332 1 1 0.5897 3.1021433068539297 8.056764724733238 13.759129469518069 0 0 0
797 1 1 0.5897 3.260171214215151 9.851000090303149 12.227598976085114 0 0 0
796 1 2 -1.1794 3.1482649150566107 9.705113938598004 13.166902708463013 0 0 0
798 1 1 0.5897 2.2736061206185725 10.042927036520664 13.359696774873774 0 0 0
722 1 1 0.5897 4.40296851924944 10.730510560700813 13.993050114966085 0 0 0
261 1 1 0.5897 0.6364401570663233 10.8796184651005 14.976681968249496 0 0 0
723 1 1 0.5897 4.946387101622975 11.321250959719583 15.276580213267257 0 0 0
828 1 1 0.5897 7.721536641895904 7.154224523301494 15.518930185366225 0 0 0
259 1 2 -1.1794 0.7082602097577053 10.852346340127843 14.022639593300461 0 0 0
331 1 2 -1.1794 2.9374468001258953 7.164498421727249 14.064125144027528 0 0 0
225 1 1 0.5897 2.9366636331305105 7.075269565563702 15.822952546955406 0 0 0
721 1 2 -1.1794 5.138283693040585 11.233658578768207 14.342979337711714 0 0 0
475 1 2 -1.1794 7.297429431518143 9.795689408289652 13.45293779604348 0 0 0
476 1 1 0.5897 6.527995364316816 10.189789459709777 13.863972338821988 0 0 0
477 1 1 0.5897 7.323124715818818 8.903122903807544 13.797822446604513 0 0 0
333 1 1 0.5897 3.7478831350915285 6.692182718805333 13.873269224599339 0 0 0
821 1 1 0.5897 7.646034569489265 9.80616578588579 11.475675415845082 0 0 0
366 1 1 0.5897 1.4061181352711347 6.333706512440619 13.522544079925211 0 0 0
364 1 2 -1.1794 0.6451785451660761 5.969620824599175 13.070121246450347 0 0 0
851 1 1 0.5897 8.969857062984536 6.340211107498596 13.437372834262767 0 0 0
104 1 1 0.5897 8.723705618362633 10.61553670602899 13.86354677255914 0 0 0
521 1 1 0.5897 6.836326895598624 6.718393913870452 17.398871359212123 0 0 0
141 1 1 0.5897 7.105253540422852 8.771034210391797 20.58706928549981 0 0 0
680 1 1 0.5897 4.197705983505923 10.674519680893846 17.41031431250206 0 0 0
9 1 1 0.5897 6.561071992470297 10.213576045048736 17.282821792825153 0 0 0
4 1 2 -1.1794 3.2292538613188473 6.71572692957583 21.09382840274079 0 0 0
627 1 1 0.5897 2.149417182792101 9.982051743938127 17.533470877601516 0 0 0
711 1 1 0.5897 9.043778570601784 6.130490728422163 17.47119803893584 0 0 0
224 1 1 0.5897 3.003264484066938 7.82902717375259 17.134115254855985 0 0 0
140 1 1 0.5897 6.334599094532533 10.073213885446208 20.536816551935047 0 0 0
279 1 1 0.5897 4.492931965007623 6.186751162628419 17.518747979815146 0 0 0
690 1 1 0.5897 2.0930766735377198 9.930673867379825 20.606598232285513 0 0 0
625 1 2 -1.1794 2.9493027468426742 9.491444565617178 17.722695529184257 0 0 0
688 1 2 -1.1794 2.8252234506831115 9.36501468177202 20.36104086139482 0 0 0
287 1 1 0.5897 8.721506818041501 10.581345543448508 20.71875584905687 0 0 0
361 1 2 -1.1794 4.877477131185667 10.973801854741904 21.061879337784084 0 0 0
689 1 1 0.5897 3.6053316148263654 9.858791997143179 20.61387047542022 0 0 0
572 1 1 0.5897 1.531112117986922 6.269265141769114 17.585495172811328 0 0 0
626 1 1 0.5897 2.93963716577761 9.373839744346126 18.672523799503445 0 0 0
139 1 2 -1.1794 7.1100512153148285 9.638334458797948 20.1820220771276 0 0 0
6 1 1 0.5897 2.9696519828665626 7.604974183194493 20.85264401658469 0 0 0
161 1 1 0.5897 7.146210415916436 6.58386761050381 21.16675208240313 0 0 0
8 1 1 0.5897 7.277193307759055 9.633590228038027 18.483880456809032 0 0 0
7 1 2 -1.1794 7.352831124370176 9.738639551931461 17.535544752879716 0 0 0
160 1 2 -1.1794 7.773445992621175 7.262517935320122 21.416385590080097 0 0 0
246 1 1 0.5897 8.951092026584847 10.607306580999968 17.1743202076105 0 0 0
5 1 1 0.5897 4.139143166230564 6.644688396907903 20.805090869635066 0 0 0
394 1 2 -1.1794 0.6292643829821568 10.95093741005438 21.078206119740152 0 0 0
679 1 2 -1.1794 4.9146396590046155 11.214188176713977 17.077067357648332 0 0 0
520 1 2 -1.1794 7.64888875996208 7.136445477873288 17.113772149782235 0 0 0
522 1 1 0.5897 7.493560892408528 8.072765191140249 17.23821022353996 0 0 0
223 1 2 -1.1794 2.9764764877035237 6.944051625897857 16.770216611107934 0 0 0
445 1 2 -1.1794 0.7293778119545861 10.856474583918178 16.701070580090516 0 0 0
446 1 1 0.5897 0.8515266195939746 11.683219090383467 17.16783116574566 0 0 0
396 1 1 0.5897 0.7081969043783021 10.939871332060164 22.03201400461721 0 0 -1
363 1 1 0.5897 5.01737676171114 11.006029447364352 22.008182072039933 0 0 0
200 1 1 0.5897 4.856825619941687 13.411830512182682 5.263647928869352 0 0 0
173 1 1 0.5897 4.16875781347233 13.882115854619945 2.820867881273951 0 0 0
172 1 2 -1.1794 4.818601687948896 13.337136834285955 3.264698554570749 0 0 0
374 1 1 0.5897 0.8415106884263803 13.474307189849332 3.9623121709525875 0 0 0
558 1 1 0.5897 2.92089212308456 15.112558125432333 1.0237930116802756 0 0 0
556 1 2 -1.1794 2.8440442448325696 15.186212505459082 1.974985486605622 0 0 0
557 1 1 0.5897 2.0557597812986943 14.688098215310132 2.1913403952489596 0 0 0
478 1 2 -1.1794 7.125635130174424 14.537468078818899 2.3151867056600604 0 0 0
174 1 1 0.5897 4.786319854770119 12.49996006954052 2.801718074253724 0 0 0
293 1 1 0.5897 3.1014459918978257 16.827321097114996 2.7603822489819723 0 0 0
479 1 1 0.5897 7.864016243372344 13.954131158075663 2.49074944918497 0 0 0
449 1 1 0.5897 7.405121988171285 16.33257908091093 2.7420044510488486 0 0 0
480 1 1 0.5897 6.3717677871363065 14.094260263425417 2.704458335781369 0 0 0
373 1 2 -1.1794 0.8098019731134866 13.471133825585937 3.0057136080391738 0 0 0
448 1 2 -1.1794 7.602768268416581 17.26816930063964 2.785868513579073 0 0 0
294 1 1 0.5897 3.21790068378505 17.52795340892044 4.097253095606522 0 0 0
308 1 1 0.5897 7.528590147496952 17.15541035824691 4.648733568216546 0 0 0
317 1 1 0.5897 7.571440311686578 14.677510760527868 0.5613687693558747 0 0 0
307 1 2 -1.1794 7.4340974959750135 17.113124112394885 5.6002488175196 0 0 0
384 1 1 0.5897 2.9994151282734816 16.797567273060228 9.883257344838812 0 0 0
201 1 1 0.5897 5.7430142699002 13.797794238203107 6.428755493405508 0 0 0
454 1 2 -1.1794 5.160065202103421 13.82629044786613 10.400944849143144 0 0 0
184 1 2 -1.1794 7.675253361775197 17.55563010956484 10.431881490642898 0 0 0
811 1 2 -1.1794 2.851482738591736 15.006959976616077 9.6612505874479 0 0 0
456 1 1 0.5897 5.336137091121869 12.945508669532083 10.069996845322773 0 0 0
813 1 1 0.5897 2.1386144192820806 14.45919457569854 9.990000748485468 0 0 0
17 1 1 0.5897 2.6691949190703266 14.939171397676978 7.940482739238742 0 0 0
656 1 1 0.5897 1.3206706420652414 13.832415445385976 6.119794516626348 0 0 0
238 1 2 -1.1794 2.9774141380218935 17.303723901188253 5.915077732195861 0 0 0
377 1 1 0.5897 6.7154906564354535 14.559161642794539 9.532993431581339 0 0 0
309 1 1 0.5897 8.243621323844126 17.495504147176916 5.938993450778168 0 0 0
519 1 1 0.5897 8.247463268316352 14.00094890449954 6.203251134897147 0 0 0
812 1 1 0.5897 3.648061457703927 14.53166649991151 9.897668352180546 0 0 0
18 1 1 0.5897 3.429657510512461 14.329604625121885 6.782072339124946 0 0 0
376 1 2 -1.1794 7.479963897766681 14.99553602627602 9.156901219496236 0 0 0
16 1 2 -1.1794 2.6561173455187848 14.854852650225034 6.987164200907753 0 0 0
517 1 2 -1.1794 7.434402176137352 14.38107328800922 6.536014001521 0 0 0
186 1 1 0.5897 7.598158693614887 16.725068774724818 9.962319160374486 0 0 0
378 1 1 0.5897 7.453344772696414 14.76758833233284 8.227689598378458 0 0 0
518 1 1 0.5897 7.43704137297118 15.27974005788469 6.206357980105707 0 0 0
766 1 2 -1.1794 0.7298097325844833 13.528380173019883 10.464187076974603 0 0 0
239 1 1 0.5897 2.868313714516425 16.528042486479023 6.465217290070648 0 0 0
59 1 1 0.5897 8.866577716601526 14.189244619635117 10.056358399264054 0 0 0
199 1 2 -1.1794 4.891003565029743 13.414546803379553 6.22016221777651 0 0 0
14 1 1 0.5897 0.7437511525616926 11.874261523183604 9.800944384991123 0 0 0
655 1 2 -1.1794 0.5935461007521539 13.333286797064948 5.747706927602346 0 0 0
296 1 1 0.5897 7.264130110895456 14.866547935658666 15.057075334252122 0 0 0
232 1 2 -1.1794 2.7219460192613636 15.11724745344914 13.87749448506276 0 0 0
234 1 1 0.5897 2.7295192574524214 15.222296363626526 14.828808831693078 0 0 0
606 1 1 0.5897 2.905498274821521 16.643039659485456 13.157502209338627 0 0 0
427 1 2 -1.1794 5.033273757830718 13.787462109204245 13.249192712908684 0 0 0
233 1 1 0.5897 3.420326587707927 14.487080778048876 13.700073917418475 0 0 0
639 1 1 0.5897 1.2052691816871817 14.017510961378854 13.43115802145574 0 0 0
429 1 1 0.5897 5.788233930318444 14.265639384088002 13.592231577273965 0 0 0
428 1 1 0.5897 5.068722767402508 12.936946808625276 13.686957660086644 0 0 0
637 1 2 -1.1794 0.43134235449981406 13.544862682132694 13.124637159583758 0 0 0
638 1 1 0.5897 0.5134150485803768 12.673289135069806 13.511804712200414 0 0 0
295 1 2 -1.1794 7.212757224254886 15.096413730719691 14.129372470029756 0 0 0
270 1 1 0.5897 7.4402853778981655 16.78464873744011 13.511164874435302 0 0 0
297 1 1 0.5897 7.961521785597018 14.65307314310877 13.730514910703764 0 0 0
455 1 1 0.5897 5.1082901106071175 13.719828835137402 11.350728026246637 0 0 0
269 1 1 0.5897 7.553757934588904 17.629246221754407 12.25996492825902 0 0 0
604 1 2 -1.1794 2.9795852696228624 17.55132426889926 12.864528892780658 0 0 0
605 1 1 0.5897 3.0327016272952756 17.49217049106571 11.910660863223594 0 0 0
767 1 1 0.5897 0.5422311853686996 13.561536480155372 11.402170526215066 0 0 0
451 1 2 -1.1794 0.715297505658442 13.635576723843352 20.310536621887884 0 0 0
664 1 2 -1.1794 3.088411164276631 14.749421585090458 21.182151919950066 0 0 0
681 1 1 0.5897 4.765761122362143 12.076837673699012 17.464296810221256 0 0 0
824 1 1 0.5897 3.4492812132221062 14.816133177917486 17.03403892258683 0 0 0
53 1 1 0.5897 0.6905634560600612 13.518597690212953 18.42153220543183 0 0 0
159 1 1 0.5897 7.4185216062675226 17.500549129261497 19.533022078335392 0 0 0
125 1 1 0.5897 4.956741442770541 13.739965494089667 18.58083755744091 0 0 0
124 1 2 -1.1794 4.784678700658712 13.87211784740005 17.648619218502297 0 0 0
684 1 1 0.5897 4.6143566860275715 13.921859092774909 20.685817205989395 0 0 0
452 1 1 0.5897 0.4711345537897861 12.737836610119382 20.53580640383033 0 0 0
666 1 1 0.5897 3.184749801956768 15.650485051640032 20.873756085594387 0 0 0
316 1 2 -1.1794 7.624091959518216 14.830498539371735 21.486229139560926 0 0 0
49 1 2 -1.1794 7.133008395579585 14.923990407372841 16.853506655201848 0 0 0
318 1 1 0.5897 7.562463364435608 15.781241521410102 21.393469896570146 0 0 0
665 1 1 0.5897 2.299529458788661 14.42902872182038 20.744738606999334 0 0 0
584 1 1 0.5897 2.7776012375242183 16.98769796134435 17.253501780015853 0 0 0
683 1 1 0.5897 6.120032936108843 14.069253434965724 20.743622674654922 0 0 0
126 1 1 0.5897 5.642881184783725 14.065494684635054 17.271286758564734 0 0 0
682 1 2 -1.1794 5.424402387720757 13.565714096261818 20.320750287261873 0 0 0
825 1 1 0.5897 1.9462098480674819 14.722389747899793 16.878738588513244 0 0 0
51 1 1 0.5897 7.896252934287207 14.44783131088056 17.180671263944383 0 0 0
52 1 2 -1.1794 0.7013414114085541 13.538422090314782 17.46467047233356 0 0 0
50 1 1 0.5897 7.269875804783521 15.825664459326862 17.144295544751245 0 0 0
362 1 1 0.5897 4.971499504220738 11.881977872486118 20.774352320038908 0 0 0
117 1 1 0.5897 9.083104977803691 14.149421279528443 20.683733203698978 0 0 0
157 1 2 -1.1794 7.533893538801117 17.427354209307385 20.48034687376883 0 0 0
715 1 2 -1.1794 3.1272035323888216 17.382636521677547 20.205791181337965 0 0 0
610 1 2 -1.1794 7.3889396702434915 17.544234319349734 17.712888805444273 0 0 0
716 1 1 0.5897 2.982820540939571 17.515213208227443 19.268948641604787 0 0 0
823 1 2 -1.1794 2.6956566075958426 15.279618937423646 16.66864049574213 0 0 0
267 1 1 0.5897 6.1825013614746025 21.948894270958593 2.77703382459056 0 0 0
696 1 1 0.5897 1.3317974852350638 22.213549160348308 2.832946781586787 0 0 0
266 1 1 0.5897 4.677678415361602 21.872347880881218 2.924597286534903 0 0 0
265 1 2 -1.1794 5.483426124194724 21.39746434536049 3.128474293653223 0 0 0
344 1 1 0.5897 1.4050944994402756 18.60267252703094 2.7785094274710156 0 0 0
228 1 1 0.5897 5.4271237418252305 19.635376984269406 2.401247815231368 0 0 0
345 1 1 0.5897 0.6140610744333783 18.820295043982473 1.5062603637740564 0 0 0
817 1 2 -1.1794 7.46264953314589 22.990659559210894 2.034857021589939 0 0 0
413 1 1 0.5897 0.2858813134038891 21.624833010210487 4.867405230378761 0 0 0
226 1 2 -1.1794 5.432370007629689 18.70295679600997 2.184771109431868 0 0 0
187 1 2 -1.1794 3.165632458690767 22.837566634911354 2.378037446107881 0 0 0
249 1 1 0.5897 5.276636647920324 21.05959260917076 4.788424009569305 0 0 0
694 1 2 -1.1794 0.5084654930135721 21.74910658655914 2.9837361161875586 0 0 0
818 1 1 0.5897 8.246342657929853 22.602738800392356 2.424263426235199 0 0 0
450 1 1 0.5897 6.779533209570171 17.69845940359999 2.554671372358219 0 0 0
189 1 1 0.5897 3.420516501330682 22.757767926610313 1.4589101772408277 0 0 0
227 1 1 0.5897 4.5910231842812514 18.37748961376428 2.5049300317715355 0 0 0
343 1 2 -1.1794 0.553825696312596 18.900943866704008 2.4580780381337908 0 0 0
695 1 1 0.5897 0.6489411703540626 20.88194760337528 2.603493769140812 0 0 0
602 1 1 0.5897 5.2204267426610205 18.765835134171446 0.36408883205111825 0 0 0
498 1 1 0.5897 7.636532755264573 22.810343463089897 0.3400598100316217 0 0 0
292 1 2 -1.1794 3.2129110872084428 17.692541897603572 3.1543946989836065 0 0 0
555 1 1 0.5897 5.10882864414077 20.573498748624942 10.052284765680314 0 0 0
386 1 1 0.5897 5.82094764213866 18.04440957664516 6.17096039976578 0 0 0
87 1 1 0.5897 7.896946506934926 22.514090611587452 9.775694623436832 0 0 0
37 1 2 -1.1794 2.7541769029288394 22.75594157976082 9.021128902590602 0 0 0
86 1 1 0.5897 7.128947779541184 22.50397616979376 8.471179454602202 0 0 0
341 1 1 0.5897 1.5553692366903276 18.34830837423893 6.362739285568574 0 0 0
32 1 1 0.5897 7.880160606209915 21.894417149081935 6.377924816879597 0 0 0
412 1 2 -1.1794 0.39196272045979874 21.74748917306086 5.810707074848981 0 0 0
39 1 1 0.5897 3.471492624253781 22.29832350354633 9.459666420900952 0 0 0
553 1 2 -1.1794 4.881114249789812 21.493041384186764 10.189797969926339 0 0 0
701 1 1 0.5897 2.9020772617615993 22.615121990084464 7.307382697659411 0 0 0
340 1 2 -1.1794 0.8371748955948026 18.93062005532877 6.610565729831567 0 0 0
387 1 1 0.5897 5.148358361363806 19.37417362287548 6.4384772809267705 0 0 0
102 1 1 0.5897 5.32729565967998 18.619226507848442 8.567043180209932 0 0 0
700 1 2 -1.1794 2.8715086621460877 22.518099540195756 6.355677097128929 0 0 0
385 1 2 -1.1794 5.196432932639919 18.472581226786595 6.756535967064241 0 0 0
702 1 1 0.5897 2.0114601241791714 22.135859816732268 6.180924614820609 0 0 0
38 1 1 0.5897 1.9612722468824377 22.342481546766468 9.362663736456343 0 0 0
342 1 1 0.5897 0.8080242388511151 18.882450486274294 7.566041662347825 0 0 0
403 1 2 -1.1794 0.5444945405047635 18.773805377554694 9.481188998190735 0 0 0
33 1 1 0.5897 6.3668559393174595 21.89029792166754 6.42339283521556 0 0 0
185 1 1 0.5897 8.471611277980507 17.95581024616702 10.082644373231224 0 0 0
85 1 2 -1.1794 7.121220360142738 22.880503594607536 9.351117436286309 0 0 0
554 1 1 0.5897 5.6523584540128535 21.977836949621633 9.89576384118827 0 0 0
101 1 1 0.5897 6.025880639627144 18.35405305304565 9.883608934789327 0 0 0
404 1 1 0.5897 1.3502366610204084 18.352752294310225 9.780856179220569 0 0 0
31 1 2 -1.1794 7.130348427450784 22.40983305549508 6.675326986446716 0 0 0
100 1 2 -1.1794 5.2780809223147545 18.814514253237192 9.502746534316868 0 0 0
94 1 2 -1.1794 0.5031183430597244 21.5298360549683 10.465447843644974 0 0 0
414 1 1 0.5897 0.5190422666181269 20.863347821348828 6.154839383383393 0 0 0
405 1 1 0.5897 0.6181673180545579 19.67794685061954 9.786781511963875 0 0 0
248 1 1 0.5897 4.506449690811365 21.589356998510965 5.979195704647136 0 0 0
247 1 2 -1.1794 5.1767639139315875 20.95142312305079 5.734160289874312 0 0 0
383 1 1 0.5897 3.707690419011555 18.134979683055633 9.925534124200974 0 0 0
382 1 2 -1.1794 2.902586392060778 17.695756999045408 10.199753534336926 0 0 0
240 1 1 0.5897 3.7267111046761667 17.763350611369237 6.294043328053336 0 0 0
380 1 1 0.5897 0.6272819849432304 20.799635450947925 13.42102761484019 0 0 0
88 1 2 -1.1794 4.841208934089394 21.78783030864159 13.138543499354075 0 0 0
381 1 1 0.5897 1.3617777860782978 22.11150923462184 13.598775969154547 0 0 0
90 1 1 0.5897 4.931978967644084 20.855853612065392 13.337268198203907 0 0 0
763 1 2 -1.1794 5.157421064140279 19.142590984174017 13.71250537926122 0 0 0
738 1 1 0.5897 3.524129510836019 22.609393533313927 13.979337074096133 0 0 0
89 1 1 0.5897 4.735368942463907 21.821251735847444 12.187864337804957 0 0 0
764 1 1 0.5897 4.399804130852775 18.647261849157363 13.401101330668876 0 0 0
474 1 1 0.5897 5.169094702453767 18.73643785396214 15.511364562344495 0 0 0
765 1 1 0.5897 5.895914713698617 18.542551002029313 13.608066917878107 0 0 0
350 1 1 0.5897 2.8530281465469596 23.00063822762103 16.159377218555274 0 0 0
736 1 2 -1.1794 2.793818984760513 23.046757140244083 14.417101418010391 0 0 0
787 1 2 -1.1794 7.350693972956208 22.45118492370847 14.008828650257286 0 0 0
379 1 2 -1.1794 0.5558407722447322 21.73739634305129 13.242666413837265 0 0 0
504 1 1 0.5897 0.8562306020635547 18.816869380585114 14.674107311954804 0 0 0
503 1 1 0.5897 1.661797137612142 18.481574978295676 13.436991904760818 0 0 0
789 1 1 0.5897 6.42887360006219 22.325750385548496 13.783200970570242 0 0 0
788 1 1 0.5897 7.380655792281959 22.350647454682743 14.960190563684753 0 0 0
502 1 2 -1.1794 0.9920003331858485 19.081937627951124 13.764463344656768 0 0 0