#include		in.partitions
include		in.temp
variable        temperature equal 93.97
variable	tempDamp equal 100.0
include		in.pressure
variable        pressure equal 6893.3
variable        pressureDamp equal 1000.0 # This is 1 ps
include		in.seed
variable        seed equal 745823

units		real
atom_style	full
read_restart    restart.lmp.${pid}
read_restart    restart.lmp.0
Reading restart file ...
  restart file = 30 Jul 2021, LAMMPS = 30 Jul 2021
  restoring atom style full from restart
  triclinic box = (-3.0379655 -0.13983570 0.015987045) to (14.647965 22.719835 19.214011) with tilt (0.057494005 -6.2649380 0.043486633)
  2 by 4 by 4 MPI processor grid
  restoring pair style lj/cut/tip4p/long/omp from restart
  restoring bond style harmonic/omp from restart
  restoring angle style harmonic/omp from restart
  1008 atoms
  672 bonds
  336 angles
Finding 1-2 1-3 1-4 neighbors ...
  special bond factors lj:    0        0        0       
  special bond factors coul:  0        0        0       
     2 = max # of 1-2 neighbors
     1 = max # of 1-3 neighbors
     1 = max # of 1-4 neighbors
     2 = max # of special neighbors
  special bonds CPU = 0.002 seconds
  read_restart CPU = 0.007 seconds

include 	in.setup
variable	out_freq equal 1000
variable	out_freq2 equal 10000
variable	out_freq3 equal 1000

timestep	2.0

neigh_modify    delay 7 every 1

include		in.tip4p
# This is TIP4P/Ice

# create groups ###
group ox type 2
336 atoms in group ox
group hy type 1
672 atoms in group hy

# set charges - beside manually ###
set group ox charge -1.1794
Setting atom values ...
  336 settings made for charge
set group hy charge 0.5897
Setting atom values ...
  672 settings made for charge

# ### TIP3P Potential Parameters ###
pair_style lj/cut/tip4p/long/omp 2 1 1 1 0.1577 8.5
pair_coeff 1 1*2 0.000 0.000
pair_coeff 2 2 0.21084 3.1668
bond_style  harmonic
bond_coeff  1 450 0.9572
angle_style harmonic
angle_coeff 1 55 104.52
kspace_style pppm/tip4p/omp 1.0e-5
pair_modify tail yes

thermo          ${out_freq}
thermo          1000
thermo_style    custom step temp pe etotal epair emol press lx ly lz vol pxx pyy pzz pxy pxz pyz enthalpy

restart 	${out_freq3} restart.lmp.${pid} restart2.lmp.${pid}
restart 	1000 restart.lmp.${pid} restart2.lmp.${pid}
restart 	1000 restart.lmp.0 restart2.lmp.${pid}
restart 	1000 restart.lmp.0 restart2.lmp.0


include         in.dump
dump            myDump all atom ${out_freq2} dump.water.${pid}
dump            myDump all atom 10000 dump.water.${pid}
dump            myDump all atom 10000 dump.water.0
dump            myDump2 all dcd ${out_freq2} dump.dcd
dump            myDump2 all dcd 10000 dump.dcd
dump_modify     myDump append yes
dump_modify     myDump2 append yes


variable natoms 	equal  "count(all)"                        # NUMBER ATOMS
variable H      	equal  "enthalpy/v_natoms"                 # ENTHALPY-per-atom
variable Vol      	equal  "vol/v_natoms"                 # volume-per-atom
fix AVG all 		ave/time ${out_freq} 1 ${out_freq} v_Vol v_H file vol_enthalpy.dat
fix AVG all 		ave/time 1000 1 ${out_freq} v_Vol v_H file vol_enthalpy.dat
fix AVG all 		ave/time 1000 1 1000 v_Vol v_H file vol_enthalpy.dat



fix 		1 all shake 1e-6 200 0 b 1 a 1
       0 = # of size 2 clusters
       0 = # of size 3 clusters
       0 = # of size 4 clusters
     336 = # of frozen angles
  find clusters CPU = 0.004 seconds
fix             2 all nph tri ${pressure} ${pressure} ${pressureDamp}
fix             2 all nph tri 6893.3 ${pressure} ${pressureDamp}
fix             2 all nph tri 6893.3 6893.3 ${pressureDamp}
fix             2 all nph tri 6893.3 6893.3 1000
fix             3 all temp/csvr ${temperature} ${temperature} ${tempDamp} ${seed}
fix             3 all temp/csvr 93.97 ${temperature} ${tempDamp} ${seed}
fix             3 all temp/csvr 93.97 93.97 ${tempDamp} ${seed}
fix             3 all temp/csvr 93.97 93.97 100 ${seed}
fix             3 all temp/csvr 93.97 93.97 100 745823


run             250000
PPPM initialization ...
  extracting TIP4P info from pair style
  using 12-bit tables for long-range coulomb (../kspace.cpp:340)
  G vector (1/distance) = 0.37910404
  grid = 24 27 32
  stencil order = 5
  estimated absolute RMS force accuracy = 0.002497912
  estimated relative force accuracy = 7.5223879e-06
  using double precision FFTW3
  3d grid and FFT values/proc = 5355 672
Last active /omp style is kspace_style pppm/tip4p/omp
Neighbor list info ...
  update every 1 steps, delay 7 steps, check yes
  max neighbors/atom: 2000, page size: 100000
  master list distance cutoff = 10.8154
  ghost atom cutoff = 10.8154
  binsize = 5.4077, bins = 5 5 4
  1 neighbor lists, perpetual/occasional/extra = 1 0 0
  (1) pair lj/cut/tip4p/long/omp, perpetual
      attributes: half, newton on, omp
      pair build: half/bin/newton/tri/omp
      stencil: half/bin/3d/tri
      bin: standard
Per MPI rank memory allocation (min/avg/max) = 10.31 | 10.32 | 10.33 Mbytes
Step Temp PotEng TotEng E_pair E_mol Press Lx Ly Lz Volume Pxx Pyy Pzz Pxy Pxz Pyz Enthalpy 
33750000    94.711954   -5184.0885   -4994.6528   -5184.0885            0    6830.9132     17.68593     22.85967    19.198024    7761.6561     7029.432    7074.3016    6389.0059   -109.73255    343.27392     70.15926   -4221.4222 
33751000    90.766046   -5188.9005   -5007.3572   -5188.9005            0    7990.6755    17.823519    22.585298    19.191301    7725.4482    7820.0325    8643.2508    7508.7431    100.95575    1219.5437    616.50912   -4107.0658 
33752000    97.506291   -5205.1608   -5010.1362   -5205.1608            0     6982.575    17.922539    22.659657    19.130379    7769.2024     7516.091     6669.636     6761.998    912.23195   -29.345055   -465.56704   -4218.9696 
33753000    93.720377   -5200.3403    -5012.888   -5200.3403            0    7275.4325    17.855909    22.767379    19.054458    7746.2517    5519.5967    7359.0644    8947.6363   -741.32266   -138.96698   -786.18376   -4190.9741 
33754000     91.56514   -5202.6788   -5019.5373   -5202.6788            0    7347.8651    17.958405    22.483625     19.19211     7749.199    6016.9524      8578.04    7448.6029   -109.30804     899.1247   -212.52443   -4189.1248 
33755000    95.277964   -5197.4585   -5006.8908   -5197.4585            0    7663.4817    17.893124    22.672779    19.097073    7747.4313    6923.1244    7435.4701    8631.8507   -1329.0708   -49.202126     629.5948   -4141.0067 
33756000    98.767685   -5198.7567   -5001.2091   -5198.7567            0    6927.0073    17.848243    22.796074    19.070717    7759.3001    5611.8968    7706.6941     7462.431   -80.442498    378.29261    -82.47719    -4217.339 
33757000    92.149927    -5189.129   -5004.8177    -5189.129            0    8366.0806    17.850114    22.565739    19.154286    7715.3656    8061.0785    9166.6204     7870.543     635.0995   -572.89375    137.63184   -4063.4605 
33758000    94.852136   -5192.8706   -5003.1546   -5192.8706            0    7840.1036    17.844022     22.58971     19.17404    7728.8884    8081.3489    7641.5689     7797.393   -524.93011   -925.89011    433.80398   -4119.4345 
33759000    98.935245   -5195.4576   -4997.5749   -5195.4576            0    6148.7759    17.917363    22.739014    19.102588    7782.8368    6614.5378    5269.5052    6562.2848    615.69099   -854.15991    600.64618     -4299.66 
33760000    96.056657   -5192.3953   -5000.2701   -5192.3953            0    7969.9054    17.807258    22.589554    19.239923     7739.413    7757.3964    8320.0051    7832.3147    614.68447    -165.2805   -387.51177   -4100.6957 
33761000    92.300835   -5193.2468   -5008.6338   -5193.2468            0    7282.4254    17.790706    22.692242    19.199739    7751.1456    6779.8878    8073.9445    6993.4439    79.818477    393.65283   -1098.9213   -4185.4101 
33762000    95.560318   -5185.1292   -4993.9967   -5185.1292            0    5657.4265    17.971582    22.663555    19.179369    7811.7556    4640.7958    5979.9382    6351.5456     337.3771   -208.53099    335.58191   -4349.4663 
33763000    97.568062   -5188.5774   -4993.4293   -5188.5774            0    6342.4232    17.850804    22.691102    19.190963    7773.3844    5965.7806    6559.2919    6502.1971   -257.59791   -582.95865    811.07429   -4274.4088 
33764000    93.773804   -5197.6984   -5010.1392   -5197.6984            0    6598.2124    17.832594    22.823568    19.089145    7769.3477    7190.3919    6064.1986    6540.0466    179.69931    561.19435    10.826993   -4262.5091 
33765000    94.277767   -5195.5999   -5007.0327   -5195.5999            0     7331.747     17.82284    22.716946    19.116914    7740.0651    8004.0067     7434.884    6556.3502    264.78288    -509.2499    811.07696   -4179.4184 
33766000    97.469411   -5200.3503   -5005.3994   -5200.3503            0    5972.6934    17.821287    22.663425    19.242397    7771.8389    5881.0961    5955.5385    6081.4456   -487.27773   -11.887065    -1027.334   -4328.4287 
33767000    92.180647   -5194.9354   -5010.5627   -5194.9354            0    6019.7553    17.840967    22.794544    19.132105    7780.5813    6536.8719    5734.1367    5788.2573    593.02187     196.0224    1583.0034   -4327.4902 
33768000    92.755667   -5201.7276   -5016.2048   -5201.7276            0    5681.4706    17.858968    22.622764    19.276539    7788.0922    5905.1205    5789.4791    5349.8122   -366.84447   -116.43365    51.590134   -4370.8957 
33769000    91.634389   -5195.7858   -5012.5057   -5195.7858            0     5566.868    17.848812    22.717198    19.242313    7802.2768    6904.3423    4739.3145    5056.9473   -576.46051   -426.74454     -52.7673   -4379.0618 
33770000    96.049361   -5201.3743   -5009.2637   -5201.3743            0    7138.6613    17.777173    22.856697    19.082421    7753.7117    6898.2182    7192.0931    7325.6726    250.33063    371.30294   -153.56773   -4202.0244 
33771000     94.26317   -5211.3055   -5022.7675   -5211.3055            0    5420.0599     17.84772    22.751074    19.202403    7797.2276    6356.5657    4961.2475    4942.3664   -157.70281   -406.02129    -529.1916   -4406.4278 
33772000     93.11776   -5193.4379   -5007.1909   -5193.4379            0    6478.8244    17.892069    22.489256    19.306206    7768.4183    6953.2996     7041.561    5441.6124   -394.04663    406.25108    1153.8207   -4273.1763 
33773000    89.744909   -5200.2333   -5020.7324   -5200.2333            0    6258.9164    17.931246    22.600707    19.183839    7774.4204    6566.5176    6734.5992    5475.6325   -262.53364   -108.53953    394.24104   -4311.0842 
33774000    99.407863   -5190.2238   -4991.3958   -5190.2238            0    6556.5758    17.902719    22.719662    19.109009    7772.4692    6491.7582     6089.855    7088.1141    1037.0113   -278.85194   -646.78216    -4248.185 
33775000    98.463695   -5194.0527   -4997.1131   -5194.0527            0    7193.4957    17.837561    22.705891     19.12866     7747.446    7567.3754    6555.1465    7457.9652   -1335.4997   -398.17749    1054.6845   -4184.3304 
33776000    96.550341   -5196.8085   -5003.6959   -5196.8085            0    6887.7825    17.849272    22.641267    19.215845    7765.7019    7006.5963    6485.8593    7170.8919   -68.758355   -951.49966   -52.528483   -4223.6215 
33777000     96.81286   -5191.5297    -4997.892   -5191.5297            0    6605.7912    17.958468    22.669041     19.14805    7795.1949    5820.0834    7035.4118    6961.8783   -975.49698    577.94694   -333.58554   -4246.9131 
33778000    91.229875   -5196.9035   -5014.4325   -5196.9035            0    6412.6491     17.77945    22.736786    19.254947     7783.765     7720.288    5939.9083    5577.7511   -201.90408   -223.40736    457.82568   -4286.4799 
33779000    95.163221   -5196.6252    -5006.287   -5196.6252            0    6653.7541    17.814444    22.731212    19.165235    7760.8446    7193.0467    6505.4418    6262.7737    -498.4666   -137.45821   -102.46155   -4253.1888 
33780000    99.408933   -5196.0049   -4997.1748   -5196.0049            0    6982.9616     17.90064    22.634148    19.123201    7748.0658    6499.3426    7288.0071    7161.5352   -26.419259    74.986916   -1255.9729   -4208.1169 
33781000    96.180912   -5186.9281   -4994.5544   -5186.9281            0     7668.009    17.826064    22.790919    19.073998    7749.2383    7409.8312    7473.9654    8120.2304    494.83385    -331.8916   -1276.6356   -4127.9567 
33782000    94.287632   -5191.0759    -5002.489   -5191.0759            0    7174.8084     17.90029    22.638013    19.158726    7763.6331    6693.8216    7778.9079    7051.6956   -1321.3939    875.33448   -1192.0284    -4190.124 
33783000    93.300967   -5192.4729   -5005.8595   -5192.4729            0    6517.3536    17.918009    22.608758    19.184509    7771.7199    6248.3655    6417.5712    6886.1241    113.62925    76.741159   -17.150439   -4267.1659 
33784000    90.994061   -5197.4678   -5015.4684   -5197.4678            0    5960.7721    17.768946    22.812284    19.153803    7763.9986    6114.0721    6491.4756    5276.7685    961.78412   -300.98163   -36.752217   -4340.5304 
33785000    94.178828   -5204.8118   -5016.4425   -5204.8118            0    7973.3252    17.766852    22.744346    19.118533    7725.7114    8648.3407    7302.7133    7968.9215   -1220.0912     423.8008   -351.74099   -4118.0754 
33786000    92.118691   -5201.8445   -5017.5957   -5201.8445            0     7198.267    17.850912    22.534387    19.260612    7747.7619    7593.8041    7850.7503    6150.2466   -193.08575   -241.25497    1390.7409   -4204.2408 
33787000     93.50943   -5191.2612   -5004.2307   -5191.2612            0    7549.0193    17.810709    22.690984    19.166432      7745.97     7399.128    8037.4727    7210.4572   -24.681526    631.83909    246.60446   -4151.4405 
33788000      92.4432   -5192.9465   -5008.0487   -5192.9465            0    7506.8608    17.788432    22.840153    19.042486    7736.7808    6871.5224    7461.0566    8188.0035    480.35842    559.64337    485.56584    -4161.027 
33789000    91.477393   -5195.2614   -5012.2953   -5195.2614            0    6739.4881    17.832583    22.747251    19.149064    7767.6689    7776.8286    5623.1447    6818.4908   -1016.8443   -1196.4902   -335.06076   -4248.8226 
33790000    94.802704   -5194.0073   -5004.3902   -5194.0073            0     6411.978    17.853966    22.711469    19.132021    7757.8395    7052.4777     6266.691    5916.7653     140.1927   -69.860355   -556.98705   -4278.9382 
33791000    96.091008   -5198.4908   -5006.2969   -5198.4908            0    6845.6339    17.890679    22.605633    19.201054    7765.4847    6571.4819    7426.7175    6538.7023    802.57122   -96.400436    860.71949   -4231.0178 
33792000    97.480897   -5204.5959   -5009.6221   -5204.5959            0    6026.8962    17.898735    22.736744    19.109871    7776.9328    6014.2849     6140.313    5926.0908    1250.2317   -873.80276    1034.4436     -4326.06 
33793000    99.712618   -5201.8985    -5002.461   -5201.8985            0     6427.985    17.816175    22.822571     19.11193    7771.1192    5966.3584     6152.126    7165.4707   -48.540156    81.619293   -1195.1831    -4273.953 
33794000    94.405687   -5204.1303   -5015.3073   -5204.1303            0    6549.1496    17.875531    22.489769    19.277281    7749.7862    6213.1537    7562.4007    5871.8942    148.94591   -308.09928    -614.0855   -4275.1048 
33795000    95.632032   -5207.7514   -5016.4756   -5207.7514            0    8022.0085    17.873325    22.568657    19.149814    7724.5935    7275.4112     8732.943    8057.6714    345.92178    686.98351   -147.13073    -4112.754 
33796000    94.858738   -5201.7711   -5012.0419   -5201.7711            0    7183.9997    17.736105    22.854203     19.10838    7745.4776    8349.7526    6640.6042    6561.6423    -467.6578    -603.8406   -463.67929   -4200.5384 
33797000    94.752844   -5197.5531   -5008.0357   -5197.5531            0    6795.5043    17.878277    22.656266    19.146295    7755.3025    5080.1376     7594.214    7712.1612    621.13257   -181.37133    101.47164   -4239.4428 
33798000    91.884614   -5196.4371   -5012.6565   -5196.4371            0    8140.3544    17.831924    22.594789    19.193217    7733.1114    8034.2793    8199.5793    8187.2047    840.67702    522.22138    1425.9506   -4094.5914 
33799000     97.55636   -5195.0483   -4999.9236   -5195.0483            0    7220.2626     17.67612    22.967811    19.052907    7735.1332    7558.8552     6340.016    7761.9166   -1357.4465   -259.34019   -1941.6085   -4185.4131 
33800000    95.947747   -5211.2642   -5019.3568   -5211.2642            0    6480.3454    17.871492    22.780919    19.070653     7764.216    7570.4635       5925.9    5944.6727    575.11618   -231.91052   -205.25171   -4285.5671 
33801000    99.219817    -5184.347   -4985.8951    -5184.347            0    6536.4098    17.926123    22.585322     19.24487    7791.6177     6123.673     7098.004    6387.5524    -370.0103   -821.70401    340.60443   -4243.1449 
33802000    93.838214   -5203.3721   -5015.6841   -5203.3721            0    6314.6429    17.914227    22.723233    19.106489    7777.6621    7424.3182    5118.0925    6401.5182     298.8081    -413.3371    1675.9249    -4299.419 
33803000    92.193369   -5202.0868   -5017.6887   -5202.0868            0    6803.2315    17.814514     22.81088    19.008395    7724.3412    6674.8564     6688.844    7045.9942    553.68113    335.90748   -583.96606   -4251.2938 
33804000    99.086613   -5193.5959   -4995.4104   -5193.5959            0    7143.9184    17.824133    22.704016     19.15925    7753.3542    6802.7692    6976.9188    7652.0673   -217.82644   -30.212277    133.57576   -4187.6139 
33805000    98.309391   -5195.2783   -4998.6474   -5195.2783            0    7534.5325     17.88513      22.6541    19.124343    7748.6391    6461.7379     7857.209    8284.6505   -1194.1482    880.63972     1657.385   -4147.2004 
33806000    97.590521   -5187.3045   -4992.1114   -5187.3045            0    6559.9247    17.841002    22.600535    19.267946    7769.1476    6568.1104    6645.6445    6466.0194    529.20182   -763.55099    445.66113   -4248.8388 
33807000    88.778935   -5197.7683   -5020.1994   -5197.7683            0    6923.6526    17.903818     22.70888    19.086503    7760.1073    6063.7792    7090.2237    7616.9549   -464.63746   -15.621912   -1072.5649   -4236.6275 
33808000    95.210089   -5200.0288   -5009.5968   -5200.0288            0    6429.5399    17.847592    22.778596    19.109553    7768.8569    7017.1188    5689.4365    6582.0645   -459.38845   -669.94691    1522.0835   -4281.1247 
33809000    97.130596   -5206.6726   -5012.3994   -5206.6726            0    5790.8823    17.916246     22.65173    19.170403    7780.0008    5762.1967    5751.4192    5859.0309   -1048.0033    -778.9872    -715.8781   -4355.3466 
33810000    92.636177   -5191.0132   -5005.7294   -5191.0132            0    7737.6602    17.843775    22.594952    19.168197    7728.2189     8650.177    7147.9748    7414.8289    529.14366   -332.81877    570.11517   -4133.6321 
33811000    93.586641   -5185.2154   -4998.0306   -5185.2154            0     7896.932    17.861422    22.663488    19.112685    7736.8555    8644.8108    7372.7829    7673.2022   -227.33383   -145.76894     27.52308   -4106.9873 
33812000    100.83972   -5194.2998   -4992.6079   -5194.2998            0    6587.4312    17.815399    22.952791    19.015555    7775.7102      6120.83    6538.2692    7103.1943   -588.42625    371.93939    281.46666   -4245.5882 
33813000    102.53471   -5204.3654   -4999.2833   -5204.3654            0    6548.2705    17.827056    22.851057     19.05146    7760.9375    6192.8761    6581.5025     6870.433   -406.00538   -360.44818    385.20819   -4258.1152 
33814000    91.230569   -5188.7914    -5006.319   -5188.7914            0     8441.612    17.893332     22.37826    19.258897    7711.6794    7587.5896     9576.379    8160.8674    337.84701    2.5015644    -460.7136   -4056.9168 
33815000    92.891631   -5200.3935   -5014.5988   -5200.3935            0    6739.9695    17.836094     22.58261    19.239541    7749.4088    7337.1438    7496.3529    5386.4119    1097.9555    861.12625     743.2137   -4252.8664 
33816000    93.313037   -5177.2101   -4990.5725   -5177.2101            0    7997.0482    17.854441    22.676229    19.103109    7734.3023    5896.5281    8585.6707    9508.9457   -379.38083    268.24382    -1444.206   -4088.5305 
33817000    91.718522   -5198.9295   -5015.4812   -5198.9295            0    6542.6993    17.808271    22.724573    19.206545    7772.6074    6461.4562    6722.9556    6443.6862    283.91412    390.58639    141.81634   -4273.8302 
33818000    94.360101   -5192.8078    -5004.076   -5192.8078            0    8288.5608    17.792201    22.751145    19.062746     7716.465    8417.0046    7981.3482    8467.3295   -41.469214    444.58353    718.94514   -4071.3085 
33819000    89.618743   -5198.3561   -5019.1075   -5198.3561            0    7545.5364    17.886586    22.496786    19.252812    7747.1525    8729.9465    8096.0891    5810.5735   -193.49848    1196.5091   -267.24507   -4166.5806 
33820000    98.770449   -5203.6441    -5006.091   -5203.6441            0    5829.6971    17.962232    22.689293    19.093187    7781.4351    4397.5413    5688.4561    7403.0939   -781.64897   -413.13489   -871.49989   -4344.5122 
33821000    92.106041   -5189.7948   -5005.5713   -5189.7948            0    6650.7897    17.757908    22.884151    19.113527    7767.2529    6207.0599    6049.3118    7695.9975    488.47727      325.362    793.69855    -4252.187 
33822000    97.945381   -5186.5911   -4990.6882   -5186.5911            0    6470.3364    17.919196     22.60127    19.188581      7771.31     6610.272    6363.2322     6437.505    787.83157      -320.48    1219.5162   -4257.3624 
33823000    91.216343   -5204.5794   -5022.1355   -5204.5794            0    6688.6889    17.972614    22.500616    19.193968    7761.9425    7188.7569    6816.4098    6060.8999   -297.56199   -79.982024    -898.5753   -4264.9761 
33824000    91.041837   -5202.7215   -5020.6266   -5202.7215            0    6635.3929     17.74584     22.87089    19.104115    7753.6562    6493.0967    6808.4472    6604.6349    1148.4575    323.16431    728.17019   -4270.3021 
33825000    92.895897   -5197.5914   -5011.7882   -5197.5914            0    7619.0584    17.955993     22.49862    19.143438    7733.6633    6927.1642    8606.3918    7323.6193    476.82144    95.541568    109.80609   -4152.4533 
33826000     96.82111     -5200.78   -5007.1258     -5200.78            0    5720.2176    17.879913    22.695165    19.198157    7790.3733    5994.7549    6134.2363    5031.6617    209.36625    780.39559    1764.9826   -4357.2255 
33827000     88.03311   -5199.7691   -5023.6921   -5199.7691            0      6256.78    17.854755     22.65258    19.165203    7751.4861    7161.1898    5810.6306    5798.5196   -697.47437   -530.04063   -513.10347   -4316.3789 
33828000    96.980473   -5185.5124   -4991.5395   -5185.5124            0    6653.1062    17.811047    22.694335    19.214064     7766.514    7337.6347    6862.3325    5759.3515    665.55572   -55.563333   -201.94979   -4237.9645 
33829000    90.100966   -5192.6803   -5012.4672   -5192.6803            0    6820.0937    17.738183    22.847972    19.128006    7752.2272    7327.9917    7073.9634    6058.3259   -822.98257    498.39958   -264.70879   -4241.3991 
33830000    99.093719   -5196.5442   -4998.3445   -5196.5442            0    6689.4433    17.893128    22.602912    19.222011    7774.0885     5867.865     7566.142    6634.3229   -844.71113    449.46152   -694.96045   -4239.9148 
33831000    95.151668   -5196.8009   -5006.4858   -5196.8009            0    6452.3884    17.941115     22.51893    19.240044    7773.2609    6546.6602    7456.0635    5354.4414    1149.4569    434.83035    698.18107   -4275.0106 
33832000    93.292099   -5203.1243   -5016.5286   -5203.1243            0     6883.405    17.807624     22.84657    19.047431     7749.316    5510.5905    7310.3833    7829.2412     462.5544    961.92372     -974.103   -4238.5949 
33833000    96.029402   -5195.4864   -5003.4157   -5195.4864            0    6337.2657    17.802627    22.735872    19.188959    7766.8894    7115.6628    5941.5947    5954.5396   -249.51136   -405.93434   -86.768327   -4285.5802 
33834000    100.06384    -5195.726   -4995.5859    -5195.726            0    6898.5574    17.864663    22.772862    19.077926     7761.463     7373.139    6632.0435    6690.4897    77.790636   -447.49402    937.46439   -4214.7177 
33835000    94.171054   -5201.6401   -5013.2864   -5201.6401            0    6562.4433    17.866737    22.685251    19.159343    7765.5004    7478.9152    6382.8352    5825.5796    667.30262    432.27139   -1245.9731   -4270.0775 
33836000    89.341288   -5194.6015   -5015.9079   -5194.6015            0    6520.0107    17.854233    22.658568    19.230631    7779.7777    6737.5622    6734.7789    6087.6911     417.8041     815.3756    3.7538531    -4276.147 
33837000    92.812616   -5193.2493   -5007.6126   -5193.2493            0    7655.7749      17.7855    22.700392    19.148672    7731.0432    8057.3087    8546.6735    6363.3426   -694.33091    401.58176    293.07809   -4144.4291 
33838000    95.292521   -5199.1076   -5008.5108   -5199.1076            0    6488.1921    17.920853    22.713502    19.084472    7768.2451    5998.9863      6351.19    7114.4001    140.86438   -404.46216    726.46789   -4273.4513 
33839000    87.534035   -5197.7926   -5022.7137   -5197.7926            0    7784.7584    17.847509    22.501729     19.23296    7723.9529    7548.5956    8280.7331    7524.9466    652.62085    543.33377   -686.46852   -4145.7924 
33840000    95.304806   -5201.1165   -5010.4951   -5201.1165            0    6874.2804    17.785793    22.674953    19.205192    7745.3002    7008.2083    7277.9653    6336.6675   -1257.3025   -71.592882   -164.91515   -4233.9953 
33841000     94.90222   -5205.2797   -5015.4636   -5205.2797            0    6477.3951     17.86224     22.77531    19.092301    7767.0926     5401.571    6637.8099    7392.8045    533.33272   -76.942334    445.21456   -4281.7361 
33842000    93.186638   -5196.8904   -5010.5056   -5196.8904            0    7485.9113    17.828237    22.642225    19.159396    7734.0918    7465.6215    7188.6126    7803.4999    882.57983   -839.34519    163.18009   -4166.1412 
33843000    97.934596   -5197.0086   -5001.1273   -5197.0086            0    6521.4334    17.830945    22.661626    19.215766    7764.6725    7058.9235    6284.9176    6220.4591   -1310.0457    238.96431    562.39534   -4262.6416 
33844000    94.356038   -5194.4826   -5005.7589   -5194.4826            0    7626.2368     17.72943    22.742561    19.202229    7742.5815    7943.7982     7441.699    7493.2131   -805.13865    161.75991    828.57068   -4144.6224 
33845000     91.17325   -5206.7658    -5024.408   -5206.7658            0    6098.3944    17.893974    22.637208    19.161697     7761.821    6396.1182    5916.5398    5982.5253    682.66755   -437.30059   -438.17067   -4334.0807 
33846000    91.552101   -5182.7183   -4999.6028   -5182.7183            0    8331.0414     17.70451    22.812278    19.126541    7724.8311    8770.2124    8129.7829    8093.1289    385.53156    621.33114    197.66097   -4061.0382 
33847000     92.38109    -5198.858   -5014.0844    -5198.858            0    5554.4656    17.745716    22.797341    19.241283    7784.1601    5264.2946    6051.8024    5347.2999   -285.45196     605.4416    950.92679   -4383.5193 
33848000    92.692237   -5194.9288   -5009.5329   -5194.9288            0    6073.4032    17.986842    22.514021    19.210328    7779.3403    5932.7241     6653.484    5634.0017    380.94731    143.87857    942.99259   -4320.4828 
33849000    93.320617   -5195.1461   -5008.4934   -5195.1461            0    7106.3966    17.798111    22.767945    19.126307     7750.485     6432.811    7819.9942    7066.3846    134.13329    690.46825   -1457.0595   -4205.2369 
33850000    94.450023   -5200.0628   -5011.1511   -5200.0628            0    6466.9087     17.81832    22.710614    19.209457    7773.3948    6545.4691    7200.4026    5654.8545   -173.66669    72.625392    226.35202   -4278.0171 
33851000     92.15784   -5208.4025   -5024.0755   -5208.4025            0    7317.1828    17.919517    22.574633    19.140354    7742.7808    5624.3609    7899.3184     8427.869    532.62394     486.4105   -420.42087   -4197.8154 
33852000    89.927418   -5187.3923   -5007.5263   -5187.3923            0    6895.6982    17.836463    22.790318     19.08802    7759.2548    6430.9052    6434.5522     7821.637   -153.79838   -1565.7374   -270.68075   -4227.2038 
33853000    97.224398   -5193.0906   -4998.6298   -5193.0906            0    8348.5467    17.810881    22.766652    19.075784    7735.1187    8582.3068    7495.2666    8968.0667   -255.59829    717.11807   -1045.2992   -4056.8405 
33854000    95.970027   -5194.1781   -5002.2262   -5194.1781            0    7117.0958    17.861334    22.651264    19.146398    7746.2837    8541.2706    6529.8005    6280.2162   -740.08527   -909.35623   -1374.7961   -4198.1965 
33855000     99.21353   -5192.0905   -4993.6512   -5192.0905            0    6689.7103    17.819591    22.810048    19.125637    7773.9156    6774.7443    6124.5024    7169.8842   -153.93662   -355.44519    395.18492   -4235.2081 
33856000    90.876189   -5201.0216    -5019.258   -5201.0216            0    7070.3629    17.943198    22.631494    19.097634    7755.1937    6289.2815    7379.3185    7542.4888    262.86813    750.10967     119.7413    -4219.589 
33857000    94.125469   -5194.2735   -5006.0109   -5194.2735            0     7154.119    17.840688    22.627057    19.244666    7768.7301    7214.1069    7605.8821     6642.368   -169.45852    364.24589   -867.07571   -4195.4566 
33858000    96.656212   -5193.8896   -5000.5652   -5193.8896            0    6902.4985    17.857366    22.828954    19.022246    7754.7039    7580.9017    6539.0173    6587.5764    -515.1845    906.70404    29.745693   -4219.9313 
33859000    90.916419   -5198.1216   -5016.2776   -5198.1216            0    6835.5763    17.848699     22.64892    19.207608    7764.7472    7173.5415    6906.4305     6426.757     334.9937     320.8642    528.94304   -4242.2109 
33860000    96.301384   -5193.6429   -5001.0282   -5193.6429            0    6295.0652    17.801267    22.734199    19.232217    7783.2312    5969.6767    6637.2058    6278.3131   -402.78897   -248.50953    203.55318   -4286.4726 
33861000    98.093953   -5186.2506   -4990.0506   -5186.2506            0      8149.39    17.779563     22.75811    19.098355    7727.7532    8345.1673    7961.3448    8141.6578   -816.56845    942.41165   -1229.7586   -4071.6033 
33862000    94.664504     -5189.39   -5000.0493     -5189.39            0    7576.5159    17.701611    22.861732    19.119145    7737.3172    7137.3904    7581.3344     8010.823    -134.0897   -188.77534    67.248722   -4145.1089 
33863000    94.213629   -5202.3022   -5013.8633   -5202.3022            0    6803.6803    17.939611    22.608652    19.144974    7765.0185    6850.1019     6945.035    6615.9039    326.74472   -185.85396    56.192957   -4243.3816 
33864000    98.875592    -5203.233   -5005.4696    -5203.233            0    6148.2155     17.91517    22.650711    19.166644    7777.6583     6939.016     5721.179    5784.4515   -829.23456   -760.37243   -1.8598786   -4308.0827 
33865000      92.9213   -5193.0009   -5007.1468   -5193.0009            0    7278.1092    17.757646    22.757121    19.169013    7746.4452    7687.3924    7307.3861    6839.5491    500.17305   -57.055595     698.4005     -4184.91 
33866000    90.081641   -5197.1021   -5016.9277   -5197.1021            0    7166.0258    17.794877    22.731771    19.168642    7753.8896    6781.0806    7192.1002    7524.8967   -1777.5725    159.59688   -684.81799   -4206.5754 
33867000    92.981263   -5202.5493   -5016.5753   -5202.5493            0     7867.848    17.831946    22.622127    19.143421    7722.3897     8950.419    7224.6168    7428.5083    310.80329   -1061.6627    439.38355   -4130.4736 
33868000    92.443485   -5200.3998   -5015.5014   -5200.3998            0    8135.4902    17.840078    22.668731     19.11706    7731.1667    8609.6157    7960.3035    7836.5514   -630.55468   -554.96349   -205.25665   -4098.2156 
33869000     90.00401   -5197.1033   -5017.0841   -5197.1033            0    6658.6171    17.738803    22.791721    19.195514    7760.7049    7036.3544    6129.3745    6810.1225    -917.5962   -335.56636    929.50525    -4263.449 
33870000     95.96461   -5201.5768   -5009.6358   -5201.5768            0     6374.519    17.799044    22.754055    19.157275    7758.7048    6878.7427    6332.4456    5912.3686    230.40961   -164.39576   -271.80243   -4288.3414 
33871000    94.822232   -5208.1578   -5018.5016   -5208.1578            0       6241.2    17.857245    22.561452    19.300961    7776.0749    6527.9959    6868.1503    5327.4537    184.68966     285.7593    -3.339303   -4310.7116 
33872000    98.107622   -5191.0837   -4994.8563   -5191.0837            0    7395.0591    17.842242    22.665954    19.131126    7736.8459    7507.8605    7178.2371    7499.0796   -731.41275   -1201.7383    -69.53899   -4160.4425 
33873000    90.823134   -5193.0309   -5011.3734   -5193.0309            0    5970.3261    17.848465    22.979536     18.97911    7784.2714    5654.6945     5110.336    7145.9477   -463.53511    10.744628    29.189467   -4333.5885 
33874000    97.340289   -5197.0489   -5002.3563   -5197.0489            0    6873.6382    17.831888    22.801648    19.096787    7764.6856    7950.5193    5879.3386    6791.0568   -71.259738    -585.4931   -881.38819   -4223.9857 
33875000    96.165306   -5195.4958   -5003.1533   -5195.4958            0    6451.3394    17.937668    22.510758    19.263174    7778.2867     6041.914    7347.3663     5964.738    1370.9253    396.08418     688.0624   -4271.3242 
33876000    92.704886   -5195.6135   -5010.1923   -5195.6135            0    7571.7669    17.885451    22.686482      19.0736    7739.2651    7847.3117    7957.6407    6910.3483   -722.41349     254.2795    292.72054   -4155.5727 
33877000    89.711861   -5192.2452   -5012.8104   -5192.2452            0    7616.8087    17.706808    22.720958    19.230507    7736.7336    8369.1995    7750.0523    6731.1744   -592.87492    667.25352   -751.94317   -4153.3882 
33878000    93.638011   -5204.2506    -5016.963   -5204.2506            0    6315.6648    17.909786     22.72493    19.078142    7764.7779    4940.3838    6143.3221    7863.2886    117.59393    127.76864    1136.3004   -4301.7688 
33879000    96.333715   -5187.5987   -4994.9194   -5187.5987            0    5204.6823    17.884315    22.740682    19.201938    7809.4577    4398.9077    5858.1542    5356.9851   -58.413969    177.29927   -63.000433   -4402.1428 
33880000    91.542726   -5202.6814   -5019.5846   -5202.6814            0    7531.9953    17.795448    22.744521    19.141168    7747.3676    7846.8708    7743.9223    7005.1929   -709.81358    137.37429   -64.104291    -4168.564 
33881000    87.186065   -5198.3621   -5023.9792   -5198.3621            0    6613.6492    17.889467    22.634498    19.159845    7758.1876    6150.8044    7446.6204    6243.5228   -87.427121    271.16894   -427.06659   -4275.6765 
33882000    97.538527   -5194.3745   -4999.2854   -5194.3745            0    5873.5366    17.794943    22.675399    19.302527    7788.7131    6259.9349    6282.7379    5077.9369   -1382.3265   -160.13088   -239.41687   -4332.1081 
33883000    97.908851   -5194.0797   -4998.2499   -5194.0797            0    7479.1911    17.780303    22.781738     19.12569    7747.1709    6821.3007    7361.8996    8254.3731     880.0774   -228.87726   -213.91431   -4153.2169 
33884000    94.309971   -5209.8046   -5021.1731   -5209.8046            0     6665.783    17.893563    22.606023    19.198822    7765.9673    5387.3961    7730.8773    6879.0756   -362.09894    399.72445   -650.46203   -4266.2154 
33885000    92.291349    -5199.004   -5014.4099    -5199.004            0    7260.3607     17.79229    22.767372    19.133202     7750.548    7714.6068    6789.2077    7277.2675   -1007.5071   -159.86417   -244.20139   -4193.7438 
33886000    94.843928   -5182.5252   -4992.8256   -5182.5252            0    9587.6403    17.801441    22.684717     19.03774    7687.8326    8967.1901    10055.328     9740.403   -264.80785    239.45927   -401.91261   -3917.8675 
33887000    95.262559   -5202.1038   -5011.5669   -5202.1038            0     7610.675    18.015002    22.496801    19.097346    7739.7705    5878.3628     8604.272    8349.3903   -177.37535   -56.031458   -271.10179   -4152.4997 
33888000    94.280529   -5195.1823   -5006.6096   -5195.1823            0    6839.4416     17.80731    22.858506     19.05339    7755.6535    6424.7288      6407.36    7686.2361   -209.97303    8.8748014    986.84979   -4233.0123 
33889000    88.737898    -5201.084   -5023.5972    -5201.084            0    6490.7163      17.7879    22.756163    19.190533    7768.0271    7282.4916     6339.203    5850.4542    67.093117   -580.73891    21.796517   -4288.2723 
33890000    95.035693   -5196.0396   -5005.9565   -5196.0396            0     6058.057    17.949118    22.580833    19.220264    7790.0887     6450.083    6494.0591    5230.0289    1294.0562   -427.69114    449.94853   -4317.6978 
33891000     92.03106   -5196.1816   -5012.1081   -5196.1816            0    6248.5274    17.878862    22.596127    19.230001    7768.7867    4832.7635      7469.01    6443.8087   -945.36973    705.41927   -880.41949   -4304.1513 
33892000    97.460408   -5206.0497   -5011.1169   -5206.0497            0     6611.845     17.86324    22.651529     19.17868    7760.2632    5688.1705    7488.9299    6658.4347   -52.496753    694.63428   -610.14334   -4262.8181 
33893000    92.559281   -5198.8576   -5013.7276   -5198.8576            0    6995.8886     17.81519    22.837449    19.043413    7747.8791    7845.4357    6050.3188    7091.9114    394.68615   -393.75744   -1314.4975   -4223.2281 
33894000    96.654847   -5203.2504   -5009.9288   -5203.2504            0    6115.3423    17.945743     22.61522    19.184933    7786.1461    4927.1071    6896.6451    6522.2748   -139.67849     487.9807    317.84069   -4315.5136 
33895000    91.579088   -5195.6724   -5012.5029   -5195.6724            0    6461.3743    17.925914    22.648821    19.165341    7781.1438    6983.1038    6502.4857    5898.5334    5.6696734    -24.16586    857.27823   -4279.2661 
33896000    95.027408   -5205.0099   -5014.9434   -5205.0099            0    6374.2388    17.836454    22.790574    19.135234    7778.5307    6670.4435    6071.6735    6380.5994    236.09763    171.83187   -942.99166   -4291.8377 
33897000    92.121203   -5204.2426   -5019.9888   -5204.2426            0    6892.5677    17.762865     22.88921    19.064762     7751.312    8130.6621     5889.311    6657.7302    130.12639   -217.01951    652.43959   -4240.8189 
33898000    92.168785   -5195.9957   -5011.6467   -5195.9957            0    7299.9656    17.807212    22.686108    19.146916    7734.9012    6671.2375    7404.4919    7824.1675   -801.06064   -584.33167    896.27034   -4188.1697 
33899000    96.903793   -5188.6515   -4994.8319   -5188.6515            0    8177.9047    17.995013    22.407645    19.196393     7740.482    7330.2004    8995.7504    8207.7634    936.95163    249.59122   -742.74271   -4071.6529 
33900000    93.739676   -5204.4845   -5016.9936   -5204.4845            0    5822.0643     17.84487    22.721925    19.186474    7779.5356    5700.5697    6117.8279    5647.7952   -755.17311    866.79724   -710.85622   -4356.4423 
33901000    97.028738   -5190.7798   -4996.7104   -5190.7798            0    5070.1374    17.853095    22.825673    19.150127    7803.8477    5555.8725    5213.0171    4441.5226   -623.59547    323.41245     -325.122   -4419.6724 
33902000    96.456643    -5199.797   -5006.8718    -5199.797            0    6738.8711    17.908115    22.586488    19.194836    7763.9544    6781.7371    6706.7834    6728.0929   -754.83955   -262.73348   -501.09634    -4243.834 
33903000    95.479136   -5189.9943   -4999.0242   -5189.9943            0    8140.8901     17.82694    22.613933    19.144872    7718.0106    7696.5552    8725.4478    8000.6674    838.42075   -147.82756    1095.2068   -4082.6916 
33904000    93.655306   -5200.5011    -5013.179   -5200.5011            0    6046.6683     17.87792    22.714721    19.148885    7776.2082    6756.0679    6201.4052    5182.5317   -1261.6179    548.26397   -1307.6174   -4327.4383 
33905000    93.404228   -5200.9857   -5014.1658   -5200.9857            0    6391.4612    17.901431    22.606944    19.168259    7757.3301    6397.5933    6999.7486    5777.0417    102.20222    -43.86226    372.13761   -4291.0825 
33906000    88.341641   -5195.5486   -5018.8544   -5195.5486            0    6888.3016    17.806571    22.638288    19.234728    7753.7166    7102.3956    6681.7736    6880.7355   -323.59948   -154.44331   -560.78583   -4239.9252 
33907000    94.042204   -5198.5621    -5010.466   -5198.5621            0    7682.5561    17.850057    22.534544    19.259891    7747.1543    7644.0942    8469.1882    6934.3859    217.22708    817.00844     533.9153   -4142.4578 
33908000    91.144219   -5199.1846   -5016.8849   -5199.1846            0    7145.7362    17.784416    22.892876    18.973599    7724.8433    8284.2456     5909.048    7243.9151   -775.21893   -762.53915   -1280.3315    -4211.854 
33909000    90.381074   -5193.7158   -5012.9425   -5193.7158            0     7559.311    17.813115    22.787526     19.02799    7723.7809    7486.4879    7186.1911     8005.254    618.79037   -361.21136    257.92256   -4161.4358 
33910000    95.342454   -5194.9317    -5004.235   -5194.9317            0    8082.5033    17.785858    22.568322    19.226312    7717.3834    8922.1465    7640.3213    7685.0421   -640.28958    51.117205    -849.2984   -4094.5483 
33911000     88.16143   -5191.9248   -5015.5911   -5191.9248            0    8230.7637    17.802261    22.644651    19.153116    7721.1189     8326.642    7984.0116    8381.6374   -10.832887   -598.18969   -234.38401   -4088.7692 
33912000    91.500703   -5196.1493   -5013.1366   -5196.1493            0    5590.0647    17.994998     22.64651    19.151832    7804.8292    4403.4227    5801.7881    6564.9832    984.24101    241.67886    276.49735   -4376.8451 
33913000    90.312008    -5194.243   -5013.6078    -5194.243            0     5824.719    18.006601    22.550836    19.187957    7791.5365     5492.892    6207.0844    5774.1808   -683.92359   -170.00065    89.947346   -4351.7358 
33914000    93.516696   -5199.8966   -5012.8516   -5199.8966            0    7224.4897    17.837432    22.646211    19.147374    7734.5867    7229.1765    7773.8901    6670.4026    505.76165    30.650812    166.53472   -4197.9219 
33915000    94.507462   -5202.4819   -5013.4553   -5202.4819            0    6560.2549    17.877597    22.785181    19.047982    7759.0867    6766.6823    6337.5711    6576.5112    -688.3711   -562.65807    86.864232   -4271.1078 
33916000    96.855658   -5189.4309   -4995.7076   -5189.4309            0    7611.9135    17.869418    22.563781    19.264589     7767.514     7804.757    7583.4513    7447.5322   -323.35198    464.99368   -65.287656   -4133.4207 
33917000    93.379075   -5199.7152   -5012.9455   -5199.7152            0    6213.1805    17.850538    22.666876     19.19278    7765.7045    6771.8138    5800.0893    6067.6384    877.58961   -771.09648   -209.11755   -4309.2728 
33918000    93.530216   -5190.9882   -5003.9163   -5190.9882            0    5319.2728    17.899096    22.718162    19.137672    7782.0391    4720.5762    5898.7212    5338.5209   -77.532857   -555.83104   -1048.8279   -4400.2157 
33919000    98.541157   -5196.2905   -4999.1961   -5196.2905            0    6035.3092     17.92144    22.901536    18.961484    7782.3337    5214.9463    5318.4597    7572.5216    25.470944    106.63256    200.56084   -4314.2044 
33920000    90.539066   -5190.1334   -5009.0441   -5190.1334            0    7371.8741     17.80534    22.781621    19.105813    7749.9769    7412.4854    6907.2654    7795.8714   -151.45302   -572.15624    1729.5292   -4175.8346 
33921000    92.310925   -5187.9477   -5003.3144   -5187.9477            0    6785.2172    17.913936    22.728287    19.079901    7768.4403    7102.0856    6465.6427    6787.9234    769.20457    449.78688    398.97253    -4234.585 
33922000     92.96946   -5200.4255   -5014.4751   -5200.4255            0     7332.379    17.842346    22.605468    19.198268    7743.3254    6482.3662     8068.008    7446.7628   -255.94767    54.557695    783.46292   -4186.4408 
33923000    92.934319   -5205.1938   -5019.3137   -5205.1938            0    7730.0755    17.853359    22.651967    19.122874    7733.5522    7704.7197    8003.2064    7482.3005     282.2957    155.17695    148.62337     -4147.47 
33924000    92.617963   -5200.0015   -5014.7542   -5200.0015            0     6763.235    17.868976    22.700962       19.098    7746.9692    6293.6084      6297.57    7698.5266    186.56243    -71.25812   -542.82549   -4250.6331 
33925000    93.981031   -5198.5445   -5010.5708   -5198.5445            0    7253.0392    17.871732    22.766788    19.035962    7745.3893    7609.1666    6759.5106    7390.4405    289.46482    -96.30113    110.95892   -4191.2779 
33926000     96.27643   -5206.2146   -5013.6498   -5206.2146            0    7295.6716    17.887483    22.623942     19.14462    7747.5479    6956.2704    7152.8317    7777.9126   -458.34529    123.08992     665.5134   -4189.3116 
33927000    96.341693   -5193.0795   -5000.3842   -5193.0795            0    7282.4731     17.88611    22.778067    19.024992    7750.9912    6244.3539    7214.5972    8388.4681   -301.16727   -453.19438    337.72869   -4177.1716 
33928000    98.404286   -5199.7805   -5002.9598   -5199.7805            0    7300.4563    17.757956     22.81076    19.105903    7739.2757    7977.4718    6972.9747    6950.9225   -984.18113     539.8977   -1157.6934   -4178.9617 
33929000    94.153588   -5194.1188      -5005.8   -5194.1188            0    6553.4429    17.902017    22.636109    19.191013    7776.8128    6008.3652    6065.8703    7586.0932   -21.489393    134.33824    21.807819   -4262.5292 
33930000    93.573642   -5191.6126   -5004.4538   -5191.6126            0    8449.6789    17.895549    22.509624    19.170188     7722.175    7557.4948    9844.9984    7946.5435    623.28189    300.09961    1460.1463   -4052.8509 
33931000    95.065765   -5204.9321   -5014.7888   -5204.9321            0    6247.4486    17.822125    22.805088    19.107877    7766.1129    6646.6279    5917.9614    6177.7565   -182.51497    34.964289    46.250603   -4307.1978 
33932000    92.441322   -5188.9105   -5004.0164   -5188.9105            0    7671.5915    17.842872    22.605176    19.186731    7738.8003    8338.4994    7794.8474    6881.4278    550.00378    10.818807    1737.5295   -4138.1817 
33933000     92.00856   -5200.3189   -5016.2905   -5200.3189            0     7628.378    17.855426    22.693909     19.09501    7737.4774    7014.9022    7849.7513    8020.4806   -486.55392    286.12193   -1150.4575   -4155.4801 
33934000    89.494169   -5196.3112   -5017.3118   -5196.3112            0    7454.7402    17.812356    22.756729    19.116753    7748.9938    8019.7236    7466.0109    6878.4862    97.871343    249.85567   -220.82221   -4174.8432 
33935000    95.093498   -5192.2267    -5002.028   -5192.2267            0    6403.2168    17.856758     22.66922    19.209605    7776.0248    8664.2259    6222.6842    4322.7403   -375.52609    384.98621    538.73354    -4275.869 
33936000    94.118384   -5195.1394    -5006.891   -5195.1394            0    6347.7877    17.801557    22.615631    19.317064    7776.9233    6732.9422    6428.9893    5881.4316     -117.934   -374.80589   -780.63274   -4286.9348 
33937000    92.951104   -5200.1156   -5014.2019   -5200.1156            0    7083.3143    17.853823    22.746683    19.081109    7749.1292    6938.5576    7189.4126    7121.9726    965.61407    300.28661    388.88828   -4213.6946 
33938000    96.919474   -5193.0792   -4999.2283   -5193.0792            0    7041.9797    17.867536    22.637265    19.143951    7743.1947    6884.1112    6981.1286    7260.6993   -744.33589   -881.77893   -807.52256   -4204.0018 
33939000    93.253644   -5210.7038    -5024.185   -5210.7038            0    6529.0419    17.881771    22.680191    19.152978    7767.7197    6026.8908    7510.0698    6050.1651   -114.40738    494.84951   -464.66229   -4284.5475 
33940000    97.609363   -5188.6269   -4993.3961   -5188.6269            0    6750.0518     17.86049    22.708097    19.106916    7749.3396    5255.3044     7247.286    7747.5649    960.40176    155.26535    295.33171   -4230.5311 
33941000    92.558675   -5191.5091   -5006.3804   -5191.5091            0    7131.2127    17.899751    22.676887    19.124656    7762.9009     6969.712    7917.3449    6506.5812    -749.5683    74.405113   -402.37152   -4199.0276 
33942000    94.020156     -5192.81   -5004.7581     -5192.81            0    6905.7361    17.819912    22.653428    19.238927    7766.4103    6798.8548    7151.1011    6767.2523    55.239783    268.35171   -1604.4611    -4222.579 
33943000    92.960272   -5195.3944   -5009.4624   -5195.3944            0    6185.2677    17.711073    22.855129    19.149031    7751.3145    6050.0401    6968.0908    5537.6722    1306.5796    1668.2015    411.55177    -4310.249 
33944000    93.066401   -5194.8206   -5008.6763   -5194.8206            0    6902.1144    17.935208    22.572913    19.187857     7768.202     6946.212    7187.9932     6572.138    208.40173    271.24084   -364.21012   -4226.7271 
33945000    93.112739   -5198.1441   -5011.9072   -5198.1441            0    6054.0494    17.938201    22.694897     19.12532    7786.0254    5532.4119    6195.6186    6434.1176   -894.47653    426.47532   -395.61361   -4324.4626 
33946000     92.76802   -5201.1515    -5015.604   -5201.1515            0    6580.2975    17.763256    22.874785    19.118424     7768.402    5940.4284    6609.8375    7190.6267   -1632.7114    139.82606   -990.31523   -4270.0946 
33947000    96.613512   -5198.7435   -5005.5045   -5198.7435            0    6970.2531      17.8504     22.61103    19.193229    7746.6931    6937.7523    7554.6549     6418.352   -304.76813    478.59929    564.54502   -4218.0222 
33948000    94.600227   -5196.2315   -5007.0194   -5196.2315            0    7959.6582      17.9525    22.577565     19.08667    7736.2806    5966.7505    8730.7698    9181.4542    406.95716    695.26046   -230.11788   -4108.9652 
33949000    96.463964   -5195.4367   -5002.4968   -5195.4367            0    7033.6516    17.777018    22.829136    19.107475    7754.4625    7176.4885    6322.3054     7602.161   -264.06588   -877.97521    1059.6935    -4207.055 
33950000    94.617837   -5200.7319   -5011.4845   -5200.7319            0    6281.6912    17.780349    22.800129    19.177104    7774.2875    6483.2402    5702.4221    6659.4113    65.268216   -419.98479    366.69512   -4299.2663 
33951000    94.749239   -5200.5055   -5010.9953   -5200.5055            0    5662.7311    17.803311    22.749817    19.184433    7770.1189    7025.4269    4977.3597    4985.4067    281.79637   -418.80741   -196.89908    -4369.299 
33952000    93.658142   -5196.1497   -5008.8218   -5196.1497            0    7008.9362    17.938438    22.665943     19.06112     7750.092     6901.366    6659.3605    7466.0819    712.81724   -163.66322    1251.6063   -4216.6218 
33953000     94.95958   -5207.5725   -5017.6416   -5207.5725            0    7343.7956     17.86661    22.639988    19.130077     7738.113    6650.9008    7991.5591     7388.927    227.07416    607.40867    539.13696   -4188.8764 
33954000    90.932287   -5203.9961   -5022.1203   -5203.9961            0    5936.3543      17.9855    22.676423    19.095815     7788.167    4080.6589    6605.9317    7122.4724   -789.66599   -55.862983   -1166.7042   -4347.8548 
33955000     93.16785   -5203.8104   -5017.4632   -5203.8104            0    7318.3426    17.914497    22.721947    19.027043    7745.0008    7371.3069    6935.5361    7648.1849    351.90343   -378.98263   -70.331952   -4190.8352 
33956000    95.387951   -5205.5071   -5014.7194   -5205.5071            0    7027.0577    17.828283     22.65928    19.177543    7747.2683    8323.6352    6644.7835    6112.7544   -684.75272     507.5678   -628.67934   -4220.7606 
33957000    95.950782   -5199.8989   -5007.9855   -5199.8989            0    7621.7909    17.875614    22.527096    19.208719    7735.0756      8084.04    7490.6218    7290.7109    1170.8436    160.90091    50.625001   -4148.1854 
33958000    99.157488   -5199.8575   -5001.5303   -5199.8575            0     6298.256    17.842003    22.721873    19.174352    7773.3536    6389.6287     6488.786    6016.3533   -456.28416   -634.80938    -69.54013   -4287.5197 
33959000    94.024512   -5193.5203   -5005.4596   -5193.5203            0    7231.4141    17.710149    22.899156    19.126756    7756.8074    8261.6331    6743.1349    6689.4742    126.35019    812.72243    361.42948   -4187.4054 
33960000    93.835424   -5192.8358   -5005.1533   -5192.8358            0    6076.1925    17.852497    22.790453    19.130102    7783.3974    6125.5962    5591.8636    6511.1178    830.83506   -317.05303   -539.23819   -4315.4273 
33961000    96.098619     -5198.81   -5006.6009     -5198.81            0    7062.4241    17.859469    22.719117    19.104072    7751.5036    6647.4112    7511.1438    7028.7174   -378.30675    461.21231    963.77728   -4208.2099 
33962000    93.866827   -5198.3137   -5010.5684   -5198.3137            0    6432.4729    17.841317    22.640792    19.229888    7767.7509    5804.6618    6961.0184    6531.7385   -470.49669   -210.45606    222.87184   -4281.8678 
33963000     90.31945   -5194.1828   -5013.5327   -5194.1828            0    5585.2991    17.950433    22.745468    19.105848    7800.7461    5004.4505    4737.0076    7014.4392    397.88844   -769.06907   -665.01007   -4378.1163 
33964000    91.312684   -5192.8426   -5010.2059   -5192.8426            0    7925.8186    17.749307    22.795167    19.114214    7733.5808    8682.0815    7220.1958    7875.1786     1077.132    245.16026    882.33266   -4116.2818 
33965000    90.814028   -5209.8092   -5028.1699   -5209.8092            0     7290.437    17.883864    22.518032    19.270119     7760.258    6851.7686    8574.1834    6445.3591     315.0408    292.85499    588.09419   -4203.0718 
33966000     96.79197   -5205.2971   -5011.7012   -5205.2971            0    6478.2109    17.930813    22.539187    19.205603    7761.8671    5900.9856    6950.2762    6583.3708   -556.36517    -287.0549   -898.55251    -4278.375 
33967000    92.535166   -5209.2694   -5024.1876   -5209.2694            0    6636.0851    17.803078    22.843978    19.098257    7767.1298    5986.6365    7035.7054    6885.9133    350.63454    494.65053    314.23318    -4272.481 
33968000    94.891064   -5194.2917   -5004.4979   -5194.2917            0    6753.4363    17.824548    22.772004    19.135859    7767.2582    6904.3183    6524.9881    6831.0026   -699.44613    470.42021   -880.72213   -4239.4855 
33969000    94.526172   -5201.0738   -5012.0098   -5201.0738            0    6314.3108    17.891747    22.650461    19.147519    7759.6532     7439.129    5836.0274    5667.7759     1557.088   -242.04376   -183.49317   -4297.4408 
33970000    92.142362   -5203.4914   -5019.1953   -5203.4914            0    7844.1447    17.905518    22.642016    19.100614    7743.7141    7646.2266    7524.2053    8362.0021   -283.79471   -67.265368    306.01337   -4133.3237 
33971000    96.323852   -5206.3837   -5013.7241   -5206.3837            0    7460.8926    17.813284     22.73859    19.150649    7756.9504    7312.6338    7514.0187    7556.0252    27.442348     783.8595    697.64415   -4169.6945 
33972000    85.979136   -5194.9216   -5022.9527   -5194.9216            0    8285.8082    17.821149    22.820564    19.039542    7743.1663    7787.9261     7896.298    9173.2004    1457.9374    560.68317    183.69955   -4087.2684 
33973000    87.850935   -5197.9011   -5022.1884   -5197.9011            0    6571.4247     17.85723    22.701295    19.150278    7763.1824    6934.5558    6654.5972    6125.1211    869.87527   -216.42252   -830.73113   -4278.1845 
33974000     95.27165   -5202.1529   -5011.5978   -5202.1529            0    6908.5635     17.89694    22.585653    19.210909      7765.32    6097.3028    8133.1794    6495.2082   -120.27123    27.322565   -232.32463   -4229.2084 
33975000     90.91475   -5194.4014   -5012.5606   -5194.4014            0    7548.9474    17.744719    22.818994     19.11205    7738.7874    6776.9735    8058.2267    7811.6419   -542.55393    469.90739   -131.41132   -4160.5693 
33976000    92.648598   -5195.3526   -5010.0439   -5195.3526            0    7362.4145    17.815902    22.783843    19.093229    7750.2228    7149.8333    6822.3636    8115.0465   -175.97582   -1329.4104    1183.2364   -4177.8772 
33977000    95.085342   -5179.5432   -4989.3608   -5179.5432            0    6135.1682    17.939242    22.655731    19.149539    7782.8827    4740.7249    6533.4157    7131.3638   -358.07566    188.44567    60.604135   -4292.9863 
33978000    97.629231    -5194.376   -4999.1054    -5194.376            0    7506.1637    17.874134    22.695916    19.090551    7744.4609    7710.9258    7059.0722    7748.4932   -585.78264     -589.032   -1898.5936   -4151.3216 
33979000     93.86014    -5188.493   -5000.7612    -5188.493            0    7622.9398    17.799505    22.828461    19.050339    7740.8252    7064.8962    7732.9629    8070.9603    566.05425    473.14651   -318.11522   -4140.1923 
33980000    101.50669   -5197.8668   -4994.8409   -5197.8668            0    6870.4501    17.857383    22.643236    19.194027    7761.0845    6320.2672    7921.1272    6369.9559   -1297.4922     961.6066   -1168.1369   -4217.1922 
33981000    97.765044   -5193.3911    -4997.849   -5193.3911            0    7916.4398    17.819055    22.696824    19.120914     7733.185    7644.8583    7217.0173    8887.4438    573.92323   -988.61928    1043.5744   -4105.0284 
33982000    94.212423   -5196.2633   -5007.8268   -5196.2633            0       7033.3    17.911484    22.671861    19.118017    7763.5719    6609.6957    6873.4832     7616.721    542.40225   -64.259615    -792.9779   -4211.4903 
33983000    92.759162   -5204.4497   -5018.9199   -5204.4497            0    5565.5702    17.864625    22.641643    19.295015    7804.5334    6496.3787    4985.1004    5215.2316   -252.44633   -598.68983    561.82823   -4385.4405 
33984000    94.691599    -5193.887   -5004.4921    -5193.887            0    5914.1502    17.750882    22.910914    19.144902    7786.0194    6730.8643    5156.2582     5855.328     116.2061    264.48537   -224.26805   -4332.9338 
33985000     89.36053   -5197.2159   -5018.4838   -5197.2159            0    7370.7897    17.843718    22.752349    19.093832    7751.8382    7127.4511    7531.8992    7453.0187    382.92859    713.32057   -360.32189   -4185.1968 
33986000    92.928387   -5201.9139   -5016.0457   -5201.9139            0    7105.8821    17.937525    22.549171    19.223887    7775.6072    6266.4686    8158.5269    6892.6508    380.98889    913.00019    69.228548   -4210.2439 
33987000    91.516716   -5198.4562   -5015.4115   -5198.4562            0    6255.7514    17.798121    22.728165    19.235623    7781.1681     6608.157    6122.2138    6036.8832    543.02497    182.97791    629.81176   -4305.5066 
33988000     95.71788   -5192.1028   -5000.6553   -5192.1028            0     7376.362     17.68596    22.855511    19.186318    7755.5252    7948.2644    6945.3709    7235.4508    1137.2961    423.87531    344.63532   -4166.3417 
33989000    96.607602   -5199.3911    -5006.164   -5199.3911            0    7273.2195    17.933789    22.601481     19.10765    7744.9076    6372.0348    8226.8076    7220.8163    99.575545    679.48299   -165.26202   -4184.6427 
33990000    96.639014   -5200.2303   -5006.9403   -5200.2303            0    6351.2202    18.022947    22.460159    19.233566    7785.7139    4644.9305    7026.7756    7381.9544   -778.01356   -667.32666    -177.2287   -4285.7806 
33991000    93.538489   -5206.5553   -5019.4668   -5206.5553            0    6342.2357    17.842292    22.763112    19.162594    7782.8128    6521.4817    6002.6517    6502.5737    451.19376    417.50582    488.63548   -4299.5955 
33992000    93.782187   -5205.5632   -5017.9872   -5205.5632            0    5394.6026    17.906379      22.7976    19.085625    7791.1812    5295.7213     6011.069    4877.0176    -315.3155    493.94067    -325.7535    -4405.018 
33993000    102.96549   -5204.0621   -4998.1184   -5204.0621            0    6846.5824    17.788785    22.653157    19.232966    7750.3495    6456.3303    7340.1236    6743.2934   -456.51447   -131.12496    291.32754    -4224.243 
33994000    98.037737   -5199.6206    -5003.533   -5199.6206            0    6773.1305    17.881625    22.724244    19.078639    7752.5369    6085.4047    6305.2689     7928.718   -624.43272   -514.36166   -1217.2756   -4237.7439 
33995000    97.281737   -5192.4795    -4997.904   -5192.4795            0    6805.2561    17.912159     22.68988    19.121971    7771.6421    5681.3376    7381.9466    7352.4841    1341.7743   -26.811943    1319.2015   -4226.5866 
33996000    94.729276   -5204.8348   -5015.3646   -5204.8348            0    5990.3715    17.869783    22.690551    19.203492    7786.5402    6245.0867    6294.6165    5431.4112   -1061.8133    266.63374   -929.27545   -4335.1058 
33997000    90.440663     -5190.96   -5010.0675     -5190.96            0    7364.6472    17.787912    22.765382    19.163297    7760.1502    7278.4391     7532.388    7283.1145     112.6818    150.37127   -1610.3122   -4176.5821 
33998000    94.698167   -5192.6407   -5003.2327   -5192.6407            0    5579.0172    17.899181    22.727452    19.180264    7802.5845    5212.2686    6099.2006    5425.5824   -499.31701     860.3743   -1211.6355   -4368.3813 
33999000    96.216481   -5205.6495   -5013.2047   -5205.6495            0    6999.4224    17.904868    22.560523    19.194272    7753.3955    6441.2802    7679.6078    6877.3794    107.26345    184.29918   -253.84537   -4221.7427 
34000000    97.664035   -5189.8329   -4994.4928   -5189.8329            0    6815.7931    17.849528    22.745043    19.104748    7756.3037    7461.0088     6502.076    6484.2945    328.50845   -35.129695   -299.74817   -4223.5057 
Loop time of 418.378 on 64 procs for 250000 steps with 1008 atoms

Performance: 103.256 ns/day, 0.232 hours/ns, 597.546 timesteps/s
194.1% CPU use with 32 MPI tasks x 2 OpenMP threads

MPI task timing breakdown:
Section |  min time  |  avg time  |  max time  |%varavg| %total
---------------------------------------------------------------
Pair    | 38.017     | 40.584     | 43.734     |  25.2 |  9.70
Bond    | 1.048      | 1.264      | 1.4891     |  10.0 |  0.30
Kspace  | 202.11     | 206.64     | 211.18     |  18.2 | 49.39
Neigh   | 0.89945    | 0.94598    | 1.0036     |   3.2 |  0.23
Comm    | 65.104     | 68.583     | 72.005     |  24.3 | 16.39
Output  | 0.47477    | 0.47505    | 0.47643    |   0.0 |  0.11
Modify  | 82.345     | 85.021     | 86.522     |  10.2 | 20.32
Other   |            | 14.86      |            |       |  3.55

Nlocal:        31.5000 ave          37 max          27 min
Histogram: 2 0 2 5 7 8 4 2 0 2
Nghost:        2964.19 ave        2980 max        2940 min
Histogram: 2 1 1 3 3 3 7 4 2 6
Neighs:        10771.9 ave       12624 max        9183 min
Histogram: 2 0 3 6 6 8 3 2 0 2

Total # of neighbors = 344702
Ave neighs/atom = 341.96627
Ave special neighs/atom = 2.0000000
Neighbor list builds = 2375
Dangerous builds = 0

unfix		3
unfix		2
unfix		1

write_data	data.final.${pid}
write_data	data.final.0
System init for write_data ...
PPPM initialization ...
  extracting TIP4P info from pair style
  using 12-bit tables for long-range coulomb (../kspace.cpp:340)
  G vector (1/distance) = 0.3798652
  grid = 24 27 32
  stencil order = 5
  estimated absolute RMS force accuracy = 0.0023966554
  estimated relative force accuracy = 7.2174565e-06
  using double precision FFTW3
  3d grid and FFT values/proc = 5355 672
Last active /omp style is kspace_style pppm/tip4p/omp
WARNING: Not all mixed pair coeffs generated from mixing. Use write_data with 'pair ij' option to store all pair coeffs. (../write_data.cpp:312)

write_restart   restart.lmp.${pid}
write_restart   restart.lmp.0
System init for write_restart ...
PPPM initialization ...
  extracting TIP4P info from pair style
  using 12-bit tables for long-range coulomb (../kspace.cpp:340)
  G vector (1/distance) = 0.3798652
  grid = 24 27 32
  stencil order = 5
  estimated absolute RMS force accuracy = 0.0023966554
  estimated relative force accuracy = 7.2174565e-06
  using double precision FFTW3
  3d grid and FFT values/proc = 5355 672
Last active /omp style is kspace_style pppm/tip4p/omp
Total wall time: 0:06:58
