LAMMPS (30 Jul 2021)
Processor partition = 1
  using 4 OpenMP thread(s) per MPI task
using multi-threaded neighbor list subroutines
variable        pid world 0 1
variable        phase world IceII IceIh

shell cd ${phase}
shell cd IceIh
include Restart.lmp
echo both
log log.lammps
#include		in.partitions
include		in.temp
variable        temperature equal 75.10
variable	tempDamp equal 100.0
include		in.pressure
variable        pressure equal 2025.7
variable        pressureDamp equal 1000.0 # This is 1 ps
include		in.seed
variable        seed equal 745823

units		real
atom_style	full
#include		in.box
read_restart	restart.lmp.${pid}
read_restart	restart.lmp.1
Reading restart file ...
  restart file = 30 Jul 2021, LAMMPS = 30 Jul 2021
  restoring atom style full from restart
  orthogonal box = (0.18285136 0.15342038 0.14608912) to (18.024721 23.475757 22.067107)
  2 by 4 by 2 MPI processor grid
  restoring pair style lj/cut/tip4p/long/omp from restart
  restoring bond style harmonic/omp from restart
  restoring angle style harmonic/omp from restart
  864 atoms
  576 bonds
  288 angles
Finding 1-2 1-3 1-4 neighbors ...
  special bond factors lj:    0        0        0       
  special bond factors coul:  0        0        0       
     2 = max # of 1-2 neighbors
     1 = max # of 1-3 neighbors
     1 = max # of 1-4 neighbors
     2 = max # of special neighbors
  special bonds CPU = 0.001 seconds
  read_restart CPU = 0.006 seconds
include 	in.setup
variable	out_freq equal 1000
variable	out_freq2 equal 10000
variable	out_freq3 equal 1000

timestep	2.0

neigh_modify    delay 7 every 1

include		in.tip4p
# This is TIP4P/Ice

# create groups ###
group ox type 2
288 atoms in group ox
group hy type 1
576 atoms in group hy

# set charges - beside manually ###
set group ox charge -1.1794
Setting atom values ...
  288 settings made for charge
set group hy charge 0.5897
Setting atom values ...
  576 settings made for charge

# ### TIP3P Potential Parameters ###
pair_style lj/cut/tip4p/long/omp 2 1 1 1 0.1577 8.5
pair_coeff 1 1*2 0.000 0.000
pair_coeff 2 2 0.21084 3.1668
bond_style  harmonic
bond_coeff  1 450 0.9572
angle_style harmonic
angle_coeff 1 55 104.52
kspace_style pppm/tip4p/omp 1.0e-5
pair_modify tail yes

thermo          ${out_freq}
thermo          1000
thermo_style    custom step temp pe etotal epair emol press lx ly lz vol pxx pyy pzz pxy pxz pyz enthalpy

restart 	${out_freq3} restart.lmp.${pid} restart2.lmp.${pid}
restart 	1000 restart.lmp.${pid} restart2.lmp.${pid}
restart 	1000 restart.lmp.1 restart2.lmp.${pid}
restart 	1000 restart.lmp.1 restart2.lmp.1


include         in.dump
dump            myDump all atom ${out_freq2} dump.water.${pid}
dump            myDump all atom 10000 dump.water.${pid}
dump            myDump all atom 10000 dump.water.1
dump            myDump2 all dcd ${out_freq2} dump.dcd
dump            myDump2 all dcd 10000 dump.dcd
dump_modify     myDump append yes
dump_modify     myDump2 append yes


variable natoms 	equal  "count(all)"                        # NUMBER ATOMS
variable H      	equal  "enthalpy/v_natoms"                 # ENTHALPY-per-atom
variable Vol      	equal  "vol/v_natoms"                 # volume-per-atom
fix AVG all 		ave/time ${out_freq} 1 ${out_freq} v_Vol v_H file vol_enthalpy.dat
fix AVG all 		ave/time 1000 1 ${out_freq} v_Vol v_H file vol_enthalpy.dat
fix AVG all 		ave/time 1000 1 1000 v_Vol v_H file vol_enthalpy.dat


timer           timeout 23:50:00 every 1000
New timer settings: style=normal  mode=nosync  timeout=23:50:00

fix 		1 all shake 1e-6 200 0 b 1 a 1
Finding SHAKE clusters ...
       0 = # of size 2 clusters
       0 = # of size 3 clusters
       0 = # of size 4 clusters
     288 = # of frozen angles
  find clusters CPU = 0.000 seconds
fix             2 all nph aniso ${pressure} ${pressure} ${pressureDamp}
fix             2 all nph aniso 2025.7 ${pressure} ${pressureDamp}
fix             2 all nph aniso 2025.7 2025.7 ${pressureDamp}
fix             2 all nph aniso 2025.7 2025.7 1000
fix             3 all temp/csvr ${temperature} ${temperature} ${tempDamp} ${seed}
fix             3 all temp/csvr 75.1 ${temperature} ${tempDamp} ${seed}
fix             3 all temp/csvr 75.1 75.1 ${tempDamp} ${seed}
fix             3 all temp/csvr 75.1 75.1 100 ${seed}
fix             3 all temp/csvr 75.1 75.1 100 745823


run             250000
PPPM initialization ...
  extracting TIP4P info from pair style
  using 12-bit tables for long-range coulomb (../kspace.cpp:340)
  G vector (1/distance) = 0.37210148
  grid = 24 27 25
  stencil order = 5
  estimated absolute RMS force accuracy = 0.0031172699
  estimated relative force accuracy = 9.3875658e-06
  using double precision FFTW3
  3d grid and FFT values/proc = 6300 1296
Last active /omp style is kspace_style pppm/tip4p/omp
Neighbor list info ...
  update every 1 steps, delay 7 steps, check yes
  max neighbors/atom: 2000, page size: 100000
  master list distance cutoff = 10.8154
  ghost atom cutoff = 10.8154
  binsize = 5.4077, bins = 4 5 5
  1 neighbor lists, perpetual/occasional/extra = 1 0 0
  (1) pair lj/cut/tip4p/long/omp, perpetual
      attributes: half, newton on, omp
      pair build: half/bin/newton/omp
      stencil: half/bin/3d
      bin: standard
Setting up Verlet run ...
  Unit style    : real
  Current step  : 33000000
  Time step     : 2
  Walltime left : 23:49:59.97
Per MPI rank memory allocation (min/avg/max) = 12.26 | 12.29 | 12.31 Mbytes
Step Temp PotEng TotEng E_pair E_mol Press Lx Ly Lz Volume Pxx Pyy Pzz Pxy Pxz Pyz Enthalpy 
33000000    80.780714   -4592.4906   -4454.0352   -4592.4906            0    2606.2006     17.84187    23.322337    21.921018    9121.6445    2944.4557     3153.879    1720.2669   -90.788471   -110.55777   -147.96312   -4107.3328 
33001000    77.075491   -4608.0767    -4475.972   -4608.0767            0    2295.6643    17.883876    23.371904    21.839671    9128.5508    2136.8993    2255.4449    2494.6488   -65.263914   -45.819446    -327.8111   -4170.3489 
33002000    76.135513   -4608.3727   -4477.8791   -4608.3727            0     2198.677    17.862841    23.344885    21.939894    9149.0667    2797.7376    1907.8052    1890.4881   -139.83239    28.817139    129.35866   -4184.5101 
33003000    75.434296   -4613.0881   -4483.7963   -4613.0881            0    1386.5398    17.821528    23.489411    21.937997    9183.6231     1244.884    1100.5047    1814.2307     584.0559   -64.919214    116.80378   -4298.0919 
33004000    69.466694    -4609.188   -4490.1244    -4609.188            0    2663.1227    17.886196     23.29184    21.904917    9125.6412    2345.6502    3001.7483    2641.9696     74.66773     388.8676    211.96715   -4135.6945 
33005000    75.832123   -4607.4496   -4477.4759   -4607.4496            0    1649.4223    17.930763    23.220452    22.018373    9167.5791    1810.0762    1217.2892    1920.9014    314.75124    60.312196    484.74726   -4256.9486 
33006000    78.380031   -4607.1991   -4472.8584   -4607.1991            0    2586.1487    17.906467    23.354676    21.813489     9122.395    2384.0735    2370.3673    3004.0052    285.95021  -0.43511072    338.42137   -4128.7952 
33007000    75.969482   -4607.2001    -4476.991   -4607.2001            0    1987.4646    18.082374    23.237819    21.784441    9153.7115    1941.0808    2036.9415    1984.3715   -425.98319     27.90723     -112.916   -4211.6695 
33008000    80.147977   -4610.2887   -4472.9178   -4610.2887            0    1741.8887    17.917665    23.219969    22.029468    9165.3073    965.42398    2289.6185    1970.6237   -33.834626   -459.82149   -304.49509   -4240.0854 
33009000    79.474461   -4604.0511   -4467.8346   -4604.0511            0    2248.5443    18.056556    23.318695    21.713136    9142.4314    1727.8058    2052.7742    2965.0528    512.69676    115.49395    222.32292   -4168.0294 
33010000     77.92111   -4608.6224   -4475.0682   -4608.6224            0    2334.9823    17.869311    23.231112     21.97994    9124.3996    2781.1364    2300.1803    1923.6303   -535.00513   -198.86516    514.05539   -4164.3521 
33011000    77.048665   -4609.9411   -4477.8823   -4609.9411            0    1852.0378    17.926149     23.38953    21.817344    9147.6674    1128.1024    2104.5531     2323.458    -238.4402   -26.927596    190.51485   -4230.8032 
33012000    77.257532   -4598.2882   -4465.8714   -4598.2882            0    1593.8769    17.777928    23.390193    22.056201    9171.6117    2008.0023    1603.9104     1169.718    10.646319   -477.33558   -249.22179   -4252.6767 
33013000    77.669515   -4603.8066   -4470.6837   -4603.8066            0    2005.2873    17.910057     23.29581    21.929764    9149.7394    2639.2292    1870.3127    1506.3201    62.751776   -203.28544   -292.50656   -4203.0991 
33014000    73.664492   -4612.2497   -4485.9913   -4612.2497            0    1975.8768    17.975919    23.250733    21.918948    9161.0967    1581.3079    1507.0339    2839.2886    1154.6749    214.36084    241.52973   -4222.0039 
33015000    79.161826   -4614.7496   -4479.0689   -4614.7496            0    2016.1785    17.934562    23.292946    21.903408    9150.1222    2529.1705    1897.2008    1622.1642    526.51119   -165.17476    92.431627   -4210.0197 
33016000    78.607898   -4610.8284   -4476.0972   -4610.8284            0    2432.9775    17.949112    23.301917    21.803779    9119.4026     2756.052    1750.2028    2792.6777   -263.69314    163.89824   -313.01169   -4152.5181 
33017000    74.771106   -4604.5368   -4476.3816   -4604.5368            0    1802.7226    17.973217    23.208124    21.949182    9155.5447     1742.657    1694.6522    1970.8586   -379.86224   -150.51556   -189.28982   -4235.6745 
33018000     69.72665   -4605.3672   -4485.8581   -4605.3672            0    2461.1882    17.932916    23.202658    21.939512    9128.8405    3210.0463    2245.8979    1927.6205    368.27816    484.22739    444.44143   -4158.1884 
33019000    76.302011   -4608.5779   -4477.7988   -4608.5779            0    1874.6905    18.000983    23.216449    21.932047    9165.8168    1573.8767    1254.8859     2795.309    434.74218    145.95579   -144.76414   -4227.2014 
33020000    74.675792    -4611.134   -4483.1422    -4611.134            0    2073.8675    17.939219    23.293813    21.860489    9134.9039    2094.8057    1594.3181    2532.4788   -418.40327    -220.5572    178.33813    -4206.855 
33021000    71.742676    -4608.421   -4485.4565    -4608.421            0     1874.804    17.796211    23.529539    21.888369    9165.4625    1791.2751    1908.5568    1924.5801   -181.83451    156.34218    101.81241   -4234.8536 
33022000     79.05287   -4608.0438   -4472.5498   -4608.0438            0    1980.2764    17.816835     23.41929    21.944445    9156.4867    2779.7587    1782.2927    1378.7776    833.81767   -206.93651   -417.62469   -4208.1078 
33023000     73.61228   -4612.3384   -4486.1695   -4612.3384            0    2070.5679    17.996563    23.135237    21.952705    9140.1127    1621.4472    3113.8028    1476.4539      311.262    57.043944    62.627676   -4210.1645 
33024000    79.072188   -4599.2097   -4463.6827   -4599.2097            0    1402.6648    17.931479      23.3952     21.87279    9175.8658    1065.2624    1944.7427    1197.9893     258.8845    103.64006    45.735884   -4275.9772 
33025000    73.181132   -4601.8417   -4476.4118   -4601.8417            0    1880.0387     17.95558     23.40157    21.789547    9155.7225    1951.9406    1282.9007    2405.2749    925.52281      342.814    -745.9314   -4225.3762 
33026000    78.445169   -4602.6259   -4468.1735   -4602.6259            0      1331.31    17.801269     23.43547    21.979218    9169.3148     1072.672    1820.7044    1100.5535    997.76088   -198.33027    -311.8252    -4290.144 
33027000    75.426166   -4602.5924   -4473.3145   -4602.5924            0    1695.4555    17.849157    23.415724    21.948143     9173.247    1856.0557    570.59632    2659.7147    574.01263   -422.68692   -326.61328   -4246.4924 
33028000    72.978034   -4606.6695   -4481.5877   -4606.6695            0    2539.0804    17.865723    23.281809    21.944429    9127.7049    2486.0525    2626.8053    2504.3835     464.8985    383.93913    554.43208   -4143.5898 
33029000    73.137354   -4612.3093   -4486.9544   -4612.3093            0     2145.367    17.970273    23.213531    21.940219     9152.439    2173.4917    1838.4822    2424.1269    -415.2218   -270.89744    431.48428   -4200.5931 
33030000      77.9566   -4604.3013   -4470.6863   -4604.3013            0    2067.8225    17.954103    23.308621    21.863686    9149.6331    1642.0314    2712.8741     1848.562   -239.65584    457.00034    46.263184   -4194.7602 
33031000    79.020712   -4603.3595   -4467.9207   -4603.3595            0    2369.8373    17.941182    23.355614    21.853759    9157.3224    2395.3559    2542.3058    2171.8504    187.64887    3.0609406    120.26815   -4151.4286 
33032000     75.29841   -4601.2125   -4472.1536   -4601.2125            0    1825.5918    17.906878    23.219725    22.005613    9149.7756    1756.1517    1691.3262    2029.2976    -107.3386   -47.700381    235.90964   -4228.5465 
33033000    75.494369   -4603.9228   -4474.5281   -4603.9228            0    1739.5122    18.025882    23.148606     21.98022    9171.7757    1107.1107    2729.4518     1381.974    420.80323   -687.57283   -380.37007   -4241.8493 
33034000     73.45019   -4610.8487   -4484.9576   -4610.8487            0    1976.3731    17.852205    23.275078    22.050996    9162.4418    2442.3485    2171.9237    1314.8471    308.70387    -67.35859    -84.47106   -4220.8651 
33035000    71.775099   -4610.8847   -4487.8646   -4610.8847            0    2537.2765    17.970441    23.220694    21.879008    9129.8062      2816.66    2178.8142    2616.3553    -846.3528   0.64457349    268.77633   -4150.0291 
33036000    74.831771   -4611.3689   -4483.1098   -4611.3689            0    2377.1115    17.996095      23.1077    21.981417    9140.9364    2636.1552    3160.7043    1334.4751   -780.13483    84.272224    206.75123   -4166.2142 
33037000    76.267075   -4605.6533   -4474.9342   -4605.6533            0    2327.0514    18.032892    23.092108    21.983265    9154.2161    2429.1614    2953.1862    1598.8066   -40.528582   -126.98256   -55.773736   -4164.2615 
33038000    74.326818   -4604.1276    -4476.734   -4604.1276            0    2391.2491    17.925939    23.286054    21.865957    9127.3833     2267.516    2103.0629    2803.1684   -324.13405   -83.585942    534.43887   -4158.4264 
33039000     77.58181   -4609.1599   -4476.1873   -4609.1599            0    2253.6935    17.892129    23.249559    21.970236    9139.2691    2356.6076    2152.2045    2252.2685    740.17552    312.95505    320.91059   -4175.7996 
33040000    76.106062   -4608.4867   -4478.0435   -4608.4867            0    2742.2443    17.991062    23.166135    21.874366    9116.8722    2847.3997    3206.2014    2173.1318   -481.65568    132.60334    82.373656   -4113.4341 
33041000    72.482217   -4604.0647   -4479.8326   -4604.0647            0    2100.7185    17.950211    23.246821    21.945118    9157.3763     2434.895     1899.405    1967.8555    232.01307    -111.5592   -225.04905   -4199.2797 
33042000     75.58788   -4610.7235   -4481.1685   -4610.7235            0    1125.7475    17.953453    23.333373    21.956827    9198.0355     623.5824     1123.122    1630.5379   -388.63864    144.96413   -249.93338   -4330.1563 
33043000    75.464851   -4604.5233   -4475.1792   -4604.5233            0    2305.4251    17.957495    23.325882    21.846354    9150.8786    2908.6155    2043.1486    1964.5111   -789.18727   -319.69156    462.53037    -4167.506 
33044000    76.677997   -4607.9302   -4476.5067   -4607.9302            0    1522.4579    17.960815    23.275817    21.985024    9190.8971    1644.8452    2253.1533    669.37519      201.921   -14.308196   -159.83909   -4272.4368 
33045000    69.628271   -4613.2197   -4493.8792   -4613.2197            0    1353.5439     17.90966    23.344465    21.972599     9186.555    1698.9427    1771.5347    590.15425   -406.40476   -949.85677    206.40747   -4312.5362 
33046000    76.965748   -4605.5402   -4473.6235   -4605.5402            0     1829.295    17.874601    23.361509    21.956958    9168.7347    1200.5404     2236.738    2050.6065    207.66333    194.78735    391.90745   -4229.0165 
33047000    71.555889   -4604.4125   -4481.7682   -4604.4125            0    2528.5395    17.943971    23.287836    21.838398    9125.7482    2049.1055    2350.6247    3185.8882   -207.02604   -260.16557    370.37303   -4145.2457 
33048000     78.05388   -4609.6524   -4475.8708   -4609.6524            0    1933.3754    17.916137    23.368123    21.861551    9152.6987    1462.6285     1915.978    2421.5197   -7.9603537   -132.05855    431.38788   -4217.7985 
33049000    78.735981   -4610.5903   -4475.6395   -4610.5903            0    1909.6543    17.929357    23.282891    21.925368    9152.6848    1886.8767    2284.3985    1557.6876    204.76567    330.61026   -227.28603    -4220.734 
33050000    75.713738   -4611.6716   -4481.9008   -4611.6716            0    2770.6695    17.819274    23.381993    21.906031    9127.1507    2383.8641    2855.6955    3072.4489    60.032306   -144.19185   -75.178881   -4113.0967 
33051000    77.065736   -4602.1894   -4470.1013   -4602.1894            0    2278.7768    17.833374    23.506384    21.823351    9148.3078    2792.6977    1787.7618     2255.871    397.72489   -207.25958    517.03715   -4166.0699 
33052000    72.586597   -4602.5707   -4478.1597   -4602.5707            0    1582.7383    17.892737    23.349096    21.951035    9170.6864    1459.2854     1875.066    1413.8635    451.39569   -437.58486    304.00039   -4266.4763 
33053000    73.115743   -4607.3534   -4482.0355   -4607.3534            0    1900.5831    17.879803    23.399319    21.874186    9151.6176    2663.5497    1595.6586    1442.5409   -88.702192    388.29222   -361.05239   -4228.3705 
33054000    74.654533   -4600.8596   -4472.9043   -4600.8596            0      2147.32    18.004939    23.194984    21.879665    9137.4796    1914.9194    2259.0349    2268.0056   -386.01135     319.5868    -507.5029   -4186.7508 
33055000    73.820171   -4604.6005   -4478.0753   -4604.6005            0    2242.8577    17.932858    23.294534    21.933851    9162.5941    3036.1974    2180.9184    1511.4572    199.47716    447.07216     126.5743   -4178.3688 
33056000    80.309563   -4606.9584   -4469.3106   -4606.9584            0    1276.9887    17.999345    23.289354    21.921252    9189.2384     1493.824    858.14966    1478.9924   -21.463372   -104.08298   -161.89055   -4298.1742 
33057000    77.870331   -4613.0195   -4479.5524   -4613.0195            0    1716.3492    17.921161    23.261487    21.982165    9163.7679    1304.4761    2196.4444    1648.1272    87.659146    223.26156    188.80338   -4250.1724 
33058000     75.75666   -4606.2553    -4476.411   -4606.2553            0    2814.4948    17.814908    23.305088    21.958731    9116.7822    3646.8209    2518.8954    2277.7682    53.838576    -41.03572    314.81968   -4102.1988 
33059000    74.497323   -4604.6713   -4476.9854   -4604.6713            0    1896.8446     17.91811    23.322231    21.925495    9162.4517    1761.5235    1552.7976    2376.2128    93.710097    62.508133    326.02465   -4223.5196 
33060000    71.674027   -4609.7149   -4486.8681   -4609.7149            0    2118.6017    17.962487    23.269566    21.867963    9140.3555    2989.7567    1584.6318    1781.4166    421.04724    414.67135    1.8807772   -4204.4527 
33061000    73.995548   -4604.3273   -4477.5014   -4604.3273            0    2302.9426    18.091036    23.127276    21.848344    9141.2681    2452.7749    3603.0076    853.04535   -75.771719    618.65889    23.999415   -4170.4823 
33062000    76.723818   -4606.5277   -4475.0257   -4606.5277            0    1517.6244    17.930872    23.336231    21.895869     9162.085    715.94863    1881.4518    1955.4727    -163.7588    140.41549   -365.64832   -4272.2413 
33063000    76.670367   -4600.2471   -4468.8368   -4600.2471            0    1188.4714    17.890693    23.381949    21.983338     9196.054    1369.8893    966.28055    1229.2444    109.79348   -246.45184    33.832596   -4309.4449 
33064000    75.448463   -4608.0183   -4478.7023   -4608.0183            0    2219.0184      17.8307    23.273127    22.033489    9143.3721    2251.7285    1743.6507    2661.6761   -61.342542    465.78613    55.218823   -4182.8035 
33065000    74.954463   -4615.3046   -4486.8352   -4615.3046            0    2333.9476    17.839199     23.46946    21.825908     9137.992    2990.7018    2867.9972    1143.1438    -320.1458    171.57921   -147.00262   -4175.7941 
33066000    76.718918    -4598.609   -4467.1154    -4598.609            0    2159.7055    17.876304    23.289562    21.982928    9152.1807    2185.2969    1587.0046     2706.815    909.79581     46.57283   -227.51674   -4178.8484 
33067000     71.00514   -4611.8982   -4490.1978   -4611.8982            0    1455.7671      18.0406    23.275678    21.880668    9187.8497    1615.3813    1600.3888    1151.5313   -345.75889    463.45491    294.67291   -4295.1318 
33068000    71.033821   -4602.0817   -4480.3322   -4602.0817            0     2198.579    17.922685    23.260315    21.953009    9151.9306    2319.4393    2205.2574    2071.0403   -423.16013    89.178909   -287.54432   -4186.8845 
33069000    71.801118   -4615.0782   -4492.0136   -4615.0782            0     2161.614    17.872855    23.251718    22.028417    9154.4505    1782.4243    2947.2422    1755.1756    468.32915    179.99566   -731.11066   -4203.4202 
33070000    75.152798   -4606.2858   -4477.4765   -4606.2858            0    2533.7166     17.83111      23.4247    21.877792    9138.1001    3582.2705    2129.8367    1889.0427    358.39488   -98.087362    156.43321   -4139.8085 
33071000    75.081264   -4608.3686   -4479.6819   -4608.3686            0    2142.4038    17.892643    23.326981     21.96687    9168.5615    2105.3496    2586.0395    1735.8223    538.36149   -160.64457    42.671233   -4193.2124 
33072000    81.261006   -4600.5977   -4461.3191   -4600.5977            0    2051.8285    17.902845    23.389481    21.884029    9163.6804    2173.0577    1960.4068    2022.0211   -414.53207    114.70449   -425.10894   -4187.1068 
33073000    72.620773   -4612.0774   -4487.6079   -4612.0774            0    1804.2843    17.873895    23.452427    21.849394    9158.9651    2404.5825    853.69587    2154.5747   -143.37492    228.64446    406.35194   -4246.6022 
33074000    75.320773   -4608.8769   -4479.7797   -4608.8769            0    1886.3091      17.9631    23.364423     21.86204    9175.4425    2100.7758    1789.1801    1768.9716    4.3083838    106.91256   -231.45264   -4227.3643 
33075000    75.603786   -4611.4962   -4481.9138   -4611.4962            0     835.9082    17.860462    23.424168    21.993419    9201.3088    2361.8101      121.225    24.689554   -133.80281   -64.928981    151.41135   -4369.7419 
33076000    73.955671   -4607.3939   -4480.6364   -4607.3939            0    1954.8833    17.899904    23.410891    21.842831    9153.2976    1551.4201    1379.1238     2934.106   -622.77583    534.57999    25.241212   -4219.6762 
33077000    74.003255   -4611.3562   -4484.5171   -4611.3562            0    2437.6636    17.878752    23.266606    21.995094    9149.4726    3114.0485    3358.2023    840.74001    79.561755   -29.008904   -501.03816   -4159.2459 
33078000    80.794707   -4606.5361   -4468.0567   -4606.5361            0    1526.6098    17.964821    23.347725     21.90648    9188.4039    1503.0203    721.80484    2355.0044    361.68729   -635.83347    93.008644   -4263.4858 
33079000    74.084905   -4607.5065   -4480.5275   -4607.5065            0    2135.5982    18.010617    23.250061    21.831718    9141.9871    737.82865    2364.7732    3304.1928    241.45356   -110.87943    135.36105   -4195.7957 
33080000    78.350494   -4600.0636   -4465.7735   -4600.0636            0    2450.4957    17.927671    23.110146    22.031114     9127.735    2903.2399    2469.3766    1978.8708   -323.88751   -34.289374    307.88506   -4139.5668 
33081000    75.822286     -4608.54   -4478.5832     -4608.54            0    2111.0525    18.000295    23.136945    21.939713    9137.2728    1458.4675    2745.4882    2129.2018   -230.13832   -456.82265    29.157804    -4197.269 
33082000    74.534359   -4613.7136   -4485.9643   -4613.7136            0    1621.2856     17.93481    23.219688    22.005121    9163.8279    1728.7916    2334.6076    800.45763    292.72443    29.124538   -71.118742   -4269.2875 
33083000    73.942236   -4607.4984    -4480.764   -4607.4984            0    3204.2601    17.961323    23.024075    21.998054    9097.1379    2676.0059    3948.9135    2987.8608   -76.958944    28.652659    653.79201    -4055.647 
33084000    78.709378   -4601.1385   -4466.2333   -4601.1385            0    2319.0602    18.055169    23.187353    21.821116    9135.4444     1295.852    2312.2741    3349.0546   -56.710417   -124.28164    85.557448   -4157.2624 
33085000    74.013149   -4605.6358   -4478.7798   -4605.6358            0    1844.9724    17.932815    23.294774    21.933082    9162.3449    2376.7755     1788.884    1369.2577   -427.16948    372.65196    79.622301   -4232.2483 
33086000    74.060378   -4605.7216   -4478.7846   -4605.7216            0    763.98492      17.8966    23.357593    22.025186    9207.0013    479.02514    59.705487    1753.2241   -135.25255    168.01513    248.59949   -4376.2008 
33087000    71.699762   -4606.1997   -4483.3087   -4606.1997            0    2045.5389    17.891251    23.328212      21.9165     9147.309    1761.9903    2220.5454    2154.0809    24.037408   -244.86542   -99.028965   -4210.4254 
33088000    75.225634   -4596.1525   -4467.2184   -4596.1525            0    639.53509    17.885194    23.251261    22.153305    9212.5249    931.44067    923.42003    63.744587    613.37575    175.72808   -379.66037   -4381.2935 
33089000    70.426067   -4609.2322   -4488.5243   -4609.2322            0    1545.3408    17.904024    23.345503    21.960031    9178.8196    1620.9775    1321.3706    1693.6743   -22.788041   -615.67264   -8.9026802   -4281.6593 
33090000    75.856269   -4607.6175   -4477.6025   -4607.6175            0    2585.3413    17.883775    23.312092    21.899484    9130.0746    2429.6591    2506.9128     2819.452   -379.14433   -79.495155   -373.00027   -4133.3571 
33091000    75.324888   -4614.8092   -4485.7049   -4614.8092            0    3055.1272    17.886487    23.253052    21.895166    9106.5373    3132.7666    2579.9858    3452.6291   -351.77419     76.97062     85.07494    -4079.955 
33092000    79.185486   -4608.2759   -4472.5547   -4608.2759            0     2316.735    17.991434    23.342693    21.768257    9141.9827    1717.1796    2959.1308    2273.8945   -137.09516    365.15345    555.79422   -4163.6726 
33093000    74.474458   -4612.6122   -4484.9655   -4612.6122            0    1990.8572    17.892059    23.231706    22.031564     9157.707    2522.3921    2728.0107     722.1687   -219.91657    126.90321   -307.75369   -4219.0751 
33094000    74.917432   -4609.2017   -4480.7958   -4609.2017            0    1983.6068    18.072808    23.207421    21.828105    9155.2151    870.60082    1941.6136    3138.6061   -610.14683    335.83149    246.43896   -4215.9458 
33095000    72.850343   -4607.6055   -4482.7425   -4607.6055            0    2049.6048    17.983881    23.203186    21.906181    9141.0843    2058.0631    2164.2241    1926.5272   -298.32534   -47.573476   -405.94857   -4209.5028 
33096000    78.198975   -4606.6362   -4472.6059   -4606.6362            0    2186.2173    18.000296    23.186207    21.925948    9150.9826     1635.419    2701.4362    2221.7968   -468.38608    216.19156   -441.01569   -4180.8383 
33097000    75.449106   -4607.3124   -4477.9953   -4607.3124            0    2238.8338    17.933707    23.323054    21.855515    9141.4805    2249.5714    1794.2826    2672.6475   -72.316005   -264.96593   -227.92288   -4179.5159 
33098000    74.541002   -4614.8053   -4487.0446   -4614.8053            0    1468.2395    17.794791    23.389339    22.033014    9170.3257    1670.5893    1181.2337    1552.8954    -468.9525   -45.737648   -148.59946   -4290.6825 
33099000     76.45016   -4605.5581   -4474.5252   -4605.5581            0    1745.2079    17.766283    23.491654    21.930801    9153.0253    2449.3157    1348.0442    1438.2639   -508.04793   -73.286246     -312.203   -4241.5618 
33100000     73.54878   -4610.5885   -4484.5284   -4610.5885            0    1834.3539    17.756948    23.502001    21.943583    9157.5798    2249.4352    701.56524    2552.0613   -267.24311    235.64044    621.06998   -4239.5433 
33101000    77.153648   -4621.6639   -4489.4252   -4621.6639            0    1760.8139    17.939276    23.238082    21.981112    9163.3619     1580.166    2484.7323    1217.5434    247.24559   -96.509055    539.14269   -4254.1131 
33102000    77.750101   -4608.5448   -4475.2838   -4608.5448            0    2044.9602    17.946116     23.31275    21.868852    9149.3438    1577.6579    1714.8692    2842.3536   -251.26667     273.3951    559.47164    -4202.417 
33103000    76.092515   -4605.9206   -4475.5006   -4605.9206            0    1680.9137    18.003198    23.252946    21.915748    9174.5324    1796.9255    2065.6879    1180.1279    609.86716   -350.33179    256.60992   -4250.5924 
33104000    77.084442   -4612.3806   -4480.2605   -4612.3806            0    1685.2246    18.011818    23.332517    21.807069    9164.6616    1335.4488    708.04397     3012.181     134.5889   -463.46345   -131.47636   -4255.0181 
33105000    76.927549   -4602.9023   -4471.0511   -4602.9023            0    2096.5517    17.943525      23.3252    21.824965      9134.54     2687.373    2168.6766    1433.6055   -350.46112   -64.051306    372.05092   -4191.7529 
33106000    72.173115   -4609.3545   -4485.6523   -4609.3545            0    1494.8053    17.784604    23.380283    22.027565    9159.2615    1595.5189    1258.8594    1630.0375    168.65359   -584.59849    221.71261   -4285.9785 
33107000    76.435249     -4615.72   -4484.7126     -4615.72            0    1780.7726    17.835025    23.415353    21.925035    9156.1886    1951.5581    1808.5698    1582.1899   -283.37595     31.32079    107.50366   -4246.9196 
33108000    69.137253   -4596.5362   -4478.0374   -4596.5362            0     2450.846    17.861259    23.326753    21.883811    9117.7845    2215.7698    1847.8793     3288.889   -209.00033    342.69284    648.73334   -4152.1397 
33109000     74.14419   -4609.1503   -4482.0697   -4609.1503            0    2143.0996    17.945436    23.156081    22.031867    9155.2537    2959.6618    2752.9826    716.65451   -70.223145    140.72709    46.241094   -4195.9231 
33110000    74.591031    -4609.699   -4481.8525    -4609.699            0    2224.9552    17.866504    23.255643    21.982658    9133.7297    2195.4925     2021.856    2457.5172   -467.34993    119.32761    266.60522   -4185.4749 
33111000    79.018859   -4611.5547   -4476.1191   -4611.5547            0    1919.4031    17.991105    23.282882    21.857471    9155.7622    1236.6631    2188.8126    2332.7337    25.892637   -235.82093    48.631889   -4219.8261 
33112000     76.44115   -4608.7139   -4477.6964   -4608.7139            0     2082.386    17.893346    23.257406    22.013007    9160.7747    2712.5734    1978.2213    1556.3633    -153.3833   -108.63266   -329.35194   -4199.4886 
33113000    74.379454    -4606.526   -4479.0422    -4606.526            0    1973.9474    18.018986    23.302518    21.795065     9151.481    1436.4859    2415.2803    2070.0759    72.923105    210.74807   -366.96246   -4215.5894 
33114000    74.524763   -4593.0417   -4465.3088   -4593.0417            0    1871.1377    17.840775    23.245483    22.088823    9160.6201    1918.5884    2564.1816     1130.643     85.44743    298.74135   -175.44478   -4215.3281 
33115000    75.764049   -4602.8802   -4473.0232   -4602.8802            0    2090.0468    17.902839     23.17613    22.012846    9133.5376    2905.8297    2107.7171    1256.5935    204.38353    306.04561   -301.02354   -4194.6221 
33116000    71.929922   -4607.0076   -4483.7222   -4607.0076            0    1924.5679    17.977632    23.251906    21.901033     9154.943    1992.3015    1527.1902     2254.212   -660.80798   -326.97134     -87.0016   -4226.7626 
33117000    74.636864   -4617.7565   -4489.8314   -4617.7565            0    1881.9097     17.93014    23.195751    22.025044    9160.2832    1825.1933    1718.0366    2102.4993   -331.10622    121.97182   -419.12357   -4238.4208 
33118000    75.116792   -4611.8006    -4483.053   -4611.8006            0    2824.5302    17.893585    23.161075    21.970615    9105.3845    2692.0726    3014.5893    2766.9289    72.164726   -408.29448     239.3058    -4107.976 
33119000     77.20312   -4608.9374   -4476.6139   -4608.9374            0    1649.4087    17.997982    23.279538    21.876806    9166.0472    2059.8804    1687.8467     1200.499    562.29279   -109.67215   -259.72764   -4256.1252 
33120000    73.977204   -4610.4071   -4483.6127   -4610.4071            0    2153.1037    17.997379    23.225492    21.846013    9131.5896    1211.0153    2747.8748     2500.421   -20.713616     233.2543    133.16062   -4196.8734 
33121000    78.290254   -4615.8985   -4481.7117   -4615.8985            0    2653.8566    17.883381    23.424161    21.728216     9102.019    2833.2139     1653.235    3475.1208   -128.63238    53.377046   -64.839497   -4129.4292 
33122000    76.857707   -4603.9418   -4472.2103   -4603.9418            0    1184.1629    17.891788    23.371152    21.974077    9188.4976    1105.6043    1145.5003    1301.3841    24.690014    112.10235    36.933905   -4313.5268 
33123000    69.587487     -4607.68   -4488.4094     -4607.68            0     2300.531    17.923278    23.299549    21.873242    9134.3597    1988.7258    2192.5592    2720.3079   -261.45449   -373.50796    421.29064   -4181.9436 
33124000    78.053671   -4605.2974   -4471.5161   -4605.2974            0    1719.3898    17.915262     23.27645    22.008537    9177.6412    2299.0332    1532.2303    1326.9059    499.16709   -527.42655    120.92755   -4241.3818 
33125000     78.27403   -4603.6827   -4469.5237   -4603.6827            0     1635.745     17.95927    23.355182    21.872256    9174.1431    1862.2602    1679.5101    1365.4648    29.367002   -178.85998    156.58152   -4250.6684 
33126000    73.718544    -4606.741   -4480.3899    -4606.741            0    1576.2588    17.958012    23.287107    21.933973    9172.5714    1957.1017    1420.4314    1351.2433   -503.64304    138.21614   -46.082244   -4269.5298 
33127000    74.838832   -4603.4065   -4475.1353   -4603.4065            0    2341.0604     18.01775    23.226355    21.841765    9140.4872    2492.8702    2649.1464    1881.1647    323.54855    30.185952   -161.94505   -4163.0611 
33128000    74.288752    -4604.282   -4476.9536    -4604.282            0    2256.9604    18.032262    23.170658    21.892591    9147.1485    1138.0759    2723.2803    2909.5249     142.1407    -34.96363    130.77676   -4175.8711 
33129000    78.016457   -4603.6951   -4469.9775   -4603.6951            0    3099.3408    17.945561     23.14923    21.925008    9108.2168    3514.2595    3262.1475    2521.6155    192.33172   -668.13909    32.548592   -4058.2797 
33130000     74.88792   -4614.0366   -4485.6812   -4614.0366            0    1676.7215     17.95056    23.171123     22.02476    9160.8603    1951.2774    1861.0656    1217.8214    562.48507   -370.97544   -106.98183   -4261.6683 
33131000    75.353303   -4614.2492   -4485.0962   -4614.2492            0    2213.2216    17.825867    23.354353    21.939923    9133.8443    2447.2795    2064.7914    2127.5939   -276.36396    97.756776    249.07544   -4190.2779 
33132000    77.206499   -4602.1314   -4469.8021   -4602.1314            0    1854.6099    17.920052    23.265025    21.982576    9164.7658    2284.1343    1801.0617    1478.6335   -139.59236   -22.818241    337.07372   -4221.9173 
33133000    74.563787   -4613.2165   -4485.4167   -4613.2165            0    1370.0631    17.939235    23.290751    21.957951    9174.4331    1599.2266    1547.9078    963.05493   -100.25498   -197.84737    297.44473   -4302.1027 
33134000    72.328608    -4609.872   -4485.9033    -4609.872            0    2627.8266    17.916331    23.228869    21.914755    9120.3972    2552.7559     2802.111    2528.6131   -197.13494   -120.09503    -288.9871   -4136.3717 
33135000    70.445086   -4609.1579   -4488.4174   -4609.1579            0    2327.9887    17.916053    23.305601    21.869179     9131.353    2715.3853    2329.1232    1939.4578    186.27549   -122.52635    94.084147   -4178.3959 
33136000     75.02521   -4606.6445   -4478.0539   -4606.6445            0    1893.7699    17.930029    23.306656    21.889624    9147.4333      805.455    1920.0108    2955.8438    253.23277   -161.40621    83.456065   -4225.4138 
33137000    74.258986   -4613.7935   -4486.5161   -4613.7935            0    1969.7614    17.911146    23.452077    21.779611    9148.6034    2107.7689    1690.9792     2110.536   -34.263791    185.61631   -390.26599   -4223.7046 
33138000    75.355329   -4607.2031   -4478.0467   -4607.2031            0     1934.168    17.889576    23.332062    21.917126    9148.2237    1274.9703    2302.6828     2224.851   -695.44856    192.34744    390.65752   -4219.9949 
33139000     67.61319   -4609.0974   -4493.2107   -4609.0974            0    1748.2605    17.839305    23.434561    21.887378    9150.1557    2084.8106    1613.5393    1546.4315   -853.62016   -426.64838    158.24019   -4259.9129 
33140000    74.567738   -4607.9037   -4480.0972   -4607.9037            0    889.84153    17.874062    23.469833     21.91111    9191.7381    1464.6309    606.81962    598.07407   -192.41738    168.66811   -57.298545   -4360.8121 
33141000    72.524444   -4613.7009   -4489.3965   -4613.7009            0    1832.4854    17.839964    23.302791    22.031726    9159.0503    2296.7182    1934.6601    1266.0779   -590.47214   -719.87462    23.132408   -4244.6216 
33142000    76.504542   -4615.6051   -4484.4789   -4615.6051            0    1385.1218    17.874473    23.394303    21.928954    9169.8298    1512.8029    1284.4964    1358.0663   -42.103069   -429.35752   -109.06155    -4299.243 
33143000      73.1074   -4609.3503   -4484.0467   -4609.3503            0     983.6055    17.940621    23.422099    21.879304    9193.8371    831.61963    938.58976    1180.6071    60.015099    -412.3229   -216.70966   -4352.1623 
33144000    73.859929   -4605.6535   -4479.0601   -4605.6535            0    2308.7449    17.934078    23.202848    21.931314    9126.0954    1526.3704    3694.0786    1705.7856   -204.34438   -119.89988   -329.62788   -4171.7783 
33145000    75.788476    -4601.726   -4471.8271    -4601.726            0    1737.2379    17.931294    23.285579     21.93031    9156.7938     1760.434    2030.5128     1420.767    388.77006   -99.035632    139.10324   -4239.8321 
33146000    71.506023   -4606.5873   -4484.0285   -4606.5873            0    1844.1887    18.068515    23.164721    21.897171    9165.1071    774.70906     2621.114    2136.7431   -432.00774   -22.629432    -456.7474   -4237.5274 
33147000    71.482072   -4610.7888   -4488.2709   -4610.7888            0    2194.6838    17.932735    23.154917    21.999502    9134.8752    2050.4991    2775.2822    1758.2701   -69.891489   -114.61832    379.15724    -4195.889 
33148000    71.399539   -4611.4308   -4489.0545   -4611.4308            0    2021.3769    17.937167    23.276372    21.873649    9132.5144    1393.5544    2849.5115    1821.0647   -962.60382   -224.14233   -284.68988   -4219.8306 
33149000    79.678015   -4604.7478   -4468.1824   -4604.7478            0    2490.7507     17.87509    23.241356    21.932456    9111.6487    2292.8042    2251.7609    2927.6871   -78.237129    146.80224    115.37644   -4137.2014 
33150000    75.166687   -4610.2226   -4481.3895   -4610.2226            0    1977.5666     17.98588    23.178584     21.93407    9144.0339    1416.0211    2877.4796    1639.1992   -108.10873    446.89758   -183.23649   -4217.6684 
33151000     77.19832   -4605.2829   -4472.9676   -4605.2829            0     2451.585    17.903757    23.371338    21.798301    9121.1664    2420.3115    2229.7345    2704.7091     326.8057   -302.00596    328.53748   -4146.8508 
33152000    72.487628   -4614.3205   -4490.0792   -4614.3205            0    1548.8448    18.070321     23.31796     21.73015    9156.2819    1425.1837    1314.6316    1906.7192   -285.49335    19.228146    92.334272   -4283.2543 
33153000    75.336927   -4605.8524   -4476.7275   -4605.8524            0    2556.4913     17.93046    23.161919    21.963498    9121.5255    1281.0756    3503.4498    2884.9484   -101.96766   -165.63895   -155.00026   -4136.6423 
33154000    71.138741   -4608.5087   -4486.5793   -4608.5087            0    1477.1325    17.761218    23.446707    22.047839     9181.648    2376.9498    869.57475     1184.873    415.38595   -350.46884   -40.861448    -4288.784 
33155000     75.54119   -4610.7813   -4481.3063   -4610.7813            0    1986.3711    17.866432    23.276847    21.980302    9141.0406    2066.8343    1957.8239     1934.455   -64.692112    330.65968   -454.81929   -4216.4978 
33156000    72.899301   -4619.4098   -4494.4629   -4619.4098            0    1313.1413    17.833283     23.49604    21.915437    9182.8208     2126.746    890.54896     922.1289    111.76113   -213.17549    219.25775   -4318.6044 
33157000    71.188251   -4605.5812    -4483.567   -4605.5812            0    2093.3172    17.856584    23.381416     21.90421    9145.2756      1366.52    2451.2558    2462.1758   -108.53996    128.93977    358.48014   -4204.3719 
33158000    73.987417   -4612.5031   -4485.6912   -4612.5031            0    1817.3676    17.890987    23.392323    21.869362    9152.5851    2357.7473    1632.5797    1461.7759    308.08447   -142.94898    434.89163   -4243.1071 
33159000    76.234625   -4610.2444   -4479.5808   -4610.2444            0    2507.6922    17.837892    23.419241    21.880522    9140.5859    2506.3009    2684.5893    2332.1864    210.12068   -4.8024586   -405.09169   -4145.2903 
33160000    77.884336    -4604.446   -4470.9549    -4604.446            0    2434.2512    17.913249    23.394326     21.81073    9140.1875    2235.0176    1531.7064    3536.0294   -13.335073   -518.50681    126.68736   -4146.4686 
33161000    70.330986   -4609.5513   -4489.0064   -4609.5513            0    2417.8709    17.891078    23.312947    21.919836    9142.6269    2363.5498    3173.7237    1716.3392   -645.26074    466.29216    279.21401   -4166.6176 
33162000    74.721975   -4610.9595   -4482.8886   -4610.9595            0    1578.8956    17.949207    23.407514    21.810632    9163.6564    1644.9401    1646.6346     1445.112    376.24313   -266.71692    9.1953399    -4271.881 
33163000    73.837387   -4604.6812   -4478.1264   -4604.6812            0    1934.4187    17.970966    23.292021     21.87819    9157.7751    1057.1035    1946.6013    2799.5512    -90.77401   -662.41889   -41.060146   -4219.7717 
33164000    75.602558    -4613.865   -4484.2848    -4613.865            0    1670.7886     17.84404    23.307992    22.050956    9171.1855    1978.9522    2138.1579    895.25579    277.69334    21.693781   -275.10203   -4260.8129 
33165000    72.834891   -4603.9927   -4479.1562   -4603.9927            0     1999.326    17.976327     23.26869    21.845079    9137.4812    2058.1585    1602.4052    2337.4142   -162.39895    535.39262   -59.852809   -4212.7245 
33166000    75.219446   -4603.5973   -4474.6737   -4603.5973            0    2131.9343     17.90544    23.265272    21.977067     9155.095    2938.3001    1827.7498    1629.7531    456.19922    -189.1498      37.1149   -4190.0228 
33167000    73.654675   -4614.3065   -4488.0649   -4614.3065            0    1210.6757    18.090348    23.165476    21.900246    9177.7697    1550.8548    518.62476    1562.5474   -258.42492   -217.41836    27.697844   -4326.0179 
33168000    80.787704   -4607.5014   -4469.0341   -4607.5014            0    1500.3613    17.971465    23.167654    22.017517    9167.1404    1739.1377    1427.2034    1334.7429    427.78203   -288.55696    104.02449   -4268.4458 
33169000    77.216302   -4600.2347   -4467.8886   -4600.2347            0     2219.253     18.02764    23.147239    21.865682    9124.3323    2076.3057    2539.0939    2042.3595    742.13728    11.094934    156.03449   -4172.5748 
33170000    74.757783   -4608.1294   -4479.9971   -4608.1294            0    2266.2568    17.959612    23.182273    21.917206    9125.1108    2769.2159    2248.1766     1781.378   -471.08291    274.03813    151.67484   -4178.4028 
33171000    75.559415   -4608.8238   -4479.3175   -4608.8238            0    2925.1504     17.97021    23.100581    21.944374     9109.599    2533.0903    3724.4773    2517.8835    306.57443    248.85721    542.76763   -4090.6992 
33172000    74.360101   -4607.6581   -4480.2074   -4607.6581            0    2431.1152    17.895426    23.255133    21.946365    9133.2105    2442.1852    2308.7483    2542.4122   -386.60045    254.39037    183.19036   -4156.3865 
33173000     74.68695   -4610.4875   -4482.4767   -4610.4875            0    1995.5973    18.024458    23.207046    21.880256     9152.389    1486.8106    2899.5321    1600.4492    249.40583   -284.93849   -329.82585   -4216.1079 
33174000    73.001566   -4610.0124   -4484.8903   -4610.0124            0    1722.3258    17.884036    23.346906    21.944725    9162.7327    2410.5438    971.21307    1785.2206    -73.35996     7.251887   -722.39338   -4254.7375 
33175000    76.186391   -4605.4949   -4474.9141   -4605.4949            0    1844.3594     17.90791    23.406669    21.854747    9160.7347     709.3251    3220.8022     1602.951   -397.09768    66.140757    399.08596   -4228.5078 
33176000     72.83391    -4608.881   -4484.0462    -4608.881            0    1562.2225    17.928152    23.317482    21.957513    9179.1045    960.72709    1490.5539    2235.3864   -132.39995   -173.66391   -195.80868   -4274.9148 
33177000    77.468743   -4604.8319   -4472.0531   -4604.8319            0    2218.9336    18.009939    23.271622    21.834941    9151.4715    1672.2004    2656.2579    2328.3425    619.48209    -446.3682   -110.69029   -4175.9035 
33178000    74.865533   -4602.2968   -4473.9798   -4602.2968            0      1973.99     17.86999    23.360312    21.923562    9151.9591    2375.5868    2017.5663    1528.8168      57.3298    225.64018    84.605216   -4210.5076 
33179000    74.798231   -4609.1225   -4480.9209   -4609.1225            0    1836.6816    17.874947    23.273369    22.014276    9158.1645    2540.0861    1271.6152    1698.3434    348.10561    197.18646   -64.194701   -4235.6093 
33180000    77.139308   -4614.1779   -4481.9637   -4614.1779            0    2017.6451    17.893235    23.417826    21.839547    9151.2214    2170.3348    1405.3892    2477.2114    165.61191    463.97955   -244.49427   -4212.6864 
33181000    79.087058   -4613.3242   -4477.7716   -4613.3242            0    1792.1853     17.93423     23.38347    21.851388    9163.6972    1880.4722    1259.2368    2236.8469   -303.95957    -74.03335    84.205423   -4238.2584 
33182000     77.48015   -4601.1164   -4468.3181   -4601.1164            0     2311.754    17.944096    23.314533    21.855064    9143.2455    2006.5373    1999.2965    2929.4281   -98.800228    -41.33956    1.6943049   -4160.0576 
33183000    74.345457   -4611.4733   -4484.0477   -4611.4733            0    1774.5882    17.837479    23.345425    21.998131    9160.5393    1354.1182    2075.2078    1894.4385     205.4536   -83.118075    99.871661   -4246.9679 
33184000    73.486834    -4610.874   -4484.9201    -4610.874            0    2111.9757    18.016039    23.295475     21.79934    9149.0126    2297.5605    1821.2395    2217.1271   -608.51619    9.2685344    89.907861   -4203.1214 
33185000    74.300323   -4599.5942    -4472.246   -4599.5942            0    1831.2936    17.921852    23.190493    22.046579     9162.924    1919.4912    1378.1052    2196.2844    241.07639     417.5109    681.91593   -4227.5269 
33186000    77.435797   -4606.8088   -4474.0865   -4606.8088            0    1539.4787    18.016352    23.218781    21.928418    9173.0465    1484.8765    2441.8324    691.72713   -550.67942    16.748603    163.93805   -4268.1358 
33187000    74.242878   -4608.4263   -4481.1765   -4608.4263            0    2045.6339    17.919247    23.127872     22.05932     9142.133    2179.0251    2262.1048     1695.772   -880.40742    132.40856     -26.4705    -4208.435 
33188000    80.698605   -4606.1565   -4467.8419   -4606.1565            0    2453.2826    17.939824    23.140147    22.011934    9137.8183    2432.0512    2491.8273    2435.9695   -243.23039   -6.2955357    195.61974   -4140.9034 
33189000    67.168056   -4602.5157   -4487.3919   -4602.5157            0    1427.2326    17.927421    23.333933    21.946196    9180.4724    1866.2341    1142.8179    1272.6459   -198.88629   -256.98074    41.246786   -4296.3029 
33190000    78.777542   -4601.8753   -4466.8533   -4601.8753            0    1738.2953    17.965572    23.114891    22.049287    9156.4565    1952.2576    1773.2708    1489.3576   -446.13719   -86.294411    703.42218   -4234.7257 
33191000    74.177667   -4603.3003   -4476.1623   -4603.3003            0    2570.3361    17.967569    23.187958    21.916407    9131.0599    1326.6744     4000.112    2384.2218   -201.41478    -187.6963   -26.978791    -4133.878 
33192000    76.582049   -4606.4288   -4475.1698   -4606.4288            0    2666.5058    17.932246    23.224603    21.908973    9124.4148     2631.853    2612.1067    2755.5578    900.64254    240.34968    229.42029   -4120.3373 
33193000    75.385337   -4605.6024   -4476.3945   -4605.6024            0     2171.924    17.969069    23.176353    21.973763    9151.1383    2065.0203    2257.6421    2193.1097    437.51117   -798.99688    449.46609   -4186.5296 
33194000    77.208747   -4603.6803   -4471.3472   -4603.6803            0    1458.4695    17.873725    23.371025     21.94417    9166.6785    2457.3014    1275.2571    642.84985    206.32034   -94.889577   -25.506024   -4276.3693 
33195000    75.717799   -4613.0074   -4483.2296   -4613.0074            0    1343.6006    17.823636    23.430774    22.001923    9188.4775    2826.0895    650.00591     554.7063    208.46702   -302.23913    104.97987   -4303.1811 
33196000    75.591842   -4610.8177   -4481.2559   -4610.8177            0    1624.1975    17.893934    23.407662    21.893864    9170.3579    1441.9388    1435.3455    1995.3082    277.29397   -424.07758    288.27412   -4264.0353 
33197000    73.162219   -4604.4236   -4479.0261   -4604.4236            0    1443.9049    17.833942    23.458535    21.921178    9170.9034    1149.2625    1309.6776    1872.7746    495.75565   -483.68533    155.92678   -4285.9064 
33198000    75.016757    -4606.631   -4478.0548    -4606.631            0    1962.9515    17.892722    23.393949    21.888293    9162.0329    2245.1226    1568.6174    2075.1146   -981.07457   -97.393119   -33.117921   -4215.7675 
33199000     80.00717    -4609.629   -4472.4995    -4609.629            0    1690.4348    17.895967    23.433957    21.847175    9162.1221    2234.5605     1508.043    1328.7009    60.030981   -25.323424    463.31656   -4246.6233 
33200000    74.640459    -4607.266   -4479.3348    -4607.266            0    3052.4688    17.895598    23.329144    21.833978    9115.4453     2643.044    2530.3358    3984.0265   -291.20704    182.47229    159.27045   -4073.5413 
33201000    77.772034   -4612.8873   -4479.5887   -4612.8873            0    1311.9737    18.001053    23.364694     21.83832     9184.959    1010.7301    823.03211    2102.1589    262.02187   -33.816126   -77.295467   -4303.8456 
33202000     75.18694   -4606.0412   -4477.1734   -4606.0412            0     1672.426    17.906204    23.380588    21.882517    9161.2811    1670.5815    834.43175    2512.2647   -5.2501706   -516.22698     7.203527   -4253.7241 
33203000     74.58708   -4612.6882   -4484.8485   -4612.6882            0    2319.5943    18.010118    23.258405    21.817698    9139.1416    2189.7944    2295.9519    2473.0367    231.70152   -275.92676     116.5467   -4175.6814 
33204000    70.262019   -4605.4594   -4485.0327   -4605.4594            0    1930.3296    17.827206    23.430815    21.918957    9155.6793     1896.541    1877.7055    2016.7423     258.0943   -887.60467   -401.18926   -4227.2831 
33205000    72.623405   -4612.5387   -4488.0647   -4612.5387            0    2539.7497    17.929219    23.259217    21.857307    9114.9253    1718.0084    3086.6141    2814.6267    -159.2033    23.157412    452.90395   -4150.4511 
33206000    70.066042   -4605.3038    -4485.213   -4605.3038            0    2859.0124    17.816389    23.340474    21.910507    9111.3299    2745.2451    2327.6238    3504.1684   -50.421227   -614.57878    17.301395   -4105.3091 
33207000    73.858237   -4606.5275    -4479.937   -4606.5275            0    2287.1678     17.92611     23.21599    21.965391    9141.3895    2825.5175    2102.3157    1933.6703   -145.55841   -17.402305   -312.31905   -4175.0169 
33208000     79.71993   -4608.9553   -4472.3181   -4608.9553            0    2415.9404    17.934997    23.076034     22.04757     9124.797     2935.935    2711.4795    1600.4068   -647.07351    381.38555     382.1328   -4150.8149 
33209000    74.786665   -4609.6072   -4481.4254   -4609.6072            0    1952.9169    18.047576    23.150766    21.936317     9165.327    1486.3688    2211.5617    2160.8201    -36.32555    22.276198    68.206428   -4220.3851 
33210000    78.791735   -4605.8137   -4470.7673   -4605.8137            0    2209.7641    17.873292    23.253934    22.004778    9145.7215    1641.1235    1922.6475    3065.5214    455.11979   -277.50731     39.31543   -4176.0268 
33211000    74.464956    -4608.339   -4480.7086    -4608.339            0     1601.404    17.922247    23.304019    21.947064    9166.4191    1939.6723    1758.2802    1106.2595    97.976561   -220.02448    261.73604   -4266.6284 
33212000    75.515137   -4605.8592   -4476.4288   -4605.8592            0    2296.2488    18.006447    23.227014    21.817724    9124.9575     2085.358    2684.8699    2118.5187   -296.82803     463.3472    341.74707   -4170.8483 
33213000    74.829789   -4602.0366   -4473.7809   -4602.0366            0     2088.401    18.014908    23.193696    21.890538    9146.5742    814.55295    2875.5235    2575.1265    104.08995    225.74545    597.21792    -4195.202 
33214000    74.006409    -4608.505   -4481.6606    -4608.505            0    1779.6609    18.087912    23.156944     21.84395    9149.5735    1812.9061    1499.3952    2026.6815    205.86742   -593.46072   -15.848589   -4244.1877 
33215000     71.81212   -4617.3723   -4494.2887   -4617.3723            0    2778.4146    17.984024    23.252504    21.787795    9111.0803    2595.7179     2820.107    2919.4189   -830.66056    270.79383   -62.076507   -4125.1048 
33216000    74.043694   -4611.1087   -4484.2003   -4611.1087            0     2133.449    17.849846    23.351229    21.949273    9148.8046    2358.9956    2552.2782    1489.0734    655.24574    207.75187    197.13525   -4199.5429 
33217000     74.94724   -4614.5924   -4486.1354   -4614.5924            0    2700.5545      17.8164    23.325521    21.920183    9109.5195    3103.6694    2197.7405    2800.2537   -557.65199    133.93896    187.43526   -4127.3586 
33218000    77.421596   -4610.3341   -4477.6361   -4610.3341            0       1559.9    17.839683    23.399663    21.986421    9178.0678    1870.2311    1721.8091    1087.6596     45.87389    339.73607   -118.50361   -4268.8393 
33219000    73.165425   -4601.8764   -4476.4733   -4601.8764            0    1347.0468     18.02924    23.264878     21.87763    9176.5296    609.75346    1319.0228    2112.3642   -470.99484   -132.86384    333.34395   -4296.1977 
33220000    72.311506    -4610.181   -4486.2415    -4610.181            0    1329.3859    17.940281     23.40409    21.880734    9187.1939    1255.3354    1661.7278    1071.0944    6.7281232   -332.28171    108.55601   -4308.1227 
33221000    74.704938   -4610.0857    -4482.044   -4610.0857            0    1618.1901    17.883643    23.480609    21.870973    9184.0336    2208.3427    1139.2938    1506.9338    -543.5705    43.829243   -93.699139   -4265.3041 
33222000    75.125209    -4613.046    -4484.284    -4613.046            0    2124.7011    17.824545     23.43551    21.878099    9139.0791    3102.5982    1442.5396    1828.9654    448.19566    295.42764    140.54958   -4201.0951 
33223000    73.547503   -4610.8502   -4484.7923   -4610.8502            0    1435.7786    17.846746    23.478097    21.905737     9178.671    1392.0383    1514.4273    1400.8702   -604.26171     243.3382    43.489997   -4292.5968 
33224000    74.539836   -4607.4319   -4479.6731   -4607.4319            0    1180.7142    17.926393    23.381011    21.914459    9185.1652    822.27319    1178.0168    1541.8528    43.649239   -40.503563    54.789403   -4321.5091 
33225000    72.326707   -4609.5102   -4485.5447   -4609.5102            0     1551.359    17.967231    23.315793    21.925816    9185.1684    1517.4669    2161.6695    974.94075   -186.86093    166.86232    486.78487   -4277.7305 
33226000    74.933379   -4609.0644   -4480.6312   -4609.0644            0    1630.8362    18.070349    23.193176    21.863781    9163.3023    563.55463    2368.1434    1960.8105   -67.665717   -33.109386   -365.52809   -4262.6905 
33227000    81.293174    -4602.515   -4463.1813    -4602.515            0    2304.8977    17.978337    23.094131    22.039949    9150.8562    1986.7353    2538.2643    2389.6936   -357.94736   -91.513177   -240.75505   -4155.5792 
33228000    78.649713   -4608.5683   -4473.7654   -4608.5683            0    1876.5836     17.95083    23.136314    22.030349    9149.5574    1374.1879    1714.8045    2540.7584   -184.41236   -0.1657466    427.24659   -4223.3599 
33229000    80.929973   -4614.8845   -4476.1733   -4614.8845            0    2410.3329    17.918199    23.304262    21.875314    9134.4834    2455.5131     2677.505    2097.9805   -257.04105    116.35355   -30.585186   -4155.0758 
33230000    77.302504   -4601.6374   -4469.1435   -4601.6374            0    2179.5433     17.95632    23.275215    21.893987    9150.3118    1869.0656    2380.7679    2288.7964    159.62243   -89.194688    46.371066    -4178.288 
33231000    76.134087   -4603.5708   -4473.0795   -4603.5708            0    2179.3353    18.099353    23.173682    21.815038    9149.8521    2055.4572    2790.6615    1691.8872   -286.89153    154.67614     73.26473   -4182.2664 
33232000    74.574234   -4604.3529   -4476.5353   -4604.3529            0    2504.6691    17.957665     23.16498     21.91247    9115.3453    2399.8091    2406.1302    2708.0681     54.52187   -166.20299      158.156   -4143.5697 
33233000    71.752221   -4604.7129   -4481.7321   -4604.7129            0    2520.4244    17.922683    23.211584    21.921854    9119.7951    2157.9678    2982.1294    2421.1759   -621.23656    177.75084   -551.52888   -4146.5084 
33234000    76.966256   -4603.8512   -4471.9337   -4603.8512            0    1584.2533    17.874826    23.303001    22.001855    9164.5888    2185.2317    1559.8598    1007.6685   -1158.3042   -53.143245    129.28516   -4260.1885 
33235000    75.126388   -4614.6434   -4485.8794   -4614.6434            0    2168.4683    17.901674    23.305298    21.903773    9138.3385    2259.2536      1940.12    2306.0314   -147.52093    469.68982    119.62043   -4196.8805 
33236000    74.512162    -4609.696   -4481.9847    -4609.696            0    2226.5353    17.970909    23.251692    21.897922    9150.1353    3141.3603    1117.5616    2420.6841    188.56204   -160.18858    54.792709   -4184.8639 
33237000    76.155681   -4612.7272   -4482.1989   -4612.7272            0    2021.0745    18.091994    23.149167    21.820865    9138.8966    923.95618    2562.3723     2576.895   -89.992361    432.37675    291.09037   -4212.8272 
33238000    75.507542   -4603.2206   -4473.8033   -4603.2206            0    2270.0062    17.920247    23.184265    22.007411    9143.3694    2371.9479    2687.4707    1750.6001   -368.24467    36.544375    -63.86948   -4171.1055 
33239000    76.497239   -4608.1833   -4477.0696   -4608.1833            0    2018.9646    17.896774     23.19717    21.974588    9122.8499      1935.03    1871.6113    2250.2524     42.32086   -198.10121    -68.90641   -4208.4516 
33240000    72.496634   -4603.7233   -4479.4665   -4603.7233            0    1748.1666    17.924796    23.174268    22.038792    9154.7823    2161.0178    1842.0681    1241.4138    33.635472     311.0139    776.95221   -4246.0634 
33241000    74.644455   -4615.2521    -4487.314   -4615.2521            0    1805.9997    18.016069    23.304264    21.824095    9162.8733    1906.7903    1729.5895    1781.6193   -129.89654    99.304626    234.72239   -4245.9763 
33242000    77.779673   -4613.1777    -4479.866   -4613.1777            0    2340.5049    17.962931    23.221792    21.873655    9124.1893    2769.3342    2142.2709    2109.9095   -219.91939   -111.46988    126.96814   -4168.4222 
33243000    75.984403   -4601.9074   -4471.6727   -4601.9074            0    2883.6182    17.946516    23.282142    21.814247    9114.7196    2270.3357    2961.2337    3419.2851    555.51589   -99.863359    304.39367   -4088.3567 
33244000    76.592604   -4605.1949   -4473.9178   -4605.1949            0    2011.0374    17.867741    23.426307    21.837508    9140.6388    2862.2877    1132.3108    2038.5137    138.91295    122.43356     6.865648   -4205.8328 
33245000    76.824175   -4604.6435   -4472.9695   -4604.6435            0    2254.4722    17.965568    23.232246     21.93441    9154.9948    2290.9407    2778.0623    1694.4135     82.50873    33.235594   -576.47959    -4171.961 
33246000    73.638677   -4606.3453   -4480.1311   -4606.3453            0    1919.2217    17.905305    23.317924      21.9245    9153.7976    1822.3674    1650.3196    2284.9782   -293.91728   -382.69149   -332.28247   -4223.9175 
33247000     74.62388   -4610.7481   -4482.8453   -4610.7481            0    1539.4283    17.931193    23.426283     21.85055    9178.5682    2149.6428    1117.2878    1351.3543   -210.70086    392.71046   -290.83968   -4276.7774 
33248000     76.91877   -4604.5875   -4472.7514   -4604.5875            0    1432.1188    17.916322    23.252955    22.040553    9182.2582    1322.4626    2141.6928      832.201   -326.91761    335.14355   -545.96645   -4280.9709 
33249000    71.538298   -4610.7524   -4488.1382   -4610.7524            0    2236.7773    17.966665    23.399823     21.75406    9145.7723    2340.9071    2495.2566    1874.1682    51.471674   -184.92727   -62.980662    -4189.793 
33250000    76.161853   -4598.8314   -4468.2926   -4598.8314            0    2562.6286    17.784835    23.480308    21.869976    9132.7582    3015.9076    1791.4991    2880.4792    338.25424     90.25404   -155.22826   -4126.9712 
Loop time of 379.296 on 64 procs for 250000 steps with 864 atoms

Performance: 113.895 ns/day, 0.211 hours/ns, 659.117 timesteps/s
384.9% CPU use with 16 MPI tasks x 4 OpenMP threads

MPI task timing breakdown:
Section |  min time  |  avg time  |  max time  |%varavg| %total
---------------------------------------------------------------
Pair    | 24.88      | 27.486     | 30.004     |  27.8 |  7.25
Bond    | 1.5609     | 1.8449     | 2.7304     |  21.0 |  0.49
Kspace  | 200.61     | 206.26     | 211.22     |  22.1 | 54.38
Neigh   | 0.17925    | 0.2023     | 0.23186    |   3.4 |  0.05
Comm    | 49.591     | 55.079     | 59.999     |  44.0 | 14.52
Output  | 0.57591    | 0.57617    | 0.57759    |   0.0 |  0.15
Modify  | 61.375     | 68.517     | 74.944     |  51.0 | 18.06
Other   |            | 19.33      |            |       |  5.10

Nlocal:        54.0000 ave          61 max          48 min
Histogram: 5 1 2 1 0 0 0 1 4 2
Nghost:        2558.38 ave        2570 max        2542 min
Histogram: 1 1 1 1 1 1 5 3 0 2
Neighs:        13305.2 ave       15104 max       11884 min
Histogram: 4 3 1 1 0 0 0 2 4 1

Total # of neighbors = 212883
Ave neighs/atom = 246.39236
Ave special neighs/atom = 2.0000000
Neighbor list builds = 686
Dangerous builds = 0

unfix		3
unfix		2
unfix		1

write_data	data.final.${pid} nocoeff
write_data	data.final.1 nocoeff
System init for write_data ...
PPPM initialization ...
  extracting TIP4P info from pair style
  using 12-bit tables for long-range coulomb (../kspace.cpp:340)
  G vector (1/distance) = 0.37203914
  grid = 24 27 25
  stencil order = 5
  estimated absolute RMS force accuracy = 0.0031258852
  estimated relative force accuracy = 9.4135105e-06
  using double precision FFTW3
  3d grid and FFT values/proc = 6300 1296
Last active /omp style is kspace_style pppm/tip4p/omp

write_restart   restart.lmp.${pid}
write_restart   restart.lmp.1
System init for write_restart ...
PPPM initialization ...
  extracting TIP4P info from pair style
  using 12-bit tables for long-range coulomb (../kspace.cpp:340)
  G vector (1/distance) = 0.37203914
  grid = 24 27 25
  stencil order = 5
  estimated absolute RMS force accuracy = 0.0031258852
  estimated relative force accuracy = 9.4135105e-06
  using double precision FFTW3
  3d grid and FFT values/proc = 6300 1296
Last active /omp style is kspace_style pppm/tip4p/omp
Total wall time: 0:06:19
