LAMMPS data file via write_data, version 30 Jul 2021, timestep = 16250000

864 atoms
2 atom types
576 bonds
1 bond types
288 angles
1 angle types

0.5013210526696579 17.706251347331253 xlo xhi
1.6820212509952075 21.94715654900729 ylo yhi
0.6116105133062604 21.601585286683978 zlo zhi

Masses

1 1.00794
2 15.9994

Pair Coeffs # lj/cut/tip4p/long/omp

1 0 0
2 0.21084 3.1668

Bond Coeffs # harmonic/omp

1 450 0.9572

Angle Coeffs # harmonic/omp

1 55 104.52

Atoms # full

102 1 1 0.5897 5.761459251422531 2.030251128120548 2.901586603685295 4 -5 0
445 1 2 -1.1794 3.3949156197439545 1.7112313941277801 5.513034320490836 2 4 -3
439 1 2 -1.1794 7.915351794706644 1.8320370341628747 1.1547540510202459 -3 4 -2
828 1 1 0.5897 0.5579165490276097 3.4236774386764024 4.045488419754275 -5 1 7
531 1 1 0.5897 1.125819519712996 6.623971553463509 3.824598721953855 1 -1 -7
679 1 2 -1.1794 1.047673295711464 5.174390286982698 1.608337976848246 6 -4 -4
183 1 1 0.5897 4.962092550780992 5.292417467102193 4.253784201730664 -6 2 -4
181 1 2 -1.1794 4.40161238456918 5.380730652150029 3.482884746243244 -6 2 -4
295 1 2 -1.1794 2.4615583298566124 3.606661151947083 3.4647385248476503 4 3 -1
296 1 1 0.5897 2.787045035084759 2.8573231040904004 3.9635021015101994 4 3 -1
172 1 2 -1.1794 6.6689455905623705 5.9910290438114275 1.8103719976373953 8 0 -2
681 1 1 0.5897 1.4540516777276897 4.540484089128556 2.19928863522514 6 -4 -4
182 1 1 0.5897 5.012259673178815 5.461323448861762 2.7501904826845927 -5 2 -4
100 1 2 -1.1794 5.453605114165901 2.207483712672564 2.012757447623791 4 -5 0
297 1 1 0.5897 3.1869925352593764 4.2311541184662005 3.468947631082584 4 3 -1
753 1 1 0.5897 7.839123595743553 4.759364710102483 2.809155565611234 0 -3 0
752 1 1 0.5897 8.430914552103985 3.5837158598409102 3.5571843218135384 0 -3 0
174 1 1 0.5897 6.959445892075499 5.702874234906603 0.9450134010595248 8 0 -2
101 1 1 0.5897 6.25259269522391 2.26228097189853 1.4884982640888609 4 -5 0
751 1 2 -1.1794 8.44190419463002 4.022885107520713 2.7067452540845296 0 -3 0
680 1 1 0.5897 1.7819284837497413 5.568392128644579 1.1373432256118865 6 -4 -4
447 1 1 0.5897 4.295612059622098 1.9276191719149773 5.271899622098304 3 4 -3
441 1 1 0.5897 8.280473850969306 2.5123456596207294 1.720502854349368 -3 4 -2
528 1 1 0.5897 6.655324918404807 1.8642203095864442 5.31415312964668 -4 -5 -3
291 1 1 0.5897 8.541652766621638 3.4745329873599404 6.305899642446201 -10 -3 -2
259 1 2 -1.1794 6.085477456287643 2.3186106092054324 8.46572925524519 2 0 8
94 1 2 -1.1794 4.154589319226465 5.456784609088765 7.876435447931056 -7 -1 -3
701 1 1 0.5897 2.559098431402289 2.4998518729221026 8.498721603148379 6 -2 -1
354 1 1 0.5897 8.944548439957824 3.164614893208462 10.145353046220915 7 3 -2
258 1 1 0.5897 2.085222690528311 2.3995279177210325 6.383107476225152 5 0 3
260 1 1 0.5897 5.135479694966785 2.203861275899392 8.442178179826891 2 0 8
700 1 2 -1.1794 3.412701561716439 2.825694714997634 8.784034852462977 6 -2 -1
591 1 1 0.5897 1.0801673058307832 5.667620452910949 10.189822238344366 6 1 3
257 1 1 0.5897 1.3399308613640453 3.6561832487600654 6.779631024061849 5 0 3
289 1 2 -1.1794 7.709005430436727 3.0348860014602326 6.133824126345411 -10 -3 -2
290 1 1 0.5897 7.28368144199176 2.9829179670197514 6.9897456647207905 -10 -3 -2
96 1 1 0.5897 3.5056608192892322 6.048832219446945 7.496203392055538 -7 -1 -3
63 1 1 0.5897 4.046230512862516 2.9770331894292426 10.621575383861865 0 1 3
702 1 1 0.5897 3.445749240861477 3.7263707951340734 8.461646809599578 6 -2 -1
256 1 2 -1.1794 1.4549415586008845 2.736752246673502 7.019697281610658 5 0 3
589 1 2 -1.1794 1.3904437795066271 6.544614070570927 9.964410017181793 6 1 3
65 1 1 0.5897 1.4720276088859685 6.2487086999857775 6.346591265583444 4 1 -1
642 1 1 0.5897 6.897066151286388 2.91838604993554 10.184746145312253 -1 6 -5
95 1 1 0.5897 4.833218312731394 5.3817795097633 7.205585137562094 -6 -1 -3
359 1 1 0.5897 5.495605559427929 6.327909602116681 8.529465733101556 5 7 -8
64 1 2 -1.1794 1.050396508581546 5.442615056317328 6.644327698959772 4 1 -1
640 1 2 -1.1794 7.380680740309102 3.30207777316172 10.91629007758811 -1 6 -5
590 1 1 0.5897 2.293025872637436 6.568878986958609 10.282149585274235 6 1 3
360 1 1 0.5897 6.3100442192610435 6.734015102860386 9.7392972147895 5 7 -8
737 1 1 0.5897 6.409455824547861 5.943650189812372 5.8969228062997 0 1 -1
738 1 1 0.5897 6.528966254276707 4.434529248195918 5.909332054751135 0 1 -1
736 1 2 -1.1794 5.885407714254035 5.143006112999675 5.920388172985667 0 1 -1
251 1 1 0.5897 7.329497692747583 5.081202575524979 11.14884323762674 -2 -9 4
361 1 2 -1.1794 5.142139929676616 5.060564622669869 14.088364468295214 1 -1 -1
363 1 1 0.5897 4.668323345800854 4.908328502482867 14.90600726657099 1 -1 -1
711 1 1 0.5897 0.6324232880051954 3.4769415521189666 11.443387463549236 0 0 1
61 1 2 -1.1794 4.425238027527959 3.1409333702272515 11.485121244969944 0 1 3
727 1 2 -1.1794 1.0808051748812937 4.294884054607911 14.972705322866375 -4 0 3
67 1 2 -1.1794 1.9959674200160566 2.6467570108871774 12.900753946086274 6 -6 -1
419 1 1 0.5897 8.817076625488598 1.9414333469890328 12.549304375841835 -5 -5 4
362 1 1 0.5897 6.060375143731333 4.9073485745159635 14.31101117152969 1 -1 -1
252 1 1 0.5897 6.084649114182022 5.7648721224086295 11.673029254514361 -2 -9 4
400 1 2 -1.1794 3.461773002534559 4.6447441595593695 16.25804312151567 0 2 1
218 1 1 0.5897 8.734406514397788 5.030094328329444 16.1605768957766 3 -1 1
511 1 2 -1.1794 3.853093000330162 5.817179328406663 11.482159367498957 2 3 3
641 1 1 0.5897 6.8961054942420414 3.0274181048908604 11.694753964067015 -1 6 -5
382 1 2 -1.1794 7.952030454324301 4.7437558782255165 14.415047228062132 -8 0 -5
631 1 2 -1.1794 6.18534641133622 1.9864103212692874 13.424928849807662 11 11 3
384 1 1 0.5897 8.235067984683084 5.494937886517 13.893640490655894 -8 0 -5
62 1 1 0.5897 4.436287368898864 4.094698438013751 11.565245349112654 0 1 3
57 1 1 0.5897 3.1911535214009823 2.682558979600996 16.11651193729687 -2 2 -2
383 1 1 0.5897 8.302896720112017 3.9836263060411867 13.951021661931026 -8 0 -5
250 1 2 -1.1794 6.928028704525058 5.94338930041529 11.256992848742962 -2 -9 4
728 1 1 0.5897 1.3569587307428952 3.6845785481820355 14.288984204797176 -4 0 3
69 1 1 0.5897 2.771947545338948 3.0212588843141868 12.483844198340813 6 -6 -1
729 1 1 0.5897 0.8313594192549814 5.0886148572623355 14.499409482618795 -4 0 3
401 1 1 0.5897 2.6179982252871343 4.684385187148612 15.807845670094451 0 2 1
512 1 1 0.5897 3.460333425360018 5.889367188529622 12.352126757851318 2 3 3
632 1 1 0.5897 6.287641099645278 2.3766415985611395 14.292978955782324 11 11 3
68 1 1 0.5897 2.1905441397664562 1.7124588669246996 12.974676286686472 6 -6 -1
55 1 2 -1.1794 3.092470532085721 1.7817519817366219 15.80825199232714 -2 2 -2
633 1 1 0.5897 5.416952000664652 2.4214177646447475 13.055307781419716 11 11 3
513 1 1 0.5897 4.1685149782481075 6.69963979433617 11.287260526589845 2 3 3
687 1 1 0.5897 1.4071587907623764 6.593496263725224 12.858550497813724 6 -9 -8
403 1 2 -1.1794 6.306197353845326 2.2049550657436114 16.275281057834597 8 -2 -5
678 1 1 0.5897 6.118565495676354 4.046568420798657 17.191807182727455 10 5 -4
44 1 1 0.5897 7.61207018383106 3.330212560934594 18.637732099673734 -3 7 -1
402 1 1 0.5897 3.309327736103036 5.087328971150997 17.092958711350292 0 2 1
262 1 2 -1.1794 7.8153006274788535 5.2839365529980675 20.428945383391973 3 -2 1
43 1 2 -1.1794 8.117854007906416 2.5907323746746966 18.974708772407734 -3 7 -1
676 1 2 -1.1794 6.134307988753576 4.811688678608245 17.766790553491496 10 5 -4
507 1 1 0.5897 3.4213573478520973 3.5011762393768353 20.15222661149622 6 1 -2
832 1 2 -1.1794 5.019453092215059 4.0974331884492905 20.753545755760584 4 -4 -2
505 1 2 -1.1794 2.8023767714807293 3.2774661035103945 19.457224227120474 6 1 -2
622 1 2 -1.1794 2.069844086204083 5.679556871298276 18.40479089788335 4 6 4
794 1 1 0.5897 0.7723331260597976 3.5300735687200335 18.28204379578056 -4 4 4
677 1 1 0.5897 7.010231769852007 5.180172676794143 17.651989329252 10 5 -4
506 1 1 0.5897 2.0950297540013896 2.8141692034378014 19.905809727376678 6 1 -2
217 1 2 -1.1794 8.733218194168083 5.250857142680111 17.091972150867967 3 -1 1
163 1 2 -1.1794 3.3433886622794207 6.092973495096651 21.59526885319335 -8 2 -2
833 1 1 0.5897 5.80273614547437 4.345413171176268 20.26244214031583 4 -4 -2
264 1 1 0.5897 8.264197445154622 6.078737119479001 20.140871311406958 3 -2 1
404 1 1 0.5897 5.460303747537236 1.8772879833669853 16.58075758591336 8 -2 -5
623 1 1 0.5897 2.3702276278329504 4.90866059713145 18.88613240236603 4 6 4
219 1 1 0.5897 8.421084247540414 6.155162609107475 17.123842727926792 3 -1 1
624 1 1 0.5897 2.6343848387619904 6.389057402475527 18.71156859783238 4 6 4
8 1 1 0.5897 5.249510968454113 6.14600276809384 18.506474181385034 7 5 3
164 1 1 0.5897 3.3490956679523287 6.647220796544237 20.81487708595742 -8 2 -2
263 1 1 0.5897 8.463177882895614 4.588323893639296 20.316721735104128 3 -2 1
750 1 1 0.5897 4.0617891437739 2.033180312249053 18.681778436177517 -1 6 -1
45 1 1 0.5897 7.4890948074302095 1.8704086194939238 19.01940075983078 -3 7 -1
165 1 1 0.5897 4.018484003495626 5.4354502562738105 21.427566674440644 -8 2 -2
834 1 1 0.5897 5.353829121802527 3.76320011382341 21.585834801840925 4 -4 -2
838 1 2 -1.1794 4.4680091484862 8.34793668241355 1.7895136727354224 -2 0 -2
129 1 1 0.5897 6.263776165151845 8.299151747075141 5.5003196878535725 -4 1 -8
529 1 2 -1.1794 1.1721738330369686 7.57867604053768 3.773537805961656 1 -1 -7
319 1 2 -1.1794 7.666509285335109 8.487690642345532 2.429266814847421 3 0 5
161 1 1 0.5897 6.579745573271353 11.809703741685519 1.4599063666071066 3 4 1
321 1 1 0.5897 7.210179807525236 9.17222797686188 1.9399945010930375 3 0 5
220 1 2 -1.1794 4.38284851479661 8.807124159686737 4.575296952818876 -1 -6 2
128 1 1 0.5897 7.265493950726029 7.725641423750717 4.520793570968122 -4 1 -8
840 1 1 0.5897 5.201261381654629 8.4852281439243 1.1897680588656243 -2 0 -2
457 1 2 -1.1794 1.8326073666161997 9.091907300306866 1.5836148269111834 -3 2 -1
222 1 1 0.5897 4.528334202877794 9.748915622899453 4.485438220081459 -1 -6 2
344 1 1 0.5897 1.708478431624353 10.590533828188839 4.248174101658783 -2 1 1
127 1 2 -1.1794 6.89402044850061 7.586932830737987 5.391984736194706 -4 1 -8
459 1 1 0.5897 2.7719206329745236 8.928388205831382 1.6681985529942613 -3 2 -1
345 1 1 0.5897 1.485846528462912 10.821023100049592 2.7685887662079858 -2 1 1
221 1 1 0.5897 4.261224467394108 8.496402168240454 3.6781464359356226 -1 -6 2
839 1 1 0.5897 4.238235368270141 7.425170113346461 1.6803698734426094 -2 0 -2
320 1 1 0.5897 8.516123593214356 8.408492567812786 1.995567345003723 3 0 5
160 1 2 -1.1794 6.618507756821296 11.054995786727073 2.0473837956552576 3 4 1
458 1 1 0.5897 1.4209888434442872 8.400040647440338 2.1013929515384966 -3 2 -1
343 1 2 -1.1794 1.3258229285081748 11.211082083058683 3.6279263115296643 -2 1 1
173 1 1 0.5897 6.934095733762153 6.909473860732994 1.8590342428778253 8 0 -2
162 1 1 0.5897 5.89950198220524 11.193567586212597 2.6638499044901933 3 4 1
239 1 1 0.5897 8.50050230012522 10.188902408182292 5.174054020957621 -9 -4 0
310 1 2 -1.1794 4.536627246870689 11.542729491993475 3.709181830791867 -1 4 3
311 1 1 0.5897 3.919422025050285 11.623222840132502 2.9819964892000783 -1 4 3
530 1 1 0.5897 0.7168754841610578 7.883355769193458 4.558446820658778 1 -1 -7
278 1 1 0.5897 2.220070580783693 11.809495760178146 0.8588045887399199 2 -2 2
695 1 1 0.5897 1.2136293038547272 11.36443568026173 9.86456774277459 2 -2 -2
304 1 2 -1.1794 4.216031203576138 8.46624643086467 10.999928958214745 7 -3 -11
328 1 2 -1.1794 8.399756245726543 7.620844699888478 7.5692012980777665 1 3 0
696 1 1 0.5897 1.5034491998953186 9.945064109425237 9.42497501224009 2 -2 -2
191 1 1 0.5897 4.038902861969623 8.890741756980223 7.377990027874996 -1 3 -5
796 1 2 -1.1794 2.224670185055122 10.759536400689223 6.355810355315603 0 -3 -4
694 1 2 -1.1794 1.724260877183973 10.589129373131774 10.097751108141136 2 -2 -2
797 1 1 0.5897 2.794322327828413 11.09610175713233 7.047491418745485 0 -3 -4
358 1 2 -1.1794 6.123744424372182 6.982860716161782 8.833981850943374 5 7 -8
330 1 1 0.5897 8.039116926738457 7.817055414313796 6.704521786642673 1 3 0
104 1 1 0.5897 6.749210356568939 10.466837951290527 9.885976984777795 1 -1 2
192 1 1 0.5897 5.320561001376333 8.656727245085474 8.148970016835737 -1 3 -5
744 1 1 0.5897 6.069755527991588 10.479256683542287 6.516376110423871 1 -1 2
103 1 2 -1.1794 6.383745899358913 10.196770610439877 10.72841722866828 1 -1 2
742 1 2 -1.1794 6.889650256710536 10.868165657311433 6.21186634215606 1 -1 2
107 1 1 0.5897 2.2343483430697777 8.357392469395052 7.143521320722723 -2 -2 4
106 1 2 -1.1794 2.706443022714759 7.647869901160545 6.70773281512537 -2 -2 4
368 1 1 0.5897 4.264622616882187 10.876311524045478 8.433284007439555 3 9 -5
190 1 2 -1.1794 4.846805331743915 9.324306003895025 7.65284726359405 -1 3 -5
329 1 1 0.5897 7.632655651569246 7.455266543221745 8.117238956964998 1 3 0
743 1 1 0.5897 7.323971790483208 11.168355038934592 7.010290010932345 1 -1 2
306 1 1 0.5897 4.956929477543147 9.031830831554032 10.78224837146998 7 -3 -11
367 1 2 -1.1794 3.7980471226244235 11.688639936886455 8.629836229468143 3 9 -5
798 1 1 0.5897 1.3373178979506088 10.901279850736962 6.685538666826639 0 -3 -4
369 1 1 0.5897 3.2501708268033416 11.474058881265822 9.384813738555208 3 9 -6
205 1 2 -1.1794 0.8646674715611273 8.811786205891629 8.277508909504778 -5 5 -3
206 1 1 0.5897 1.1331388697210716 8.012329692310418 8.730288736558592 -5 5 -3
478 1 2 -1.1794 7.6282299278038685 11.709621781466343 8.824935010473583 -4 6 -5
108 1 1 0.5897 2.9849028081855127 8.022622032647103 5.872134627269702 -2 -2 4
471 1 1 0.5897 4.937316387748046 6.804330532236242 13.909663637441906 5 3 3
265 1 2 -1.1794 0.8344685966428165 7.178931730147834 16.07348769339018 -6 -1 0
469 1 2 -1.1794 4.808025735761363 7.738722129570435 14.072141560274208 5 3 3
314 1 1 0.5897 2.483045868503977 11.23109409994321 13.767679720888223 0 -4 -1
652 1 2 -1.1794 6.356235123939648 11.712860911408178 15.43191568301364 -1 -3 3
105 1 1 0.5897 7.123452276990893 10.236183954279106 11.334628314951786 1 -1 2
587 1 1 0.5897 2.359639285633855 10.213863552039282 11.727289109006847 2 4 4
686 1 1 0.5897 1.6688023781040964 7.086737724820821 14.265760157512737 6 -9 -8
521 1 1 0.5897 9.033253648290724 8.975479323020405 15.276430415304144 -6 -5 -2
315 1 1 0.5897 2.5740640662038103 11.353896342759468 15.27382253048311 0 -4 -1
470 1 1 0.5897 3.9012609361859916 7.904015041137474 13.813852690472803 5 3 3
491 1 1 0.5897 6.720308656190572 10.092840119107855 14.855580099126916 1 2 1
490 1 2 -1.1794 7.105493996949974 9.24813424956329 14.622526519736237 1 2 1
492 1 1 0.5897 6.35887517233558 8.652102314262585 14.563202546184744 1 2 1
588 1 1 0.5897 1.9091735591532017 9.230468858198222 12.786512351076006 2 4 4
684 1 1 0.5897 7.95128237043045 10.002830028843269 13.266493701713014 3 1 -5
305 1 1 0.5897 3.8009405332514072 8.892458349221888 11.749784783448623 7 -3 -11
586 1 2 -1.1794 2.6047918137418926 9.854784797207417 12.580036614745703 2 4 4
685 1 2 -1.1794 2.1055317246428342 6.907134460229486 13.433150823161304 6 -9 -8
682 1 2 -1.1794 8.441982581630036 10.491308395711624 12.605556623620776 3 1 -5
435 1 1 0.5897 4.041109886671176 7.5988501503933765 15.715282798278743 1 4 -5
267 1 1 0.5897 0.5796633351750499 8.101443492326666 16.057619763819645 -6 -1 0
768 1 1 0.5897 8.498095749789144 7.1330581870874585 12.159225120698947 2 1 8
504 1 1 0.5897 4.930615972395968 10.909059699258037 16.128175018404697 -3 0 4
266 1 1 0.5897 1.7518298494338351 7.187992053047299 16.346673149867453 -6 -1 0
130 1 2 -1.1794 6.3347011899949885 8.368084326603803 20.619374855944887 -5 3 -3
454 1 2 -1.1794 6.358664069884272 11.295660493400549 19.57245940732053 3 -1 -1
138 1 1 0.5897 6.181448715645691 7.693721877501725 17.58970714444118 11 -10 0
9 1 1 0.5897 4.329762724795351 7.195893732132298 17.920284240611615 7 5 3
434 1 1 0.5897 3.4460470456335597 8.684837014068812 16.586115148607135 1 4 -5
502 1 2 -1.1794 4.075984378943687 10.587575093863752 16.41534417556713 -3 0 4
131 1 1 0.5897 5.6376788546371275 7.962904471092806 20.10342724451875 -5 3 -3
824 1 1 0.5897 8.11935540527166 8.249861102951929 19.784971394986847 -3 5 3
765 1 1 0.5897 3.0546546142208246 11.194046128173381 19.034933881282722 -7 1 -4
427 1 2 -1.1794 2.2416368624405725 8.251940463547331 19.8823152249518 3 -2 -3
132 1 1 0.5897 6.322317728998389 9.288877698752504 20.358218578466445 -5 3 -3
455 1 1 0.5897 5.495983970550319 11.21815186723659 19.16502577203557 3 -1 -1
456 1 1 0.5897 6.906239951836083 11.700538454440784 18.899791344815167 3 -1 -1
30 1 1 0.5897 8.01238517525803 11.749654361145572 20.45579092824023 -8 4 6
503 1 1 0.5897 4.098358965674509 10.665543008135279 17.369091947591755 -3 0 4
764 1 1 0.5897 3.0424531939339117 9.698360773028476 19.268752007935394 -7 1 -4
763 1 2 -1.1794 3.633330450419242 10.435994483757886 19.11722181676949 -7 1 -4
823 1 2 -1.1794 9.019994831234161 7.949995881919214 19.661929940135995 -3 5 3
428 1 1 0.5897 2.007970518148366 8.557043659420216 20.758968417059968 3 -2 -3
429 1 1 0.5897 1.4186943574615505 7.932799001326606 19.512003271432285 3 -2 -3
433 1 2 -1.1794 3.5346358154665607 7.734336088902345 16.516112414294703 1 4 -5
154 1 2 -1.1794 0.5330745087338565 10.143046047140812 16.565506572327983 4 3 -5
136 1 2 -1.1794 7.037439721244077 7.670265653620683 17.161961619438028 11 -10 0
760 1 2 -1.1794 0.6860008424537783 11.671241312719705 20.925844736387752 1 3 1
7 1 2 -1.1794 4.76238684351391 6.937871537690931 18.734202937859084 7 5 3
137 1 1 0.5897 7.039280326753888 8.435272404141092 16.586655093277045 11 -10 0
209 1 1 0.5897 1.6267038871542443 15.768055384386987 1.4560586462966167 -1 -6 7
817 1 2 -1.1794 7.978099100351916 15.871347502454725 3.6279786658607898 -3 -4 0
705 1 1 0.5897 6.21804568517093 12.978896099863869 5.402203730853193 -2 2 -3
819 1 1 0.5897 8.092515506246752 14.989336339676614 3.981767440765532 -3 -5 0
277 1 2 -1.1794 2.9067317029075386 12.274943166920975 1.3363612293822626 2 -2 2
279 1 1 0.5897 3.417853981544931 12.7127603580613 0.6557138262366312 2 -2 2
159 1 1 0.5897 5.258967193734679 14.77974900241405 3.7738361216693654 4 4 -2
516 1 1 0.5897 2.857868366784595 16.608945391215578 3.119526232248985 -6 -5 3
158 1 1 0.5897 5.724944995221471 14.880109928128219 2.3369567182803364 4 4 -2
545 1 1 0.5897 8.9883390288923 15.868827459404718 2.051038977523733 -4 4 4
210 1 1 0.5897 2.101752683896593 14.367955720320916 1.7815288893900285 -1 -6 7
157 1 2 -1.1794 5.370162153882668 15.403011224418803 3.0559305598697324 4 4 -2
298 1 2 -1.1794 2.463069944078646 13.680972127594382 4.481540430740768 -6 2 -1
535 1 2 -1.1794 6.690692442893657 13.75017381797136 0.85622995196199 5 5 3
300 1 1 0.5897 2.4750567270787887 14.190185360283621 3.6711227092189103 -6 2 -1
818 1 1 0.5897 7.029442418384376 15.988297996839039 3.577074851436386 -3 -4 0
299 1 1 0.5897 2.1267397964560892 12.823469518745291 4.221210482740172 -6 2 -1
703 1 2 -1.1794 5.644194147541356 13.744221666765645 5.436590261514685 -2 2 -3
208 1 2 -1.1794 1.90987902602932 15.214892462508416 2.184134670037885 -1 -6 7
312 1 1 0.5897 4.236376102715366 12.186135638155037 4.351142153129919 -1 4 3
224 1 1 0.5897 2.567329481034607 13.86099177427972 6.398996195274472 4 -1 -7
223 1 2 -1.1794 2.52518356602444 14.10958651425697 7.322374929758163 4 -1 -7
336 1 1 0.5897 7.340211269372793 16.427097480812634 6.615932761125896 1 -1 4
611 1 1 0.5897 5.345157700028167 16.615370825556475 11.10351307061101 5 -1 -3
200 1 1 0.5897 1.117009153851046 15.691254776290332 9.53495711955787 4 -10 0
216 1 1 0.5897 1.381788340226325 13.210559948254975 8.491993718238414 1 -3 6
630 1 1 0.5897 5.15519560950907 14.525842391802055 9.06502149609577 -2 -3 3
629 1 1 0.5897 4.938720941817128 13.118934880026284 8.549671983469969 -2 -3 3
704 1 1 0.5897 5.293807594669412 13.741610621972125 6.327368306657441 -2 2 -3
759 1 1 0.5897 7.81340290195695 14.780508780933712 9.459025092433714 -1 2 3
117 1 1 0.5897 8.193576630823856 14.321379368092858 7.463828769281837 -6 2 4
480 1 1 0.5897 8.519437675143587 12.040497343104747 8.71321226980481 -4 6 -5
214 1 2 -1.1794 0.5692912564968229 12.849420201223571 8.846454477808862 1 -3 6
479 1 1 0.5897 7.12689127201725 12.467391793528005 9.126012374742634 -4 6 -5
628 1 2 -1.1794 5.119231319622392 14.012518033838713 8.257908619277618 -2 -3 3
115 1 2 -1.1794 8.340356301605233 15.164990998296174 7.891610097716461 -6 2 4
225 1 1 0.5897 3.420871319979601 13.999807117895294 7.64158075262243 4 -1 -7
199 1 2 -1.1794 1.4717114782608762 15.869466740040005 10.405951492157447 4 -10 0
757 1 2 -1.1794 7.5287138974332874 14.256585865565595 10.20781054379882 -1 2 3
781 1 2 -1.1794 2.185009719461265 16.802967602803896 6.338791479045558 -5 3 -3
758 1 1 0.5897 8.323579755349584 13.81628986854465 10.508727757399493 -1 2 3
610 1 2 -1.1794 4.546761975896817 16.259066168364473 10.713852564878508 5 -1 -3
783 1 1 0.5897 2.0639424285035717 15.860841705205441 6.4569281359650565 -5 3 -3
125 1 1 0.5897 3.4637382693961274 16.79790749539935 7.711353921904468 4 -1 5
335 1 1 0.5897 5.966501708971722 16.866737148494245 7.075791185985188 1 -1 4
201 1 1 0.5897 0.7345726782176477 15.725480445057988 10.999334628087631 4 -10 0
72 1 1 0.5897 4.3473824767024976 15.633985894443112 13.581437271310435 15 -4 0
340 1 2 -1.1794 5.374609419718214 12.767640780898732 11.334861202824168 2 5 4
288 1 1 0.5897 8.260532793458637 13.772864567896491 14.944539044211389 2 1 1
740 1 1 0.5897 3.3931819429088024 13.460471370149538 11.26386570244337 4 1 1
733 1 2 -1.1794 4.830677662516584 13.511115015366725 14.17399421583479 1 3 -3
168 1 1 0.5897 6.698835246795003 16.56135523291632 12.536451391081677 1 0 4
735 1 1 0.5897 5.200514308548486 13.285877175416479 13.320353463237714 1 3 -3
739 1 2 -1.1794 2.552520707194014 13.709431074648199 11.647942929990442 4 1 1
518 1 1 0.5897 1.4323737584729814 13.291366326674078 14.596144178091302 1 -1 -5
313 1 2 -1.1794 2.476713020410473 11.874387906890558 14.47643872244021 0 -4 -1
720 1 1 0.5897 6.6556872621129886 16.679122916993006 14.837664677502516 0 2 4
718 1 2 -1.1794 6.099438727334684 16.156250918345613 14.260245139377423 0 2 4
719 1 1 0.5897 6.370295907269907 15.252208059454842 14.420132248699526 0 2 4
92 1 1 0.5897 8.255415879623484 12.311470043188605 12.829364409635886 1 -5 -4
167 1 1 0.5897 7.154055256387522 15.71926257317574 11.363646561458989 1 0 4
91 1 2 -1.1794 8.276705482053037 13.260557985103388 12.951790464125912 1 -5 -4
734 1 1 0.5897 3.994550355177295 13.046119078864278 14.203535985212044 1 3 -3
70 1 2 -1.1794 3.45400108152223 15.905473895750871 13.370787755657283 15 -4 0
71 1 1 0.5897 2.9459459361687057 15.094472522882477 13.389802146978349 15 -4 0
166 1 2 -1.1794 7.112080856670283 16.623318758835147 11.675295225082653 1 0 4
233 1 1 0.5897 4.871688758341893 16.236761710831658 15.677579948454696 -3 -2 0
286 1 2 -1.1794 8.099328386429136 14.340291545685131 15.698359726973013 2 1 1
612 1 1 0.5897 3.9740287898417903 16.08171725222022 11.460008971244273 5 -1 -3
519 1 1 0.5897 1.2711207818009227 14.483077112051188 15.515830989696708 1 -1 -5
467 1 1 0.5897 1.1531247035456316 12.49413383128796 12.22419430975713 2 0 7
654 1 1 0.5897 5.872828692164218 12.407124312835139 14.98408384452872 -1 -3 3
653 1 1 0.5897 6.863791317869442 12.168598042719744 16.103421765430745 -1 -3 3
517 1 2 -1.1794 0.8444084333565758 14.020132886524562 14.794806572006216 1 -1 -5
287 1 1 0.5897 8.761517198559265 15.027781976077486 15.627198819765377 2 1 1
341 1 1 0.5897 5.635770014371972 11.848107738735006 11.285070329438618 2 5 4
500 1 1 0.5897 9.001812391475589 16.30300359688448 12.496339201504684 1 -6 -2
741 1 1 0.5897 2.252062034914399 14.44370485785578 11.112434799918413 4 1 1
342 1 1 0.5897 6.1893445963929645 13.25536054812953 11.214226903542684 2 5 4
712 1 2 -1.1794 4.741041083942936 13.422286077794563 17.38744167070309 1 0 3
537 1 1 0.5897 6.039774657348271 13.842628722939024 21.150499729910756 5 5 2
713 1 1 0.5897 3.925127920502253 12.982522166951137 17.14844134725711 1 0 3
714 1 1 0.5897 4.67863851616003 14.284164632111699 16.97573249980072 1 0 3
357 1 1 0.5897 8.960696978535525 12.067689473530686 17.972954974337487 7 2 1
856 1 2 -1.1794 4.336803182275569 13.784610366195974 20.220442534893355 -1 0 -3
97 1 2 -1.1794 1.8993601987103348 15.627621876843829 19.583422949153718 -1 -6 0
721 1 2 -1.1794 2.061479703420949 12.735487232672874 18.80660540238791 5 0 -3
542 1 1 0.5897 8.647109626831389 15.6372746985573 18.955556135930472 -13 6 4
372 1 1 0.5897 1.809862181863446 16.828774130878003 20.747782218381747 7 5 -3
585 1 1 0.5897 2.7654698922681096 15.618924273779726 16.59760549120123 0 -10 4
583 1 2 -1.1794 1.9231012949647996 15.278051620189514 16.8983267038897 0 -10 4
858 1 1 0.5897 4.129072123654826 14.718989593377863 20.22362788274262 -1 0 -3
722 1 1 0.5897 2.321547181479663 13.634700854226583 19.00657221058031 5 0 -3
543 1 1 0.5897 8.202930839826418 16.286480095614486 17.662074542246874 -13 6 4
857 1 1 0.5897 4.705646381181223 13.6237142001777 19.351949215887664 -1 0 -3
541 1 2 -1.1794 7.992631646886527 16.23518073951606 18.594461580278008 -13 6 4
723 1 1 0.5897 1.5318594377288595 12.466310223505456 19.557103106756195 5 0 -3
232 1 2 -1.1794 4.494958835671662 16.256326546207262 16.55731104339491 -3 -2 0
356 1 1 0.5897 8.364644344187415 13.17535872207813 17.130532658802988 7 2 1
98 1 1 0.5897 2.091528364955213 15.488351423833441 18.656121675841497 -1 -6 0
99 1 1 0.5897 0.9780463852985329 15.385307796135162 19.67661395754581 -1 -6 0
355 1 2 -1.1794 8.129008036985967 12.48734734753532 17.75288445532345 7 2 1
584 1 1 0.5897 1.3340578843046664 16.031874808203728 16.86669822558426 0 -10 4
28 1 2 -1.1794 8.682958328495957 12.178373909857008 20.987549448519566 -8 4 6
536 1 1 0.5897 7.518652824719926 13.618612371667808 21.384244851240656 5 5 2
23 1 1 0.5897 9.062175514995499 19.376298403142883 1.561330216294798 -6 0 1
582 1 1 0.5897 6.910496957172318 19.193595990076723 2.739096224064205 3 0 1
580 1 2 -1.1794 7.661835884800569 19.765379144367117 2.581490693873551 3 0 1
134 1 1 0.5897 4.991982166744529 18.45144059836791 4.188605259611399 -1 -9 -1
514 1 2 -1.1794 3.0820156276229422 17.39871036402073 3.6117073177419474 -6 -5 3
135 1 1 0.5897 5.99282624037212 18.404368243032252 5.323473909079858 -1 -9 -1
581 1 1 0.5897 8.10081412367959 19.82415983537922 3.430047326299541 3 0 1
625 1 2 -1.1794 4.0329959402631115 20.287151159533302 1.6802773726388232 -4 -5 3
19 1 2 -1.1794 5.2793622495807035 17.879003357760816 1.5401100126175358 -2 -4 2
613 1 2 -1.1794 1.837850680717704 19.970098973420143 3.415959223774921 -8 4 7
627 1 1 0.5897 3.261707089765894 20.305289473811946 2.246861203610711 -4 -5 3
133 1 2 -1.1794 5.705806326890954 18.947458557448456 4.589389251187713 -1 -9 -1
615 1 1 0.5897 1.6668807223669517 20.354002700733183 4.275953071035668 -8 4 7
626 1 1 0.5897 4.4387836516941075 21.14581418983402 1.7997393774690487 -4 -5 3
614 1 1 0.5897 2.381246600579156 19.203655187762656 3.5990287423177842 -8 4 6
21 1 1 0.5897 4.88262651934399 17.259439186303617 2.152435956805271 -2 -4 2
515 1 1 0.5897 2.867666758220664 17.184570467908813 4.519679956384795 -6 -5 3
527 1 1 0.5897 5.841368143013931 20.91992687673573 4.905997259544784 -4 -6 -3
440 1 1 0.5897 7.806453244899691 21.339750705685823 1.7297914276948938 -3 3 -2
526 1 2 -1.1794 6.1087613749433265 21.788683084417833 4.606039392255198 -4 -6 -3
20 1 1 0.5897 4.733819547441742 18.662858470703128 1.6046205110154048 -2 -4 1
673 1 2 -1.1794 8.724123383343839 19.588351532693466 5.042592792863525 -1 -1 -3
461 1 1 0.5897 3.8483383622435423 19.47109621759006 9.529563356928435 -2 2 -5
593 1 1 0.5897 7.669445141749152 18.618521935624777 9.474081507978298 -2 2 -5
592 1 2 -1.1794 8.289495693819458 18.15007074606011 8.915207137070938 -2 2 -5
126 1 1 0.5897 4.378976040089595 16.923654195966357 8.910670764275194 4 -1 5
637 1 2 -1.1794 6.612007665674043 19.568682317857238 10.704421295505963 -7 -6 6
607 1 2 -1.1794 7.506796378650061 20.391541587189295 7.57803250180587 4 -2 6
111 1 1 0.5897 2.40325720624633 17.52033485505504 10.489112459462469 0 1 -13
854 1 1 0.5897 2.4694698053348656 19.76523940150806 6.999912219430552 -1 1 3
124 1 2 -1.1794 4.3653837125435935 17.004984150142953 7.957041562351195 4 -1 5
609 1 1 0.5897 7.861392112656634 19.726383636856596 8.167971142397057 4 -2 6
594 1 1 0.5897 7.750709191699579 17.78223888665528 8.214769247849077 -2 2 -5
639 1 1 0.5897 5.8501824447410105 19.7254424427257 10.146521793402782 -7 -6 6
853 1 2 -1.1794 3.294738290828502 19.53716161414919 6.571993699997771 -1 1 3
552 1 1 0.5897 0.8832713785098026 20.969701847820936 9.877759612829015 0 4 -4
815 1 1 0.5897 1.6629384515348227 19.326690370154978 9.12873863653979 -2 9 -5
460 1 2 -1.1794 4.494996057058932 19.912477671271446 8.978892532672736 -2 2 -5
109 1 2 -1.1794 2.481480420739704 18.474234987468385 10.502352668478968 0 1 -13
855 1 1 0.5897 3.26603799022137 18.584117260491986 6.487805141935256 -1 1 3
608 1 1 0.5897 7.805319921483655 20.124874690681466 6.708558982243146 4 -2 6
261 1 1 0.5897 6.434801757568326 21.766316813701806 8.110782652663987 2 -1 8
814 1 2 -1.1794 1.1589101756168425 19.782798687984503 8.454840571316335 -2 9 -5
462 1 1 0.5897 4.275098645405215 19.6426457832573 8.087237837557876 -2 2 -5
782 1 1 0.5897 1.2972422654709348 17.14982959661201 6.25063169593219 -5 3 -3
668 1 1 0.5897 8.338363017465884 20.62721540547674 10.949052216621412 -7 -6 -4
334 1 2 -1.1794 6.7713125555422575 17.194642840273254 6.674569099436267 1 -1 4
550 1 2 -1.1794 0.8211614021440227 21.58319748684353 10.60986276162285 0 4 -4
446 1 1 0.5897 3.466383831831065 21.150331310997096 5.991339112419495 2 3 -3
424 1 2 -1.1794 3.954763716661366 18.590158011688978 14.413753339467036 11 -2 -1
426 1 1 0.5897 3.7882012654931154 17.673505816486625 14.194189869238448 11 -3 -1
331 1 2 -1.1794 6.371706676461476 19.54895458955629 13.638634487253073 1 -5 -5
716 1 1 0.5897 1.3426454518466873 19.85864236422409 13.709680038325645 0 -11 -2