LAMMPS data file via write_data, version 30 Jul 2021, timestep = 19500000

1296 atoms
2 atom types
864 bonds
1 bond types
432 angles
1 angle types

-10.716324417543527 12.696324417543527 xlo xhi
-9.169228393411492 12.159226393411492 ylo yhi
0.05493524058059229 21.805063759419163 zlo zhi
-9.136024455685702 2.043413902555725 2.9861097622612407 xy xz yz

Masses

1 1.008
2 15.999

Pair Coeffs # lj/cut/tip4p/long/omp

1 0 0
2 0.21084 3.1668

Bond Coeffs # harmonic/omp

1 450 0.9572

Angle Coeffs # harmonic/omp

1 55 104.52

Atoms # full

280 94 2 -1.1794 -9.747769587311552 -4.7238936231098885 1.4417720703586991 1 1 0
270 90 1 0.5897 -8.374727898322735 -7.475092024800375 2.154549148778223 1 1 0
269 90 1 0.5897 -9.235165653223424 -6.258071283953986 2.4199698307889164 1 1 0
268 90 2 -1.1794 -8.962711212511545 -7.0910117066207725 2.804926419946182 1 1 0
314 105 1 0.5897 -8.794375889583831 -6.722222491998687 4.589435440522122 1 1 0
299 100 1 0.5897 -6.636780774050191 -8.013754418501977 4.026443314590672 1 1 0
163 55 2 -1.1794 -7.343112373820524 -7.936472258743574 0.5512537742063115 1 1 0
164 55 1 0.5897 -6.547058833836529 -8.248574449502893 0.9815231642421173 1 1 0
298 100 2 -1.1794 -6.000374182043218 -7.3147082279925595 4.176111751717035 1 1 0
73 25 2 -1.1794 -8.614887253351455 -3.6780761339381636 4.541000652707425 1 0 0
261 87 1 0.5897 -6.909033097445478 -4.995708827342077 1.1270216087421774 1 1 0
323 108 1 0.5897 -6.496359036196666 -5.629139336480611 3.309426360259356 1 1 0
302 101 1 0.5897 -7.702058176611359 -2.1127281377918434 2.211888707043588 1 1 0
324 108 1 0.5897 -7.271543738795579 -4.34809293318391 3.5328903965919727 1 1 0
107 36 1 0.5897 -9.47176518487687 1.3912298088013042 3.257471756161048 1 0 0
315 105 1 0.5897 -8.61184682742332 -5.446086477268267 5.383107812919347 1 1 0
300 100 1 0.5897 -5.152583729068458 -7.718065037810537 3.989599817892949 1 1 0
282 94 1 0.5897 -10.568750497838586 -4.2338121644851725 1.4870685423559782 1 1 0
313 105 2 -1.1794 -8.7290007266736 -6.390557312671384 5.484956752694143 1 1 0
281 94 1 0.5897 -9.069732385899664 -4.051093727210408 1.3812289199484076 1 1 0
75 25 1 0.5897 -9.395409149619516 -3.2506912013919083 4.188336747597171 1 0 0
84 28 1 0.5897 -8.333991876283878 -0.7509908456531527 4.023996054904913 1 0 0
256 86 2 -1.1794 -12.28747414363808 -3.393646367637407 1.7989626372398957 1 1 0
67 23 2 -1.1794 -10.828064910777236 -2.372117135356132 3.8830895624853605 1 0 0
68 23 1 0.5897 -11.3278078642895 -2.5281566346702604 4.684386981393887 1 0 0
52 18 2 -1.1794 -12.283526088631517 0.052030465766151224 2.3975454706154937 1 0 0
53 18 1 0.5897 -12.419685725338129 0.9110188690984788 1.9978110323086202 1 0 0
258 86 1 0.5897 -12.663835279931222 -3.0196204342578126 1.002280790931892 1 1 0
301 101 2 -1.1794 -8.046192784834677 -2.3724269950043286 1.3572831417489861 1 1 0
69 23 1 0.5897 -11.443935301139078 -2.561770990869083 3.1753167819098054 1 0 0
82 28 2 -1.1794 -9.159318400002945 -0.2664382192609587 4.040723553993005 1 0 0
98 33 1 0.5897 -12.174438848110432 0.5467733050212313 4.237943097219959 1 0 0
54 18 1 0.5897 -11.643224543071089 -0.377802049484643 1.8305408396517522 1 0 0
83 28 1 0.5897 -9.834304398290007 -0.9390398440370635 3.9508872417643905 1 0 0
272 91 1 0.5897 -9.544716507172545 -1.1929669804831597 1.0490310442369044 1 1 0
271 91 2 -1.1794 -10.348055262462536 -0.8414248623484255 0.6652246089849838 1 1 0
74 25 1 0.5897 -8.304229800663666 -3.084261164982463 5.224416932649504 1 0 0
260 87 1 0.5897 -7.07015917842438 -6.17120510813162 0.1867978100547403 1 1 0
322 108 2 -1.1794 -6.660254208081092 -4.767084964965582 2.927079635515055 1 1 0
59 20 1 0.5897 -13.598134674521845 -0.7734833935789052 3.3477999113634973 1 0 0
259 87 2 -1.1794 -6.8683624521805875 -5.235693681746389 0.2012857717236719 1 1 0
44 15 1 0.5897 -9.784312840770145 1.1511247329756458 0.20262741250376629 1 0 0
97 33 2 -1.1794 -11.82866886079973 0.682618155092058 5.120112701557363 1 0 0
99 33 1 0.5897 -11.712512526292972 1.6301904669876706 5.189036204105931 1 0 0
275 92 1 0.5897 -10.33682891694223 -7.984507001939937 3.2082417654241024 1 1 0
417 139 1 0.5897 -8.55955752015305 0.7624480247956651 5.483065890188504 1 0 0
420 140 1 0.5897 -9.107821147326149 -6.493610009892514 9.868643656672837 1 0 0
618 206 1 0.5897 -7.886427305542169 -7.585970618385167 6.732296980889006 1 1 0
413 138 1 0.5897 -7.734242076289704 -3.5150371624536216 7.6574598901004345 1 0 0
419 140 1 0.5897 -8.942806498163078 -5.4701176321297815 8.76548242370261 1 0 0
418 140 2 -1.1794 -9.607403041435115 -5.925076670415506 9.282607012079055 1 0 0
414 138 1 0.5897 -7.018182521629294 -4.843691467902486 7.539772613345103 1 0 0
350 117 1 0.5897 -7.138847770480114 -4.175013648849726 9.801978512491603 0 0 0
412 138 2 -1.1794 -7.682093577332754 -4.38454327350391 8.054206350967378 1 0 0
429 143 1 0.5897 -6.511241888341827 -7.217956584724449 8.543089501267396 1 0 0
427 143 2 -1.1794 -6.10970464993367 -6.794287035215805 9.301688902691236 1 0 0
428 143 1 0.5897 -6.706567364545728 -6.982818891177995 10.025805852509619 1 0 0
522 174 1 0.5897 -9.81699312087618 2.1021210108557717 7.396965829435427 1 0 0
516 172 1 0.5897 -14.025361275637946 1.9866736557410078 9.60374259756329 1 0 0
349 117 2 -1.1794 -7.041600417333008 -3.7948923717275145 10.675062742517198 0 0 0
411 137 1 0.5897 -13.603399120793519 0.23597841538480502 6.298543645725021 1 0 0
435 145 1 0.5897 -7.504712969459685 -0.8004909904185418 9.694113067706894 0 0 0
401 134 1 0.5897 -11.208696758696439 -1.2126321719095028 7.527364038373624 1 0 0
527 176 1 0.5897 -11.791216404210655 1.6507009904697938 8.558858761899055 1 0 0
535 179 2 -1.1794 -8.893524287872477 0.08665736002631697 9.17123621735536 1 0 0
424 142 2 -1.1794 -8.117350906810307 -2.0245099230494263 6.570997281713078 1 0 0
528 176 1 0.5897 -11.962105318322994 0.5216053915798753 9.552660435767857 1 0 0
426 142 1 0.5897 -8.983375111340152 -1.6470436525398382 6.725100315057897 1 0 0
402 134 1 0.5897 -10.99551809305259 -0.27241187749854845 6.360198370960088 1 0 0
400 134 2 -1.1794 -10.52795260153942 -0.7290861815843837 7.0595417906867794 1 0 0
536 179 1 0.5897 -9.570624307914834 -0.11149001747365972 9.818086782568997 1 0 0
526 176 2 -1.1794 -12.457739693501775 1.1126773205073057 8.985888651605903 1 0 0
537 179 1 0.5897 -9.305639178860993 -0.09957904407225548 8.327610591504053 1 0 0
627 209 1 0.5897 -10.361796035211809 -6.714751772754477 6.196434744691066 1 1 0
351 117 1 0.5897 -6.974949038314838 -2.8526619213280924 10.520482852913938 0 0 0
626 209 1 0.5897 -10.634476726048245 -6.566129255382343 7.678139606135453 1 1 0
425 142 1 0.5897 -7.5084469158431215 -1.3067241539627963 6.744480909057759 1 0 0
410 137 1 0.5897 -13.635850294648652 0.6176884825786377 7.7631780353887025 1 0 0
631 211 2 -1.1794 -5.715049763486572 -5.686139153997841 6.406045281557816 1 1 0
633 211 1 0.5897 -5.922576701574191 -6.303095391870055 5.704265275288122 1 1 0
652 218 2 -1.1794 -5.766676399047475 -5.386028840163215 12.66506835322642 0 0 0
780 260 1 0.5897 -7.336637171171787 -4.21872037877353 15.069039121821655 0 0 0
779 260 1 0.5897 -7.061096255128808 -3.218005404993751 13.967063929178199 0 0 0
778 260 2 -1.1794 -7.7718068546281565 -3.6921754269091505 14.398498516966544 0 0 0
768 256 1 0.5897 -9.314898897376738 -2.507020559028634 14.70783129142812 0 0 0
654 218 1 0.5897 -6.291060927537092 -5.015275458615614 11.955268887476546 0 0 0
653 218 1 0.5897 -6.3810028069499225 -5.928930726296501 13.158976558424426 0 0 0
662 221 1 0.5897 -9.017375860448658 -4.149010949539372 12.945241397084352 0 0 0
661 221 2 -1.1794 -9.438924093337024 -4.296192823206047 12.098563587505984 0 0 0
663 221 1 0.5897 -8.733887855054029 -4.196735049865803 11.458891295549963 0 0 0
684 228 1 0.5897 -8.54865554667175 -6.583830240800994 14.48906338179094 0 0 0
865 289 2 -1.1794 -12.623601662779725 1.2573494101636857 15.482832435717249 0 0 0
766 256 2 -1.1794 -10.147705093089698 -2.0513561225998007 14.83047249321763 0 0 0
682 228 2 -1.1794 -7.8420632164632025 -6.882674837413484 13.9166653788089 0 0 0
767 256 1 0.5897 -10.807127498396339 -2.744404738816403 14.800248640783677 0 0 0
772 258 2 -1.1794 -5.8692038457834625 -2.099088996503144 13.330331782258698 0 0 0
896 299 1 0.5897 -7.95910907845738 2.744107381473727 15.308591966013699 0 0 0
740 247 1 0.5897 -10.910902770202801 -3.45705040803929 11.825779542853763 1 0 0
729 243 1 0.5897 -8.111083202169503 -7.09185252566915 12.027585846307272 1 0 0
835 279 2 -1.1794 -11.05830335913901 -0.45444435852541254 10.944565362070614 1 0 0
888 296 1 0.5897 -10.243488013579956 3.3956752012827884 15.305927959049141 0 0 0
792 264 1 0.5897 -11.503196274305818 0.8033473629425192 14.1508803226966 0 0 0
788 263 1 0.5897 -4.936134629233122 -4.502271889259335 15.65978459995669 0 0 0
760 254 2 -1.1794 -8.698032931972492 1.8408824057802846 12.442601100580212 0 0 0
837 279 1 0.5897 -10.998101484115594 -0.13363512891171148 11.84439382918439 1 0 0
791 264 1 0.5897 -10.689322792759173 -0.46831232197774497 14.039405739944677 0 0 0
762 254 1 0.5897 -9.132265697791274 2.47603737848919 11.87316597865306 0 0 0
790 264 2 -1.1794 -10.84285405761388 0.37236276128961343 13.60826094485242 0 0 0
761 254 1 0.5897 -9.405694257345356 1.2800886921335515 12.760067694676012 0 0 0
769 257 2 -1.1794 -12.223090575958974 2.9636979229083593 12.479538905408695 0 0 0
770 257 1 0.5897 -11.672639472193882 3.1521062005849956 13.239617183173326 0 0 0
866 289 1 0.5897 -12.346420810348803 2.036703474623609 15.964427219266323 0 0 0
1101 367 1 0.5897 -10.07934426150631 -0.9533823261960404 16.183827117664123 0 0 0
789 263 1 0.5897 -4.753655167163169 -4.643353859847775 14.163558276306924 0 0 0
758 253 1 0.5897 -9.409498958001839 -5.15389544855786 16.157590487185665 0 0 0
727 243 2 -1.1794 -8.135289735026149 -7.3552328093626445 11.107649015459208 1 0 0
836 279 1 0.5897 -11.164375711775044 -1.4014806906443162 11.034029697599637 1 0 0
1150 384 2 -1.1794 -6.179739614744342 -4.21814553215521 19.102915520654207 0 0 0
1152 384 1 0.5897 -6.778531767858247 -3.845401011810866 19.75001181809221 0 0 0
1227 409 1 0.5897 -8.861806886872827 -2.866605972957574 20.579076958200858 0 0 0
1109 370 1 0.5897 -8.592744504570565 -3.2795611639665747 17.735643209714787 0 0 0
1089 363 1 0.5897 -6.328768239461308 -4.738876556459802 17.442197134456976 0 0 0
1151 384 1 0.5897 -5.976978605680022 -5.0913490083532835 19.438476202250584 0 0 0
1108 370 2 -1.1794 -9.157562565820559 -4.039554297087388 17.596130011051017 0 0 0
1225 409 2 -1.1794 -8.073928516268985 -3.251834659281572 20.96260636620292 0 0 0
1205 402 1 0.5897 -12.302895393407164 1.5238479777757217 18.3419560651106 0 0 0
1131 377 1 0.5897 -7.001118362583911 -1.8253627640282186 17.21450198760435 0 0 0
1219 407 2 -1.1794 -10.260672402423447 -1.8920000528447911 20.15092094835515 0 0 0
1130 377 1 0.5897 -7.25041538994857 -1.475950095018276 18.66627948714821 0 0 0
1088 363 1 0.5897 -6.536191963939443 -6.030470701279569 16.680294741524335 0 0 0
1129 377 2 -1.1794 -7.701972486018689 -1.716096790806696 17.85717927577563 0 0 0
1110 370 1 0.5897 -10.046932572369496 -3.6876474910377244 17.63361804922701 0 0 0
1087 363 2 -1.1794 -6.4059697808937575 -5.090503788169788 16.555278152692345 0 0 0
1196 399 1 0.5897 -9.693309697965113 1.434225442308053 16.381683537910078 0 0 0
1248 416 1 0.5897 -5.6625248251923805 -1.166639450707331 20.688051307029788 0 0 0
1141 381 2 -1.1794 -8.575405095194213 -6.0417771395473885 21.56549127683936 0 0 0
165 55 1 0.5897 -5.490676602253419 -5.614537416671249 21.639119293050115 1 1 -1
1121 374 1 0.5897 -4.810070274836228 -3.3288232818963497 18.43878512491056 0 0 0
1249 417 2 -1.1794 -11.468586190229582 1.0464045814077565 21.48379374742155 0 0 0
1195 399 2 -1.1794 -9.232118692475463 2.272886920969933 16.38673291451981 0 0 0
1229 410 1 0.5897 -7.958025228256868 4.020164888688788 18.692967030941716 0 0 0
1097 366 1 0.5897 -9.013352501100428 -5.6597686517082435 18.51861624062782 0 0 0
1100 367 1 0.5897 -9.311493176144582 -0.7825867640117092 17.477300638475946 0 0 0
1234 412 2 -1.1794 -8.815157895188527 0.5009156432736344 20.273759152455455 0 0 0
1259 420 1 0.5897 -9.117578051752798 2.0338910270757697 19.37810620863887 0 0 0
1258 420 2 -1.1794 -9.307383423887492 2.9101008345418595 19.042809776442418 0 0 0
1260 420 1 0.5897 -10.01511934707792 3.232542528732365 19.600801958442545 0 0 0
1216 406 2 -1.1794 -12.151049583527099 3.1043950138417316 17.442534947954606 0 0 0
1197 399 1 0.5897 -9.335889638140227 2.5984755897393637 17.280860209030337 0 0 0
1206 402 1 0.5897 -11.41238421722294 0.3329262530979342 18.057979187877237 0 0 0
1235 412 1 0.5897 -9.388074074710199 -0.26496660050687026 20.309209607576918 0 0 0
1099 367 2 -1.1794 -10.019608328513648 -0.3976937637729332 16.960908213187544 0 0 0
1009 337 2 -1.1794 -11.325600410687068 3.7656193119461907 20.773435159440815 0 -1 0
1236 412 1 0.5897 -7.939353548330711 0.1393313248714776 20.13792555556455 0 0 0
1246 416 2 -1.1794 -6.163655021224172 -0.7337702241195867 19.99686149527814 0 0 0
1250 417 1 0.5897 -11.586538222492875 0.8008711358726579 20.5661682752079 0 0 0
1218 406 1 0.5897 -13.035019832354882 3.4583912599763753 17.540042879955017 0 0 0
1143 381 1 0.5897 -8.333011549338927 -5.124543510041871 21.438885636051182 0 0 0
1011 337 1 0.5897 -12.135596077973673 4.170048938889547 20.462649044055645 0 -1 0
1226 409 1 0.5897 -7.8728250249881215 -2.690973743349815 21.711738270843156 0 0 0
1251 417 1 0.5897 -11.3245403821153 1.992410501360288 21.462470972650536 0 0 0
273 91 1 0.5897 -8.490799911799543 1.5657024508192077 21.676212332427163 1 1 -1
1221 407 1 0.5897 -10.613000243035234 -2.0237724081997097 19.270729638656377 0 0 0
40 14 2 -1.1794 -15.121296512586818 3.7390133309712255 1.7325070591070733 1 0 0
177 59 1 0.5897 -14.201757324271307 4.298516820781245 3.0635930615911775 1 0 0
56 19 1 0.5897 -12.563379287229862 5.636106606882443 0.9701673968394088 1 0 0
66 22 1 0.5897 -13.591937577319579 2.9035007075936328 1.3911995194939974 1 0 0
65 22 1 0.5897 -12.14497856822873 3.348212410846722 1.4023773595602076 1 0 0
64 22 2 -1.1794 -12.703937083316768 2.5953901606814522 1.2102603114742716 1 0 0
191 64 1 0.5897 -12.623936791811452 6.176497019072858 3.8016015087680537 1 0 0
183 61 1 0.5897 -12.179520724935692 3.663557855864349 4.378546975870501 1 0 0
175 59 2 -1.1794 -13.812173510586948 4.460647685481494 3.9227539397044238 1 0 0
176 59 1 0.5897 -14.5608337115122 4.565106000491015 4.509930674342576 1 0 0
181 61 2 -1.1794 -11.362685730904383 3.3631530128220515 4.776994289844728 1 0 0
55 19 2 -1.1794 -13.348073121695204 6.1003723240012775 0.678684217106143 1 0 0
42 14 1 0.5897 -15.554368774495337 4.365694897097736 1.1528883046717084 1 0 0
108 36 1 0.5897 -10.21752394391105 2.6626250103177647 3.602906372442082 1 0 0
190 64 2 -1.1794 -11.971646299108011 6.876349644717967 3.8296603493958945 1 0 0
160 54 2 -1.1794 -15.199542689169375 7.282239721619002 2.5440122353285206 1 0 0
205 69 2 -1.1794 -15.012925367692993 7.733394743391726 5.365564702969619 1 0 0
85 29 2 -1.1794 -11.00731155907185 4.847740316751535 1.3102384268482936 1 0 0
43 15 2 -1.1794 -9.70971879836661 2.101847174037532 0.2845487583087116 1 0 0
153 51 1 0.5897 -12.88033183705762 9.291316645832486 1.0461829802291747 1 0 0
214 72 2 -1.1794 -12.514146025155647 9.598453535379369 2.786653605161492 1 0 0
162 54 1 0.5897 -14.54308454229719 6.841077504324479 2.0048691738635904 1 0 0
291 97 1 0.5897 -15.187954615075338 10.690199270146314 4.172471697620942 1 0 0
193 65 2 -1.1794 -14.165421893279767 12.291065114492083 1.4678245840187514 1 0 0
206 69 1 0.5897 -14.793831442562078 7.392473863921458 4.4983813319027535 1 0 0
161 54 1 0.5897 -15.166916895650655 8.196308533307155 2.261940589028526 1 0 0
151 51 2 -1.1794 -13.137448238309487 9.152322494826832 0.13469564092608616 1 0 0
215 72 1 0.5897 -12.27651900215076 8.756992866430044 3.1761134336218566 1 0 0
289 97 2 -1.1794 -14.373614056459886 10.369902644179737 4.560415106554237 1 0 0
283 95 2 -1.1794 -16.777277541265484 11.70465324788003 3.834332145646599 1 0 0
285 95 1 0.5897 -17.200162482655145 11.370114442415533 3.0434768043149005 1 0 0
284 95 1 0.5897 -17.492533189290267 11.814429046491886 4.460869704071502 1 0 0
150 50 1 0.5897 -18.69611902153299 11.300511040403174 1.1327210080968053 1 0 0
172 58 2 -1.1794 -15.748472054435815 9.801438352156866 1.6364801242868696 1 0 0
216 72 1 0.5897 -13.230192124431216 9.922233137811842 3.3331489702004946 1 0 0
174 58 1 0.5897 -16.664070968061758 10.059113482064928 1.5292513958484073 1 0 0
148 50 2 -1.1794 -18.257206706395692 10.681853093915015 1.7165553908315738 1 0 0
173 58 1 0.5897 -15.252717748327335 10.603547660506651 1.4724382606246043 1 0 0
192 64 1 0.5897 -11.131864560119372 6.425276800551675 3.742867206075131 1 0 0
167 56 1 0.5897 -16.602819077119385 6.217222237550109 3.22936603670002 1 0 0
207 69 1 0.5897 -14.865611280163423 8.676625901359651 5.296888923699711 1 0 0
45 15 1 0.5897 -9.684046456913954 2.260145198186354 1.2282233242168947 1 0 0
290 97 1 0.5897 -14.209555900509576 10.960412306821729 5.295662708455417 1 0 0
106 36 2 -1.1794 -9.575168723298367 2.304504258624773 2.990242524429507 1 0 0
525 175 1 0.5897 -11.670523767058686 7.966664920807068 5.303915135625021 1 0 0
182 61 1 0.5897 -11.15790602524974 4.0277552372296395 5.434676777665537 1 0 0
86 29 1 0.5897 -10.700260447607075 5.151789294485935 2.164332665855746 1 0 0
508 170 2 -1.1794 -13.392431301849673 6.3092410253063544 7.131373588128626 1 0 0
644 215 1 0.5897 -12.38836006342026 7.2109616389283975 10.21157732790995 1 0 0
643 215 2 -1.1794 -11.822204982411376 7.278964754069678 9.442798815035292 1 0 0
521 174 1 0.5897 -10.350868496203642 3.5159219842662512 7.4865208370315575 1 0 0
510 170 1 0.5897 -13.743792553208003 6.959974439966208 6.523656686354743 1 0 0
509 170 1 0.5897 -14.165786544175504 5.918246705240099 7.53774257984544 1 0 0
532 178 2 -1.1794 -10.951486019592558 5.154043272993977 6.755685251396787 1 0 0
534 178 1 0.5897 -11.818820769193357 5.557053677142516 6.794884896544838 1 0 0
645 215 1 0.5897 -12.386164060607943 7.039445018391104 8.70741972039741 1 0 0
518 173 1 0.5897 -16.713047741510337 7.991531005275798 7.838589793972332 1 0 0
520 174 2 -1.1794 -10.32994868693603 2.6834234766777136 7.958402783414915 1 0 0
630 210 1 0.5897 -12.675407458602058 9.318290836074025 7.2845999979606635 1 0 0
543 181 1 0.5897 -10.341763380089565 6.420561599580308 9.690692815778782 0 0 0
636 212 1 0.5897 -15.204352839595575 7.899309593158565 9.810270808120523 1 0 0
458 153 1 0.5897 -10.104666663918785 3.281104738871619 9.715637513576644 0 0 0
567 189 1 0.5897 -12.949841935880503 11.302028367348628 10.45553579343946 0 0 0
634 212 2 -1.1794 -15.48173883357713 8.518173776999754 9.134779235601533 1 0 0
457 153 2 -1.1794 -9.988991544035843 3.479119132758992 10.644961060725343 0 0 0
635 212 1 0.5897 -14.689802903216412 8.687273374139268 8.6245073076431 1 0 0
642 214 1 0.5897 -14.958479193023486 12.593213931718788 6.828794585810353 1 0 0
566 189 1 0.5897 -13.312323630482538 9.970133035872761 9.833971960124513 0 0 0
629 210 1 0.5897 -13.461463669121096 10.564832628967801 7.631269153206621 1 0 0
640 214 2 -1.1794 -14.098986191284368 12.17215763306283 6.813842505561952 1 0 0
628 210 2 -1.1794 -13.179800711271813 9.723342606193425 7.990118546931296 1 0 0
641 214 1 0.5897 -13.478012617908274 12.8968659389801 6.741364698460923 1 0 0
519 173 1 0.5897 -16.524560476642932 7.574893131459097 6.395400149324719 1 0 0
459 153 1 0.5897 -9.859496654458903 4.427020606978115 10.674045191291064 0 0 0
617 206 1 0.5897 -17.380743425637963 12.70430331588224 7.774158328325893 1 0 0
616 206 2 -1.1794 -16.63283956573286 13.14212530263268 7.367915153400952 1 0 0
565 189 2 -1.1794 -13.250520039229652 10.420578282735962 10.676294446976707 0 0 0
327 109 1 0.5897 -13.63450933479577 13.377806931120551 9.466524391807262 0 -1 0
538 180 2 -1.1794 -15.36468442875997 4.951087419198272 8.398368637159502 1 0 0
624 208 1 0.5897 -17.076848812166187 9.332408012508553 9.425462577532969 1 0 0
533 178 1 0.5897 -10.347733542699128 5.861636160015502 6.981208773736284 1 0 0
876 292 1 0.5897 -12.488092859519808 4.680774547797499 14.848600636155782 0 0 0
874 292 2 -1.1794 -13.334813797718915 5.0807727001780645 15.046838245080329 0 0 0
898 300 2 -1.1794 -13.710524005531166 7.513424932945176 13.849937429174437 0 0 0
945 315 1 0.5897 -13.850700758252142 7.1778013569954435 12.04916547055604 1 0 0
900 300 1 0.5897 -14.502877123093292 7.773030599996053 14.320026681176916 0 0 0
899 300 1 0.5897 -13.522717983318717 6.629593970915682 14.165796770755202 0 0 0
887 296 1 0.5897 -10.124971787072388 4.30386724239931 14.100564251923322 0 0 0
683 228 1 0.5897 -16.88544114964364 13.514191611135272 14.115990022018076 0 -1 0
956 319 1 0.5897 -17.044959055761638 10.90964436481511 12.161106370198969 1 0 0
869 290 1 0.5897 -12.496547138181677 8.543289783162992 13.06384846712645 0 0 0
944 315 1 0.5897 -14.00800609605134 5.984935576371512 11.130404752491485 1 0 0
886 296 2 -1.1794 -10.767918629257313 3.860827470071504 14.65412063172435 0 0 0
658 220 2 -1.1794 -16.515805939013383 11.907014801345374 15.107854372845903 0 -1 0
868 290 2 -1.1794 -11.82667056836155 9.026966558080828 12.580730792672092 0 0 0
878 293 1 0.5897 -14.941456254554755 10.099794011829863 13.25310582124352 0 0 0
680 227 1 0.5897 -10.997599974653532 9.73767505880908 15.310097533935044 0 -1 0
943 315 2 -1.1794 -13.974693158104067 6.941514418157896 11.129908859624196 1 0 0
879 293 1 0.5897 -14.749242610979614 10.076609785438423 11.751638892540841 0 0 0
672 224 1 0.5897 -13.38319603593235 10.168658542780053 15.260161103601538 0 -1 0
671 224 1 0.5897 -13.23841089372068 11.107245065529176 14.081244396217441 0 -1 0
870 290 1 0.5897 -12.313861382671814 9.509553981060494 11.912896324860288 0 0 0
660 220 1 0.5897 -15.628590322253594 11.591871141733405 14.935363151579917 0 -1 0
670 224 2 -1.1794 -13.879293044782333 10.774239004740062 14.709334040642286 0 -1 0
877 293 2 -1.1794 -15.414459875320354 9.968685664876988 12.431343727762373 0 0 0
848 283 1 0.5897 -13.750544348183462 3.9806970632844525 12.203971603178891 1 0 0
875 292 1 0.5897 -13.966136409013544 4.368498618823237 14.946019780448143 0 0 0
650 217 1 0.5897 -15.50836315232139 8.824227574617348 16.270918176283317 0 -1 0
659 220 1 0.5897 -17.039272672260488 11.111139661845955 15.200768520447209 0 -1 0
847 283 2 -1.1794 -14.516481913777039 4.301951886693024 11.728177009023414 1 0 0
710 237 1 0.5897 -11.98959681122115 12.690457782005472 15.088722069880113 0 -1 0
728 243 1 0.5897 -17.620687870939438 13.082259631529068 11.122226702102159 1 -1 0
771 257 1 0.5897 -11.674322802129755 3.1808788232744263 11.725987982023712 0 0 0
1018 340 2 -1.1794 -11.79376647419597 7.455065766550641 20.228667750821486 0 -1 0
1019 340 1 0.5897 -12.391292879802538 6.707547711754549 20.244282819338892 0 -1 0
1020 340 1 0.5897 -10.923661316170438 7.068861289943927 20.328644251868532 0 -1 0
1030 344 2 -1.1794 -9.361352900823592 6.014772679563672 20.086996654523347 0 -1 0
1207 403 2 -1.1794 -13.065508646589919 6.81119432502998 17.262912826412574 0 0 0
1237 413 2 -1.1794 -10.706517061286842 5.5242717552029585 17.784349631731374 0 0 0
1208 403 1 0.5897 -12.246713843667067 6.501004166090405 17.64968316961008 0 0 0
1238 413 1 0.5897 -10.267906265887971 5.529278045757627 18.635134924646465 0 0 0
1239 413 1 0.5897 -10.011948413245076 5.718579676230318 17.155099446638644 0 0 0
1032 344 1 0.5897 -8.820287052518564 5.639296641988027 20.78163193915153 0 -1 0
1034 345 1 0.5897 -14.698709695138469 8.075220117718734 20.765815273552434 0 -1 0
990 330 1 0.5897 -14.337436512634428 7.647981755396261 18.359784406457287 0 -1 0
1003 335 2 -1.1794 -13.57336767280934 5.294012983082039 20.13563342843009 0 -1 0
989 330 1 0.5897 -15.259150242271343 8.83671839526322 18.530955081121434 0 -1 0
980 327 1 0.5897 -12.637415892074943 8.397940486636086 16.514600008118606 0 -1 0
1043 348 1 0.5897 -12.232182208928261 9.103957424831625 19.38713806033337 0 -1 0
1140 380 1 0.5897 -11.906461642448479 12.98081619502735 20.583756217265496 0 -1 0
1002 334 1 0.5897 -16.332494807935902 10.811770292837744 17.851569445135773 0 -1 0
1013 338 1 0.5897 -10.97323775824331 11.209308837101977 18.480973652210984 0 -1 0
1098 366 1 0.5897 -17.364983563805342 14.37431927291298 18.483268262260417 0 -1 0
1127 376 1 0.5897 -15.550596941907907 13.813463480217782 20.26110850172651 0 -1 0
1022 341 1 0.5897 -13.256384352812955 12.706888586762647 18.633827875138252 0 -1 0
1001 334 1 0.5897 -14.842065774054591 11.023427537851413 17.691998747716177 0 -1 0
1023 341 1 0.5897 -12.931436932151104 12.625847759964037 17.15744035896531 0 -1 0
981 327 1 0.5897 -12.375798603244009 9.665493622657563 17.299842069373454 0 -1 0
1119 373 1 0.5897 -14.928604156047307 11.421147136427154 20.775574422003743 0 -1 0
1044 348 1 0.5897 -12.975341291120095 10.35725421158101 19.79809552988671 0 -1 0
1042 348 2 -1.1794 -12.445320219441754 9.988945959854968 19.091227776959016 0 -1 0
1128 376 1 0.5897 -14.075807026875733 14.13586458552694 20.148608311571905 0 -1 0
1021 341 2 -1.1794 -13.62842976879126 12.451219803934078 17.78976845446936 0 -1 0
992 331 1 0.5897 -15.210544192513243 13.348315726440534 17.439438846654696 0 -1 0
1000 334 2 -1.1794 -15.511633345845867 10.3397849231324 17.711372482513234 0 -1 0
1117 373 2 -1.1794 -14.10882340601534 11.049917444717282 21.10173438582735 0 -1 0
1138 380 2 -1.1794 -12.292221826568397 13.583674262427751 19.948154874421554 0 -1 0
1126 376 2 -1.1794 -14.940201484302731 14.545975018939762 20.1780079101338 0 -1 0
991 331 2 -1.1794 -16.109833281337984 13.58765929199774 17.215381054083657 0 -1 0
1035 345 1 0.5897 -14.410782664628213 9.262267442689298 21.660120026975093 0 -1 0
1010 337 1 0.5897 -10.866197713356028 4.469563530529124 21.231193363007456 0 -1 0
1111 371 2 -1.1794 -16.49563554365153 12.32589340090855 20.41633576944586 0 -1 0
988 330 2 -1.1794 -15.007845222006306 8.008647141018168 18.940044560115012 0 -1 0
979 327 2 -1.1794 -12.348055594877025 9.304684552075342 16.41367954064868 0 -1 0
993 331 1 0.5897 -16.350122678777044 12.985342054388996 16.511347213512792 0 -1 0
1209 403 1 0.5897 -13.237807369091113 6.2018569461867035 16.545126059640012 0 0 0
1033 345 2 -1.1794 -14.578464762241932 8.320212506646124 21.68328724951313 0 -1 0
1031 344 1 0.5897 -8.76384353865481 6.57817457995907 19.595420124796952 0 -1 0
57 19 1 0.5897 -11.633726619855967 8.56529274763158 21.696518991645434 1 0 -1
152 51 1 0.5897 -11.092064357453712 11.187329683692303 21.777299482364725 1 0 -1
1217 406 1 0.5897 -11.59269753615492 3.8759881570030714 17.3479363082419 0 0 0
1142 381 1 0.5897 -17.82220669932108 14.943166369226207 20.678949536943193 0 -1 0
1118 373 1 0.5897 -13.812800127307163 11.67018787335027 21.767930103472082 0 -1 0
292 98 2 -1.1794 -4.321520614915134 -3.5354495423964147 1.8707834232107938 1 1 0
95 32 1 0.5897 -6.078509978291055 -0.7490035496900269 3.3840209023367347 1 0 0
243 81 1 0.5897 -1.0421608957237112 -5.603751187373252 5.304195061492413 0 1 0
318 106 1 0.5897 -2.762233923641112 -4.1920858121023326 1.5090776948990074 1 1 0
307 103 2 -1.1794 -2.62313629971697 -0.9980945709221611 1.040802109156636 1 1 0
201 67 1 0.5897 0.10599641060572296 -8.427614956625808 0.08145620984120372 1 1 0
242 81 1 0.5897 -1.078041128504477 -6.817998642065895 4.400795164175136 0 1 0
305 102 1 0.5897 -1.5101358618279264 -5.97480965799633 2.2171247723812835 1 1 0
316 106 2 -1.1794 -1.8536831026498426 -4.430259054780723 1.3246480511165453 1 1 0
311 104 1 0.5897 -2.789351084155175 -7.804396698492653 3.3452330891389592 1 1 0
306 102 1 0.5897 -0.7935443900386367 -7.266741185025178 1.8864901661431137 1 1 0
304 102 2 -1.1794 -1.4023672352275582 -6.8781626036036725 2.514639263523465 1 1 0
293 98 1 0.5897 -5.01192621792741 -4.010020398197306 2.3336043639908515 1 1 0
303 101 1 0.5897 -7.331293272418222 -2.1940364516598345 0.7463514868664337 1 1 0
26 9 1 0.5897 -4.00041538197469 0.2972339824365502 4.5725171007470236 0 0 0
96 32 1 0.5897 -6.357331402884429 -1.9314431550561268 4.287195940984336 1 0 0
94 32 2 -1.1794 -6.76737904883049 -1.3647363192389461 3.6337855416529434 1 0 0
294 98 1 0.5897 -4.789045164047791 -2.8999717539007115 1.3287185249897508 1 1 0
105 35 1 0.5897 -3.3823553332407377 -2.613605272870754 3.1837504935705865 1 0 0
88 30 2 -1.1794 -4.496849277917536 0.08906644589101553 2.6905399841058895 1 0 0
90 30 1 0.5897 -3.8785274818926156 -0.38101253645132793 2.13112871104885 1 0 0
27 9 1 0.5897 -3.7918578016074385 1.505451411714068 5.460485099943462 0 0 0
103 35 2 -1.1794 -2.994298996656214 -2.3405764661025437 4.0150662951578 1 0 0
104 35 1 0.5897 -3.6473774160467602 -2.5765552334222352 4.673808341047014 1 0 0
89 30 1 0.5897 -4.604543581740889 0.940513701397208 2.266724735497938 1 0 0
199 67 2 -1.1794 0.40938677775758414 -7.85070145904777 0.7823821343794872 1 1 0
3 1 1 0.5897 -1.4745483321611879 -3.397404684533732 4.34797572102804 0 0 0
317 106 1 0.5897 -1.351995311534166 -3.6423598130834485 1.533486523066861 1 1 0
310 104 2 -1.1794 -3.5318065693187135 -8.25797328484066 3.7441199331072412 1 1 0
241 81 2 -1.1794 -1.1433074164084918 -6.55542681131625 5.3189646653824045 0 1 0
309 103 1 0.5897 -2.7136166980191305 -1.6686525779606658 0.3637717455305685 1 1 0
195 65 1 0.5897 -4.381329972807811 -9.044577801069345 0.7634602239722957 1 1 0
1 1 2 -1.1794 -0.6839227771200846 -3.7743511283809195 4.734068837984927 0 0 0
1046 349 1 0.5897 -5.1135691195235236 1.3514359968262948 0.09781303952527397 0 -1 1
25 9 2 -1.1794 -4.01817298775233 0.5758632507222767 5.488096780308897 0 0 0
346 116 2 -1.1794 -1.7388220416978921 -5.772729738595098 9.181332693325635 0 0 0
338 113 1 0.5897 -5.868232269518725 0.3529507835439336 7.874998559630031 0 0 0
455 152 1 0.5897 -4.157886429601927 1.6788478955082144 8.649180376848658 0 0 0
403 135 2 -1.1794 -5.131082860774924 -2.948923466105118 5.540101143841433 1 0 0
632 211 1 0.5897 -4.817237841909534 -5.902314914770501 6.657872118328541 1 1 0
546 182 1 0.5897 -0.15712997620275182 -7.416032096219997 6.539137880226213 0 1 0