LAMMPS data file via write_data, version 30 Jul 2021, timestep = 500000

864 atoms
2 atom types
576 bonds
1 bond types
288 angles
1 angle types

0.4648333086827936 17.74273909131611 xlo xhi
1.6390435082193928 21.99013429178509 ylo yhi
0.567095550868105 21.646100249132065 zlo zhi

Masses

1 1.00794
2 15.9994

Pair Coeffs # lj/cut/tip4p/long/omp

1 0 0
2 0.21084 3.1668

Bond Coeffs # harmonic/omp

1 450 0.9572

Angle Coeffs # harmonic/omp

1 55 104.52

Atoms # full

416 1 1 0.5897 2.3300582215280086 1.726082827256266 3.7582981371746365 0 -2 -1
703 1 2 -1.1794 4.151378167119049 5.8558073610745955 2.1544713555430626 2 -2 0
704 1 1 0.5897 5.06930085881694 5.6652376530979325 2.34774165469528 2 -2 0
143 1 1 0.5897 2.9092587201092575 5.733393015961411 3.391904762354909 0 5 4
142 1 2 -1.1794 2.277676439664039 5.529317954930645 4.081623005041324 0 5 4
144 1 1 0.5897 1.7796835946553704 6.338449336640981 4.198079921076742 0 5 4
695 1 1 0.5897 2.0307645160211036 3.8766085268117365 6.826892398818393 1 -1 0
432 1 1 0.5897 4.881579853969596 6.5403893083296 5.232052936281184 -5 -3 -2
430 1 2 -1.1794 4.733689794890552 5.633394934329406 5.499896943798469 -5 -3 -2
431 1 1 0.5897 3.8321648784594133 5.449216243077286 5.236111332290579 -5 -3 -2
554 1 1 0.5897 2.036589925048138 7.676559345883533 6.453167222776959 -4 -5 3
694 1 2 -1.1794 2.293179683837697 3.4125896280574066 6.031858449850312 1 -1 0
705 1 1 0.5897 3.886557554848163 5.167183261576449 1.5446182189458408 2 -2 0
23 1 1 0.5897 5.1055316446324746 7.115418451512328 1.1729714312264863 -3 4 2
696 1 1 0.5897 2.1146765378273007 4.030777251786091 5.323190952272346 1 -1 0
648 1 1 0.5897 4.59176219234795 4.658221898059304 7.156974837284182 -4 0 -1
553 1 2 -1.1794 2.3780810076642487 7.69368659522623 7.347227892852596 -4 -5 3
429 1 1 0.5897 6.11280387741491 3.4225653340556157 1.6027075351902798 2 1 -3
240 1 1 0.5897 1.4784285628521818 3.92252954012941 3.27090946518535 -4 -4 -1
239 1 1 0.5897 0.6677431251494652 2.96587832922055 2.4226473102430055 -4 -4 -1
238 1 2 -1.1794 1.2164212837749973 3.0041623464859573 3.206058911170453 -4 -4 -1
579 1 1 0.5897 3.900772722984868 2.344936297578773 6.543261151039842 1 2 -1
66 1 1 0.5897 3.1691154836671696 3.2528030728997814 0.688615197692954 4 1 -2
819 1 1 0.5897 5.021957102497658 2.481258398378043 4.4096492883096445 3 -1 0
817 1 2 -1.1794 5.732957060439145 2.4741334159009885 3.768805861912155 3 0 0
578 1 1 0.5897 5.246436643981666 1.6513212825130685 6.537688923927115 1 2 -1
65 1 1 0.5897 2.109106323861659 4.332436991250418 0.7402151363516885 4 1 -2
684 1 1 0.5897 1.2270112908522997 6.462416294085066 0.6645465335476217 5 0 -3
682 1 2 -1.1794 0.8440051563176929 5.769016567486375 1.2019001511212708 5 0 -3
18 1 1 0.5897 0.5961734553714709 5.002984054418164 7.4046655856890515 -2 3 3
649 1 2 -1.1794 1.6901917150052785 8.27174150535636 4.693966026175483 1 -1 0
844 1 2 -1.1794 5.562695277017871 8.123197666816118 4.901524552516417 -1 0 3
283 1 2 -1.1794 3.7251860191235475 1.6516903989396141 1.351783482095244 4 1 -3
427 1 2 -1.1794 5.788734987559747 3.2489556095021785 0.7189210016024307 2 1 -3
428 1 1 0.5897 5.03682731422064 2.6708888944989684 0.8482568977261903 2 1 -3
165 1 1 0.5897 7.002878312966233 5.299499634554197 3.5382275580252798 -4 2 -1
674 1 1 0.5897 6.316604922027411 4.686232046129235 5.333789538829154 -3 -1 -1
164 1 1 0.5897 7.604637917238659 5.666825676762184 2.1984938072398297 -4 2 -1
163 1 2 -1.1794 6.776884350289784 5.431131024170037 2.6174424702837475 -4 2 -1
675 1 1 0.5897 7.116376262742899 3.54557820302702 5.926432152193275 -3 -1 -1
673 1 2 -1.1794 7.162100944049967 4.241857472813583 5.271177326909129 -3 -1 -1
818 1 1 0.5897 6.400855568190137 3.047420167648614 4.144977525112393 3 0 0
796 1 2 -1.1794 9.161837574272491 6.490345372841133 5.69384627505404 1 -4 -3
798 1 1 0.5897 8.481675318662733 5.933964253062158 6.073404772010106 1 -4 -3
797 1 1 0.5897 8.946690277617384 7.372628267162408 5.9963964349912855 1 -4 -3
562 1 2 -1.1794 11.1837355373959 7.929348744934878 2.8521707057124277 1 2 4
564 1 1 0.5897 11.577532696575123 7.273098805977755 2.2772816085520184 1 2 4
101 1 1 0.5897 10.371851527329442 5.202934115854352 2.987629129115566 3 -5 -1
100 1 2 -1.1794 9.835387706714457 4.7385640840785515 3.630132537250572 3 -5 -1
102 1 1 0.5897 9.470102853308612 5.429877513867534 4.182306814564932 3 -5 -1
545 1 1 0.5897 9.45225651122014 2.8573534991426532 3.9021389212637025 -5 4 5
544 1 2 -1.1794 9.58363924002204 1.95295615859158 4.1868218135577155 -5 4 5
765 1 1 0.5897 10.179110104824629 2.467172676695463 7.268075148608929 -4 1 -3
188 1 1 0.5897 9.177169106122168 7.104493459108977 1.0259051583550243 -1 5 2
187 1 2 -1.1794 8.860919212925635 6.206300981643144 1.1233063793931315 -1 5 2
854 1 1 0.5897 11.97329864694648 4.08768657832101 3.4753503207673364 -4 1 1
568 1 2 -1.1794 10.89833762033636 5.454677302121104 7.529987939066968 1 1 0
325 1 2 -1.1794 6.943264172202826 2.036122998340202 7.181834729089192 1 0 -1
570 1 1 0.5897 10.294536050872479 5.83398437790776 6.891394767269774 1 1 0
185 1 1 0.5897 11.469770049491068 5.434535669091892 0.9793965084686537 -1 6 4
846 1 1 0.5897 6.338296569079404 8.07070128539547 5.46003989487394 -1 0 3
763 1 2 -1.1794 10.846330224215775 1.9135028071280953 6.862473735581811 -4 1 -3
764 1 1 0.5897 10.610425734901 1.8937503322154337 5.935003761351965 -4 1 -3
683 1 1 0.5897 17.68769849599704 6.232538320366304 1.9180396860090807 4 0 -3
493 1 2 -1.1794 16.61319017437924 2.381986548718459 1.0653733752309775 -2 0 0
184 1 2 -1.1794 12.007179087149519 5.435752417072747 1.771508043535467 -1 6 4
539 1 1 0.5897 16.02789640517649 6.781370321046865 3.749601088354297 -3 -3 1
538 1 2 -1.1794 16.504333078673596 5.952992134538511 3.6943577727560974 -3 -3 1
540 1 1 0.5897 16.539397802433136 5.635664944267229 4.596759040378329 -3 -3 1
186 1 1 0.5897 12.711517215190081 4.81508218389653 1.5846119625100938 -1 6 4
77 1 1 0.5897 13.073757349823529 4.86482637665727 5.134920538486749 -5 -4 -5
60 1 1 0.5897 15.356535391705918 3.64365057576231 1.6626305731819366 2 -1 -2
58 1 2 -1.1794 14.778390433243759 4.196889111415187 2.1879187503277597 2 -1 -2
59 1 1 0.5897 15.37166193477651 4.759540538106343 2.685617960658199 2 -1 -2
76 1 2 -1.1794 13.294787597362939 5.350117696660121 5.929831573404409 -5 -4 -5
78 1 1 0.5897 12.546275265897247 5.213209080130712 6.510545201076321 -5 -4 -5
12 1 1 0.5897 12.958300030390669 7.152545262955319 5.696238208018283 -3 0 6
10 1 2 -1.1794 12.494862207882358 7.971986532948574 5.523061622989406 -3 0 6
11 1 1 0.5897 12.082945868983678 7.838937060916217 4.66933880815562 -3 0 6
108 1 1 0.5897 16.28501114120468 4.220942262233634 6.007988700966178 -2 -1 2
106 1 2 -1.1794 16.565126737353907 5.087789383278053 6.30186503445151 -2 -1 2
107 1 1 0.5897 15.810233471997401 5.435834930185543 6.776473098589385 -2 -1 2
812 1 1 0.5897 15.39531740968873 2.7292069992912227 4.169728704029791 -7 6 -3
811 1 2 -1.1794 16.036951596071397 2.7287786238498106 4.880052398923355 -7 6 -3
855 1 1 0.5897 13.469142504581413 4.007844910169015 3.2563006880454357 -4 1 1
813 1 1 0.5897 16.86628611538925 2.9462955748653767 4.4544509928484075 -7 6 -3
853 1 2 -1.1794 12.777824687806628 3.7434641417999908 3.863281902631079 -4 1 1
837 1 1 0.5897 13.9193923381899 3.773150266161305 7.002423528875911 -2 1 -2
768 1 1 0.5897 14.160419855758965 8.320444659739834 4.51423869963422 -3 -2 1
766 1 2 -1.1794 14.940724496836594 8.28727029528114 3.9608196958149806 -3 -2 1
736 1 2 -1.1794 14.525312424821932 7.644213908619227 1.1569800699478472 1 -1 -1
738 1 1 0.5897 13.695858378186331 8.00787085475816 0.8471222659799051 1 -1 -1
737 1 1 0.5897 14.652573220613652 8.038157042234658 2.0200361263335065 1 -1 -1
489 1 1 0.5897 12.581479921592567 1.6841257639726943 3.4993108093110874 1 -5 2
650 1 1 0.5897 0.9274840519082233 8.835010449406823 4.825340271083131 1 -1 0
62 1 1 0.5897 4.337798733358476 11.218264459679984 6.117294118825506 -3 0 4
61 1 2 -1.1794 5.099857392211196 10.639866253000001 6.148519491642836 -3 0 4
651 1 1 0.5897 2.411806096753768 8.879097220588026 4.5307317926063195 1 -1 0
75 1 1 0.5897 4.026320756086513 10.636880498832307 3.5485109004643447 0 0 4
498 1 1 0.5897 3.9437059972467305 14.976773008850133 3.9938229118195316 2 0 2
573 1 1 0.5897 1.7893983762153334 12.52658932996516 4.787503818773022 2 -3 -3
243 1 1 0.5897 3.9872289746244123 14.757229685535906 6.5179312387331505 -1 -3 2
310 1 2 -1.1794 2.6880994333819945 12.016859686010225 6.3220917012492475 -1 3 2
73 1 2 -1.1794 3.2555815357122393 10.132553334617468 3.288001135866678 0 0 4
74 1 1 0.5897 2.584761415883696 10.792592820458157 3.1130818628342434 0 0 4
312 1 1 0.5897 2.969774309287571 12.54607371591433 7.0683008856465595 -1 3 2
809 1 1 0.5897 2.9261701423290614 9.08085795526206 1.1457653712122133 3 0 -1
845 1 1 0.5897 5.071280197684882 8.870358312137167 5.24286772031549 -1 0 3
311 1 1 0.5897 2.0341762725137364 11.419341817344625 6.684847964845716 -1 3 2
643 1 2 -1.1794 3.7401978432413374 13.816974487956083 2.6927660579836017 4 -2 0
644 1 1 0.5897 4.046481002598021 14.329223990232121 1.944405814684409 4 -2 0
572 1 1 0.5897 1.9031361478055495 13.445821142106096 3.5900023465218296 2 -3 -3
595 1 2 -1.1794 0.8212186763615095 14.085956971591736 0.9997861213939853 1 -4 0
571 1 2 -1.1794 1.2757270783893238 12.912357587686522 4.077882223842287 2 -3 -3
241 1 2 -1.1794 4.003305789469234 14.585744054441511 7.459516532784032 -1 -3 2
597 1 1 0.5897 1.07340036327422 14.76920314737272 1.62094031848197 1 -4 0
645 1 1 0.5897 4.398417873594934 13.130165543049264 2.798999360824501 4 -2 0
596 1 1 0.5897 0.8863694705860953 13.271842359060503 1.4990031006383902 2 -4 0
151 1 2 -1.1794 5.972826493439613 11.732965287000038 3.187178404084288 3 -1 0
534 1 1 0.5897 0.552505666585148 9.352940666808877 1.8370355602694826 -5 -2 -2
181 1 2 -1.1794 0.6960846227780983 11.203060766026551 1.656184494810067 -3 2 -1
63 1 1 0.5897 5.126092065334086 10.32605441491475 7.05244216577517 -3 0 4
183 1 1 0.5897 0.799666673289362 11.322083685676215 0.7120707679877885 -3 2 -1
563 1 1 0.5897 11.725625575860828 8.70929534589602 2.732633354253676 1 2 4
128 1 1 0.5897 9.800899347719948 9.05999425009856 3.525911736494133 -1 1 -3
125 1 1 0.5897 9.728353958197935 9.641465986061746 1.1071766213708987 1 1 3
153 1 1 0.5897 6.779155785639114 12.21614777933884 3.3677879150180363 3 -1 0
152 1 1 0.5897 6.23642082502411 11.046871272192224 2.573953557949842 3 -1 -1
635 1 1 0.5897 6.402349928386045 8.659249133670437 3.338254010080268 -8 1 2
634 1 2 -1.1794 6.810877309541739 9.062045604056463 2.5720324571244984 -8 1 2
127 1 2 -1.1794 9.254710844030338 9.723553798231015 3.9473592894505565 -1 1 -3
105 1 1 0.5897 6.39471041972048 12.0451745629076 6.656193081690205 2 0 6
725 1 1 0.5897 10.128845219129081 9.353213579876481 7.302049082706844 0 -5 2
636 1 1 0.5897 6.493518439880197 8.545341273338078 1.8313879907883892 -8 1 2
104 1 1 0.5897 7.290660852930512 13.098249570773326 6.039545939883785 2 0 6
103 1 2 -1.1794 7.016160085845176 12.737163961402704 6.8824691756074055 2 0 6
687 1 1 0.5897 10.667279407313574 12.230056493681495 5.461307562217505 8 -6 -3
129 1 1 0.5897 8.498255179806652 9.815066745661555 3.368009431042258 -1 1 -3
702 1 1 0.5897 10.482559982026649 14.266433167915615 2.0799372354293677 4 0 1
700 1 2 -1.1794 9.647623964386547 14.160570375268751 1.6239462914247142 4 0 1
157 1 2 -1.1794 10.40206055803653 14.06050609292576 5.195942281146802 2 1 -2
159 1 1 0.5897 10.599425327598546 14.375699840258768 6.077959148093434 2 1 -2
685 1 2 -1.1794 10.68694239608903 11.358949107866726 5.857567161555046 8 -6 -3
686 1 1 0.5897 10.256122795035246 10.7938000040305 5.216280285414735 8 -6 -3
692 1 1 0.5897 7.992679215538704 12.675723473953132 0.9150439135457067 2 0 3
691 1 2 -1.1794 7.956730269480543 11.720234559181423 0.9597462945471605 2 0 3
719 1 1 0.5897 9.983089747381344 11.762691970828289 1.5357349289699929 4 5 0
718 1 2 -1.1794 10.86902565799322 11.414646705948451 1.4345594683652316 4 5 0
720 1 1 0.5897 11.196053740072927 11.820449033233672 0.6316712905199983 4 5 0
28 1 2 -1.1794 7.859571205098792 13.394565077036665 4.286633982277976 -6 -1 5
158 1 1 0.5897 11.225803906104018 14.154561378917005 4.717555835514249 2 1 -2
29 1 1 0.5897 8.781905754289376 13.643979766596246 4.344469222371703 -6 -1 5
30 1 1 0.5897 7.42337218918161 14.168985251135041 3.93131066378557 -6 -1 5
701 1 1 0.5897 9.202503090155005 14.999960066534763 1.7403242926881446 4 0 1
113 1 1 0.5897 9.81483212909661 11.550388448858087 7.451307452878945 -2 -2 2
726 1 1 0.5897 11.412464850895017 8.576175328867027 7.100851261595565 0 -5 2
321 1 1 0.5897 7.722974767692183 9.807091297093073 6.8851958003167235 2 -2 1
319 1 2 -1.1794 8.054167423497349 9.06824619617344 6.3746339341003075 2 -2 1
320 1 1 0.5897 8.35980188560665 9.459769710873065 5.556372713018119 2 -2 1
532 1 2 -1.1794 17.49871224590244 8.481822210485216 2.054695837824661 -6 -2 -2
533 1 1 0.5897 17.506112538062318 8.454366329651782 3.011483187455368 -6 -2 -2
759 1 1 0.5897 12.36631830610388 10.597007057098931 2.1564253905933706 1 1 2
767 1 1 0.5897 15.541734408290196 8.919302869743497 4.355249713032064 -3 -2 1
182 1 1 0.5897 17.03476034936034 11.306050804555055 1.8094378102412532 -3 2 -1
758 1 1 0.5897 13.07216574952685 10.392771941723714 3.480055539351136 1 1 2
757 1 2 -1.1794 12.820617364079638 9.935188591048966 2.6778115913438034 1 1 2
305 1 1 0.5897 13.785451934260054 10.496884654279429 5.937552593455574 3 0 -5
306 1 1 0.5897 12.439447032209701 11.015711038560465 5.478160549803417 3 0 -5
304 1 2 -1.1794 13.370321061371536 11.024624596816787 5.255342117450429 3 0 -5
828 1 1 0.5897 15.301651012647547 12.309280081174208 3.0548027068146757 -1 1 2
473 1 1 0.5897 16.68940383971688 10.661917416865373 3.9316917566254563 0 0 -3
827 1 1 0.5897 14.863259656993066 11.20603727433622 2.115325184650119 -1 1 2
826 1 2 -1.1794 15.598736499435304 11.490437446908176 2.657950960023482 -1 1 2
472 1 2 -1.1794 17.007454878900333 10.118015880544739 4.652292238111107 0 0 -3
474 1 1 0.5897 17.023140842187345 10.70567321615498 5.407716776857223 0 0 -3
252 1 1 0.5897 15.175520405880032 14.2796448386418 3.7877893227795267 4 -4 3
280 1 2 -1.1794 16.365645967024662 14.44301013448402 5.069188318377864 -3 -1 2
281 1 1 0.5897 17.12219494125239 13.98268797447972 4.705893088585505 -3 -1 2
282 1 1 0.5897 16.452729152822894 14.337523218124138 6.016561945044601 -3 -1 2
251 1 1 0.5897 15.0767432550044 14.340968365804974 2.2783540174742036 4 -4 3
250 1 2 -1.1794 14.680141014750383 13.930612827941609 3.0468307765378406 4 -4 3
731 1 1 0.5897 12.975706296111188 14.414933449935956 3.076197626114116 2 1 -4
353 1 1 0.5897 13.702038454229822 12.470442403095939 6.500712372455208 5 3 -1
622 1 2 -1.1794 16.990679806939752 11.020197994837927 7.273476007382332 4 -2 2
623 1 1 0.5897 16.11398266382536 10.743732120374808 7.540345425909216 4 -2 2
203 1 1 0.5897 15.05575995717101 8.914459421081819 7.5140193143026615 -5 3 2
225 1 1 0.5897 16.91087923405162 12.89799727794368 7.50571333912031 2 -1 -8
354 1 1 0.5897 13.424240427719008 13.823745115521799 7.119858714307388 5 3 -1
352 1 2 -1.1794 13.847604648212688 12.983446249566 7.295623791197288 5 3 -1
730 1 2 -1.1794 12.11316285448204 14.824529756094678 3.009157309658797 2 1 -4
678 1 1 0.5897 12.572917060803768 14.833338242154696 1.1076075886522858 2 -1 -2
202 1 2 -1.1794 14.602414328945603 9.753719731462837 7.4342133156219985 -5 3 2
577 1 2 -1.1794 4.3743633671360564 21.965852101982087 6.144752289835602 1 1 -1
496 1 2 -1.1794 4.266397013388847 15.312034561454864 4.830318041361938 2 0 3
417 1 1 0.5897 3.4647114649977593 21.558702272689985 4.616023972418699 0 -3 -1
415 1 2 -1.1794 2.9329153041722495 21.33945094904994 3.8509283832693244 0 -3 -1
497 1 1 0.5897 3.755149241468362 16.106609384493332 4.9837012668582865 2 0 3
285 1 1 0.5897 3.464020885932693 21.834025073339454 2.257081237609962 4 0 -3
642 1 1 0.5897 3.552508494712861 16.52877724532591 0.9769872093779517 4 1 -3
301 1 2 -1.1794 1.1575638641074921 15.949153673264648 2.990004619113149 -1 1 7
303 1 1 0.5897 1.547066271293077 16.233271531730125 3.816937382939902 -1 1 7
641 1 1 0.5897 2.2582382373300387 16.724058788930897 1.7376949394043137 4 1 -3
492 1 1 0.5897 1.969729307922246 17.468050573296274 5.981568355188547 1 3 4
491 1 1 0.5897 2.7708698729912657 17.845055718606304 4.753573819338744 1 3 4
490 1 2 -1.1794 2.281206040665217 17.121843325599286 5.145283149098256 1 3 4
170 1 1 0.5897 5.376877425095029 18.51619214096023 2.6584909072629923 -4 5 -1
284 1 1 0.5897 3.408976986289227 21.24170224751336 0.8649359158471764 4 0 -3
477 1 1 0.5897 1.341246457292522 21.916354776874403 6.725846145288788 5 -3 -2
7 1 2 -1.1794 3.4548358732565383 18.5876592648925 3.1855372808894744 3 -2 -1
8 1 1 0.5897 3.0768010725025223 19.463539607327547 3.2641196306559896 3 -2 -1
9 1 1 0.5897 3.0440320375848704 18.21820952156959 2.403873109709548 3 -2 -1
522 1 1 0.5897 3.5559220269192346 19.394671184914998 6.3560071211908715 -2 -1 -3
475 1 2 -1.1794 1.273754273764298 21.21926300724438 7.378346551445376 5 -3 -2
476 1 1 0.5897 1.8083714347801985 20.507874684870337 7.025698473935485 5 -3 -2
640 1 2 -1.1794 2.727721892035691 17.014083308886768 0.9555683603255445 4 1 -3
520 1 2 -1.1794 2.9318126550765484 19.056682486345693 6.9982721076047385 -2 -1 -3
521 1 1 0.5897 3.418644380072693 18.38464664752911 7.475362054588896 -2 -1 -3
244 1 2 -1.1794 5.412295554369175 18.933701895743127 5.602074439091093 -4 2 0
860 1 1 0.5897 5.532453828806575 15.852554743616569 1.6708416321167885 -1 -2 1
246 1 1 0.5897 5.9282350455761685 19.627153145727554 5.190756037660384 -4 2 0
51 1 1 0.5897 5.849460564238045 15.824815533941566 3.8574131682322 8 0 -1
245 1 1 0.5897 6.0272025928713955 18.207825059420173 5.708114635912949 -4 2 0
859 1 2 -1.1794 4.978017932413266 15.567004584965401 0.944680396463793 -1 -2 1
546 1 1 0.5897 9.611060487029395 21.798350429115086 3.374566016769287 -5 3 5
169 1 2 -1.1794 6.245229809642139 18.41131973041668 2.2696247742064415 -4 5 -1
171 1 1 0.5897 6.574928537878834 19.304869534269656 2.17412450571817 -4 5 -1
749 1 1 0.5897 9.524505233050844 21.875023937937762 1.2539471513809137 2 4 0
453 1 1 0.5897 6.583936636719524 21.04817489024441 3.8979485076379223 -2 -2 5
451 1 2 -1.1794 7.2591508393785285 20.556281684495943 4.365259007973007 -2 -2 5
50 1 1 0.5897 6.6351657975183596 16.90976831406858 3.152079536009657 8 0 -1
452 1 1 0.5897 8.004412890037491 21.155272951504188 4.41051587925891 -2 -2 5
49 1 2 -1.1794 6.587049035816164 15.960167471900572 3.262520405325231 8 0 -1
110 1 1 0.5897 8.105383840725352 17.266180153491412 5.8789643608936055 0 -1 -7
536 1 1 0.5897 10.307388855020797 17.435579362384267 1.8859426732643667 4 6 3
535 1 2 -1.1794 9.569023468095182 16.860652315316855 2.087247668179005 4 6 3
109 1 2 -1.1794 7.270903939706037 17.171179715864902 6.338170150575779 0 -1 -7
111 1 1 0.5897 7.3918463081912575 16.4055551447328 6.899810077433567 0 -1 -7
537 1 1 0.5897 9.219429782526587 17.198738382547322 2.9117051016820965 4 6 3
748 1 2 -1.1794 9.393492637893083 21.08645888652208 1.7804967061320414 2 4 0
190 1 2 -1.1794 9.060718638649478 18.419371858134298 4.653079636931258 3 3 -4
750 1 1 0.5897 10.04210823508747 20.465703790068012 1.4485106855037562 2 4 0
192 1 1 0.5897 8.489538611026903 19.17784202119715 4.531726681202169 3 3 -4
191 1 1 0.5897 9.946535966163319 18.76701513709748 4.549540702773831 3 3 -4
551 1 1 0.5897 7.8111043592041165 20.63660473153623 0.8098181328387075 -2 5 -3
326 1 1 0.5897 7.53642849023761 21.65263227378945 7.339315777251222 1 -1 -1
565 1 2 -1.1794 11.778740997077652 19.226379645016323 4.7463037328860835 -1 4 -7
384 1 1 0.5897 6.314953155616691 19.148292248049195 7.340912699057536 -8 -2 -2
754 1 2 -1.1794 10.980780748098494 19.002004048543462 0.7594716128294328 -3 -3 -3
552 1 1 0.5897 6.6679253858895144 21.621201207165342 0.6846964642620679 -2 5 -3
550 1 2 -1.1794 6.871588390208244 20.687296356018592 0.6337746600574155 -2 5 -3
755 1 1 0.5897 11.92685385098496 19.08204327181027 0.881099822677271 -3 -3 -3
494 1 1 0.5897 16.0799724660493 21.985077293635953 1.33449856912988 -2 -1 0
140 1 1 0.5897 12.167234903131838 21.982123090062164 1.1759567728730707 -2 -3 0
302 1 1 0.5897 17.597861444564053 16.41058170183252 2.948197252487794 -2 1 7
381 1 1 0.5897 12.093925006917324 20.96853516283631 7.119401958196421 7 2 0
120 1 1 0.5897 15.576047654529466 17.022402271832973 6.725795187661073 3 -3 -1
118 1 2 -1.1794 16.423405439662467 16.918563200429 6.292837233753752 3 -3 -1
351 1 1 0.5897 15.378835800993208 20.267695356525145 6.5523377114229024 -8 0 -2
119 1 1 0.5897 16.306617121926735 16.16484852048834 5.714456369069277 3 -3 -1
387 1 1 0.5897 16.214364509207407 19.962016723944238 4.476474217945613 -6 1 2
300 1 1 0.5897 15.61471998072651 20.260579363306682 2.531026736644379 -5 -2 1
732 1 1 0.5897 12.286103045785287 15.762608688875872 3.0888555309664913 2 1 -4
350 1 1 0.5897 15.409175199698064 21.472670627071423 5.6363352118489045 -8 0 -2
349 1 2 -1.1794 14.9538394723803 20.64325965167113 5.7812463958256375 -8 0 -2
566 1 1 0.5897 12.037175188218985 19.980220535765547 4.216033572907966 -1 4 -7
500 1 1 0.5897 15.08253578960581 17.355851443814622 3.3460042815645403 -1 -1 -2
499 1 2 -1.1794 15.968999921572012 17.19577903423778 3.022265232783977 -1 -1 -2
501 1 1 0.5897 15.89428687781048 17.270880522520322 2.070939334569269 -1 -1 -2
386 1 1 0.5897 16.741414029898074 18.808304540782878 3.6499657281994096 -6 1 2
385 1 2 -1.1794 16.860828849494574 19.74536316002972 3.8046128877741467 -6 1 2
488 1 1 0.5897 13.395086170271414 21.112535981824053 2.6168983986290595 1 -6 2
487 1 2 -1.1794 12.526578225205146 21.21705160830779 3.0055078658865453 1 -6 2
530 1 1 0.5897 12.809845805002976 17.83563865295831 4.100323861123861 -3 -1 -5
567 1 1 0.5897 11.985755084507439 19.482831037010463 5.644984382154525 -1 4 -7
529 1 2 -1.1794 13.403107017489717 17.108299524494065 3.912570950411818 -3 -1 -5
379 1 2 -1.1794 12.7115737970275 20.2375515502697 7.139965638734018 7 2 0
531 1 1 0.5897 13.35374749948071 16.551618720651007 4.689678592022829 -3 -1 -5
380 1 1 0.5897 13.442700468619002 20.525684237452616 6.593447955692974 7 2 0
348 1 1 0.5897 16.606685606154677 18.582458010043517 7.220078661965221 -4 2 -4
298 1 2 -1.1794 14.970371537376451 20.556171537117166 1.8878375839723045 -5 -2 1
620 1 1 0.5897 12.258035063700325 15.702933114916233 6.604124532607431 0 -2 3
619 1 2 -1.1794 13.125491920631417 15.546033205993874 6.231088944012156 0 -2 3
621 1 1 0.5897 13.732672887789075 15.91822420441814 6.870666598909882 0 -2 3
299 1 1 0.5897 14.79253687117945 19.782361190124483 1.3532151526272829 -5 -2 1
555 1 1 0.5897 1.8742240309752218 7.02381550993287 7.809451476922046 -4 -5 3
646 1 2 -1.1794 4.578914588289511 4.122627230148428 7.950207719078763 -4 0 -1
782 1 1 0.5897 4.475611437410782 6.1531467892121885 10.062018348143221 -3 1 2
781 1 2 -1.1794 3.7224958072013457 5.613788549965971 10.303159817515112 -3 1 2
457 1 2 -1.1794 4.385193953642776 3.4075743354166326 11.998017438942655 -1 0 -2
458 1 1 0.5897 4.5138816353151165 3.830973962785233 12.846795098191661 -1 0 -2
783 1 1 0.5897 4.09219888527117 4.910031995130666 10.836349145685414 -3 1 2
660 1 1 0.5897 2.205008045880698 5.148118260715231 12.87604402156193 1 0 2
658 1 2 -1.1794 2.4970128010964734 5.995275882139872 13.212659302498789 1 0 2
659 1 1 0.5897 2.48075413122927 6.574715428682525 12.450927492617112 1 0 2
264 1 1 0.5897 5.204676409563207 8.03668149955234 8.652728699067305 4 -3 4
262 1 2 -1.1794 5.1564313817984075 7.129459659566701 8.351312593898491 4 -3 4
227 1 1 0.5897 2.410238253322274 6.827243906995075 10.620699979544176 2 -2 -1
226 1 2 -1.1794 1.8079069323219588 7.53323966567639 10.855256701556986 2 -2 -1
263 1 1 0.5897 4.355123131278898 7.092391392387956 7.829026812183817 4 -3 4
154 1 2 -1.1794 4.65432354085093 4.156002450992114 14.55427708736905 4 4 -4
647 1 1 0.5897 3.8957281125150653 4.515131848777107 8.49375852941353 -4 0 -1
741 1 1 0.5897 2.5560592349618614 3.086750970820814 12.328979481384449 -1 -1 0
510 1 1 0.5897 5.855336069848369 7.8934156703360605 11.933480578775068 3 0 3
34 1 2 -1.1794 6.216218666229889 2.7865460585310124 9.745339022286418 -5 1 -2
739 1 2 -1.1794 1.6908842318182067 3.405405428052757 12.586232223934834 -1 -1 0
16 1 2 -1.1794 1.3881516181758986 5.069356499345174 7.93816243423432 -2 3 3
17 1 1 0.5897 1.173463140236091 4.602201603406497 8.745582287876125 -2 3 3
459 1 1 0.5897 5.261763811882898 3.364669107227268 11.615869135302212 -1 0 -2
35 1 1 0.5897 5.87703384853049 1.9466531322643754 10.05483438786352 -5 1 -2
292 1 2 -1.1794 5.735899506238145 6.3289389018452935 12.793670372968457 -1 -1 2
294 1 1 0.5897 5.1007100333862425 5.8507239108402835 13.326660780955413 -1 -1 2
833 1 1 0.5897 0.7884616904297805 6.446633394579006 13.605417708147225 3 -2 0
740 1 1 0.5897 1.2697942834185911 2.6507347065956717 12.997825898580997 -1 -1 0
36 1 1 0.5897 5.507838327543471 3.150436786069257 9.214271167793266 -5 1 -2
681 1 1 0.5897 0.92821999013909 3.759315862572276 10.824907741776139 -6 -4 0
228 1 1 0.5897 2.3250908842206557 8.332642663305878 10.756615613712395 2 -2 -1
295 1 2 -1.1794 9.177312002724777 3.545800219794783 8.639938702572547 0 3 2
296 1 1 0.5897 9.862119115348397 4.161834104618011 8.379601403244981 0 3 2
207 1 1 0.5897 6.615804871977165 6.020996598347342 7.926668625680312 -4 3 -3
206 1 1 0.5897 7.717900239568728 5.057419446187037 8.312467728335248 -4 3 -3
205 1 2 -1.1794 7.567158440093347 5.915784746594531 7.916564804928169 -4 3 -3
709 1 2 -1.1794 9.537908333819615 7.3214924711283 9.582600552051542 -5 -1 -1
711 1 1 0.5897 10.005696895363263 7.7222123987587965 8.849910881212145 -5 -1 -1
710 1 1 0.5897 8.801370237768815 6.864827198046437 9.176124847418642 -5 -1 -1
297 1 1 0.5897 9.521236182500756 3.1231506082070815 9.426917296411489 0 3 2
722 1 1 0.5897 7.390285407772199 3.820653991139367 10.826406080966692 2 2 0
293 1 1 0.5897 6.379368846529439 5.668434039139345 12.536895847335012 -1 -1 2
721 1 2 -1.1794 7.541160021379154 4.312564330975107 11.633565303536896 2 2 0
723 1 1 0.5897 8.441324068477517 4.628951763918936 11.557088551893239 2 2 0
468 1 1 0.5897 11.216022982166596 2.6215938640355008 10.368723828983534 5 -2 6
330 1 1 0.5897 9.722982477469635 4.348936271188217 14.370928696926317 3 4 0
862 1 2 -1.1794 10.91946064105293 3.301849378816798 13.482897591289266 -1 -1 1
864 1 1 0.5897 10.578558665928288 3.271827004438464 12.588955116316113 -1 -1 1
512 1 1 0.5897 7.509992228213642 2.7627998090849966 12.914611692121742 -1 2 -4
43 1 2 -1.1794 9.915569565753529 5.746763031833083 11.80563056190061 3 5 -1
44 1 1 0.5897 9.33446096599704 6.26351723091796 12.36377097588569 3 5 -1
814 1 2 -1.1794 8.351644061553246 7.277142229816729 13.659983548771944 -4 6 -3
45 1 1 0.5897 9.934798357213623 6.221412387458913 10.974619932080877 3 5 -1
467 1 1 0.5897 10.108222752508567 1.8207302425790546 11.019375716575135 5 -2 6
466 1 2 -1.1794 10.405494557326257 2.718049449820171 10.868713167965199 5 -2 6
511 1 2 -1.1794 7.922228730326882 1.9315817974770204 13.149953911053187 -1 2 -4
815 1 1 0.5897 7.399580148382214 7.179931544204161 13.67934720519219 -4 6 -3
863 1 1 0.5897 11.867159036954765 3.2134483785225276 13.3814425117294 -1 -1 1
327 1 1 0.5897 6.746329896485779 2.376882827741885 8.054382892380385 1 0 -1
599 1 1 0.5897 11.535218771277833 6.430859701663572 12.293303521437409 0 -4 -4
569 1 1 0.5897 11.283472056149426 6.210040648586398 7.974228798638164 1 1 0
816 1 1 0.5897 8.59993798775222 7.391255638125186 14.577360718796104 -4 6 -3
835 1 2 -1.1794 13.920712398418258 3.086416936886444 7.669234661978252 -2 1 -2
836 1 1 0.5897 14.84529322077754 2.868855111745139 7.787854665358246 -2 1 -2
336 1 1 0.5897 17.065773333575308 1.9404561909692806 8.011919948711057 3 0 3
580 1 2 -1.1794 13.043989095741786 2.183098231229972 10.00198222059888 -2 -2 0
598 1 2 -1.1794 12.373618061202016 6.789851358858067 12.583925205993543 0 -4 -4
515 1 1 0.5897 13.003446662014563 7.96558696836778 9.348524316486644 -4 -4 0
600 1 1 0.5897 12.35185921192 6.708657698336431 13.537436469754374 0 -4 -4
516 1 1 0.5897 13.240229896793736 6.478309617420142 9.503078876078279 -4 -4 0
679 1 2 -1.1794 17.592261048814244 4.049471357703739 10.150207656620733 -7 -4 0
680 1 1 0.5897 17.07479227254815 4.733725555486884 10.574793340461724 -7 -4 0
335 1 1 0.5897 16.812836809838416 3.1319672279674236 8.91095714010693 3 0 3
484 1 2 -1.1794 15.385200720997382 7.056514059865176 7.654195630873234 -1 1 0
514 1 2 -1.1794 12.877373440667112 7.128554696513287 8.901606306137063 -4 -4 0
179 1 1 0.5897 13.003530656691986 5.239978609563179 11.267777342626866 -8 1 -1
627 1 1 0.5897 15.226970908211577 5.6490314323999335 11.134222782806985 -5 -2 3
178 1 2 -1.1794 13.653185738036555 5.001814864573185 10.60636377275324 -8 1 -1
180 1 1 0.5897 13.417820659477524 4.1104549925084015 10.348816841072315 -8 1 -1
582 1 1 0.5897 13.434392700315573 2.4399499204290342 9.166598760565195 -2 -2 0
626 1 1 0.5897 16.29884940657994 6.663610305139769 10.797115827711796 -5 -2 3
625 1 2 -1.1794 16.095787845523155 5.949324782455873 11.401110227519682 -5 -2 3
856 1 2 -1.1794 13.642432742769811 3.071541663509745 13.3666248315989 0 1 -3
834 1 1 0.5897 16.670555739985232 6.400439394849522 13.021017037134762 2 -2 0
486 1 1 0.5897 14.505938776497244 6.827136311099754 7.955089979000214 -1 1 0
858 1 1 0.5897 14.00117803331838 2.414966539110925 12.769577882664024 0 1 -3
334 1 2 -1.1794 16.485605500444827 2.693263703258803 8.125646770381211 3 0 3
857 1 1 0.5897 14.400060764431222 3.3878701096505575 13.858751874695164 0 1 -3
527 1 1 0.5897 17.619657981813496 8.026210235032373 10.099759232775446 -4 -5 1
526 1 2 -1.1794 16.72604584821113 8.171168633018704 9.7888047173186 -4 -5 1
485 1 1 0.5897 15.882858755541868 7.205113339877237 8.45825312065 -1 1 0
581 1 1 0.5897 13.782988028436558 1.8786956100062466 10.528738800453668 -2 -2 0
455 1 1 0.5897 16.489502570894352 1.6619622190604206 13.539370273828744 2 -1 1
832 1 2 -1.1794 17.142469626875624 6.517274595207842 13.845576922732992 2 -2 0