LAMMPS data file via write_data, version 30 Jul 2021, timestep = 11500000

972 atoms
2 atom types
648 bonds
1 bond types
324 angles
1 angle types

0.044763651539740934 19.95523734846654 xlo xhi
-0.006547111491711277 20.00654811148724 ylo yhi
-0.17472480778691057 20.874722807795308 zlo zhi

Masses

1 1.008
2 15.999

Pair Coeffs # lj/cut/tip4p/long/omp

1 0 0
2 0.21084 3.1668

Bond Coeffs # harmonic/omp

1 450 0.9572

Angle Coeffs # harmonic/omp

1 55 104.52

Atoms # full

4 2 2 -1.1794 4.3446222991510455 1.281698476159431 3.234429027357168 0 0 0
5 2 1 0.5897 4.457734259296255 0.628193542141453 2.544359318571486 0 0 0
17 6 1 0.5897 4.220369718946361 4.483943299080605 2.7858492784506144 0 0 0
10 4 2 -1.1794 1.201069202660547 4.197777217118187 3.5826915084537183 0 0 0
11 4 1 0.5897 0.9910409253504303 3.4587365439002977 3.01191090403084 0 0 0
12 4 1 0.5897 2.1484371629676957 4.1426326639651645 3.7079380167436384 0 0 0
16 6 2 -1.1794 3.934479775829671 3.969486158498547 3.5406033914705084 0 0 0
18 6 1 0.5897 4.0726392391013135 3.0597409142020773 3.27718372544515 0 0 0
23 8 1 0.5897 2.815254864540563 0.8615674529285174 4.25966232573273 0 0 0
31 11 2 -1.1794 0.9262856049600093 2.1583125396847085 1.7743335467127428 0 0 0
33 11 1 0.5897 1.6400541539607294 2.324070219831005 1.1585424293129414 0 0 0
102 34 1 0.5897 0.1781003878513792 0.7459388243853012 4.8789496679700575 1 0 0
236 79 1 0.5897 0.7881039938060378 0.3726957230626966 1.7244576540004963 0 1 0
3 1 1 0.5897 3.629853203520095 2.6007545954906375 -0.12062879531761614 0 0 0
6 2 1 0.5897 4.9650225852072465 1.0215222261945849 3.915254266259673 0 0 0
32 11 1 0.5897 0.13036840084842805 2.3306553232711016 1.271358880811722 0 0 0
22 8 2 -1.1794 2.0740127397459873 0.7655679984354744 4.857564386024193 0 0 0
328 110 2 -1.1794 3.9675285086068555 1.4686104622098621 10.044031462920039 0 0 0
27 9 1 0.5897 2.6522881533293114 4.309347853703234 6.471977440457026 0 0 0
356 119 1 0.5897 1.5976631374179693 2.09319085987444 8.30375532645487 0 0 0
325 109 2 -1.1794 2.7295689757604484 2.5054997938211097 6.884069093783344 0 0 0
326 109 1 0.5897 2.5367583585201827 1.8976070386137536 6.170381905396376 0 0 0
327 109 1 0.5897 3.6491120259847323 2.343885895368852 7.095137115652734 0 0 0
330 110 1 0.5897 4.121717125566865 0.7291867552210863 9.456189102262673 0 0 0
355 119 2 -1.1794 0.863022886427892 1.90660423093865 8.888251413629723 0 0 0
342 114 1 0.5897 4.038271045436124 4.759382401297809 9.745238989120168 0 0 0
335 112 1 0.5897 0.9365479661408006 3.3081282042188094 10.013700108412781 0 0 0
561 187 1 0.5897 0.8348105415452184 0.058518302448269555 8.842707576723688 0 1 0
357 119 1 0.5897 0.0856954356853688 2.1241886029911403 8.373871240964439 0 0 0
341 114 1 0.5897 3.9268254906622295 3.2991523935498277 10.128531782720492 0 0 0
651 217 1 0.5897 2.031719603628715 2.4210620377572196 14.574390638159427 0 0 0
683 228 1 0.5897 4.457011236089593 2.6762557210163025 14.30814222051717 0 0 0
346 116 2 -1.1794 1.9981029234086607 0.7490171995901617 11.929505992985176 0 0 0
347 116 1 0.5897 1.063797260870983 0.9399124962769517 11.84665620696186 0 0 0
348 116 1 0.5897 2.3835952856598928 1.0802487555615783 11.118497219733303 0 0 0
350 117 1 0.5897 2.5630948121178094 4.4571950809153575 13.669800160669032 0 0 0
649 217 2 -1.1794 2.6229185255410377 2.660534700330923 13.86078493461596 0 0 0
650 217 1 0.5897 2.4685371253344024 1.9970414562604573 13.188471263343425 0 0 0
336 112 1 0.5897 1.9860349075789758 4.191171334378379 10.65442466801491 0 0 0
329 110 1 0.5897 4.564997965753092 1.3209817281217682 10.777054498888079 0 0 0
334 112 2 -1.1794 1.0392227490706971 4.0885223498245695 10.558244008460456 0 0 0
340 114 2 -1.1794 3.813330248305639 4.18372236663066 10.476042590496313 0 0 0
652 218 2 -1.1794 4.284975128844882 1.1701520211220306 17.04313064785031 0 0 0
653 218 1 0.5897 3.441937853959351 0.9545625204879336 17.44188203855198 0 0 0
654 218 1 0.5897 4.474552238248813 0.42939178899475566 16.467442934438566 0 0 0
658 220 2 -1.1794 1.3635479232255752 4.095333101083887 17.48478569055802 0 0 0
659 220 1 0.5897 0.7539189213321534 4.176239210128399 18.218203396876255 0 0 0
664 222 2 -1.1794 4.008848687085175 3.940324960023311 17.50209788350196 0 0 0
665 222 1 0.5897 3.056261322170366 4.013157409088263 17.561371301642986 0 0 0
666 222 1 0.5897 4.164267823811045 3.0332808577529087 17.238977401685112 0 0 0
670 224 2 -1.1794 2.074800665519378 0.9225201290337071 18.718052842072574 0 0 0
671 224 1 0.5897 2.2861596260852672 1.5653115378251823 19.39496429688593 0 0 0
672 224 1 0.5897 1.1187189770344699 0.9280029615983805 18.672022159480406 0 0 0
681 227 1 0.5897 0.9778892181765487 2.665512335162513 16.51227452133216 0 0 0
679 227 2 -1.1794 0.814311649494476 2.006480730483313 15.837753595197126 0 0 0
2 1 1 0.5897 2.609602316685685 3.702318639814555 20.735420924680085 0 0 -1
660 220 1 0.5897 1.0795026102909187 4.7641683842046305 16.861841476561544 0 0 0
1 1 2 -1.1794 2.702910572601479 2.7497583264018015 20.74225172813926 0 0 -1
884 295 1 0.5897 0.7045075507685363 0.17025933534938437 15.745255276351228 0 1 0
113 38 1 0.5897 4.8654945948204995 7.592537442637105 4.057238520114299 0 0 0
141 47 1 0.5897 0.9931222084961546 8.015038600065699 2.0256288922784984 0 0 0
139 47 2 -1.1794 0.9503539759493866 8.92616980844969 1.735587630101175 0 0 0
20 7 1 0.5897 0.8700720559783489 5.517827635285331 2.504982655789022 0 0 0
14 5 1 0.5897 4.119763644407641 5.595344064819519 0.8439684760253519 0 0 0
15 5 1 0.5897 4.53438559695422 6.46009962223732 2.0151842220059186 0 0 0
19 7 2 -1.1794 0.6808573895387414 6.170259480052794 1.8307444098355372 0 0 0
140 47 1 0.5897 1.1360415804445871 9.437654213974252 2.522954471933615 0 0 0
13 5 2 -1.1794 4.776131143633847 5.66706938206669 1.536898219772605 0 0 0
674 225 1 0.5897 1.8446035170673571 5.8360036296442726 0.48605581572079426 0 0 1
110 37 1 0.5897 2.165589803301953 9.428313929231662 0.44971685665008576 0 0 0
112 38 2 -1.1794 4.2452914028704445 7.7964611909065695 3.3573333298919064 0 0 0
114 38 1 0.5897 3.384147342817454 7.660286510510188 3.752413349696429 0 0 0
126 42 1 0.5897 4.303029492964959 9.631584711398377 3.336215605163466 0 0 0
111 37 1 0.5897 3.600921102153272 9.418275374263997 -0.03151844127021777 0 0 0
130 44 2 -1.1794 2.076849318642739 7.485090602288157 4.962207661881044 0 0 0
673 225 2 -1.1794 2.5581370527669716 5.567133214344294 -0.09249753819763151 0 0 1
132 44 1 0.5897 1.1200557526386818 7.477772527251591 4.989354961900358 0 0 0
464 155 1 0.5897 1.5200937455956198 8.783496405001724 8.316546426085043 0 0 0
437 146 1 0.5897 4.175440135129509 7.406587457962646 9.531517097289793 0 0 0
468 156 1 0.5897 4.646378487778133 9.176861452665413 7.372356041639825 0 0 0
26 9 1 0.5897 1.8918638742078588 5.454856532406611 7.105391446456329 0 0 0
463 155 2 -1.1794 0.8026153659108071 8.563555254145628 8.91067958647823 0 0 0
131 44 1 0.5897 2.3344285243653338 6.6503642482729255 5.353356559067572 0 0 0
337 113 2 -1.1794 4.441307842873067 5.958072492053363 8.495189535806732 0 0 0
339 113 1 0.5897 3.9590994712300467 5.696690677467984 7.710829258181278 0 0 0
343 115 2 -1.1794 0.6442908338695745 5.796178807984431 8.43280108437319 0 0 0
344 115 1 0.5897 0.8101165744450334 5.2936858032409875 9.230323487384215 0 0 0
345 115 1 0.5897 0.7167141430106866 6.710666671164267 8.70589259242827 0 0 0
433 145 2 -1.1794 2.766725564518871 9.13946677799181 7.1179499172051885 0 0 0
435 145 1 0.5897 2.5467699680710716 8.643974077185517 6.329184345557361 0 0 0
25 9 2 -1.1794 2.629145338403822 5.26472053276521 6.525379233040366 0 0 0
438 146 1 0.5897 4.282793950792891 8.8210928683666 10.059931298848465 0 0 0
443 148 1 0.5897 1.0798738569602069 9.830230628756233 10.208187379458188 0 0 0
436 146 2 -1.1794 4.176119153310494 7.913185706928074 10.343543482394898 0 0 0
757 253 2 -1.1794 2.655726680777451 9.343222731565923 14.20302412769541 0 0 0
792 264 1 0.5897 4.495773276744117 9.088650239528569 14.373618473260295 0 0 0
533 178 1 0.5897 0.3509114959928155 7.537268602603701 11.9887298646515 1 0 0
351 117 1 0.5897 3.4733234544628906 5.466039635839208 14.337166303893522 0 0 0
454 152 2 -1.1794 2.1470620188973277 7.530314208334386 12.143564987947588 0 0 0
455 152 1 0.5897 2.7756500748771336 7.625200159321024 11.428037346637186 0 0 0
456 152 1 0.5897 2.4170247737126687 6.731039755843799 12.59564744203193 0 0 0
759 253 1 0.5897 2.5099985842205497 8.803980940756226 13.425835378138517 0 0 0
668 223 1 0.5897 1.3947151632729748 5.767201362604065 14.93355423522791 0 0 0
349 117 2 -1.1794 2.705615289852869 5.398396988242277 13.769536972516844 0 0 0
789 263 1 0.5897 1.4875691891399159 8.848909672217706 15.442163070609176 0 0 0
661 221 2 -1.1794 4.712943912816915 5.739768041944724 15.563102142459059 0 0 0
667 223 2 -1.1794 0.722154081099554 5.959257967412049 15.586921317297238 0 0 0
787 263 2 -1.1794 0.7864022099227466 8.693157203661716 16.0748087400169 0 0 0
788 263 1 0.5897 0.9397266297201808 9.33700341753038 16.766194357801403 0 0 0
663 221 1 0.5897 4.508635675334948 6.5536977017103695 16.023402937330786 0 0 0
780 260 1 0.5897 2.750065332897603 7.5893170852584655 18.30141825416765 0 0 0
669 223 1 0.5897 0.8304168702678383 6.891289774530347 15.775893898303206 0 0 0
675 225 1 0.5897 2.4968294872739016 6.160665233571188 20.2086158147439 0 0 0
760 254 2 -1.1794 4.216593124297506 7.867674351564205 17.26588909573129 0 0 0
761 254 1 0.5897 4.267918395992554 8.811531891122547 17.115514182218163 0 0 0
779 260 1 0.5897 2.335238545626737 8.279376808580514 19.583275024396677 0 0 0
778 260 2 -1.1794 2.1260016659345213 7.530800519878464 19.024760531173 0 0 0
858 286 1 0.5897 0.3030482332393721 7.39859394938419 18.924139538661038 1 0 0
662 221 1 0.5897 4.518214224524696 5.049949016415751 16.19737581390126 0 0 0
109 37 2 -1.1794 2.7065924387738964 9.5982941797475 20.728124411446167 0 0 -1
762 254 1 0.5897 4.866167760342818 7.69769420086685 17.94799724139729 0 0 0
783 261 1 0.5897 2.1191812241269155 12.534457186019093 0.4487932492867196 0 0 1
118 40 2 -1.1794 1.3587358039176394 10.77060377456604 3.7310317190084477 0 0 0
119 40 1 0.5897 2.3097594525013867 10.695552841609882 3.8095272994925446 0 0 0
120 40 1 0.5897 1.2249804223188827 11.48548151635984 3.1088333714951686 0 0 0
122 41 1 0.5897 4.626760904611633 11.76344556853148 2.1283161039252505 0 0 0
123 41 1 0.5897 4.286595189803519 12.422854829180013 0.8088970988087274 0 0 0
124 42 2 -1.1794 4.188043491976172 10.573559427061497 3.461048556281139 0 0 0
240 80 1 0.5897 2.6396629342696043 14.031875149404884 4.39791529037897 0 0 0
127 43 2 -1.1794 0.9391769673257839 12.700455685173823 1.806456250522882 0 0 0
129 43 1 0.5897 1.0772150688006006 13.628101012321467 1.997609654936943 0 0 0
220 74 2 -1.1794 4.086560893482089 14.382193794609659 3.368633058828876 0 0 0
222 74 1 0.5897 4.326325626278326 13.845973950528474 2.61296577582236 0 0 0
125 42 1 0.5897 4.7770835476169715 10.793649448688617 4.1826365323216566 0 0 0
121 41 2 -1.1794 4.903846100750049 12.465034076825493 1.5391853884010236 0 0 0
238 80 2 -1.1794 1.9492568608970984 13.907940407059014 5.049145646701977 0 0 0
317 106 1 0.5897 0.07572794723146359 13.826535796245508 5.077634790016342 1 0 0
133 45 2 -1.1794 2.4961821266609143 11.87519480818988 6.887650596720789 0 0 0
134 45 1 0.5897 1.8702633722295379 12.152563071738182 7.556533466217828 0 0 0
135 45 1 0.5897 3.3431405769957063 12.185357197382592 7.208056572096118 0 0 0
239 80 1 0.5897 2.2291627485131755 13.143867396804906 5.553072034933995 0 0 0
573 191 1 0.5897 0.7874427128777041 14.480106409301484 9.18210970316463 0 0 0
446 149 1 0.5897 4.561046429497486 13.402995099270852 8.916044321979928 0 0 0
450 150 1 0.5897 4.2817058550172336 11.363874080048634 9.562811232309969 0 0 0
451 151 2 -1.1794 0.7736460729668396 12.614988565580056 8.873607137769858 0 0 0
453 151 1 0.5897 0.9133506940341417 11.936167096405983 9.533720394049475 0 0 0
445 149 2 -1.1794 4.76383101657454 12.635686656001726 8.381065949489702 0 0 0
544 182 2 -1.1794 4.174758812299979 14.6870312756813 10.131736731459982 0 0 0
434 145 1 0.5897 2.5796763275613124 10.049907637106005 6.889407068887552 0 0 0
448 150 2 -1.1794 4.0137033417118335 10.730509599109439 10.228461291017398 0 0 0
444 148 1 0.5897 2.2481428758475293 10.688831207281428 10.643770493727985 0 0 0
758 253 1 0.5897 2.5609188310638937 10.243374742880961 13.891819563502871 0 0 0
457 153 2 -1.1794 2.6016669065047062 12.068746027113296 13.678272987028166 0 0 0
458 153 1 0.5897 1.899352546426412 12.332278978072086 14.272779742106726 0 0 0
459 153 1 0.5897 3.407214314152138 12.260007228806087 14.1585745855313 0 0 0
564 188 1 0.5897 2.2953965490703507 14.872708380356912 12.390933192718 0 0 0
562 188 2 -1.1794 2.1005112794195284 14.12124157973323 11.831112474750377 0 0 0
563 188 1 0.5897 2.3259800297791795 13.35943266001892 12.36487129439717 0 0 0
449 150 1 0.5897 4.553727734851697 10.940225760156762 10.990350184759018 0 0 0
442 148 2 -1.1794 1.2928050738023742 10.638043453476161 10.67530585810461 0 0 0
545 182 1 0.5897 3.3679177463116687 14.478518141383077 10.602595461083952 0 0 0
769 257 2 -1.1794 4.734931639014633 12.498396006418533 15.368593932284968 0 0 0
642 214 1 0.5897 0.31475519845126393 14.272812088895906 11.946826164677091 1 0 0
546 182 1 0.5897 4.874392250725122 14.483261404290323 10.752315670950916 0 0 0
512 171 1 0.5897 0.06431196938327588 11.148209036556354 12.084867430462603 1 0 0
766 256 2 -1.1794 1.494518750710403 10.846712381827597 17.648119125886033 0 0 0
767 256 1 0.5897 0.8453333165651498 11.015154171136215 18.33098209844605 0 0 0
768 256 1 0.5897 1.2916147255771042 11.482571018197298 16.962132105670918 0 0 0
772 258 2 -1.1794 4.218564443860609 10.61311824310926 17.302698762137474 0 0 0
773 258 1 0.5897 3.2733909388193108 10.652201418957082 17.448839501357597 0 0 0
774 258 1 0.5897 4.382505592765066 11.261364204740762 16.617889331904394 0 0 0
771 257 1 0.5897 4.5861992921511465 13.297213274975077 15.87442112114089 0 0 0
965 322 1 0.5897 0.39547075776581087 14.198900341553571 19.071505619937092 1 0 0
868 290 2 -1.1794 4.228873187295429 14.593258551817275 17.096750814218332 0 0 0
869 290 1 0.5897 3.4453417823507264 14.410357910651193 17.615201060733014 0 0 0
886 296 2 -1.1794 2.1869279026935766 14.258422774604789 18.868185920251292 0 0 0
888 296 1 0.5897 2.405685821157736 13.51227449259315 19.4263020020801 0 0 0
870 290 1 0.5897 4.956973415989763 14.429320987699768 17.696033208114947 0 0 0
781 261 2 -1.1794 2.7689287339744766 12.419820453200584 20.804853168813317 0 0 0
782 261 1 0.5897 2.73513315831503 11.486292914152438 20.596295539641453 0 0 0
777 259 1 0.5897 0.9022709572552066 13.581461312123485 15.839488458024414 0 0 0
775 259 2 -1.1794 0.7746614070750267 12.63908613467996 15.731023031890278 0 0 0
249 83 1 0.5897 1.6922907577572057 15.738722144678468 1.1536113987245467 0 0 0
248 83 1 0.5897 1.1459782209589804 16.132377863107827 2.5093268893753677 0 0 0
247 83 2 -1.1794 1.1446502913190055 15.419464995448568 1.8707246657932313 0 0 0
890 297 1 0.5897 1.7968969383405002 19.068974524373857 0.09936347731490075 0 0 1
226 76 2 -1.1794 1.239484598121802 17.603799067999077 3.458368366005177 0 0 0
227 76 1 0.5897 1.0617252467616618 18.30792524541377 2.834923494058315 0 0 0
228 76 1 0.5897 0.5495443710323292 17.68634692832797 4.116620377169076 0 0 0
229 77 2 -1.1794 4.469766487123632 19.25869257990265 1.4135891189826162 0 0 0
230 77 1 0.5897 3.957989372424092 19.140812512536193 0.6134286221126929 0 0 0
232 78 2 -1.1794 4.013863254085971 17.213774930264137 3.2870392392810484 0 0 0
233 78 1 0.5897 4.1999838787766235 17.84244999324136 2.589767891124468 0 0 0
234 78 1 0.5897 3.0841888543662797 17.33657307076073 3.4790219639350366 0 0 0
235 79 2 -1.1794 0.6630633050550196 19.45642888639471 1.53270136059495 0 0 0
221 74 1 0.5897 4.103400408914512 15.281039589143809 3.040159923425489 0 0 0
219 73 1 0.5897 3.6469235939187867 16.073256388374304 -0.1558512965660731 0 0 0
558 186 1 0.5897 4.085967678638391 17.95234181360717 9.80932193741151 0 0 0
576 192 1 0.5897 4.332679322449909 15.781181498806088 7.238525042960571 0 0 0
572 191 1 0.5897 0.923827836670575 15.884397753876902 9.730693610645705 0 0 0
241 81 2 -1.1794 2.511123240161568 18.672010224655224 6.595371190838502 0 0 0
242 81 1 0.5897 2.5516649901410524 17.716051434416066 6.570419386507181 0 0 0
243 81 1 0.5897 1.8446268406965864 18.866821237090868 7.254123051018377 0 0 0
541 181 2 -1.1794 2.5495588142249757 15.925941417122568 6.862848428808008 0 0 0
542 181 1 0.5897 1.9433125190260214 15.75075071680749 7.582483270149749 0 0 0
551 184 1 0.5897 1.1014218319132545 18.093376134269917 10.03479012823537 0 0 0
553 185 2 -1.1794 4.508733159405376 19.13391125939677 8.53653046644103 0 0 0
555 185 1 0.5897 4.047625183005228 19.012753745207746 7.70661689601071 0 0 0
559 187 2 -1.1794 0.699794132716389 19.149938216159775 8.622717185003365 0 0 0
571 191 2 -1.1794 0.7366842215579356 15.400980322297302 8.926129008569317 0 0 0
543 181 1 0.5897 2.3003047963803365 15.301382381641893 6.181770409623502 0 0 0
24 8 1 0.5897 2.2808530239009817 19.99907043159731 5.3728708947385915 0 -1 0
557 186 1 0.5897 4.075783102150312 16.51667344122128 10.289260484233093 0 0 0
867 289 1 0.5897 2.1874226011888727 15.99250309677357 14.332140279112869 0 0 0
885 295 1 0.5897 1.3500161800573136 19.0629489632775 14.958109657734605 0 0 0
866 289 1 0.5897 3.6217283108951137 15.990778020862624 13.847761626527225 0 0 0
879 293 1 0.5897 4.118390188942717 19.03071675686104 14.808389662484798 0 0 0
550 184 2 -1.1794 1.2074611080670898 17.50514918295884 10.782312209835812 0 0 0
552 184 1 0.5897 2.154235561112598 17.450248121603337 10.91207496190573 0 0 0
565 189 2 -1.1794 2.6923063903789584 18.79714319315393 13.754395779757777 0 0 0
566 189 1 0.5897 2.7548823421212076 17.883140911241725 13.477273635986668 0 0 0
567 189 1 0.5897 2.519669342718121 19.28142308852695 12.947112446342288 0 0 0
865 289 2 -1.1794 2.72138170580179 16.11426051233893 13.54719485442716 0 0 0
556 186 2 -1.1794 3.971465798611649 17.417692478857838 10.594865533712584 0 0 0
896 299 1 0.5897 0.17874660114111407 15.612847608100246 15.235050383425694 0 0 0
877 293 2 -1.1794 4.79138929711719 19.018693161887576 15.488865867492676 0 0 0
881 294 1 0.5897 3.0989987307319695 17.411098045779205 17.633524522717174 0 0 0
897 299 1 0.5897 0.9975221828490164 16.114781540770302 16.40517560437246 0 0 0
891 297 1 0.5897 2.3788692124772215 19.505690008117007 19.821406520973 0 0 0
882 294 1 0.5897 4.166980417300948 16.393091380644265 17.294647498887493 0 0 0
874 292 2 -1.1794 1.3281968954153656 17.435932060010238 17.656137166814048 0 0 0
875 292 1 0.5897 0.7254950455019341 17.573718822788237 18.386797537719772 0 0 0
876 292 1 0.5897 1.0815503053497117 18.100573993426167 17.013104668389907 0 0 0
878 293 1 0.5897 4.4992327600717825 18.34552674750278 16.10333739427218 0 0 0
880 294 2 -1.1794 4.04092654282156 17.32189644499097 17.488434211529935 0 0 0
889 297 2 -1.1794 2.48034385207797 18.853331293656296 20.514361829058878 0 0 0
218 73 1 0.5897 2.58735919488507 17.115765666027322 20.606785043881295 0 0 -1
895 299 2 -1.1794 1.0277960249873948 15.509177288242137 15.664653553765888 0 0 0
217 73 2 -1.1794 2.7018384486630196 16.18307865052951 20.78875054527004 0 0 -1
887 296 1 0.5897 2.330756563818881 15.024224698020925 19.424009182808746 0 0 0
883 295 2 -1.1794 0.6899721142376044 19.233290399531178 15.630002923254173 0 0 0
69 23 1 0.5897 6.572285507966336 2.1810798860867293 1.45767398705397 0 0 0
273 91 1 0.5897 7.267167555983773 0.23779931698905082 1.6445642916507703 0 1 0
68 23 1 0.5897 8.080557317617043 2.2381178704970983 1.3402867796609144 0 0 0
67 23 2 -1.1794 7.376716725964644 2.0045167151759085 1.9454122520152812 0 0 0
46 16 2 -1.1794 8.038773446446685 3.9776231230465213 3.727741770341455 0 0 0
47 16 1 0.5897 7.721467936648691 3.2372268410967484 3.2107975232700188 0 0 0
48 16 1 0.5897 7.361817247455554 4.11531094730738 4.390234815155261 0 0 0
9 3 1 0.5897 5.145587308873024 4.340992023423804 4.7882462610014915 0 0 0
34 12 2 -1.1794 5.344094182143902 2.350828976869816 0.11485500784727831 0 0 0
58 20 2 -1.1794 8.662265232840149 0.7672332813355719 4.949577872243989 0 0 0
53 18 1 0.5897 9.8137984401107 3.919126964534109 3.733210799464711 0 0 0
29 10 1 0.5897 6.894661325948118 0.6459895707628557 5.07977528537959 0 0 0
37 13 2 -1.1794 9.238112368984238 2.6194370301362055 0.0040882460690565 0 0 0
41 14 1 0.5897 9.965080132691089 0.9293320694194491 3.690971178199356 0 0 0
8 3 1 0.5897 5.743745933095157 3.8443726978472044 6.0870927219180615 0 0 0
391 131 2 -1.1794 7.465626087523666 1.846623215976921 9.013830125975678 0 0 0
393 131 1 0.5897 7.427739853635499 0.891208492101809 8.970591584822053 0 0 0
360 120 1 0.5897 5.714851750438865 1.7763545071827254 6.5389510830640285 0 0 0
361 121 2 -1.1794 9.215305628305376 2.551020887259302 6.997009424783166 0 0 0
7 3 2 -1.1794 5.860747911627999 4.503687830906047 5.4032379207437256 0 0 0
392 131 1 0.5897 8.161944319260986 2.0870818837052902 8.40271997443968 0 0 0
362 121 1 0.5897 9.097323190362165 3.4656318441788265 6.740719306455082 0 0 0
358 120 2 -1.1794 5.5214818344859795 2.4597397652874053 7.18056128555659 0 0 0
359 120 1 0.5897 6.079282581982945 2.250297323306034 7.929611903337838 0 0 0
59 20 1 0.5897 8.820184539523602 1.4418414765787493 5.609904516580136 0 0 0
371 124 1 0.5897 7.630760144757456 3.3105271296555174 10.286312745311424 0 0 0
28 10 2 -1.1794 5.964721847936431 0.533301898154609 5.276609714780046 0 0 0
352 118 2 -1.1794 5.7318199400460985 1.0233453465859512 12.194263482558986 0 0 0
353 118 1 0.5897 6.650373265094193 1.0965906773736147 11.935186315544929 0 0 0
354 118 1 0.5897 5.647996705274797 1.6066075337365238 12.948469288625311 0 0 0
684 228 1 0.5897 5.5488617127975415 3.5364339058800685 13.70840312700222 0 0 0
372 124 1 0.5897 7.19102853757044 4.34919376869842 11.29592185410539 0 0 0
685 229 2 -1.1794 8.97318084756317 2.8767030801422044 13.841207000588813 0 0 0
382 128 2 -1.1794 8.491148751821138 0.9100105310390998 11.978000542753822 0 0 0
383 128 1 0.5897 8.683252631494087 1.6326120015189243 12.57551512205407 0 0 0
384 128 1 0.5897 9.154318928485802 0.9833984825962223 11.291751926627706 0 0 0
682 228 2 -1.1794 5.405492171233046 2.8051931800114542 14.309076305698252 0 0 0
686 229 1 0.5897 8.499889914252737 2.66615145207545 14.646022908185023 0 0 0
332 111 1 0.5897 5.146834151125097 4.489975753176724 11.703209119086129 0 0 0
331 111 2 -1.1794 5.847613175444311 4.682806207603739 12.325992905689755 0 0 0
386 129 1 0.5897 8.967513462485172 4.84789568701715 13.739022163087533 0 0 0
370 124 2 -1.1794 7.861321978765945 4.171022261911925 10.63631834467769 0 0 0
717 239 1 0.5897 6.667348566418197 2.3793585936036044 15.554848579115433 0 0 0
377 126 1 0.5897 9.71089869438358 3.996520969828552 10.536526594706931 0 0 0
687 229 1 0.5897 9.893786421550837 2.7306723065684566 14.058891598666369 0 0 0
716 239 1 0.5897 7.495073708349871 1.1875074777051124 15.9861860800118 0 0 0
38 13 1 0.5897 9.018411928399706 2.1825006698671867 20.230823564641042 0 0 -1
655 219 2 -1.1794 5.7872943276148145 4.523408903928169 19.559911692247347 0 0 0
657 219 1 0.5897 6.587911335245072 4.305777008332462 19.082600176184776 0 0 0
676 226 2 -1.1794 6.007972474669559 0.6791670311273227 19.151980036502252 0 0 0
715 239 2 -1.1794 7.474043099851738 2.1440383459250296 16.013158299909797 0 0 0
694 232 2 -1.1794 7.971149763973424 4.034841834248989 17.926752711411737 0 0 0
695 232 1 0.5897 7.832505934511584 3.263862504349424 17.37680088178613 0 0 0
35 12 1 0.5897 5.595460104725377 1.6554179619878475 20.55660430084812 0 0 -1
706 236 2 -1.1794 8.75576904393648 1.0145552610326194 18.839294366416247 0 0 0
708 236 1 0.5897 7.801474242474933 1.0223784898508845 18.765110671126997 0 0 0
677 226 1 0.5897 5.42621697203077 0.8582848921688863 18.413354567785227 0 0 0
710 237 1 0.5897 9.272022650026138 4.494058564318293 20.784878291704814 0 0 0
702 234 1 0.5897 9.75627369145084 4.0725810627279655 17.873904074773755 0 0 0
36 12 1 0.5897 5.609307819272554 3.15959874884975 20.726514843470156 0 0 -1
696 232 1 0.5897 7.763380949325112 4.775975476856156 17.35786089430232 0 0 0
707 236 1 0.5897 8.950754395919931 0.2251975728020831 19.344258117687133 0 0 0
656 219 1 0.5897 5.081673020599974 4.349869426743713 18.936921212918634 0 0 0
143 48 1 0.5897 5.99166734998401 9.130141948645187 0.8872863210110027 0 0 0
176 59 1 0.5897 7.583681493704578 7.809668351616812 1.9922411881701518 0 0 0
177 59 1 0.5897 8.193193326353207 8.999223900266395 1.2815656763498053 0 0 0
711 237 1 0.5897 8.70630206604341 5.702947754849467 0.4496660085635228 0 0 1
175 59 2 -1.1794 7.517727830153234 8.76154347576063 1.9166907031329425 0 0 0
55 19 2 -1.1794 7.567048818273889 5.912593547300453 1.7871792799294168 0 0 0
56 19 1 0.5897 6.640201210035876 5.7594290957994225 1.6035396843202894 0 0 0
57 19 1 0.5897 7.782863300982341 5.282340575607621 2.474397993059343 0 0 0
166 56 2 -1.1794 8.742582326421095 7.453210222476619 5.0471626437874955 0 0 0
142 48 2 -1.1794 5.3467469152107965 9.181431079071023 0.18191036703680025 0 0 0
145 49 2 -1.1794 9.270486136943612 9.345348789137192 -0.0855620716463786 0 0 0
167 56 1 0.5897 8.9530152571814 6.626324741066843 5.480847804182792 0 0 0
61 21 2 -1.1794 9.202715168892718 5.275493382514091 6.60207674770663 0 0 0
467 156 1 0.5897 5.721491542167237 8.464576865848077 6.579596904746129 0 0 0
499 167 2 -1.1794 7.610858576063715 8.525097718012365 9.014202152407389 0 0 0
62 21 1 0.5897 8.500713475281785 5.4920579466349375 7.215615946909129 0 0 0
338 113 1 0.5897 5.361883533955282 5.837254652452658 8.262441151958553 0 0 0
469 157 2 -1.1794 9.236987581437088 9.318428830393843 6.915674119609554 0 0 0
500 167 1 0.5897 7.66577600740808 9.236212723676669 9.652451049262297 0 0 0
470 157 1 0.5897 8.750261993599745 9.029887901256444 7.687630303922541 0 0 0
501 167 1 0.5897 6.867511159977632 8.758553468508367 8.458246353362407 0 0 0
381 127 1 0.5897 7.475052211104651 5.267238142985075 9.237879224001743 0 0 0
379 127 2 -1.1794 7.272340944145786 5.801743144989944 8.470248544822075 0 0 0
380 127 1 0.5897 7.449983527119824 6.699855113449778 8.749449328674748 0 0 0
466 156 2 -1.1794 5.593313597442987 9.150093952851337 7.235113901389061 0 0 0
168 56 1 0.5897 8.953167097928842 8.124797574130607 5.695769724546787 0 0 0
137 46 1 0.5897 5.938570872409237 6.274043850231176 5.495343743674764 0 0 0
136 46 2 -1.1794 6.0194132469949375 7.222188703886159 5.392354229596749 0 0 0
138 46 1 0.5897 6.933101817687564 7.359367641052059 5.142201539936641 0 0 0
791 264 1 0.5897 5.927478290336256 8.974769516667658 14.852276757609234 0 0 0
794 265 1 0.5897 9.12481742386515 8.826759581867378 13.527459629904131 0 0 0
790 264 2 -1.1794 5.396731967403431 9.022437162590153 14.057223498531176 0 0 0
333 111 1 0.5897 5.9170429042090325 5.637416528013287 12.321116726883952 0 0 0
793 265 2 -1.1794 9.402838505195 9.379766978238633 14.257490155641339 0 0 0
385 129 2 -1.1794 9.098696248658756 5.755231919088982 14.014061890991089 0 0 0
387 129 1 0.5897 9.101531678347166 6.255362685015627 13.198039149803487 0 0 0
460 154 2 -1.1794 6.20007050682692 7.35814918123039 11.979114601682063 0 0 0
461 154 1 0.5897 5.935410738955906 7.88342161934584 12.734163221552256 0 0 0
462 154 1 0.5897 5.533072436567332 7.537470885361478 11.31648432248118 0 0 0
490 164 2 -1.1794 8.903420885519198 7.70200842742956 12.089274222630882 0 0 0
491 164 1 0.5897 9.368733530923729 7.7934726410151525 11.257909247547214 0 0 0
492 164 1 0.5897 7.977245335466744 7.704729150802868 11.847576651455762 0 0 0
705 235 1 0.5897 7.936689191773937 6.057801247356655 15.363431459932928 0 0 0
824 275 1 0.5897 8.039437675490731 9.020139251460204 15.453361875210017 0 0 0
814 272 2 -1.1794 8.749094544834069 7.45950556193885 19.078143318863503 0 0 0
786 262 1 0.5897 6.919402777475413 7.401126207398479 19.10740117291605 0 0 0
815 272 1 0.5897 8.923919121513864 6.673350848835475 19.595336710028974 0 0 0
816 272 1 0.5897 8.926328045170951 8.184968034177587 19.67678480372941 0 0 0
823 275 2 -1.1794 7.314530345344221 8.873406520354303 16.06091599584004 0 0 0
703 235 2 -1.1794 7.386416883438759 6.112286248805347 16.144652038435204 0 0 0
825 275 1 0.5897 7.341952755505865 7.934515597475359 16.24490537980209 0 0 0
784 262 2 -1.1794 5.987627457329127 7.294966145689014 19.299122206200813 0 0 0
785 262 1 0.5897 5.887873669712638 6.363782249388927 19.496761853323065 0 0 0
144 48 1 0.5897 5.6041497388065435 8.491181182224707 20.620314691364044 0 0 -1
704 235 1 0.5897 6.508909592365595 5.885965756626885 15.836482856307407 0 0 0
709 237 2 -1.1794 9.339280816025042 5.447857993721064 20.828008984562487 0 0 0
154 52 2 -1.1794 8.171944779016096 10.729402431358839 3.812924383239453 0 0 0
819 273 1 0.5897 8.512360901048025 12.464505918021779 0.5743714591023947 0 0 1
156 52 1 0.5897 9.129072885480136 10.73886156589544 3.820615711201151 0 0 0
163 55 2 -1.1794 7.577553634021041 12.807909493240539 2.109564804390798 0 0 0
164 55 1 0.5897 6.6542984458498085 12.691684348726318 1.8852450077162444 0 0 0
165 55 1 0.5897 7.757395649800055 12.11965540195318 2.749900880537566 0 0 0
285 95 1 0.5897 7.7135493864291345 14.644336560875642 1.984407964722632 0 0 0
276 92 1 0.5897 9.147428410924597 13.999109592808724 4.435711209384744 0 0 0
246 82 1 0.5897 5.339244043325976 14.112560026332307 4.53001791357758 0 0 0
155 52 1 0.5897 7.943774962525681 10.010340717097005 3.2238843519223863 0 0 0
116 39 1 0.5897 6.818708576297104 11.044055730286832 5.008001528124134 0 0 0
817 273 2 -1.1794 9.096822261735843 12.131782109784837 -0.10666019884652655 0 0 1
115 39 2 -1.1794 6.00061322378109 11.281400768170558 5.444542802009886 0 0 0
169 57 2 -1.1794 9.454880170053059 12.069465860593418 7.143721781088554 0 0 0
170 57 1 0.5897 9.237659162669408 12.617874313629347 6.3899880785345236 0 0 0
171 57 1 0.5897 9.259286445630453 11.177771626583462 6.856071722444181 0 0 0
117 39 1 0.5897 5.940515506890101 10.678741692367664 6.185648751822647 0 0 0
488 163 1 0.5897 8.164258021480903 12.529838714639133 8.345536295061361 0 0 0