LAMMPS data file via write_data, version 30 Jul 2021, timestep = 10750000

1920 atoms
2 atom types
1280 bonds
1 bond types
640 angles
1 angle types

-0.0038354903439756782 24.733836490342963 xlo xhi
-0.08507968850601522 24.815080688496824 ylo yhi
-0.08637415634760437 22.896374156354092 zlo zhi

Masses

1 1.008
2 15.999

Pair Coeffs # lj/cut/tip4p/long/omp

1 0 0
2 0.21084 3.1668

Bond Coeffs # harmonic/omp

1 450 0.9572

Angle Coeffs # harmonic/omp

1 55 104.52

Atoms # full

1 1 2 -1.1794 4.378650962743837 1.7180701924710182 4.095612055672334 0 0 0
2 1 1 0.5897 4.561429474777253 2.3468151383895695 4.793837138767933 0 0 0
3 1 1 0.5897 5.07951139138038 1.8563832781951182 3.4585410683672686 0 0 0
4 2 2 -1.1794 2.9216081002929415 1.2570229580151067 1.7544587493180186 0 0 0
5 2 1 0.5897 3.23149684024185 1.4912600671705671 2.6293072095915515 0 0 0
6 2 1 0.5897 1.9682501113126636 1.2330168648055404 1.8360496562654538 0 0 0
10 4 2 -1.1794 3.1473330379913023 4.774770274259509 3.5846477341293914 0 0 0
11 4 1 0.5897 2.5923290469820044 5.407298849208017 4.040797759327585 0 0 0
12 4 1 0.5897 2.6800136284245095 4.588801607090261 2.7702352954954677 0 0 0
13 5 2 -1.1794 1.3703084633445461 2.8785319997104164 5.081361069117332 0 0 0
14 5 1 0.5897 2.275938363899198 3.046027304310282 4.820747327452639 0 0 0
15 5 1 0.5897 1.2668402679658133 1.9309535145373986 4.994190758470001 0 0 0
22 8 2 -1.1794 1.5750012929749575 4.367386580730229 1.428055513873629 0 0 0
24 8 1 0.5897 1.3438237008254743 5.075349444357869 0.8267437951255411 0 0 0
23 8 1 0.5897 0.9019213399007869 4.400426710478213 2.1078151195054464 0 0 0
20 7 1 0.5897 3.903712549888804 2.9127471464676082 0.6985057773416179 0 0 0
9 3 1 0.5897 4.850713967293584 4.6190268960653444 3.6008648730060275 0 0 0
21 7 1 0.5897 5.335243531981079 2.7096172428352023 1.1469959299824586 0 0 0
19 7 2 -1.1794 4.801316429313964 3.188630728628716 0.5132063732977513 0 0 0
27 9 1 0.5897 4.675485882819495 5.103126242825544 0.8277178737149041 0 0 0
28 10 2 -1.1794 1.6352666089423593 0.23140213670811566 4.704824655870086 0 0 0
25 9 2 -1.1794 4.512883330647908 6.046085659958052 0.803192579707512 0 0 0
16 6 2 -1.1794 0.18988496867988797 1.4132331890841323 1.862293860366539 0 0 0
98 33 1 0.5897 0.28762924753829383 5.3293318240353775 3.78464433311382 1 0 0
99 33 1 0.5897 0.25689062302739835 3.8548207448705147 4.126291130315329 1 0 0
867 289 1 0.5897 4.458454304054997 0.2545110596047554 5.543217835872958 0 1 0
7 3 2 -1.1794 5.791054705748721 4.631822920812056 3.4227447742995176 0 0 0
8 3 1 0.5897 6.125927960527048 5.354863927813555 3.953117229571961 0 0 0
47 16 1 0.5897 6.155455388492108 0.6344357518449006 1.9283840499227742 0 0 0
1455 485 1 0.5897 1.625722398232427 3.2306068238152634 -0.045194429890656806 0 0 1
218 73 1 0.5897 0.2783221641381513 10.826612122111634 2.5160577343392645 1 0 0
127 43 2 -1.1794 6.019338441951449 10.754915715095578 3.243596861438449 0 0 0
26 9 1 0.5897 5.195640031145956 6.421890602048664 1.35889899866695 0 0 0
148 50 2 -1.1794 1.5209456550777192 6.517995537625674 4.789421170454027 0 0 0
121 41 2 -1.1794 4.27715470887015 7.6863846662684665 4.166013459715203 0 0 0
122 41 1 0.5897 3.609387467919429 7.825300109178018 3.494454430847292 0 0 0
123 41 1 0.5897 5.107657963157006 7.825177684510746 3.7108540583011913 0 0 0
124 42 2 -1.1794 2.746352475249344 7.894834809567953 1.8642979413115472 0 0 0
125 42 1 0.5897 3.213935308199994 7.114417077361351 1.5667929631802615 0 0 0
126 42 1 0.5897 3.2789672760330926 8.626840602343025 1.5533682187131104 0 0 0
129 43 1 0.5897 5.072495285310755 10.788264003320162 3.107572230303841 0 0 0
130 44 2 -1.1794 3.2920823441701055 10.769901252552081 3.2342817742853263 0 0 0
132 44 1 0.5897 2.7306323720175696 10.139926838380118 3.6860690424221394 0 0 0
133 45 2 -1.1794 1.4557429337048022 9.21291315947816 4.7753822446911185 0 0 0
135 45 1 0.5897 0.8124133027100452 9.694533176016357 4.255410094618653 0 0 0
137 46 1 0.5897 0.8490965847225905 7.641213173948964 2.0646660733748856 0 0 0
139 47 2 -1.1794 4.573318314588144 9.446204779514812 0.6549701001482776 0 0 0
142 48 2 -1.1794 1.4761994138961303 10.69749136646929 1.1761781586720095 0 0 0
143 48 1 0.5897 2.3099221669501806 10.819991109260743 1.630116105705533 0 0 0
144 48 1 0.5897 1.4375020614257046 11.417670094753515 0.5468234154848077 0 0 0
149 50 1 0.5897 1.5269339312106474 7.475162090519618 4.787046527901384 0 0 0
131 44 1 0.5897 2.9440445914205857 11.625284789827607 3.4860585204878394 0 0 0
140 47 1 0.5897 4.536115983720132 10.307111977490571 0.23821788749136918 0 0 0
507 169 1 0.5897 4.269262662783266 6.220434219251519 5.474806236496377 0 0 0
134 45 1 0.5897 1.3955585037938751 9.598939984718589 5.6492398078131885 0 0 0
1574 525 1 0.5897 1.5351257397140838 9.398437039534253 0.002599054669118181 0 0 1
145 49 2 -1.1794 4.528154189375459 12.248840011346722 0.4395602749243236 0 0 0
168 56 1 0.5897 6.074622360649717 8.396458915220878 1.7982114349516172 0 0 0
270 90 1 0.5897 0.9632952644280665 12.195237007857443 4.327356375974536 0 0 0
141 47 1 0.5897 4.815518005529425 8.84776428418618 -0.05174688260085464 0 0 0
147 49 1 0.5897 5.371746921845457 12.346737482443393 0.8810641611503487 0 0 0
579 193 1 0.5897 0.00391826248743854 5.361236256842368 9.749282443567676 1 0 0
578 193 1 0.5897 0.2703156799933145 3.8786401730977573 9.900209280475094 1 0 0
508 170 2 -1.1794 1.545656368010616 0.10677612542627146 10.861670248826542 0 0 0
494 165 1 0.5897 1.3015590260542917 2.038511025451307 10.627255858254719 0 0 0
504 168 1 0.5897 1.5280245295720363 3.9696232574241437 6.731035582945549 0 0 0
501 167 1 0.5897 4.638820055340298 4.199714164358527 6.257749063318289 0 0 0
499 167 2 -1.1794 4.665135597525566 3.2433931164113172 6.226446970574193 0 0 0
483 161 1 0.5897 4.666762941129785 2.1049139787167563 10.783966634942841 0 0 0
492 164 1 0.5897 2.68716504730267 3.923491411061944 9.667939087210843 0 0 0
493 165 2 -1.1794 1.4865169206472753 2.9680785758667496 10.761052694343688 0 0 0
491 164 1 0.5897 2.8253246046760565 4.865957258446022 8.491239273292193 0 0 0
485 162 1 0.5897 3.579024825875259 1.603049251528061 8.904289058140748 0 0 0
481 161 2 -1.1794 4.747035293361057 1.3180088961341097 10.244924694745908 0 0 0
482 161 1 0.5897 5.44251791862992 1.5246867735314829 9.620600445114807 0 0 0
502 168 2 -1.1794 1.496338478873048 4.800799086157831 7.204709169915482 0 0 0
500 167 1 0.5897 3.9674334650420624 2.9645889676021637 6.819465993345859 0 0 0
490 164 2 -1.1794 3.2004661147736915 4.665702588386603 9.348804350556096 0 0 0
503 168 1 0.5897 0.7331376986236748 4.721967318536998 7.776975282223984 0 0 0
498 166 1 0.5897 1.2368889791227857 1.7910900059984545 8.130260172962164 0 0 0
484 162 2 -1.1794 3.078763926475577 1.7760603726364002 8.10676772226686 0 0 0
489 163 1 0.5897 4.8948527170638245 4.776732501173228 9.082066945395464 0 0 0
486 162 1 0.5897 3.316282540629045 1.0623025800045656 7.514847414153134 0 0 0
629 210 1 0.5897 2.391622274339829 5.789876699210656 10.767032945323507 0 0 0
505 169 2 -1.1794 4.528251656522311 5.911873780392791 6.343122885476022 0 0 0
527 176 1 0.5897 5.659599863634208 0.7671223695987605 7.548953418629811 0 0 0
497 166 1 0.5897 0.16937609250817331 1.0758859803386718 7.329834885522377 0 0 0
528 176 1 0.5897 5.829555561375667 2.242158374758685 7.253598768041341 0 0 0
628 210 2 -1.1794 1.557578976321731 6.107153351713055 11.11324889446184 0 0 0
496 166 2 -1.1794 0.2920079815320224 1.7683498652431457 7.979216636884265 0 0 0
487 163 2 -1.1794 5.840690071036559 4.884632024468778 9.181453181391955 0 0 0
488 163 1 0.5897 6.1101080668695325 4.147265709578652 9.72911614580224 0 0 0
526 176 2 -1.1794 6.138358885853929 1.5457302898304162 7.833130085302385 0 0 0
616 206 2 -1.1794 0.23790098426433956 7.851076187278665 7.85224891648453 0 0 0
607 203 2 -1.1794 5.995203892912731 10.598368075082265 9.37956858922981 0 0 0
621 207 1 0.5897 4.240420807748367 8.745930019273029 5.659386228768428 0 0 0
614 205 1 0.5897 2.391183374105896 9.367135207204935 10.321595144167517 0 0 0
605 202 1 0.5897 3.116597128828832 8.261521141739992 7.574660722478304 0 0 0
150 50 1 0.5897 1.6965865958331736 6.279163339166167 5.699575203888049 0 0 0
647 216 1 0.5897 6.0118074782148385 7.7345446175986075 8.59399530825858 0 0 0
623 208 1 0.5897 1.9594341460271807 10.711448098520309 7.652918202738502 0 0 0
506 169 1 0.5897 3.991430053094795 6.422392050019618 6.9492599489998 0 0 0
698 233 1 0.5897 0.18285540431926242 11.226672191670742 9.923729341343673 1 0 0
601 201 2 -1.1794 4.6836776423576945 7.487537001527915 9.998599297376593 0 0 0
630 210 1 0.5897 1.6004013257155434 7.057665116349786 11.008838681634158 0 0 0
619 207 2 -1.1794 4.2575420499942735 9.155446257711356 6.524410695171004 0 0 0
625 209 2 -1.1794 4.429115782054504 11.828888850952161 6.399305685055997 0 0 0
1101 367 1 0.5897 4.527452062205195 8.652934376022747 11.240997417260715 0 0 0
613 205 2 -1.1794 1.695057013855676 8.95606758747849 10.834066608962502 0 0 0
622 208 2 -1.1794 1.236820042325407 10.884617716833286 7.0495667400932955 0 0 0
603 201 1 0.5897 4.006668855819134 7.477405881791702 9.32201888441734 0 0 0
606 202 1 0.5897 1.9247753372186982 7.437975540451181 8.014038121652543 0 0 0
648 216 1 0.5897 6.072721602588452 7.035852564053014 7.252319112821164 0 0 0
626 209 1 0.5897 4.285649734100611 10.889779254130866 6.516377451748733 0 0 0
611 204 1 0.5897 4.155324472965065 10.395496562084295 9.239954099101363 0 0 0
624 208 1 0.5897 1.6450032307453546 11.331915136830874 6.308252721177195 0 0 0
604 202 2 -1.1794 2.881625326430662 7.432228105914148 7.990927771123513 0 0 0
602 201 1 0.5897 4.54887999368102 6.674352964526639 10.485214270370584 0 0 0
699 233 1 0.5897 0.1517928499696125 10.834695654040726 8.461748546916533 1 0 0
610 204 2 -1.1794 3.2194221752073275 10.438315423734686 9.04400125184194 0 0 0
615 205 1 0.5897 0.8862792834732979 9.326137781180169 10.48038149537516 0 0 0
612 204 1 0.5897 2.892769878211382 11.154549912099691 9.58854528330296 0 0 0
620 207 1 0.5897 5.102097507345019 8.898983255375214 6.894688233891853 0 0 0
627 209 1 0.5897 5.087940095893736 12.054684113402846 7.055940529493997 0 0 0
1106 369 1 0.5897 4.787258711437802 12.292822160812443 11.26818132645349 0 0 0
961 321 2 -1.1794 4.57339743354005 1.8627137195190795 15.722436254080694 0 0 0
962 321 1 0.5897 5.317641205805159 1.7510768901852232 15.130979871827208 0 0 0
963 321 1 0.5897 4.604217679900141 1.0958082317991313 16.294397071978416 0 0 0
964 322 2 -1.1794 2.8754504162721126 1.5081036130316858 13.461889195860703 0 0 0
965 322 1 0.5897 3.189600187413951 1.7860153486154065 14.32231936482877 0 0 0
966 322 1 0.5897 1.9223703371323364 1.5724239869085301 13.522151260397923 0 0 0
970 324 2 -1.1794 3.2787870122300675 4.768790511607884 15.278899292731658 0 0 0
971 324 1 0.5897 4.210641568856106 4.665226525998107 15.086399886235185 0 0 0
972 324 1 0.5897 2.9726846964897935 3.8817033386202637 15.467529293815943 0 0 0
973 325 2 -1.1794 1.6082531147524621 2.871133468227179 16.409639359474 0 0 0
975 325 1 0.5897 0.7758949549507784 3.218575525585681 16.089297507348917 0 0 0
982 328 2 -1.1794 1.329314000937674 4.46437292538991 13.26745004265631 0 0 0
983 328 1 0.5897 1.380548479042166 5.172610659385622 12.62556767253946 0 0 0
984 328 1 0.5897 2.085710240113492 4.60202841204515 13.837627416541617 0 0 0
980 327 1 0.5897 3.7113094044029693 2.648604830333251 12.568034773078809 0 0 0
981 327 1 0.5897 5.210410249682654 2.8544588461240146 12.6122069530896 0 0 0
979 327 2 -1.1794 4.411365788006548 3.1937611595260007 12.209010910541556 0 0 0
990 330 1 0.5897 1.6976640319027663 1.1541627626984603 16.51452586343912 0 0 0
986 329 1 0.5897 4.433311111302483 4.894318676299465 12.24225769792477 0 0 0
1110 370 1 0.5897 2.1621387026691705 6.055191687293057 16.04805701534702 0 0 0
985 329 2 -1.1794 4.656815648215614 5.819224644986722 12.346173821020573 0 0 0
967 323 2 -1.1794 6.02000042483872 4.568025745841093 14.966880053380251 0 0 0
495 165 1 0.5897 1.3505915961311865 3.107350645792495 11.698283831877676 0 0 0
1058 353 1 0.5897 0.11211371594677408 4.604571563140106 14.598622333148045 1 0 0
1346 449 1 0.5897 4.00148637312453 0.15506618485556042 12.93037739053157 0 1 0
976 326 2 -1.1794 0.28081183529855264 1.4680164266107314 13.74747682778217 0 0 0
1008 336 1 0.5897 6.127745258918617 0.7701236658839261 13.359505626992394 0 0 0
988 330 2 -1.1794 1.447800447392244 0.23699077653585376 16.62664412070044 0 0 0
1347 449 1 0.5897 4.803026228612578 0.1257415437815014 11.646406462494706 0 1 0
1109 370 1 0.5897 0.6577938541637174 6.15811539771082 16.18215914706397 0 0 0
1096 366 2 -1.1794 0.053896380751586384 7.54615201142115 13.492951937917168 0 0 0
1087 363 2 -1.1794 6.082214870970944 10.7442547416001 14.864193329545111 0 0 0
1128 376 1 0.5897 6.082820663143877 7.029074668721446 13.073355642820022 0 0 0
1178 393 1 0.5897 0.4174550663811433 11.528995619239153 15.456359395157431 1 0 0
1108 370 2 -1.1794 1.47433345148687 6.5383950959404435 16.50589780718944 0 0 0
987 329 1 0.5897 3.9264823641206874 6.1882990653489856 12.84273939987098 0 0 0
1081 361 2 -1.1794 4.59173200956224 7.784990516879725 15.679225351303952 0 0 0
1082 361 1 0.5897 4.681457189122967 8.39486767372185 16.411516332155436 0 0 0
1083 361 1 0.5897 4.423942732067578 6.937717877400555 16.091772054291994 0 0 0
1084 362 2 -1.1794 2.89696698087631 7.766883075547843 13.476141375626744 0 0 0
1085 362 1 0.5897 3.3139184398813537 7.735819450835707 14.337207470773796 0 0 0
1086 362 1 0.5897 3.4656234053976345 8.333096977450872 12.954368219135075 0 0 0
1089 363 1 0.5897 5.130973079666598 10.836840455762337 14.812292801651818 0 0 0
1090 364 2 -1.1794 3.223799555615749 10.883750453707199 14.931257765177712 0 0 0
1091 364 1 0.5897 2.7825291969466197 11.719169931854541 15.084755807330085 0 0 0
1092 364 1 0.5897 2.8408307515876774 10.288149076716337 15.575323125513608 0 0 0
1095 365 1 0.5897 0.8245873295813587 9.571940936462802 16.078681300358056 0 0 0
1097 366 1 0.5897 0.9702059682888464 7.82275294135554 13.495279661463504 0 0 0
1099 367 2 -1.1794 4.676472241674079 9.24825817454884 11.975594214813674 0 0 0
1102 368 2 -1.1794 1.4714439540355027 10.660453056579138 12.88837439860017 0 0 0
1104 368 1 0.5897 2.2022660333656034 10.76932685327173 13.496849636997053 0 0 0
1093 365 2 -1.1794 1.5714877840944823 9.2742124691908 16.59799350877659 0 0 0
1103 368 1 0.5897 1.696226896534556 9.881011462138995 12.380271796023306 0 0 0
1100 367 1 0.5897 5.379742313929844 8.837540737617303 12.478499610668978 0 0 0
1094 365 1 0.5897 1.5117566787079029 8.319084818980121 16.578655783474467 0 0 0
1107 369 1 0.5897 4.736761291832837 11.06054999446965 12.146165391005473 0 0 0
1127 376 1 0.5897 6.061876668187243 7.822998938304045 14.362234574448314 0 0 0
1179 393 1 0.5897 0.45116352577669916 10.68539065563254 14.19971790510959 1 0 0
750 250 1 0.5897 1.8529290351659502 12.046534424205827 11.499912166060446 0 0 0
1105 369 2 -1.1794 4.681849538595704 12.015622205006988 12.178303517590694 0 0 0
1177 393 2 -1.1794 0.02035059164688846 10.757937419503286 15.051412452179978 1 0 0
1488 496 1 0.5897 5.998723982300626 0.7946937449787042 18.641527555973013 0 0 0
386 129 1 0.5897 4.819943043239136 -0.023045149686132027 22.713217040973333 0 1 -1
989 330 1 0.5897 1.5164305773805198 0.08301315509984875 17.568906888628767 0 0 0
1468 490 2 -1.1794 1.7053247965079388 0.021121901654442388 21.96740104273323 0 0 0
1447 483 2 -1.1794 6.059312846246663 4.849890899391654 20.567036025704795 0 0 0
974 325 1 0.5897 1.7069932619813224 3.2513174323783445 17.282552398825757 0 0 0
1460 487 1 0.5897 4.651076232203747 2.703170517817987 17.228541657648535 0 0 0
1456 486 2 -1.1794 0.18187185528586872 1.3801535971377732 19.317436071520078 0 0 0
1454 485 1 0.5897 2.459886215308941 3.4356871746305773 21.690956706951724 0 0 0
1464 488 1 0.5897 0.9877889064726241 4.72024201900142 19.037264063735087 0 0 0
1443 481 1 0.5897 4.84448895845839 2.059492118096068 22.079492508077003 0 0 0
1450 484 2 -1.1794 3.2719048821649954 4.692900102598976 20.742780500727775 0 0 0
1469 490 1 0.5897 1.9238274812507081 0.9309439890263771 22.169115740261795 0 0 0
1442 481 1 0.5897 4.1217789881815765 1.501144972451509 20.872075661321333 0 0 0
1453 485 2 -1.1794 1.8059710350256313 2.85279514182606 22.076720575520447 0 0 0
1444 482 2 -1.1794 3.031456856015456 1.526756560756739 19.30376250978526 0 0 0
1463 488 1 0.5897 1.7609395738673028 5.261498206390006 17.853552092040545 0 0 0
1452 484 1 0.5897 2.9247710147478836 4.68563221508566 19.850759446034196 0 0 0
1441 481 2 -1.1794 4.851790964741393 1.3250982115915682 21.46561116678531 0 0 0
1451 484 1 0.5897 4.220381215499745 4.755706375607635 20.630638247099498 0 0 0
1445 482 1 0.5897 2.0826928129773212 1.6429780286250606 19.35341289035714 0 0 0
1446 482 1 0.5897 3.333579287649314 2.2509784395906642 18.755627275532888 0 0 0
1461 487 1 0.5897 5.522176831683599 2.791040446359678 18.463591319737354 0 0 0
1459 487 2 -1.1794 4.841513238369214 3.261486067501579 17.98237549795499 0 0 0
1462 488 2 -1.1794 1.7373756232553532 4.531828846651291 18.472636733017197 0 0 0
1466 489 1 0.5897 4.760308699001396 5.1052998746296305 18.034794175609193 0 0 0
1590 530 1 0.5897 2.2959993265877237 5.8904931687747455 21.830547390574516 0 0 0
1465 489 2 -1.1794 4.543579822335273 6.029562144337253 17.91243533568599 0 0 0
1538 513 1 0.5897 0.40657580815165956 3.84117919186321 21.070445382278464 1 0 0
1539 513 1 0.5897 0.47594662761996714 5.353204181377711 21.09927112951248 1 0 0
1826 609 1 0.5897 3.9325046047780465 0.08171560883832996 18.35539654545901 0 1 0
1487 496 1 0.5897 6.033878016223582 1.3573171770553238 20.046600208826582 0 0 0
1710 570 1 0.5897 2.382343484245119 12.1543054453607 21.491152198710253 0 0 0
1578 526 1 0.5897 0.0841458556964767 7.27227719018315 20.116334941012006 0 0 0
1585 529 2 -1.1794 4.503029017460233 12.35244950875275 17.190364828930285 0 0 0
1587 529 1 0.5897 4.532178625344094 11.403112600816112 17.309201613632304 0 0 0
1589 530 1 0.5897 1.6467751609672068 7.189827451754985 22.25722203905225 0 0 0
1709 570 1 0.5897 0.8860899471822161 12.02293270585859 21.679851648380946 0 0 0
1575 525 1 0.5897 2.3168151273878017 9.4271123485725 21.68916540126601 0 0 0
1582 528 2 -1.1794 1.5744465001954737 11.037088461843537 18.591508147165058 0 0 0
1565 522 1 0.5897 2.0694627989609122 7.774126233604062 19.266742209452566 0 0 0
1561 521 2 -1.1794 4.796154446165339 7.731280998975927 21.48134158154614 0 0 0
1571 524 1 0.5897 2.8137027687960483 10.743324114081965 19.94898763814234 0 0 0
1579 527 2 -1.1794 4.558849838881486 9.620965551875905 17.834854304188063 0 0 0
1581 527 1 0.5897 5.340281444851765 9.268115547823616 18.26032639009528 0 0 0
1562 521 1 0.5897 4.536225724562372 7.011341529694368 22.056103186105872 0 0 0
1583 528 1 0.5897 0.8498429963028394 10.843119185272716 19.186076599884743 0 0 0
1572 524 1 0.5897 4.192456136161022 10.709403011888112 20.57315574170783 0 0 0
1580 527 1 0.5897 3.842083685918195 9.076041390070216 18.159620144258042 0 0 0
1570 524 2 -1.1794 3.265076437132543 10.593411755104626 20.77966848190382 0 0 0
1564 522 2 -1.1794 3.0188972300964036 7.81701477538216 19.380201208251094 0 0 0
1588 530 2 -1.1794 1.549959302351606 6.2395025416892915 22.318186553559713 0 0 0
1573 525 2 -1.1794 1.63543067133448 8.939133448544842 22.151528901832123 0 0 0
1566 522 1 0.5897 3.3668744416533154 7.219350001236292 18.718422992527934 0 0 0
1467 489 1 0.5897 5.312460730502378 6.500860738858967 18.233153855274935 0 0 0
1563 521 1 0.5897 4.056481263270494 7.840336403196599 20.883695271987655 0 0 0
1584 528 1 0.5897 1.5351537892910532 10.344989417892508 17.931435166399233 0 0 0
1567 523 2 -1.1794 5.892188767328916 11.127502946407157 20.585647664066308 0 0 0
1608 536 1 0.5897 5.87863487141929 7.80780864375366 20.04137472631961 0 0 0
1658 553 1 0.5897 0.22090636739687988 9.88421268619761 21.39092417957822 1 0 0
1576 526 2 -1.1794 0.1681067201244587 7.488748908958511 19.187700053309683 0 0 0
241 81 2 -1.1794 4.612627610415158 13.891943245105361 4.44689061308452 0 0 0
242 81 1 0.5897 4.515207584794716 13.1381073698429 5.028674553859515 0 0 0
243 81 1 0.5897 3.784743973627272 13.934397436670404 3.968384386427581 0 0 0
244 82 2 -1.1794 2.8569605153465925 13.748692625208893 2.2051381837683284 0 0 0
245 82 1 0.5897 1.9001143476811135 13.741011874966977 2.2279227480416863 0 0 0
246 82 1 0.5897 3.075775829893439 14.39056597156037 1.5295952637989803 0 0 0
250 84 2 -1.1794 3.0626952541081036 17.20352375515143 3.7665940216788876 0 0 0
251 84 1 0.5897 2.536250996644877 17.028392513729543 2.986583370689015 0 0 0
252 84 1 0.5897 3.9639800530658307 17.23421117408565 3.445830059780941 0 0 0
253 85 2 -1.1794 1.5828108174903257 15.363093691909892 5.158190324584875 0 0 0
255 85 1 0.5897 2.332486600606843 15.591339207223784 4.60857172862195 0 0 0
259 87 2 -1.1794 4.51112838602368 15.621625334259175 0.5598063966610115 0 0 0
262 88 2 -1.1794 1.3043155805238782 16.846256011835052 1.5268392567526985 0 0 0
263 88 1 0.5897 1.2499559292820097 16.1598699270939 0.8618827566217141 0 0 0
264 88 1 0.5897 1.2789785400007438 17.66409395850988 1.0301232250666887 0 0 0
269 90 1 0.5897 1.588570058774388 13.473002957417009 4.845202893774428 0 0 0
254 85 1 0.5897 0.8313725507943436 15.756080398407082 4.714259130347036 0 0 0
260 87 1 0.5897 4.606667570742805 16.56881980358382 0.46027514094432354 0 0 0
265 89 2 -1.1794 4.47079113248498 18.20606140465719 0.7274515901411489 0 0 0
389 130 1 0.5897 2.078451931516194 18.459545956138413 4.645717509162735 0 0 0
146 49 1 0.5897 3.9253171732341716 12.787741572776254 0.9517770231255205 0 0 0
247 83 2 -1.1794 5.875880639605852 16.970919794950518 3.5776112492531555 0 0 0
288 96 1 0.5897 5.8496549006226894 14.68541730936938 1.4529630087773087 0 0 0
287 96 1 0.5897 5.91657228836078 14.072016699252988 2.83544445940657 0 0 0
268 90 2 -1.1794 1.7323936099569779 12.528315287473005 4.789650851196221 0 0 0
256 86 2 -1.1794 0.1189289991865717 13.902311580150837 2.1316502593646725 0 0 0
339 113 1 0.5897 0.25206702062193254 17.955429155465488 4.043409074923803 1 0 0
408 136 1 0.5897 5.8929677754490974 20.077592053082306 2.645148817886638 0 0 0
407 136 1 0.5897 6.177522608539829 19.41495207392134 1.3140180508736736 0 0 0
30 10 1 0.5897 1.6369054453921235 24.534356190104226 5.452891579513537 0 -1 0
29 10 1 0.5897 2.3407176040232023 24.812938777823977 4.1417938989002225 0 -1 0
388 130 2 -1.1794 1.3585753514894137 18.90531034040434 5.092090847376808 0 0 0
267 89 1 0.5897 3.7151545794115908 18.607110334693658 1.1568018973696026 0 0 0
361 121 2 -1.1794 4.7979810353319845 20.21144255885021 4.045763319947142 0 0 0
362 121 1 0.5897 3.945521843261385 20.232872937061934 3.6109786534360384 0 0 0
364 122 2 -1.1794 2.7072851636209503 19.918848204469896 2.0031267861859403 0 0 0
365 122 1 0.5897 2.939184953496031 20.616226837044607 1.3898394741550528 0 0 0
370 124 2 -1.1794 3.2007457840845053 23.282148797846162 3.351486064299789 0 0 0
371 124 1 0.5897 4.144347395292265 23.19283097921378 3.4848004116653146 0 0 0
372 124 1 0.5897 2.810674171661169 22.6840978736764 3.9889842790832573 0 0 0
373 125 2 -1.1794 1.5856987666270237 21.67377242492563 5.041220340634499 0 0 0
382 128 2 -1.1794 1.577180083712006 23.240158519672505 1.1941992885247918 0 0 0
383 128 1 0.5897 2.1812428041791954 23.11539357710935 1.9261541270859652 0 0 0
375 125 1 0.5897 0.7590438947616802 21.824379151081757 4.582831575804214 0 0 0
366 122 1 0.5897 1.7757701815964162 20.052759055148066 2.177706237096835 0 0 0
384 128 1 0.5897 1.708394431136836 22.470251717062936 0.6407949462039464 0 0 0
363 121 1 0.5897 4.722309481580119 19.505477085643818 4.687737704685666 0 0 0
381 127 1 0.5897 5.186983911548072 21.265834251099243 0.8393682720394207 0 0 0
379 127 2 -1.1794 4.40072829550202 21.648644346934176 0.4502371810247273 0 0 0
380 127 1 0.5897 4.5235744891737815 22.593542908377614 0.541242818225888 0 0 0
390 130 1 0.5897 1.5813689379168563 19.83463225813407 5.03797874644835 0 0 0
861 287 1 0.5897 4.9953517883428935 21.418856926076188 5.380394068035087 0 0 0
385 129 2 -1.1794 4.803385174815164 24.387412703534487 0.5527685214478067 0 0 0
367 123 2 -1.1794 6.068044084304532 23.35179582435253 3.5313225119068186 0 0 0
459 153 1 0.5897 0.31602888082815145 23.566044763936773 2.497355213476573 1 0 0
458 153 1 0.5897 0.34741349161720375 24.165372388878495 3.8872480775280143 1 0 0
376 126 2 -1.1794 0.04118586724424489 19.989228635863284 2.149114627455532 0 0 0
387 129 1 0.5897 4.040885916886456 24.728653295290002 1.020018580846129 0 0 0
818 273 1 0.5897 0.23888770245929575 17.19794646310646 8.649818115878745 1 0 0
740 247 1 0.5897 4.5655471350030465 15.23094867287725 5.6688726382359045 0 0 0
737 246 1 0.5897 1.1194020119302575 13.907804885965353 7.768859527535322 0 0 0
732 244 1 0.5897 2.8234961700248817 16.209309738317394 9.91041293461752 0 0 0
725 242 1 0.5897 3.3227493279941505 14.710242112653447 7.602831630281276 0 0 0
726 242 1 0.5897 3.33287476610442 13.247940764662081 7.211145369582526 0 0 0
730 244 2 -1.1794 3.2414128849045163 16.83019087684025 9.313693632388302 0 0 0
728 243 1 0.5897 4.989272100625141 16.715389087470548 9.060532694643708 0 0 0
733 245 2 -1.1794 1.652652855798291 15.095772068009284 10.877624207041753 0 0 0
724 242 2 -1.1794 2.937360397715112 13.863562451486791 7.828240796450409 0 0 0
742 248 2 -1.1794 1.478634338254542 17.143331145448364 7.233934512899678 0 0 0
721 241 2 -1.1794 4.949388899079474 13.645344559248535 9.890415368101177 0 0 0
743 248 1 0.5897 1.2975964916644118 17.897554453727714 6.673038543629353 0 0 0
722 241 1 0.5897 4.106883070092514 13.917457837232494 9.526690230463489 0 0 0
731 244 1 0.5897 2.6539334746495915 16.87042333347005 8.559060471843349 0 0 0
735 245 1 0.5897 0.8511708102748727 15.364686152510334 10.428764498825084 0 0 0
741 247 1 0.5897 4.464565610147338 16.63559563142593 6.2244173768314335 0 0 0
744 248 1 0.5897 1.5646208212440968 16.408120852039445 6.627051799133137 0 0 0
739 247 2 -1.1794 4.443720270223984 15.714979181971819 6.485653742865128 0 0 0
723 241 1 0.5897 5.548599606477732 13.659118159639487 9.144105369729349 0 0 0
749 250 1 0.5897 1.806779251611633 13.36757874220797 10.761949452850278 0 0 0
745 249 2 -1.1794 4.6483831161211295 18.526943950009105 6.196342612224614 0 0 0
869 290 1 0.5897 0.918727011368146 18.20840558210559 10.196932317609091 0 0 0
870 290 1 0.5897 2.391718867893786 18.208511824358176 10.546156495210148 0 0 0
736 246 2 -1.1794 0.17894535053228472 14.066123268202839 7.687568803359823 0 0 0
727 243 2 -1.1794 5.928188792361942 16.87200234174989 8.960344336014337 0 0 0
868 290 2 -1.1794 1.5496495010733895 18.574363524372984 10.816781087384218 0 0 0
1221 407 1 0.5897 4.901609940390577 14.983208270181006 11.215285665314445 0 0 0
768 256 1 0.5897 5.8447434227985395 14.371371296668869 7.111241328482217 0 0 0
729 243 1 0.5897 6.112158238500156 17.60859651349299 9.543282850614025 0 0 0
748 250 2 -1.1794 1.8966336511022888 12.424984503828641 10.621770451674568 0 0 0
865 289 2 -1.1794 4.4035736160435315 24.808179916640675 6.433834825231078 0 0 0
939 313 1 0.5897 0.42137474183129786 23.747369770499766 9.956027400622762 1 0 0
937 313 2 -1.1794 0.08256575313554038 22.951504948498496 9.546122623076366 1 0 0
886 296 2 -1.1794 6.1382009044917725 20.08556670649 7.828123687051304 0 0 0
747 249 1 0.5897 3.897537435341497 18.747843646865668 6.747357637771142 0 0 0
887 296 1 0.5897 5.599417095484757 20.70363856747938 7.334263469863108 0 0 0
374 125 1 0.5897 1.5433122872628802 22.24649293438484 5.807020814839716 0 0 0
859 287 2 -1.1794 4.685296293846729 21.876794821950092 6.1616780678896825 0 0 0
855 285 1 0.5897 1.164879515333843 21.825181520240115 10.393183177868675 0 0 0
844 282 2 -1.1794 2.899534310390698 20.33580497046883 7.612349637491495 0 0 0
845 282 1 0.5897 3.2736982665188297 20.218892885125435 8.48561256182598 0 0 0
842 281 1 0.5897 4.610931708339928 20.694335629981417 10.6332575786193 0 0 0
852 284 1 0.5897 3.019354463211371 22.65539497583444 9.744286719172443 0 0 0
856 286 2 -1.1794 0.18702399846524062 19.95894186517897 8.066537706138156 0 0 0
860 287 1 0.5897 3.961578479108568 21.33935654670175 6.483490855457435 0 0 0
851 284 1 0.5897 4.248430799777713 23.429646400292718 9.318120017790337 0 0 0
746 249 1 0.5897 5.410497627124012 18.78637617367592 6.714082261724621 0 0 0
853 285 2 -1.1794 1.9280547287996446 21.470345935994352 10.849073275211216 0 0 0
850 284 2 -1.1794 3.292734390584671 23.47811986921721 9.338573431715945 0 0 0
864 288 1 0.5897 0.8501453744943214 23.208549374055686 7.806168679894331 0 0 0
843 281 1 0.5897 4.589697015911385 19.187208841538435 10.491985827241036 0 0 0
862 288 2 -1.1794 1.448748627491921 23.558224205168997 7.146152249460318 0 0 0
854 285 1 0.5897 1.7962094367090864 20.522372580936732 10.835851515066143 0 0 0
888 296 1 0.5897 5.631859336715142 19.905320879753937 8.620185135319772 0 0 0
847 283 2 -1.1794 5.925378471538929 23.297385788850654 9.315716332181003 0 0 0
841 281 2 -1.1794 4.396323045810521 19.994874930258383 10.016061550144148 0 0 0
846 282 1 0.5897 1.9578193151572953 20.218635826365983 7.737151184630099 0 0 0
866 289 1 0.5897 4.579953461678087 23.87222626068356 6.338489595098817 0 0 0
863 288 1 0.5897 2.3119826394645666 23.51299643717624 7.55717832009291 0 0 0
857 286 1 0.5897 -0.0013553585592589457 20.771652805332074 7.597237176814371 0 0 0
510 170 1 0.5897 2.3560120183613424 24.80830821034685 10.39258715481049 0 -1 0
1201 401 2 -1.1794 4.586395899264184 14.387946013796242 15.415869091676157 0 0 0
1204 402 2 -1.1794 3.026489037239275 14.050855547777862 13.38624144258149 0 0 0
1205 402 1 0.5897 3.4227922048401025 14.367087017874892 14.198147731644363 0 0 0
1206 402 1 0.5897 3.455228140810879 13.21115251950352 13.22106438698621 0 0 0
1210 404 2 -1.1794 3.2829300029211717 17.182109326670428 14.991308636561037 0 0 0
1211 404 1 0.5897 2.866483254824379 17.878400009691077 15.499210616811444 0 0 0
1212 404 1 0.5897 4.220455967371266 17.36156680443704 15.061801936642215 0 0 0
1213 405 2 -1.1794 1.353349217949769 15.506540835346206 16.335218639049977 0 0 0