LAMMPS data file via write_data, version 30 Jul 2021, timestep = 40250000

864 atoms
2 atom types
576 bonds
1 bond types
288 angles
1 angle types

0.19777192099361152 18.009800479005975 xlo xhi
0.119441245773098 23.50973655423256 ylo yhi
0.13152162774882825 22.081674172246927 zlo zhi

Masses

1 1.00794
2 15.9994

Atoms # full

707 1 1 0.5897 3.0036245916222564 2.035084481864181 3.9378997844061865 0 0 0
706 1 2 -1.1794 3.0627293116368737 1.913203538203978 2.9902669984238317 0 0 0
30 1 1 0.5897 5.319884985330561 3.988995472093723 2.4486772331284152 0 0 0
708 1 1 0.5897 2.2769546448527773 2.336511236246413 2.644352889014021 0 0 0
29 1 1 0.5897 4.5736532602313416 2.672102550964931 2.4227690564249906 0 0 0
28 1 2 -1.1794 5.390259450297993 3.0850758927859254 2.141882415040355 0 0 0
495 1 1 0.5897 8.325382111407231 2.2068948198120033 2.8235079439686963 0 0 0
1 1 2 -1.1794 0.9424174516360428 3.2425139403159973 2.0176855182482925 0 0 0
494 1 1 0.5897 6.82823772834821 2.030541301776596 2.6835550500979592 0 0 0
493 1 2 -1.1794 7.596140135350725 1.6629468283649083 3.1211647363064654 0 0 0
846 1 1 0.5897 7.522821724936404 1.7828024731572467 4.919450676706924 0 0 0
3 1 1 0.5897 0.9198431565841279 4.127378451040797 2.3819128820256914 0 0 0
136 1 2 -1.1794 5.338080146258711 5.766269380735631 2.8351231525244054 0 0 0
137 1 1 0.5897 5.2994419142852465 5.8974634153840295 3.7825676699941044 0 0 0
597 1 1 0.5897 0.9378170999141962 5.867103115164003 3.8206740744861873 0 0 0
595 1 2 -1.1794 0.8522106201564715 5.833994807828186 2.8678159118800877 0 0 0
20 1 1 0.5897 0.979953396481598 3.1770778391120054 0.221909701806059 0 0 0
188 1 1 0.5897 3.0891516152003318 0.21534997009173895 2.4710616272951 0 1 0
668 1 1 0.5897 5.419479202969157 3.1529341641314486 0.3615172640050172 0 0 0
181 1 2 -1.1794 1.0598105139782894 5.771540345059827 5.608270551581054 0 0 0
676 1 2 -1.1794 5.292383218579869 5.84589302562564 10.349497092005215 0 0 0
685 1 2 -1.1794 5.381348510142706 5.9579633251127975 5.6246911280445495 0 0 0
487 1 2 -1.1794 3.1210480404479863 2.1423734745971217 5.716494275732822 0 0 0
35 1 1 0.5897 0.7896386652139601 3.9685651625020233 9.770803823853612 0 0 0
274 1 2 -1.1794 5.296403915043327 3.2552528573330317 9.366406692287693 0 0 0
845 1 1 0.5897 7.4985430783212665 0.9357714436392887 6.1740327604813166 0 0 0
83 1 1 0.5897 4.614717544982354 2.9050693968464176 6.269948516638856 0 0 0
82 1 2 -1.1794 5.374794186409814 3.386712315571944 6.596412700876725 0 0 0
844 1 2 -1.1794 7.5082465311626665 1.8448298318148681 5.874596028200388 0 0 0
678 1 1 0.5897 5.315028025900198 4.955644726157352 9.998643611560265 0 0 0
36 1 1 0.5897 1.5904306103080785 2.684199631700489 9.800721230136004 0 0 0
84 1 1 0.5897 6.1219527153564846 2.8256527923210246 6.388514198268263 0 0 0
276 1 1 0.5897 6.121534368860473 2.8394450636394506 9.616508881092427 0 0 0
785 1 1 0.5897 0.7295490272849768 3.203796442951782 7.600052397620565 0 0 0
112 1 2 -1.1794 0.62703855220357 5.673360077733924 10.30001616321533 0 0 0
675 1 1 0.5897 3.1183058023090964 1.0560763586723734 10.067381027366023 0 0 0
34 1 2 -1.1794 0.8205528192444062 3.087059439320466 9.399117959870214 0 0 0
489 1 1 0.5897 3.059566058426328 1.2093835083618254 5.9211470624084965 0 0 0
674 1 1 0.5897 3.8529541701097996 2.379702555534634 10.074129483592666 0 0 0
686 1 1 0.5897 5.338643588823301 5.057147153994824 5.9454169233901615 0 0 0
784 1 2 -1.1794 0.7745379247129257 3.243981110005725 6.644687555304755 0 0 0
356 1 1 0.5897 7.485500492967121 1.006308010359539 10.066658818666799 0 0 0
673 1 2 -1.1794 3.1015452037314324 1.9290392826423979 10.45957866778708 0 0 0
419 1 1 0.5897 9.013231236009947 2.6178513104042738 6.440334988054858 0 0 0
183 1 1 0.5897 1.0040797633414975 4.877965227926287 5.9467569910219735 0 0 0
355 1 2 -1.1794 7.568806176106999 1.9441794290990304 10.238674626666345 0 0 0
275 1 1 0.5897 5.325547836542185 3.2904871647987366 8.41023231761254 0 0 0
488 1 1 0.5897 2.309800086487355 2.5172256990101523 6.059509275171296 0 0 0
166 1 2 -1.1794 2.9813361696822076 1.7320827426177539 13.172175490815837 0 0 0
167 1 1 0.5897 3.0025648231143247 1.6889662043574607 12.21611510384082 0 0 0
457 1 2 -1.1794 5.2668626327769905 3.138070901715994 13.961651910753385 0 0 0
458 1 1 0.5897 6.008494255154818 2.652579675739388 13.60032351625896 0 0 0
459 1 1 0.5897 4.497838119499833 2.6324687581687667 13.698520351149671 0 0 0
762 1 1 0.5897 5.238648901005039 4.7897225452766605 13.367226392278619 0 0 0
594 1 1 0.5897 8.271174298107239 2.3316283721148423 13.303020325360436 0 0 0
168 1 1 0.5897 2.212085349122344 2.265805155122929 13.371327670215477 0 0 0
71 1 1 0.5897 5.305760190735486 3.1804499295167905 15.843929726934274 0 0 0
592 1 2 -1.1794 7.465025116103188 1.9736298854089636 12.931172966914874 0 0 0
466 1 2 -1.1794 0.8407111386234402 3.266569866505442 13.945342274441249 0 0 0
593 1 1 0.5897 7.4564854230788695 1.0588700573532608 13.21275446497428 0 0 0
468 1 1 0.5897 0.8233954443102116 3.2166749575877165 14.90115142709169 0 0 0
365 1 1 0.5897 0.7424653104914506 4.893080766643647 13.357057856872657 0 0 0
761 1 1 0.5897 5.210985571371067 5.696826705243671 12.15545168896267 0 0 0
113 1 1 0.5897 0.6709031554787266 5.734390921110784 11.254330995818805 0 0 0
357 1 1 0.5897 7.504867383985424 2.020181023435497 11.190778866984488 0 0 0
364 1 2 -1.1794 0.7029053237888886 5.781190533696579 13.002292227918993 0 0 0
760 1 2 -1.1794 5.206066106255528 5.7118058246834815 13.112590170036803 0 0 0
360 1 1 0.5897 9.019778667993398 2.7367378492748258 21.021510499022476 0 0 0
133 1 2 -1.1794 0.9093561021752982 3.0266733398217514 16.6589977135318 0 0 0
278 1 1 0.5897 5.245597494921466 4.8289897494852445 17.487641881015442 0 0 0
81 1 1 0.5897 3.1016643854720605 0.26484985689326485 21.07216194076859 0 1 0
568 1 2 -1.1794 3.2513430639367487 1.8774083678800748 20.46003944817933 0 0 0
667 1 2 -1.1794 5.442220545238227 3.256940511382092 21.360342473016114 0 0 0
19 1 2 -1.1794 0.9070276866358808 3.1403084897524067 21.218285133827077 0 0 0
134 1 1 0.5897 0.8505923805096139 3.912542891017794 17.01668253475453 0 0 0
42 1 1 0.5897 7.602021192248739 0.9702681813681994 20.769297168048798 0 0 0
277 1 2 -1.1794 5.258830280907911 5.72081281769174 17.834957011210488 0 0 0
646 1 2 -1.1794 0.9427669866781581 5.763611523425633 20.458187900775194 0 0 0
143 1 1 0.5897 5.454525439088782 4.9937106995361535 20.823399186075463 0 0 0
289 1 2 -1.1794 3.1366169461407156 1.773671780091677 17.650024723866093 0 0 0
21 1 1 0.5897 0.9933567021934858 4.050711185724985 20.93569515857225 0 0 0
754 1 2 -1.1794 7.598575660527119 1.739850979654905 17.612111092808153 0 0 0
290 1 1 0.5897 3.044176135554896 0.8610784901756017 17.376576724081804 0 0 0
569 1 1 0.5897 2.4618021208476875 2.37963286774387 20.661721954020557 0 0 0
40 1 2 -1.1794 7.633582057304678 1.8409474757928914 20.372955832675796 0 0 0
142 1 2 -1.1794 5.4554563370235885 5.890817962137156 20.48970920746113 0 0 0
41 1 1 0.5897 6.837925952233793 2.2742168428328497 20.68197652841754 0 0 0
291 1 1 0.5897 2.375032049206852 2.2151286749135743 17.274001492331237 0 0 0
570 1 1 0.5897 3.265164772509869 1.8255049685201126 19.504280620999833 0 0 0
571 1 2 -1.1794 0.8689234926796391 5.598545903913114 17.706311371973076 0 0 0
144 1 1 0.5897 5.364214431077047 5.794408580765078 19.541689437631554 0 0 0
669 1 1 0.5897 4.641212141982698 2.8322444782653213 21.053248906765507 0 0 0
756 1 1 0.5897 6.801091798584629 2.189287644925521 17.33227688105834 0 0 0
70 1 2 -1.1794 5.317340380306581 3.1578040658916815 16.800858885980993 0 0 0
72 1 1 0.5897 4.539456328864812 2.653092896186859 17.038413876116124 0 0 0
755 1 1 0.5897 7.5781282396706455 1.7875189119304655 18.56797690840193 0 0 0
648 1 1 0.5897 0.9721882170770275 5.728165820506169 19.50202784682106 0 0 0
599 1 1 0.5897 9.040999935935233 2.592705247458942 16.926406656335644 0 0 0
123 1 1 0.5897 3.0899752511957663 8.909133125369147 2.7539060823412793 0 0 0
121 1 2 -1.1794 3.103451767164173 9.822421605553986 3.0400287378275137 0 0 0
122 1 1 0.5897 2.9754198195103676 9.778992922510712 3.9877071494847196 0 0 0
44 1 1 0.5897 1.6155329282583013 10.638763852852367 2.517380994131924 0 0 0
218 1 1 0.5897 6.089003031636899 10.672662059003741 2.4863274483050795 0 0 0
417 1 1 0.5897 8.382428114356808 6.636131089018032 2.5394844719898626 0 0 0
219 1 1 0.5897 4.5783428306160205 10.68942260836862 2.585067140890772 0 0 0
254 1 1 0.5897 3.099484156220245 7.115201631296101 1.0620619186466396 0 0 0
415 1 2 -1.1794 7.643379813504739 7.12944158521574 2.1834902997999484 0 0 0
217 1 2 -1.1794 5.325459715495155 11.224769036333544 2.3176849564691717 0 0 0
66 1 1 0.5897 7.570722438575367 9.75288826572848 3.832484371191923 0 0 0
65 1 1 0.5897 7.555825860200327 8.857842341992678 2.611552153047799 0 0 0
64 1 2 -1.1794 7.588347895482983 9.777251959986122 2.875688124048118 0 0 0
253 1 2 -1.1794 3.081480766267803 7.209986358613971 2.014454326487093 0 0 0
255 1 1 0.5897 2.2961557506925563 6.7359639226983425 2.2880304766152686 0 0 0
416 1 1 0.5897 6.870655943018374 6.635567189490463 2.4578269340301637 0 0 0
43 1 2 -1.1794 0.7705624718604783 11.009518754000112 2.262703104738211 0 0 0
138 1 1 0.5897 4.603276439643259 6.274937898049226 2.4922077239436797 0 0 0
396 1 1 0.5897 0.8615188442008653 11.091578575122552 0.457544878206523 0 0 0
162 1 1 0.5897 7.738786583466498 7.153032194446013 0.38955680517109104 0 0 1
773 1 1 0.5897 8.994172862259134 10.697093584775262 2.3556351139102234 0 0 0
363 1 1 0.5897 5.356673052500776 11.100248044295565 0.4555122268878329 0 0 1
712 1 2 -1.1794 7.438868965004017 9.669894385361987 5.589458589261164 0 0 0
182 1 1 0.5897 0.2555215541566227 6.193302100531927 5.910798910319659 1 0 0
15 1 1 0.5897 1.466568218879305 10.347727421663429 9.812446054493565 0 0 0
687 1 1 0.5897 4.599912377729917 6.377955558754331 5.984214078228807 0 0 0
580 1 2 -1.1794 5.211918928713799 10.769085491196758 9.433550628748353 0 0 0
12 1 1 0.5897 3.083698942920298 7.939512876078749 6.440803059581576 0 0 0
577 1 2 -1.1794 5.230512252585776 10.883749684583778 6.6559668724972285 0 0 0
11 1 1 0.5897 2.451401728028539 6.568687909046687 6.327856500340939 0 0 0
258 1 1 0.5897 3.728066285777793 9.81039089022581 10.06374352651409 0 0 0
793 1 2 -1.1794 2.969012121228949 9.641847261324129 5.715947227094229 0 0 0
165 1 1 0.5897 9.006044813138654 6.2006276396663145 6.0905791856979485 0 0 0
822 1 1 0.5897 8.245176842979504 10.013921795587386 9.962300346172979 0 0 0
714 1 1 0.5897 7.523158822962736 8.7918287038192 5.961016692722461 0 0 0
550 1 2 -1.1794 0.7779739547491082 10.89672544368933 6.753373646561381 0 0 0
795 1 1 0.5897 3.7253192724021114 10.075358672146292 6.111365837566257 0 0 0
114 1 1 0.5897 1.4237321879249143 6.107474070628968 9.994878632680862 0 0 0
256 1 2 -1.1794 2.928799716528472 9.448595542017648 10.446599470768737 0 0 0
650 1 1 0.5897 2.925096289566365 6.869505490632207 8.527947329887692 0 0 0
578 1 1 0.5897 6.030147734283645 10.505669811768911 6.289995294849166 0 0 0
677 1 1 0.5897 6.084446141522181 6.259364876503484 10.00603410959245 0 0 0
649 1 2 -1.1794 2.8672006529694625 6.919000607042895 9.482182198340873 0 0 0
581 1 1 0.5897 6.005359699490595 10.3075597870889 9.705075543861788 0 0 0
147 1 1 0.5897 7.57379234364917 7.069052077273664 7.58058834233844 0 0 0
582 1 1 0.5897 5.2518830931052225 10.772911403874328 8.477124279884213 0 0 0
526 1 2 -1.1794 7.549577829814148 6.983877323124238 9.30026483035166 0 0 0
10 1 2 -1.1794 3.1468297693492864 7.046620171538695 6.779789827798566 0 0 0
651 1 1 0.5897 3.6948432850925705 6.551349218153325 9.792244263800836 0 0 0
551 1 1 0.5897 0.7339530739176735 10.920972535836373 7.709321387557129 0 0 0
528 1 1 0.5897 8.388566207414227 6.635636359604397 9.60213979384792 0 0 0
794 1 1 0.5897 2.211349821965244 10.070935787938101 6.113596047446434 0 0 0
713 1 1 0.5897 8.233523086294399 10.125389213863418 5.8675443788305985 0 0 0
13 1 2 -1.1794 0.6956236670570908 10.813520861682202 9.48846544582128 0 0 0
257 1 1 0.5897 2.8805318182907884 8.556622602518134 10.102787725788321 0 0 0
145 1 2 -1.1794 7.655627178823204 7.193236181481841 6.6349454711926885 0 0 0
527 1 1 0.5897 7.499640779994476 7.8581110210756275 9.686765184849165 0 0 0
146 1 1 0.5897 6.89316547537211 6.746278827786041 6.26729620534474 0 0 0
820 1 2 -1.1794 7.50511011799532 9.511545598631189 10.303173513803019 0 0 0
14 1 1 0.5897 0.8003335673773216 11.707081795405278 9.815168909499102 0 0 0
579 1 1 0.5897 5.188178122696345 11.763760554485103 6.28187272859164 0 0 0
828 1 1 0.5897 7.472058643095272 7.033811737920184 14.992077362374868 0 0 0
261 1 1 0.5897 0.9688358166850373 10.914581751152665 15.002256477862986 0 0 0
332 1 1 0.5897 3.0386318193314343 7.883664194587976 13.727472714498626 0 0 0
797 1 1 0.5897 2.9777553896527142 9.573485761805678 12.229213542927443 0 0 0
796 1 2 -1.1794 3.0970984100942274 9.550672579902038 13.178741392523474 0 0 0
798 1 1 0.5897 2.345480370897565 10.03054089375089 13.52670522182668 0 0 0
722 1 1 0.5897 4.5823998749560415 10.375517478369852 13.748435793732448 0 0 0
259 1 2 -1.1794 0.9439561314450492 10.954062078273786 14.046125981239008 0 0 0
721 1 2 -1.1794 5.362018736514508 10.851352244174532 14.034882068550889 0 0 0
723 1 1 0.5897 5.348397103182633 10.781839411458174 14.98952668587648 0 0 0
331 1 2 -1.1794 2.9301493066963418 6.978840213320176 14.020174472074274 0 0 0
225 1 1 0.5897 3.066862070957194 7.03983642109743 15.828819179366747 0 0 0
826 1 2 -1.1794 7.403450331415464 7.131486323813698 14.042282368009495 0 0 0
475 1 2 -1.1794 7.551260221300289 9.67166215176107 12.990486545709512 0 0 0
476 1 1 0.5897 6.790548278739933 10.121870225175439 13.357797028852117 0 0 0
477 1 1 0.5897 7.528086894995502 8.800122236918009 13.38551362863933 0 0 0
827 1 1 0.5897 6.62247060928613 6.631280357061815 13.805352275299715 0 0 0
333 1 1 0.5897 3.7026477735939793 6.5238896680009075 13.684678989441453 0 0 0
366 1 1 0.5897 1.4660704914956244 6.222672089981809 13.375068162823027 0 0 0
821 1 1 0.5897 7.620373677293643 9.529103795711364 11.253315309149656 0 0 0
851 1 1 0.5897 8.896443266965285 6.2634134485287 13.332019597449186 0 0 0
104 1 1 0.5897 8.956490659958263 10.636459146663922 13.610654273797877 0 0 0
679 1 2 -1.1794 5.4745944387439955 10.803727921030188 16.7423070638835 0 0 0
246 1 1 0.5897 9.072057887620824 10.42265507644986 17.06581907738936 0 0 0
447 1 1 0.5897 0.19882408572187119 10.595527879520974 17.161502562964692 1 0 0
689 1 1 0.5897 3.843010479019799 10.201140425265493 20.74309840171121 0 0 0
5 1 1 0.5897 3.9792360153909763 6.744556367104824 20.947058012162277 0 0 0
287 1 1 0.5897 9.076134848628648 10.59576038650083 21.03805410989234 0 0 0
522 1 1 0.5897 7.472591647974625 7.798596519714316 17.140990599793692 0 0 0
711 1 1 0.5897 8.95652416925453 6.041047003661197 17.37746838661048 0 0 0
6 1 1 0.5897 3.1933388547781894 8.038288055503408 20.966526777678716 0 0 0
9 1 1 0.5897 6.893062200035255 10.024350574154203 17.429988343534358 0 0 0
690 1 1 0.5897 2.333783473219206 10.306150236329087 20.685411478914187 0 0 0
279 1 1 0.5897 4.49903854375249 6.144942531191922 17.436053752291173 0 0 0
223 1 2 -1.1794 3.051854091151227 6.9832459034047005 16.78429391180121 0 0 0
627 1 1 0.5897 2.356354658378557 9.991408957922838 17.328100177214935 0 0 0
8 1 1 0.5897 7.633213131647937 9.683189944581923 18.70589970554661 0 0 0
161 1 1 0.5897 6.937928507475738 6.69283829304827 21.140122358394503 0 0 0
521 1 1 0.5897 6.685740177442987 6.5059523749250605 17.099888441643273 0 0 0
361 1 2 -1.1794 5.33512645568832 11.005544404891324 21.453337981085102 0 0 0
520 1 2 -1.1794 7.487824655667035 6.914574806663393 16.774343729488983 0 0 0
625 1 2 -1.1794 3.160205202634329 9.535650070789362 17.57787831089699 0 0 0
4 1 2 -1.1794 3.155718958231131 7.125484518949598 21.252036382955225 0 0 0
141 1 1 0.5897 7.597351063943999 8.902179632470691 20.798430672464804 0 0 0
445 1 2 -1.1794 1.0059486106732425 11.00492258521474 16.849676364994185 0 0 0
572 1 1 0.5897 1.6212474644684116 6.092823247388218 17.380775900505586 0 0 0
680 1 1 0.5897 4.686508282940327 10.374653731300915 17.075627186988356 0 0 0
394 1 2 -1.1794 0.9266135119291209 11.170967894093472 21.455946881271664 0 0 0
7 1 2 -1.1794 7.650383571854537 9.540444095846835 17.759494055844435 0 0 0
647 1 1 0.5897 1.7178311504628125 6.268911425937433 20.703585934533347 0 0 0
139 1 2 -1.1794 7.5764129311800765 9.80763716999077 20.488828433126727 0 0 0
160 1 2 -1.1794 7.737890600451099 7.159335417474607 21.3824563153987 0 0 0
688 1 2 -1.1794 3.0684952853172325 9.779209074026179 20.37109178055856 0 0 0
224 1 1 0.5897 3.1446295543813263 7.888883326323989 17.079858039516708 0 0 0
140 1 1 0.5897 6.778487052529661 10.173400312706844 20.87070667772402 0 0 0
626 1 1 0.5897 3.2020917817090733 9.6271272732748 18.529842730865816 0 0 0
681 1 1 0.5897 5.391060395329768 11.713677880182571 17.027186028310076 0 0 0
200 1 1 0.5897 5.228293354657625 13.618384432719795 4.769203026141641 0 0 0
173 1 1 0.5897 4.524536225357535 14.271457503776388 2.7203028070406883 0 0 0
172 1 2 -1.1794 5.309550537566683 13.840665400780527 3.058626926382881 0 0 0
293 1 1 0.5897 2.9764645496919937 16.721760317873404 2.7004077245486307 0 0 0
558 1 1 0.5897 3.027280572904145 15.014786469028484 1.1742398284242503 0 0 0
556 1 2 -1.1794 3.0308638262364695 15.07493668737753 2.129608092266919 0 0 0
557 1 1 0.5897 2.271257082842984 14.561817511231792 2.4052534346332295 0 0 0
478 1 2 -1.1794 7.517281917113321 14.99994906237504 2.0437161085330677 0 0 0
174 1 1 0.5897 5.239366778861547 12.937328466434275 2.7500519770732086 0 0 0
479 1 1 0.5897 8.314132038957407 14.569163790176622 2.3531337238805397 0 0 0
449 1 1 0.5897 7.429521181530117 16.610039160815234 2.755113150049101 0 0 0
480 1 1 0.5897 6.804996674073807 14.516118845386739 2.4618502351878453 0 0 0
373 1 2 -1.1794 0.9090382239105714 13.63317134913959 3.003678503855441 0 0 0
374 1 1 0.5897 0.8888545106902387 13.622765358943328 3.9606806000973434 0 0 0
308 1 1 0.5897 7.370916754587226 17.43389355047848 4.944752109338117 0 0 0
294 1 1 0.5897 2.9668386195560332 17.622849596881792 3.9169419115054467 0 0 0
292 1 2 -1.1794 2.9955290707134017 17.642754561645276 2.960311789001488 0 0 0
317 1 1 0.5897 7.458414690390418 14.995566205321902 0.22379802099249307 0 0 0
448 1 2 -1.1794 7.531305561718736 17.469783718182384 3.1633464350982816 0 0 0
45 1 1 0.5897 0.8209820533205094 11.927287347528667 2.5297220313366573 0 0 0
384 1 1 0.5897 2.9112292111700615 16.433682658927715 10.01864890952826 0 0 0
199 1 2 -1.1794 5.124772304606376 13.510988499621075 5.714776083248363 0 0 0
552 1 1 0.5897 0.7626052997880882 11.816511929816425 6.488992045069396 0 0 0
201 1 1 0.5897 5.910874019067939 13.908854007720423 6.089009948259584 0 0 0
184 1 2 -1.1794 7.393981500077794 17.360822216440035 10.2568389050818 0 0 0
519 1 1 0.5897 8.266138530377955 14.427741047320177 6.415647031315195 0 0 0
811 1 2 -1.1794 3.053271585116687 14.751720262371146 9.389276628364101 0 0 0
378 1 1 0.5897 7.461770964987441 14.801691728463124 8.417639322458832 0 0 0
238 1 2 -1.1794 2.8059723134976555 17.516795721017907 5.7148966498277805 0 0 0
239 1 1 0.5897 2.851365919604984 16.602092251733367 5.993108942307709 0 0 0
656 1 1 0.5897 1.5704952102484788 13.92108233076137 6.012810643574578 0 0 0
655 1 2 -1.1794 0.810709235925937 13.427897855827972 5.703347710088634 0 0 0
518 1 1 0.5897 7.374931368658149 15.651474827704773 6.4111230120734914 0 0 0
18 1 1 0.5897 3.659049819316937 14.462624574966672 6.289566504122453 0 0 0
517 1 2 -1.1794 7.400333071262821 14.734659724771992 6.684883293865518 0 0 0
186 1 1 0.5897 7.528265695877071 16.469315630204733 9.935380763459195 0 0 0
812 1 1 0.5897 3.8292747830447347 14.293268369354088 9.711662935357397 0 0 0
16 1 2 -1.1794 2.8952460004996543 14.911498399351276 6.652058288115772 0 0 0
382 1 2 -1.1794 2.9389222105395287 17.281917758069852 10.461258577125884 0 0 0
376 1 2 -1.1794 7.516396876426321 14.8116402581981 9.373296690909212 0 0 0
454 1 2 -1.1794 5.3114862096693205 13.44565743727713 10.183395594777123 0 0 0
307 1 2 -1.1794 7.282549185471219 17.408274764179637 5.897587188285408 0 0 0
456 1 1 0.5897 5.271526583747578 12.52851763162766 9.91247421079037 0 0 0
813 1 1 0.5897 2.316716156396514 14.228115701666873 9.704860586218603 0 0 0
766 1 2 -1.1794 0.8477780909140489 13.41305621311954 10.4521523549512 0 0 0
377 1 1 0.5897 6.739926951283064 14.33268669940015 9.663077591688268 0 0 0
17 1 1 0.5897 3.0057453167354065 14.845361560098137 7.600624234314016 0 0 0
59 1 1 0.5897 9.041733824251217 14.021185637483237 9.964561800109461 0 0 0
429 1 1 0.5897 5.936753363980371 13.86230474902068 13.34132501857501 0 0 0
232 1 2 -1.1794 3.0344605371735653 14.874553789741102 13.955178315483355 0 0 0
234 1 1 0.5897 3.0085015889184916 14.84176656817379 14.911532246559478 0 0 0
606 1 1 0.5897 3.1315131769467364 16.63122140149681 13.526409953033019 0 0 0
427 1 2 -1.1794 5.192434982824269 13.386600295072995 12.972578742767677 0 0 0
233 1 1 0.5897 3.7602906203961903 14.298621865597239 13.714896720130106 0 0 0
639 1 1 0.5897 1.5577331264172374 14.00283282056154 13.386866417899496 0 0 0
428 1 1 0.5897 5.270190802732695 12.50313547100102 13.332589965408534 0 0 0
297 1 1 0.5897 8.227260137096522 14.45987007873544 13.669655701209715 0 0 0
296 1 1 0.5897 7.359895898920655 14.767201121800912 14.871902284574116 0 0 0
295 1 2 -1.1794 7.369150100609751 14.805614100826753 13.915451184351442 0 0 0
270 1 1 0.5897 7.345206429901491 16.550023618682786 13.260436391367755 0 0 0
638 1 1 0.5897 0.8254095762222736 12.680508694106628 13.469975077325795 0 0 0
637 1 2 -1.1794 0.7295414373466806 13.580545854067662 13.158697358620223 0 0 0
605 1 1 0.5897 3.034416755989217 17.448828733321434 12.255921397538863 0 0 0
455 1 1 0.5897 5.3483933016770155 13.412168535614418 11.139365464477741 0 0 0
268 1 2 -1.1794 7.439333107620561 17.465644155618257 12.997903338164853 0 0 0
604 1 2 -1.1794 3.139408041950384 17.532317444246807 13.203743489493188 0 0 0
269 1 1 0.5897 7.422464990777179 17.443941352963613 12.041029711957467 0 0 0
767 1 1 0.5897 0.790169273918955 13.427699128378368 11.407574663875529 0 0 0
362 1 1 0.5897 5.407162894930234 11.90042345712998 21.12144633596886 0 0 0
823 1 2 -1.1794 3.0226639072600934 14.891291199503492 16.679010797021366 0 0 0
49 1 2 -1.1794 7.224510606005944 14.776106528518051 16.66075411201917 0 0 0
117 1 1 0.5897 9.010409022128515 14.020627333752628 20.710472631680346 0 0 0
584 1 1 0.5897 2.946349356358349 16.589955588592503 17.288841410800845 0 0 0
610 1 2 -1.1794 7.432527263406801 17.385296067653783 17.659709263643244 0 0 0
50 1 1 0.5897 7.307790767176099 15.675237385667968 16.97821797758894 0 0 0
825 1 1 0.5897 2.227065146486237 14.457108206354642 16.986895088832693 0 0 0
124 1 2 -1.1794 5.141625600655351 13.375988667738811 17.63637904768722 0 0 0
125 1 1 0.5897 5.202626746796663 13.445762752156766 18.589151947003536 0 0 0
53 1 1 0.5897 0.8483725612476353 13.673673441320117 18.607802337239416 0 0 0
665 1 1 0.5897 2.439644462106452 14.519434694194858 20.9932167802261 0 0 0
683 1 1 0.5897 6.105084630695073 14.06374565973234 20.63571585369743 0 0 0
52 1 2 -1.1794 0.8456191331170373 13.615390705175386 17.65231490237596 0 0 0
715 1 2 -1.1794 2.9298848542595417 17.589753446360334 20.39123923946471 0 0 0
583 1 2 -1.1794 2.926282241438309 17.494314324724762 17.601696768346617 0 0 0
716 1 1 0.5897 2.9738476416284474 17.60502403919999 19.43510216235313 0 0 0
684 1 1 0.5897 4.592156956668136 14.034540422205028 20.68406146166631 0 0 0
51 1 1 0.5897 7.988086226185867 14.3234771116082 17.019029773933376 0 0 0
159 1 1 0.5897 7.353360307163763 17.595350777853845 19.44192371614043 0 0 0
452 1 1 0.5897 0.9419104107614272 12.80003360186885 20.75969240462917 0 0 0
666 1 1 0.5897 3.1052279648566485 15.879014205280164 20.976922852522353 0 0 0
126 1 1 0.5897 5.8473272524154405 13.933838864667537 17.309192956899523 0 0 0
824 1 1 0.5897 3.736362317175639 14.338655711522597 16.997584649307196 0 0 0
451 1 2 -1.1794 0.9365856398176815 13.692047563001701 20.412654350537288 0 0 0
682 1 2 -1.1794 5.349614894464181 13.534435268967432 20.38004152593602 0 0 0
318 1 1 0.5897 7.453834771996296 15.872679239085905 20.939982422719606 0 0 0
316 1 2 -1.1794 7.522723010627713 14.959847935569734 21.219512495321787 0 0 0
664 1 2 -1.1794 3.2113496616698467 14.988306297222168 21.310885351571965 0 0 0
446 1 1 0.5897 0.9898829605353715 11.884616632777215 17.22655686367512 0 0 0
267 1 1 0.5897 5.940716453941342 21.704457821353657 2.9418321489609913 0 0 0
696 1 1 0.5897 1.582536367855054 21.862999961666 2.730057801877333 0 0 0
266 1 1 0.5897 4.428078341277374 21.722002374630215 3.00312699442648 0 0 0
265 1 2 -1.1794 5.193883138594445 21.255155197973515 3.3376257639762055 0 0 0
228 1 1 0.5897 5.324772798428273 19.701945428553792 2.5246257120800273 0 0 0
343 1 2 -1.1794 0.7033232791026006 18.906533389756454 2.0764405226938756 0 0 0
249 1 1 0.5897 5.205810559535151 21.40454647619795 5.0747615981877 0 0 0
226 1 2 -1.1794 5.35776358166547 18.804991611209807 2.192156333609049 0 0 0
187 1 2 -1.1794 3.0720012653403796 22.689095745918436 2.1957710402973523 0 0 0
818 1 1 0.5897 8.289986382280238 22.02906343704678 2.568300181892587 0 0 0
189 1 1 0.5897 3.130130102453724 22.724130701530008 1.2409130672226856 0 0 0
344 1 1 0.5897 1.4754808608567511 18.420537105083795 2.3660220277906463 0 0 0
817 1 2 -1.1794 7.486301352778307 22.477901117491413 2.3057706779262057 0 0 0
345 1 1 0.5897 0.7522469138952319 18.887482227381163 1.1206128573417415 0 0 0
413 1 1 0.5897 0.7489552203053542 21.417600415960322 4.805535937802001 0 0 0
695 1 1 0.5897 0.7899269516580725 20.573410886559657 2.70799578971711 0 0 0
227 1 1 0.5897 4.539731270718142 18.407975449791515 2.491312638728748 0 0 0
694 1 2 -1.1794 0.7622354223360206 21.473380257234794 3.0327090745743264 0 0 0
450 1 1 0.5897 6.812288366807681 17.991377198219922 2.806655835179776 0 0 0
321 1 1 0.5897 8.95305518632286 18.20892060262932 2.378038274801043 0 0 0
602 1 1 0.5897 5.165782358009533 18.91342512128476 0.41999485875708603 0 0 0
498 1 1 0.5897 7.685018182668731 22.67027620058078 0.5338088604841627 0 0 0
819 1 1 0.5897 7.566911032025581 23.354167480927888 2.682359853429169 0 -1 0
33 1 1 0.5897 6.715068158886327 22.296441041966702 6.6092182130938415 0 0 0
405 1 1 0.5897 0.8373728446062644 19.62266949226334 9.705337752352685 0 0 0
404 1 1 0.5897 1.5404809250187967 18.28701265872781 9.821074076733959 0 0 0
341 1 1 0.5897 1.515151704362525 18.478122640635974 6.390712842383962 0 0 0
102 1 1 0.5897 5.107623152322185 18.76948920695928 8.507254119724397 0 0 0
700 1 2 -1.1794 2.9859044180724066 22.949504249502844 6.57834227882829 0 0 0
701 1 1 0.5897 2.9268866507244913 22.93697915061884 7.533706368764341 0 0 0
31 1 2 -1.1794 7.513296088821646 22.761499475215373 6.859892524845268 0 0 0
553 1 2 -1.1794 5.0416280284837685 21.371039647814975 10.30345370719987 0 0 0
37 1 2 -1.1794 2.9212912153113675 22.86009898037576 9.306874496324044 0 0 0
248 1 1 0.5897 4.433879448069099 21.902612727805227 6.278165523839783 0 0 0
39 1 1 0.5897 3.6455006432760535 22.336227501929564 9.64943301884596 0 0 0
185 1 1 0.5897 8.16968128322468 17.840218158941532 9.965728532672502 0 0 0
86 1 1 0.5897 7.414179838295555 22.709740408845136 8.64084407890964 0 0 0
240 1 1 0.5897 3.6105030458028944 17.910503465914637 6.052571183556471 0 0 0
555 1 1 0.5897 5.095641529397156 20.45603931171108 10.0277769594781 0 0 0
386 1 1 0.5897 5.867822958181219 18.32429828253761 6.403698593940426 0 0 0
94 1 2 -1.1794 0.8101943062869947 21.384361502189208 10.351970625091866 0 0 0
32 1 1 0.5897 8.221824052199 22.25021643470874 6.468931023140675 0 0 0
385 1 2 -1.1794 5.059803065304873 18.731704820204264 6.715817388222112 0 0 0
101 1 1 0.5897 5.858804905932163 18.189058649094747 9.686631797894144 0 0 0
403 1 2 -1.1794 0.7601620689937417 18.70238406928977 9.453837792117938 0 0 0
342 1 1 0.5897 0.7602942805306384 18.86752212003762 7.643995575239288 0 0 0
383 1 1 0.5897 3.715867199940393 17.713067042877 10.105233345607811 0 0 0
387 1 1 0.5897 5.130915931472073 19.646131097108224 6.4421102574006675 0 0 0
412 1 2 -1.1794 0.7084019958908793 21.546039693276974 5.753280146792914 0 0 0
554 1 1 0.5897 5.874817914092856 21.753973600819457 10.028770413132552 0 0 0
414 1 1 0.5897 0.7211336342203215 20.660474097296863 6.116281022699899 0 0 0
702 1 1 0.5897 2.191492258060599 22.504605319111633 6.282948108014011 0 0 0
100 1 2 -1.1794 5.086690376138686 18.70848266986016 9.462346933622273 0 0 0
309 1 1 0.5897 8.062132613656535 17.858348182565237 6.223114882444968 0 0 0
247 1 2 -1.1794 5.220468325569266 21.415908924185892 6.031850293520954 0 0 0
87 1 1 0.5897 8.14247483956922 22.234738032608043 9.88023865912348 0 0 0
340 1 2 -1.1794 0.7511373438248146 18.969697816750795 6.692242095865614 0 0 0
85 1 2 -1.1794 7.346078580607317 22.682903104840747 9.595308368159705 0 0 0
38 1 1 0.5897 2.13389475627094 22.416389258972877 9.622172345090348 0 0 0
88 1 2 -1.1794 5.213611087690948 21.5467572847963 13.04495533228501 0 0 0
381 1 1 0.5897 1.4858620739888284 21.775842601131053 13.511093221321739 0 0 0
90 1 1 0.5897 5.277674941130579 20.651001704478638 13.37612194468659 0 0 0
763 1 2 -1.1794 5.3497837529515495 19.003850782145122 14.018773443729929 0 0 0
738 1 1 0.5897 3.6946903192750025 22.2033268545068 13.805971634066434 0 0 0
89 1 1 0.5897 5.181779969409026 21.449123477808115 12.093213071081657 0 0 0
736 1 2 -1.1794 2.940599666975416 22.594092074712528 14.247499974431813 0 0 0
789 1 1 0.5897 6.668559473606288 22.358799045760485 13.605152969700232 0 0 0
765 1 1 0.5897 6.07727128760719 18.46369498521078 13.710138375861192 0 0 0
787 1 2 -1.1794 7.453176724959371 22.802535826938026 13.927267079984086 0 0 0
503 1 1 0.5897 1.6018111442317902 18.367910868605634 13.717819312326021 0 0 0
764 1 1 0.5897 4.565123009547634 18.52376718391774 13.754002614779125 0 0 0
474 1 1 0.5897 5.285196997525882 18.91352170239425 15.803215996676618 0 0 0
350 1 1 0.5897 2.9216367575561577 22.565235176678065 16.02882415365091 0 0 0