LAMMPS data file via write_data, version 30 Jul 2021, timestep = 42000000

864 atoms
2 atom types
576 bonds
1 bond types
288 angles
1 angle types

0.159548575144429 18.048023824839433 xlo xhi
0.11583218544664398 23.51334561456934 ylo yhi
0.21631507811917494 21.996880721874945 zlo zhi

Masses

1 1.00794
2 15.9994

Atoms # full

707 1 1 0.5897 3.20697203062213 1.8401661756778205 3.9412960903678442 0 0 0
706 1 2 -1.1794 3.235426085269618 1.8731037138192193 2.9851259006057753 0 0 0
30 1 1 0.5897 5.328714098095726 4.236765548878139 2.465815471913837 0 0 0
708 1 1 0.5897 2.4133004189797918 2.29463427219366 2.7349487694377816 0 0 0
29 1 1 0.5897 4.6440967498970664 2.886393574553703 2.4731461091148232 0 0 0
28 1 2 -1.1794 5.408221639347528 3.3457699075431386 2.12490885626114 0 0 0
3 1 1 0.5897 0.8424052391099582 3.9616393694382293 2.5874420069974526 0 0 0
136 1 2 -1.1794 5.231398611393705 5.90656886008928 3.0554804699354206 0 0 0
495 1 1 0.5897 8.409439499587355 2.3860352635060225 2.782627193671271 0 0 0
494 1 1 0.5897 6.906987328887436 2.5629200326053723 2.836560665747575 0 0 0
493 1 2 -1.1794 7.618145282813941 2.0213774510301885 3.1789139901326697 0 0 0
1 1 2 -1.1794 0.862328848425631 3.0675042874296907 2.2460664671373882 0 0 0
846 1 1 0.5897 7.530361639773973 1.9717981151124926 4.960813167512747 0 0 0
137 1 1 0.5897 5.177369957327585 5.833228880521657 4.008296943422498 0 0 0
20 1 1 0.5897 0.7156137013590176 2.981884635456853 0.4230789635893368 0 0 0
595 1 2 -1.1794 0.7947492705149226 5.719244405134036 3.0941517049904057 0 0 0
597 1 1 0.5897 0.7887677810820043 5.77029023169769 4.049931616802557 0 0 0
819 1 1 0.5897 7.563935574261577 0.3084508497713627 2.5071329164661895 0 0 0
188 1 1 0.5897 3.123355321403559 0.16439299467337776 2.3268482464359446 0 1 0
668 1 1 0.5897 5.375372281562263 3.2762223284797085 0.35192368091563964 0 0 0
83 1 1 0.5897 4.5005324070007 2.7345447495596296 6.4215598639123215 0 0 0
183 1 1 0.5897 0.7011970996505805 4.869520476536279 6.225813141178384 0 0 0
82 1 2 -1.1794 5.230396367763695 3.215714268867124 6.811389562706107 0 0 0
785 1 1 0.5897 0.926445071329046 3.2328325013483212 7.723839882232005 0 0 0
674 1 1 0.5897 3.6319232978254283 2.4810228512990102 10.115655255464263 0 0 0
356 1 1 0.5897 7.315462975180799 1.1128495096672544 10.05356067350029 0 0 0
844 1 2 -1.1794 7.456985361004573 1.9711041201156947 5.915157733918926 0 0 0
845 1 1 0.5897 7.391948355141697 1.045376995970431 6.150166961181637 0 0 0
176 1 1 0.5897 8.968798315046925 2.799823563579523 9.736223220705456 0 0 0
673 1 2 -1.1794 2.798971323023922 2.059368713210506 10.326756048700469 0 0 0
34 1 2 -1.1794 0.5625268766854878 3.334437495116 9.437567767846922 0 0 0
274 1 2 -1.1794 5.09241884582918 3.2672383910673872 9.564117872671691 0 0 0
678 1 1 0.5897 5.242163725723105 4.960062640720533 10.154337805618919 0 0 0
35 1 1 0.5897 0.5582610870633622 4.180287462807026 9.88580636557335 0 0 0
36 1 1 0.5897 1.340260664177284 2.888768481443192 9.773255924792656 0 0 0
355 1 2 -1.1794 7.369733984969533 2.032025298642229 10.315470298454462 0 0 0
685 1 2 -1.1794 5.2743046186305795 5.824489202408571 5.824245650341487 0 0 0
84 1 1 0.5897 6.011595324463413 2.751455794069151 6.510757423723043 0 0 0
276 1 1 0.5897 5.9084780471193925 2.8222427223789572 9.792595179929476 0 0 0
675 1 1 0.5897 2.8865441999425303 1.1697905013857823 9.984128870306206 0 0 0
275 1 1 0.5897 5.071681495955866 3.2540995634753913 8.607271196299623 0 0 0
686 1 1 0.5897 5.3113927387180455 4.92664881111847 6.154279773533078 0 0 0
784 1 2 -1.1794 1.0160765827226608 3.174454843250449 6.772675173918426 0 0 0
489 1 1 0.5897 3.150892869440309 0.9241584478892673 6.143590964992747 0 0 0
488 1 1 0.5897 2.362489419557367 2.2166111797200467 6.157477927467412 0 0 0
112 1 2 -1.1794 0.7293216501267337 5.841019901380825 10.506156994415292 0 0 0
676 1 2 -1.1794 5.219648904427321 5.87486572731306 10.435510737831509 0 0 0
419 1 1 0.5897 8.974322699243249 2.64573769394802 6.43133730309864 0 0 0
181 1 2 -1.1794 0.7719833957959692 5.7652059179488235 5.895436309417702 0 0 0
786 1 1 0.5897 0.22923159158440143 2.7112395687470596 6.485456495519801 0 0 0
487 1 2 -1.1794 3.1319928857553787 1.8035499420661345 5.765796889534563 0 0 0
166 1 2 -1.1794 2.8810798352287668 1.632337353183004 12.984286441611307 0 0 0
167 1 1 0.5897 2.855853075394007 1.720853972800392 12.031559216274971 0 0 0
457 1 2 -1.1794 5.009318957024613 3.1164627320752354 13.960356410905478 0 0 0
458 1 1 0.5897 5.817767657549715 2.695060313392561 13.668807883634004 0 0 0
459 1 1 0.5897 4.310849730982645 2.594113791520478 13.566005260024724 0 0 0
762 1 1 0.5897 5.0588082959197695 4.85975780186281 13.383876385581898 0 0 0
594 1 1 0.5897 8.09076244461896 2.235813673489852 13.309028553526579 0 0 0
168 1 1 0.5897 2.174529425650261 2.197562223750683 13.296586990910424 0 0 0
468 1 1 0.5897 0.9074381841241864 3.0999636989772776 14.920261949987642 0 0 0
466 1 2 -1.1794 0.9457025962613499 3.224635616327243 13.972025576450188 0 0 0
593 1 1 0.5897 7.319120677297124 0.9333132958092989 13.325615841031826 0 0 0
592 1 2 -1.1794 7.2604509862193805 1.8444353925779342 13.037800432428732 0 0 0
365 1 1 0.5897 0.8389940893001767 4.885478169780089 13.483188635402207 0 0 0
71 1 1 0.5897 5.151786420799733 3.2582853248481585 15.754621933262385 0 0 0
760 1 2 -1.1794 5.2107380214416334 5.771128689114149 13.133385921900327 0 0 0
357 1 1 0.5897 7.340004320016779 2.011131923851894 11.271940061499885 0 0 0
113 1 1 0.5897 0.7269246393566287 5.820187702951207 11.463088165702366 0 0 0
761 1 1 0.5897 5.20645462571573 5.760817227204569 12.176291090418571 0 0 0
364 1 2 -1.1794 0.6895510651899126 5.800840846453776 13.246120115697664 0 0 0
467 1 1 0.5897 0.17645983646914232 2.7631817219035666 13.638094838814501 0 0 0
754 1 2 -1.1794 7.511551599092706 1.9507121466785449 17.45537549034549 0 0 0
21 1 1 0.5897 0.7810695895033971 3.860859957690347 20.97276031693781 0 0 0
144 1 1 0.5897 5.145466469674692 5.882745437610978 19.486013835602037 0 0 0
755 1 1 0.5897 7.508504630999103 2.04230959676456 18.40814173358507 0 0 0
290 1 1 0.5897 3.0990659995718346 0.9985321085886334 17.38758622370034 0 0 0
42 1 1 0.5897 7.413458967005742 1.0590522383017729 20.530123537353553 0 0 0
289 1 2 -1.1794 3.1078153681019107 1.9001666745641046 17.709135556601446 0 0 0
41 1 1 0.5897 6.693547226780981 2.390952947572156 20.53163352626705 0 0 0
143 1 1 0.5897 5.195084745391721 4.983286161844473 20.70276108688249 0 0 0
569 1 1 0.5897 2.1643624659894667 2.1801230561661287 20.715383438767553 0 0 0
291 1 1 0.5897 2.2708767388007547 2.265444473177577 17.422331065067596 0 0 0
570 1 1 0.5897 3.0331696846031173 1.925865850237905 19.502036744535346 0 0 0
40 1 2 -1.1794 7.4703713746794635 1.950805374408901 20.186684043790116 0 0 0
571 1 2 -1.1794 0.9084632854959841 5.521320756783658 17.62763804864803 0 0 0
667 1 2 -1.1794 5.283297926478577 3.3141624692991933 21.1805208045271 0 0 0
134 1 1 0.5897 0.7787015719756799 3.841226777270065 17.057261409985784 0 0 0
568 1 2 -1.1794 3.0477642096023994 1.9155014254639724 20.45902943673292 0 0 0
756 1 1 0.5897 6.7634290662323 2.470715678093502 17.161922661571076 0 0 0
669 1 1 0.5897 4.484221532866433 2.820269579476442 20.99684822314849 0 0 0
278 1 1 0.5897 5.2634336537127275 4.980140119103112 17.316087267379466 0 0 0
19 1 2 -1.1794 0.6767534379693857 2.949877321936609 21.247809370485214 0 0 0
646 1 2 -1.1794 0.9148464350364457 5.478639787836524 20.376482349607862 0 0 0
72 1 1 0.5897 4.535615565682428 2.9157226128469165 17.094285419873238 0 0 0
360 1 1 0.5897 8.892175522488843 2.9025354252923967 20.79029534983931 0 0 0
142 1 2 -1.1794 5.224494230388921 5.9032606188288685 20.43968601514125 0 0 0
70 1 2 -1.1794 5.288183565896585 3.3540297722720585 16.697163733614445 0 0 0
648 1 1 0.5897 0.9765650934223673 5.455301047855326 19.421596179250486 0 0 0
599 1 1 0.5897 8.937873126629547 2.784551170116789 16.817055855742524 0 0 0
133 1 2 -1.1794 0.8010183891987483 2.960387842289708 16.68305370443376 0 0 0
277 1 2 -1.1794 5.259826457144604 5.839489226805439 17.737888482770295 0 0 0
323 1 1 0.5897 7.384468890613207 0.24527624361932254 16.97958719495667 0 1 0
81 1 1 0.5897 2.9937130274597354 0.14779558398509351 20.872789390270995 0 1 0
253 1 2 -1.1794 2.931349375198612 7.066183445498992 2.2062010079765715 0 0 0
123 1 1 0.5897 3.0850614309782474 8.797530834972124 2.7486677105972936 0 0 0
121 1 2 -1.1794 3.057061357966822 9.704020982315349 3.055119995013185 0 0 0
122 1 1 0.5897 3.0232988968313474 9.633841405630736 4.009114482207908 0 0 0
44 1 1 0.5897 1.6361358700931279 10.40913897629338 2.4780477541528176 0 0 0
218 1 1 0.5897 5.931130041963226 10.52368994841735 2.2753959323178847 0 0 0
255 1 1 0.5897 2.14090640125051 6.598035486193202 2.474937737237306 0 0 0
219 1 1 0.5897 4.4182115388471725 10.472914366589043 2.2683611077318573 0 0 0
43 1 2 -1.1794 0.8451041157511895 10.84480022447532 2.1607901546070867 0 0 0
415 1 2 -1.1794 7.504166786019712 7.053044225680012 2.126115696631784 0 0 0
417 1 1 0.5897 8.23131524611917 6.56058337143105 2.506817958475232 0 0 0
254 1 1 0.5897 2.908869272607696 7.045614954668694 1.2495258337211441 0 0 0
217 1 2 -1.1794 5.1613355975396935 10.947824932553099 1.8963184252354086 0 0 0
66 1 1 0.5897 7.262917676575402 9.729049863657576 3.872113718100329 0 0 0
65 1 1 0.5897 7.401794835032721 8.8010632219816 2.684034406976471 0 0 0
64 1 2 -1.1794 7.3513286783366345 9.727698805577942 2.9190469207669256 0 0 0
416 1 1 0.5897 6.72066799190452 6.583425463066141 2.412080498620554 0 0 0
162 1 1 0.5897 7.638527629120304 7.022717349656144 0.32925354058971507 0 0 1
396 1 1 0.5897 1.0093869704072327 11.07070321743069 0.358139556487874 0 0 0
138 1 1 0.5897 4.40645411278456 6.318921439796021 2.7993570326730004 0 0 0
773 1 1 0.5897 8.98190966552151 10.471007649129302 2.45961105481943 0 0 0
45 1 1 0.5897 0.8777405295977636 11.71736073327125 2.5531949952191884 0 0 0
712 1 2 -1.1794 7.281509885822532 9.704422468699471 5.636350493270188 0 0 0
256 1 2 -1.1794 2.768073916749652 9.79776376029425 10.384846131906722 0 0 0
12 1 1 0.5897 2.9956407331390507 7.894127637151387 6.515019301865628 0 0 0
10 1 2 -1.1794 3.0216721024210997 7.019927313575633 6.904258553761838 0 0 0
794 1 1 0.5897 2.1793535239445574 10.089257610841807 6.154160194735186 0 0 0
526 1 2 -1.1794 7.387182493896924 7.117232223528353 9.314612864153162 0 0 0
577 1 2 -1.1794 5.152465665452807 10.90434468567346 6.777766425079178 0 0 0
145 1 2 -1.1794 7.562422879856412 7.109828794770226 6.572495809076385 0 0 0
551 1 1 0.5897 0.5956189231348313 10.993757802322023 7.4974086988913315 0 0 0
713 1 1 0.5897 8.097299717878983 10.12316828047413 5.910784288364989 0 0 0
580 1 2 -1.1794 5.134511638248055 10.917818489713756 9.502294589510017 0 0 0
650 1 1 0.5897 2.9564941030374445 7.151320665613677 8.735874565219296 0 0 0
822 1 1 0.5897 8.254501341244557 10.15813057773944 9.976039426583489 0 0 0
527 1 1 0.5897 7.436018519354474 8.01006466518563 9.656484796063362 0 0 0
15 1 1 0.5897 1.3790968363202323 10.620676323132628 9.668225966521538 0 0 0
582 1 1 0.5897 5.178424271394743 10.876301126440044 8.547044070331644 0 0 0
820 1 2 -1.1794 7.513390886240049 9.647682083292514 10.302230740639503 0 0 0
581 1 1 0.5897 5.913428273029062 10.447249562822137 9.799006057874353 0 0 0
147 1 1 0.5897 7.519925280448992 7.166785918682026 7.527014953199772 0 0 0
649 1 2 -1.1794 2.9721851169630935 7.203310199785676 9.691495188234597 0 0 0
528 1 1 0.5897 8.203319306876175 6.706144043363592 9.599386017958706 0 0 0
13 1 2 -1.1794 0.5955172890385705 11.044510423834879 9.318172305428492 0 0 0
258 1 1 0.5897 3.5952486904614545 10.180850984183444 10.092951405680154 0 0 0
714 1 1 0.5897 7.3692140539275455 8.795785105733747 5.924633558750703 0 0 0
257 1 1 0.5897 2.831280219241563 8.874555304404447 10.139653654271838 0 0 0
146 1 1 0.5897 6.731623505814134 6.707827409937633 6.318838306576703 0 0 0
578 1 1 0.5897 5.900599140045428 10.476118986434557 6.3617205859556805 0 0 0
550 1 2 -1.1794 0.7197979204351367 10.941108627925951 6.549797968150328 0 0 0
114 1 1 0.5897 1.548817764694507 6.2796697146959435 10.277722047704046 0 0 0
651 1 1 0.5897 3.768476129791178 6.736139464969496 9.944190232041741 0 0 0
11 1 1 0.5897 2.288221738787214 6.555618500171338 6.500953256824228 0 0 0
795 1 1 0.5897 3.692175963445875 10.044478668241911 6.1843376253497 0 0 0
579 1 1 0.5897 5.192564120625905 11.809975512628968 6.470124284184956 0 0 0
687 1 1 0.5897 4.488315006465399 6.195382740668986 6.2252665347080125 0 0 0
677 1 1 0.5897 5.956287980329115 6.283814437177746 9.981310962165571 0 0 0
165 1 1 0.5897 9.007999322420563 6.068574849225086 6.137220343707334 0 0 0
793 1 2 -1.1794 2.927580025057617 9.575336368406825 5.850444079139837 0 0 0
826 1 2 -1.1794 7.462583301803681 7.033401625661868 13.906554012009039 0 0 0
827 1 1 0.5897 6.631432284379346 6.620359995214093 13.672570325960827 0 0 0
332 1 1 0.5897 3.0694363738693036 8.016782993861629 13.678932228466234 0 0 0
797 1 1 0.5897 2.9815626421899806 9.762523800288164 12.15572364561328 0 0 0
796 1 2 -1.1794 2.993454729829967 9.669459402084659 13.108276342342782 0 0 0
798 1 1 0.5897 2.2314562551186543 10.165535800008767 13.407379294497996 0 0 0
722 1 1 0.5897 4.427727936909245 10.542848336976784 13.759362155193596 0 0 0
261 1 1 0.5897 0.914307533634053 11.058031248026632 15.031453311683439 0 0 0
723 1 1 0.5897 5.343739446434437 10.956918222510366 14.89124927982736 0 0 0
828 1 1 0.5897 7.469944456958149 7.032494434004868 14.8636860934725 0 0 0
259 1 2 -1.1794 0.8220380785182821 11.050178135239298 14.078782793639704 0 0 0
331 1 2 -1.1794 3.0248805831845784 7.1174971860190315 14.004075774554039 0 0 0
225 1 1 0.5897 3.0194022160625726 7.05165499754499 15.78499130487846 0 0 0
721 1 2 -1.1794 5.281944046787178 10.936754861632522 13.936298781731148 0 0 0
475 1 2 -1.1794 7.580394095806098 9.629748914606159 13.04171012217517 0 0 0
476 1 1 0.5897 6.747738909065234 10.021279665243814 13.305427390207294 0 0 0
477 1 1 0.5897 7.537094661341554 8.7308586115634 13.36810861173941 0 0 0
333 1 1 0.5897 3.8534955849542865 6.722731312887526 13.732571048888149 0 0 0
366 1 1 0.5897 1.5056695687107673 6.2448019833715955 13.476383273744053 0 0 0
821 1 1 0.5897 7.599206384653186 9.681896274822089 11.254921597040283 0 0 0
851 1 1 0.5897 8.83592433495285 6.112192258944538 13.267299761672016 0 0 0
104 1 1 0.5897 8.969813893210711 10.617848014114259 13.640171389067596 0 0 0
395 1 1 0.5897 0.2213124234336701 10.574457657136632 20.945215514921344 0 0 0
141 1 1 0.5897 7.789725770568459 8.827756115779922 20.472973254324017 0 0 0
361 1 2 -1.1794 5.52967523120076 10.955240480459688 20.934610677603494 0 0 0
9 1 1 0.5897 6.78591276241918 9.99597511132172 17.235788594266985 0 0 0
4 1 2 -1.1794 2.9798550769314893 7.062027262438874 21.314717106236948 0 0 0
627 1 1 0.5897 2.4855311293141256 10.05496586917941 17.358858737255183 0 0 0
394 1 2 -1.1794 0.9615706289640565 11.132022708369565 21.184708165072614 0 0 0
520 1 2 -1.1794 7.522145100916235 6.934270920771823 16.63666531086683 0 0 0
140 1 1 0.5897 6.986296293360872 10.110854347974389 20.491666703428457 0 0 0
161 1 1 0.5897 6.807182894757029 6.68484130284207 20.890637167358392 0 0 0
690 1 1 0.5897 2.4551471691072346 10.112696800905411 20.729971262803723 0 0 0
625 1 2 -1.1794 3.248153226709396 9.569831245801222 17.673890207583753 0 0 0
688 1 2 -1.1794 3.182483415862815 9.599525083475433 20.378063520616443 0 0 0
462 1 1 0.5897 9.084099778203528 6.233355414768612 20.52940098153742 0 0 0
224 1 1 0.5897 3.0455154708810954 7.927666299592944 17.01944214718342 0 0 0
689 1 1 0.5897 3.9624582278786793 10.112247908925207 20.59009214172299 0 0 0
572 1 1 0.5897 1.6714413333340086 6.017268400200397 17.33082370509767 0 0 0
626 1 1 0.5897 3.18099764570418 9.610261641426394 18.62783483746221 0 0 0
139 1 2 -1.1794 7.807575432928988 9.736632232339149 20.172897146598494 0 0 0
6 1 1 0.5897 3.0018451835595665 7.956825476081424 20.975204521573588 0 0 0
521 1 1 0.5897 6.735934782234843 6.5545874524795815 17.028931724309764 0 0 0
8 1 1 0.5897 7.662640047340704 9.620622282010126 18.411442860598456 0 0 0
7 1 2 -1.1794 7.60777829819938 9.558497176614772 17.45787719511982 0 0 0
160 1 2 -1.1794 7.6352474062369575 7.085741084058284 21.15474095135164 0 0 0
5 1 1 0.5897 3.780185906076508 6.658221237187447 20.979184947395943 0 0 0
522 1 1 0.5897 7.534406715776994 7.838527412225147 16.950653556141425 0 0 0
647 1 1 0.5897 1.6740117944138364 5.991564242274671 20.65356723517457 0 0 0
680 1 1 0.5897 4.532764955026792 10.60492677447858 17.065736753503458 0 0 0
223 1 2 -1.1794 2.9669799648755744 7.0154259222355675 16.74002833922146 0 0 0
279 1 1 0.5897 4.504301012059912 6.289349379742836 17.359747469268513 0 0 0
711 1 1 0.5897 9.087538387878187 6.1888716001139 17.172650416956564 0 0 0
679 1 2 -1.1794 5.319622842709525 10.96365471357315 16.65544894743035 0 0 0
445 1 2 -1.1794 1.014787111851987 10.829609239412502 16.72018656495429 0 0 0
447 1 1 0.5897 0.22981936295104788 10.389380509206633 17.04607561317809 1 0 0
446 1 1 0.5897 0.9592624534129619 11.715697176661365 17.078203052908606 0 0 0
363 1 1 0.5897 5.472623620944463 10.98221898747304 21.889688918824255 0 0 0
200 1 1 0.5897 5.257041372692436 13.5033333868847 4.966355914013347 0 0 0
173 1 1 0.5897 4.539374858017582 13.895613212399736 2.828528789876466 0 0 0
172 1 2 -1.1794 5.295813165192612 13.398822292211158 3.1402880167625016 0 0 0
374 1 1 0.5897 0.7947886240418013 13.403327230391723 3.898328636856179 0 0 0
558 1 1 0.5897 3.23533391368059 14.886529531802827 1.3209073834797576 0 0 0
556 1 2 -1.1794 3.194983418230102 14.890184046104693 2.2772104480916076 0 0 0
557 1 1 0.5897 2.4095463353020903 14.38459840609757 2.486188229123868 0 0 0
478 1 2 -1.1794 7.460586546037593 14.819431804095768 2.1235113298351393 0 0 0
174 1 1 0.5897 5.209937780872573 12.54243647881892 2.7212175883642744 0 0 0
293 1 1 0.5897 3.053032956178141 16.584266347644075 2.8779856696994086 0 0 0
479 1 1 0.5897 8.201772482105392 14.307025697704468 2.446441781334987 0 0 0
449 1 1 0.5897 7.519977021480578 16.503834470938628 2.7816521433934653 0 0 0
480 1 1 0.5897 6.690166506328933 14.379595563002647 2.4829207891102922 0 0 0
373 1 2 -1.1794 0.879709232115128 13.452915686048724 2.946225698385073 0 0 0
294 1 1 0.5897 3.0109699365736944 17.422652861435054 4.137877475700908 0 0 0
308 1 1 0.5897 7.591786457026248 17.374256948221543 4.991548776907216 0 0 0
448 1 2 -1.1794 7.554100406349845 17.355676729304342 3.217068509769651 0 0 0
317 1 1 0.5897 7.568967560860912 14.812682027441449 0.2720957266932591 0 0 0
292 1 2 -1.1794 3.0113415449701315 17.490681614145927 3.183130756224324 0 0 0
384 1 1 0.5897 2.8890251645110205 16.655316144105555 9.980349327309305 0 0 0
656 1 1 0.5897 1.4664667930783424 14.116811220310167 6.1374460213306365 0 0 0
454 1 2 -1.1794 5.2629749227736635 13.618843857599282 10.323538378376849 0 0 0
184 1 2 -1.1794 7.34332277672635 17.624769035660087 10.440133881304053 0 0 0
811 1 2 -1.1794 3.0528705422594573 14.949639655525395 9.440032105656295 0 0 0
456 1 1 0.5897 5.219938230319585 12.706379896230844 10.037217674983667 0 0 0
813 1 1 0.5897 2.3015986498136174 14.433487882441383 9.73222882200289 0 0 0
17 1 1 0.5897 2.917430359067914 14.984272700664443 7.6670284387550005 0 0 0
766 1 2 -1.1794 0.8696414816203656 13.589944347128373 10.351531996150108 0 0 0
239 1 1 0.5897 2.944550926755494 16.72292900102778 6.2992489748717055 0 0 0
377 1 1 0.5897 6.761696203381543 14.531210454209093 9.757096430359674 0 0 0
199 1 2 -1.1794 5.1128428063541875 13.497025481636747 5.91257201818811 0 0 0
519 1 1 0.5897 8.137417520847428 14.308445551984496 6.401389968079542 0 0 0
812 1 1 0.5897 3.8152941284319413 14.450036592744508 9.732100236013402 0 0 0
18 1 1 0.5897 3.6827798536032503 14.513270318835017 6.448779805723255 0 0 0
376 1 2 -1.1794 7.48107427831666 15.08809071547779 9.459438468090086 0 0 0
16 1 2 -1.1794 2.9099981568458286 15.013850669289024 6.710354105548554 0 0 0
517 1 2 -1.1794 7.375780744776355 14.757821200619235 6.767659088703394 0 0 0
186 1 1 0.5897 7.377482275994898 16.728821455277455 10.104688663287707 0 0 0
378 1 1 0.5897 7.483418270069401 14.988658525552532 8.507458689664476 0 0 0
518 1 1 0.5897 7.424346442607509 15.644007361164938 6.408874328792498 0 0 0
201 1 1 0.5897 5.8931853154091645 13.914636743067229 6.277037998399197 0 0 0
59 1 1 0.5897 8.896200901990367 14.027547756532456 9.945330252980833 0 0 0
655 1 2 -1.1794 0.7925789502794576 13.575476086570896 5.726287596376723 0 0 0
238 1 2 -1.1794 2.9389158554979766 17.620348037566146 5.9660518010076835 0 0 0
307 1 2 -1.1794 7.470451984567856 17.37744167495766 5.940981617309636 0 0 0
14 1 1 0.5897 0.6392437696731887 11.94147171081175 9.649782396828854 0 0 0
382 1 2 -1.1794 2.753007458720015 17.5701427247564 10.227359117212213 0 0 0
552 1 1 0.5897 0.752700492829593 11.853231593017231 6.261047728882425 0 0 0
296 1 1 0.5897 7.428395039135841 14.926267660557755 14.806885515038648 0 0 0
232 1 2 -1.1794 2.9093946100806884 14.856072653660956 13.86314752881171 0 0 0
234 1 1 0.5897 3.02649968642478 14.853273407236461 14.813113483980041 0 0 0
606 1 1 0.5897 3.037398680831555 16.548118925919404 13.250448952416289 0 0 0
427 1 2 -1.1794 5.164358686277421 13.53701886129241 13.0389590553242 0 0 0
233 1 1 0.5897 3.703005458505206 14.44354522678134 13.522301069114372 0 0 0
639 1 1 0.5897 1.3579284243326195 14.036630805705276 13.420102213227297 0 0 0
429 1 1 0.5897 5.946092067366244 13.962839289087952 13.39073297306851 0 0 0
428 1 1 0.5897 5.18910837219382 12.651707964630308 13.402302669762362 0 0 0
637 1 2 -1.1794 0.5648338177597035 13.607428412223767 13.099223593194361 0 0 0
638 1 1 0.5897 0.6201216347015877 12.714712126196984 13.440416428641218 0 0 0
295 1 2 -1.1794 7.300967223731822 14.986581507922027 13.860161028002041 0 0 0
270 1 1 0.5897 7.4815776312471876 16.729482754567115 13.460927507577141 0 0 0
297 1 1 0.5897 8.089375834456499 14.593083579247272 13.48634603400421 0 0 0
455 1 1 0.5897 5.23844239955816 13.571833399433833 11.279228532399593 0 0 0
269 1 1 0.5897 7.416609023724608 17.644453246395372 12.256523326543649 0 0 0
767 1 1 0.5897 0.7990759337490562 13.548056015053126 11.305169334159803 0 0 0
604 1 2 -1.1794 3.0258350763322386 17.455578889155383 12.945812525846707 0 0 0
605 1 1 0.5897 3.022904163068952 17.388116941187057 11.991036152795013 0 0 0
268 1 2 -1.1794 7.470836778456554 17.65382181048298 13.21210015530169 0 0 0
824 1 1 0.5897 3.769180798024665 14.407317572356368 16.907150032083955 0 0 0
664 1 2 -1.1794 3.2597620604869353 14.93579955259256 21.27645324607795 0 0 0
50 1 1 0.5897 7.598105726348454 15.71690778814597 16.927474178983545 0 0 0
610 1 2 -1.1794 7.747613353933608 17.317331860594486 17.710753036973472 0 0 0
51 1 1 0.5897 8.289377885116268 14.37005443613882 16.947006481588296 0 0 0
452 1 1 0.5897 1.0546337049444876 12.78332087472599 20.54940196124432 0 0 0
125 1 1 0.5897 5.332086444151913 13.530235307280448 18.372606172903062 0 0 0
124 1 2 -1.1794 5.3170355806220835 13.504325565964713 17.415914458421568 0 0 0
684 1 1 0.5897 4.6147547536461815 14.087718769772867 20.510239452807326 0 0 0
823 1 2 -1.1794 2.979892315774803 14.87943473030881 16.641976655185594 0 0 0
666 1 1 0.5897 3.109339073533497 15.828571750703343 20.965422244399043 0 0 0
316 1 2 -1.1794 7.595761882282638 14.861722505718891 21.097133767718766 0 0 0
52 1 2 -1.1794 0.8710115492383087 13.449293461003432 17.512187439138714 0 0 0
318 1 1 0.5897 7.600836119821151 15.79953850311807 20.90500622098301 0 0 0
665 1 1 0.5897 2.4668540934367713 14.459189274276756 21.030843594651614 0 0 0
584 1 1 0.5897 2.9820444006778017 16.602750770861036 17.27909523667084 0 0 0
683 1 1 0.5897 6.12766488150749 14.044509231136963 20.482224672536198 0 0 0
126 1 1 0.5897 6.115157269211972 13.961435533112455 17.150889901109018 0 0 0
682 1 2 -1.1794 5.351312546549376 13.593117982738418 20.151005998686394 0 0 0
159 1 1 0.5897 7.606775980722953 17.492085587646542 19.514068193110894 0 0 0
53 1 1 0.5897 0.9663033886267413 13.58948724319877 18.454220279729718 0 0 0
451 1 2 -1.1794 1.0528463813860482 13.698816286146773 20.26960062923161 0 0 0
825 1 1 0.5897 2.2582057026183513 14.316151456543132 16.92144641983861 0 0 0
49 1 2 -1.1794 7.525221544462935 14.823569628358651 16.591240077949067 0 0 0
157 1 2 -1.1794 7.538624676503163 17.502677265862005 20.468743236551433 0 0 0
715 1 2 -1.1794 3.00975316560145 17.547858009422683 20.491800144496885 0 0 0
716 1 1 0.5897 3.058351564459662 17.528441612761263 19.53607229567431 0 0 0
362 1 1 0.5897 5.479891111267211 11.872510661422458 20.665235866183032 0 0 0
681 1 1 0.5897 5.375711431136652 11.86007133005095 16.986673707304718 0 0 0
453 1 1 0.5897 0.21140798382909765 14.040555140100063 20.571842068154446 0 0 0
583 1 2 -1.1794 2.971267001649265 17.461513299225793 17.701944549368626 0 0 0
267 1 1 0.5897 5.972255999051399 21.821339906210902 2.680816880097534 0 0 0
696 1 1 0.5897 1.5457231125807156 21.843225906786884 2.794304277690306 0 0 0
266 1 1 0.5897 4.462097354199828 21.770945330532975 2.7726586877730535 0 0 0
265 1 2 -1.1794 5.251430804564857 21.283839259957105 3.009024660306882 0 0 0
344 1 1 0.5897 1.569952335033148 18.37961301219581 2.645275817766388 0 0 0
228 1 1 0.5897 5.281538431480597 19.563178888463376 2.560190829267049 0 0 0
343 1 2 -1.1794 0.7853849402806465 18.828551805166178 2.330498072505982 0 0 0
817 1 2 -1.1794 7.457487078625198 22.822854319479 2.1533064459173246 0 0 0
249 1 1 0.5897 5.2733239655934065 21.339797352618476 4.846966640216129 0 0 0
226 1 2 -1.1794 5.314017136545586 18.647979997770605 2.2812976205783824 0 0 0
187 1 2 -1.1794 3.040151026052345 22.629045657457056 2.128650753837519 0 0 0
695 1 1 0.5897 0.760887601073672 20.549595343250864 2.846759936203318 0 0 0
694 1 2 -1.1794 0.7745750830341949 21.441437772984784 3.1943826462509715 0 0 0
818 1 1 0.5897 8.189897747407382 22.327452327596006 2.5198417090354264 0 0 0
498 1 1 0.5897 7.549578180232612 22.76200472872045 0.3708578112486646 0 0 0
189 1 1 0.5897 3.0217866235075883 22.58757350517888 1.1725652419220078 0 0 0
413 1 1 0.5897 0.8969173650305213 21.49545980278937 4.985133908208417 0 0 0
227 1 1 0.5897 4.510936972327144 18.261874410490705 2.630786885811617 0 0 0
345 1 1 0.5897 0.822203842918811 18.736970157842684 1.3784395424342037 0 0 0
450 1 1 0.5897 6.774171429958402 17.815480137019485 2.906463274501439 0 0 0
602 1 1 0.5897 5.25377012362613 18.70732125509646 0.5198989296334168 0 0 0
555 1 1 0.5897 5.130799422026257 20.472172464876593 10.144343421657435 0 0 0
342 1 1 0.5897 0.5509771672075239 18.85773127140847 7.580704463297347 0 0 0
87 1 1 0.5897 8.025887229626694 22.251912303820575 9.725413832548917 0 0 0
37 1 2 -1.1794 3.0406748250580624 22.833496026640695 9.629747494139702 0 0 0
86 1 1 0.5897 7.257887519562024 22.660999149448614 8.486642811741909 0 0 0
248 1 1 0.5897 4.514582328358034 21.752993611842015 6.09006904338543 0 0 0
32 1 1 0.5897 8.207767069223365 22.329673070151458 6.489538186615483 0 0 0
404 1 1 0.5897 1.3024495756135905 18.362168009806673 9.640485668690928 0 0 0
39 1 1 0.5897 3.7451510128980754 22.277600085183522 9.962784425008389 0 0 0
553 1 2 -1.1794 5.142973318466506 21.337512222631666 10.553532029519502 0 0 0
701 1 1 0.5897 3.124551787149029 22.738640628183987 7.825073831675116 0 0 0
414 1 1 0.5897 0.7565240921693139 20.57273167504472 6.177123520394783 0 0 0
387 1 1 0.5897 5.272964984644901 19.52901004323438 6.449066585816732 0 0 0
102 1 1 0.5897 5.171567073491097 18.75115470760921 8.588306790419452 0 0 0
700 1 2 -1.1794 3.1786675588489977 22.67215567942671 6.871759631654304 0 0 0
385 1 2 -1.1794 5.245984937629483 18.642456582718367 6.80921030709875 0 0 0
702 1 1 0.5897 2.399898496223866 22.175208868075032 6.6212507884324765 0 0 0
38 1 1 0.5897 2.236823784367106 22.389358681361323 9.89945051307645 0 0 0
101 1 1 0.5897 5.8631528957795735 18.38380810377057 9.883868382714537 0 0 0
341 1 1 0.5897 1.4301877857599767 18.466530070571288 6.4120930213898975 0 0 0
33 1 1 0.5897 6.700174218163103 22.208801358298132 6.4254221701882335 0 0 0
240 1 1 0.5897 3.7871625454996267 17.978708001130705 6.227217779276155 0 0 0
85 1 2 -1.1794 7.218506269602605 22.681360547515872 9.442777323564938 0 0 0
554 1 1 0.5897 5.859253389234648 21.799153999820113 10.117617049631882 0 0 0
340 1 2 -1.1794 0.582242157735393 18.856677040098397 6.6240550653767984 0 0 0
386 1 1 0.5897 6.0755562863069175 18.248440892913543 6.539533806209072 0 0 0
31 1 2 -1.1794 7.401036561984452 22.78940483596054 6.721941247881373 0 0 0
100 1 2 -1.1794 5.081169069822218 18.814830579364674 9.539059547161001 0 0 0
247 1 2 -1.1794 5.288378692346155 21.269152421072498 5.801397879158074 0 0 0
403 1 2 -1.1794 0.5172443272188907 18.838980491162538 9.371621321098996 0 0 0
94 1 2 -1.1794 0.7824465836110345 21.38323023482399 10.252789398828124 0 0 0
405 1 1 0.5897 0.6450110312517674 19.724060479933534 9.713262381527771 0 0 0
383 1 1 0.5897 3.5701533289331513 18.007454025253693 9.988168302759933 0 0 0
185 1 1 0.5897 8.170013544761579 18.017626935740623 10.16011640491924 0 0 0
412 1 2 -1.1794 0.8564809231025817 21.495170392231508 5.9414443401297214 0 0 0
309 1 1 0.5897 8.24775021148441 17.82075784981575 6.280768786356223 0 0 0
380 1 1 0.5897 0.7027791284073743 20.47955541595752 13.257987462107122 0 0 0
88 1 2 -1.1794 5.099442889423705 21.341844646154826 13.350114526403262 0 0 0
381 1 1 0.5897 1.487730267364346 21.766255019153405 13.400974585926344 0 0 0
90 1 1 0.5897 5.1141883496883 20.42936327319972 13.639221420184464 0 0 0
763 1 2 -1.1794 5.12213879638952 18.736594001011255 14.16247479358037 0 0 0
738 1 1 0.5897 3.6433882806087583 22.14115116266592 13.854470092601419 0 0 0
89 1 1 0.5897 5.130422078848319 21.29137203334423 12.394787296065687 0 0 0
764 1 1 0.5897 4.409159091930634 18.276536538045953 13.719534256812606 0 0 0
474 1 1 0.5897 5.260960691543405 18.67088678930662 16.010310959219275 0 0 0
765 1 1 0.5897 5.917351768888686 18.30833093152279 13.845606962732804 0 0 0
350 1 1 0.5897 3.0086010677736583 22.588750047930994 15.978065670053391 0 0 0
736 1 2 -1.1794 2.833483137715172 22.5528554796132 14.155668342998927 0 0 0