#include		in.partitions
include		in.temp
variable        temperature equal 125.17
variable	tempDamp equal 100.0
include		in.pressure
variable        pressure equal 5668.8
variable        pressureDamp equal 1000.0 # This is 1 ps
include		in.seed
variable        seed equal 745823

units		real
atom_style	full

read_restart	restart.lmp.${pid}
read_restart	restart.lmp.1
Reading restart file ...
  restart file = 30 Jul 2021, LAMMPS = 30 Jul 2021
  restoring atom style full from restart
  orthogonal box = (0.066921473 0.034544415 0.16463054) to (19.933080 19.965457 20.535367)
  4 by 4 by 4 MPI processor grid
  restoring pair style lj/cut/tip4p/long/omp from restart
  restoring bond style harmonic/omp from restart
  restoring angle style harmonic/omp from restart
  972 atoms
  648 bonds
  324 angles
Finding 1-2 1-3 1-4 neighbors ...
  special bond factors lj:    0        0        0       
  special bond factors coul:  0        0        0       
     2 = max # of 1-2 neighbors
     1 = max # of 1-3 neighbors
     1 = max # of 1-4 neighbors
     2 = max # of special neighbors
  special bonds CPU = 0.009 seconds
  read_restart CPU = 0.022 seconds
include 	in.setup
variable	out_freq equal 1000
variable	out_freq2 equal 10000
variable	out_freq3 equal 1000

timestep	2.0

neigh_modify    delay 7 every 1

include		in.tip4p
# This is TIP4P/Ice

# create groups ###
group ox type 2
324 atoms in group ox
group hy type 1
648 atoms in group hy

# set charges - beside manually ###
set group ox charge -1.1794
Setting atom values ...
  324 settings made for charge
set group hy charge 0.5897
Setting atom values ...
  648 settings made for charge

# ### TIP3P Potential Parameters ###
pair_style lj/cut/tip4p/long/omp 2 1 1 1 0.1577 8.5
pair_coeff 1 1*2 0.000 0.000
pair_coeff 2 2 0.21084 3.1668
bond_style  harmonic
bond_coeff  1 450 0.9572
angle_style harmonic
angle_coeff 1 55 104.52
kspace_style pppm/tip4p/omp 1.0e-5
pair_modify tail yes

thermo          ${out_freq}
thermo          1000
thermo_style    custom step temp pe etotal epair emol press lx ly lz vol pxx pyy pzz pxy pxz pyz enthalpy

restart 	${out_freq3} restart.lmp.${pid} restart2.lmp.${pid}
restart 	1000 restart.lmp.${pid} restart2.lmp.${pid}
restart 	1000 restart.lmp.1 restart2.lmp.${pid}
restart 	1000 restart.lmp.1 restart2.lmp.1


include         in.dump
dump            myDump all atom ${out_freq2} dump.water.${pid}
dump            myDump all atom 10000 dump.water.${pid}
dump            myDump all atom 10000 dump.water.1
dump            myDump2 all dcd ${out_freq2} dump.dcd
dump            myDump2 all dcd 10000 dump.dcd
dump_modify     myDump append yes
dump_modify     myDump2 append yes


variable natoms 	equal  "count(all)"                        # NUMBER ATOMS
variable H      	equal  "enthalpy/v_natoms"                 # ENTHALPY-per-atom
variable Vol      	equal  "vol/v_natoms"                 # volume-per-atom
fix AVG all 		ave/time ${out_freq} 1 ${out_freq} v_Vol v_H file vol_enthalpy.dat
fix AVG all 		ave/time 1000 1 ${out_freq} v_Vol v_H file vol_enthalpy.dat
fix AVG all 		ave/time 1000 1 1000 v_Vol v_H file vol_enthalpy.dat


timer           timeout 02:55:00 every 1000
New timer settings: style=normal  mode=nosync  timeout=02:55:00

fix 		1 all shake 1e-6 200 0 b 1 a 1
       0 = # of size 2 clusters
       0 = # of size 3 clusters
       0 = # of size 4 clusters
     324 = # of frozen angles
  find clusters CPU = 0.001 seconds
fix             2 all nph aniso ${pressure} ${pressure} ${pressureDamp}
fix             2 all nph aniso 5668.8 ${pressure} ${pressureDamp}
fix             2 all nph aniso 5668.8 5668.8 ${pressureDamp}
fix             2 all nph aniso 5668.8 5668.8 1000
fix             3 all temp/csvr ${temperature} ${temperature} ${tempDamp} ${seed}
fix             3 all temp/csvr 125.17 ${temperature} ${tempDamp} ${seed}
fix             3 all temp/csvr 125.17 125.17 ${tempDamp} ${seed}
fix             3 all temp/csvr 125.17 125.17 100 ${seed}
fix             3 all temp/csvr 125.17 125.17 100 745823


run             250000
PPPM initialization ...
  extracting TIP4P info from pair style
  using 12-bit tables for long-range coulomb (../kspace.cpp:340)
  G vector (1/distance) = 0.37210338
  grid = 24 24 24
  stencil order = 5
  estimated absolute RMS force accuracy = 0.0035174911
  estimated relative force accuracy = 1.059282e-05
  using double precision FFTW3
  3d grid and FFT values/proc = 2197 216
Last active /omp style is kspace_style pppm/tip4p/omp
Neighbor list info ...
  update every 1 steps, delay 7 steps, check yes
  max neighbors/atom: 2000, page size: 100000
  master list distance cutoff = 10.8154
  ghost atom cutoff = 10.8154
  binsize = 5.4077, bins = 4 4 4
  1 neighbor lists, perpetual/occasional/extra = 1 0 0
  (1) pair lj/cut/tip4p/long/omp, perpetual
      attributes: half, newton on, omp
      pair build: half/bin/newton/omp
      stencil: half/bin/3d
      bin: standard
Per MPI rank memory allocation (min/avg/max) = 9.224 | 9.226 | 9.227 Mbytes
Step Temp PotEng TotEng E_pair E_mol Press Lx Ly Lz Volume Pxx Pyy Pzz Pxy Pxz Pyz Enthalpy 
14750000     131.3179   -4986.5584   -4733.3008   -4986.5584            0    5574.0127    19.866158    19.930912    20.370737    8065.8066    5765.9629    5333.6176    5622.4575   -548.09052    575.50288    298.56428   -4077.6212 
14751000     122.7869   -4986.2428    -4749.438   -4986.2428            0    6086.5338    19.855893    19.827626    20.347498    8010.7129     5865.594    6480.3943    5913.6132    209.60317    674.70841    382.44662   -4038.3602 
14752000    123.34817   -4990.9169   -4753.0296   -4990.9169            0    5252.3088    19.915892    19.852731    20.470743    8093.8213    4502.8398    6304.0848    4950.0019    173.10455    229.33088   -417.50129   -4133.0467 
14753000    127.15994    -4995.067   -4749.8284    -4995.067            0    7505.3752    19.618836    19.812765    20.540296    7984.0824    8825.9923    6724.7592    6965.3741    336.51191    830.90245   -4.1724917   -3875.9051 
14754000    122.27066   -5007.1873   -4771.3781   -5007.1873            0    5520.0109    19.806231    19.940023    20.465872    8082.7237    5951.4103    4492.0458    6116.5766   -198.12984    466.09633    111.54401   -4120.6889 
14755000    127.45061    -4994.982   -4749.1828    -4994.982            0    5844.2493    19.780002    19.788969    20.504843    8026.1255    6442.6409    5090.4319     5999.675    332.50547     732.8163    -652.9517    -4065.097 
14756000    126.90724   -4988.4237   -4743.6724   -4988.4237            0    4593.8772    19.888541    19.899991    20.457933    8096.8772    5035.2909    3907.5584    4838.7823   -35.434463    463.83815    310.37081    -4201.206 
14757000    124.56022   -4993.5436   -4753.3187   -4993.5436            0    5327.2342    19.853845    19.792568    20.600442    8095.1202     7374.668    3052.9776    5554.0571    544.47907     495.2325    1035.0928   -4124.3907 
14758000     128.5878   -4998.4088   -4750.4164   -4998.4088            0    5551.5178    19.800235    19.882953    20.555281    8092.3496    6400.5892    5103.9539    5150.0102    13.038714    1.2209862    1312.3488   -4095.2339 
14759000    133.98025   -4997.9422     -4739.55   -4997.9422            0    6101.9657    19.706657    19.807603    20.776326     8109.865    5810.1487    6459.1675     6036.581   -218.39292    321.88591    436.52092   -4017.8457 
14760000    133.47836   -5005.6427   -4748.2185   -5005.6427            0    4882.3135    19.815844    19.823949     20.60637    8094.7648    3777.6312    5901.9628    4967.3464    497.56407    499.64044   -441.88922   -4171.8426 
14761000    126.60086   -5002.3014    -4758.141   -5002.3014            0    5319.1249    19.899874    19.989187    20.388761    8110.2881    4565.9065    5719.4389    5672.0294    -327.6285   -348.99776    782.72454   -4128.9937 
14762000     130.1926    -4978.605   -4727.5177    -4978.605            0     6237.491    19.798207    19.949489    20.361265    8041.9687    5804.8223    5812.6177    7095.0331    684.45207    615.75533    420.64912   -3995.9606 
14763000    131.64793   -4989.3319   -4735.4378   -4989.3319            0    6447.5353    19.913631    19.840614     20.49036     8095.714    7196.7684    5398.0505    6747.7869    359.24018    868.33766   -160.99568   -3974.1922 
14764000    126.29485   -5002.9596   -4759.3894   -5002.9596            0    5444.2213    19.874009    19.732301    20.521564    8047.7353     5809.658    5444.1362    5078.8696    68.407915      1261.07    263.86802   -4120.4122 
14765000      124.967   -4996.3498   -4755.3404   -4996.3498            0    6225.8841    19.708254    19.818317    20.659381    8069.2322    8087.3403    4948.0231    5642.2891   -220.33459   -815.28314    205.01162   -4022.6692 
14766000    121.66304   -4989.5504    -4754.913   -4989.5504            0    4710.1276    19.809707    19.893307    20.580275    8110.2869    4646.3728    5081.8184    4402.1918   -136.10831    -23.47377    204.49684   -4197.7981 
14767000    126.71054   -4994.8885   -4750.5165   -4994.8885            0    5490.4496    19.753406    19.821279    20.574969    8055.8773    5924.5342    5473.2934    5073.5213   -242.51367   -24.853615    158.86535   -4105.4617 
14768000    119.27096   -4996.5043   -4766.4803   -4996.5043            0    4611.2398     19.67629    19.905773    20.735058    8121.3368    5224.3026    3958.0311    4651.3857   -520.74925   -1112.1648     334.5624   -4220.3187 
14769000    121.18938   -4985.8304   -4752.1065   -4985.8304            0    6813.1355    19.735428    19.824662    20.565994     8046.408    7425.7378    6622.7628    6390.9058   -712.26881   -142.52596    -147.4068   -3952.5945 
14770000    127.03959   -5001.6933   -4756.6867   -5001.6933            0    5783.9512    19.852186     19.96678    20.423995    8095.7496    5529.3376    5691.6533    6130.8628   -112.15198   -773.30677    9.9825524    -4073.786 
14771000    126.81139   -5008.8442   -4764.2778   -5008.8442            0    6158.9358    19.912948    19.879701    20.353823    8057.3343    6898.1914    5459.5806    6119.0354   -152.81107    1248.4004   -363.28852   -4040.5538 
14772000    123.91426   -4989.3184   -4750.3393   -4989.3184            0    6621.1404     19.73012      19.9768    20.404735    8042.4173    7414.7163    6555.3714    5893.3335     248.5142   -603.56389    112.43921   -3973.7431 
14773000    120.86461   -4993.8028   -4760.7052   -4993.8028            0    7082.8364    20.011491     19.75144    20.320553     8031.816      6419.46    7247.7495    7581.2996    -201.1479   -200.86525   -31.453229   -3931.0515 
14774000     134.4969   -4986.2288   -4726.8402   -4986.2288            0    5470.6306    19.998461    19.673481    20.439581    8041.7354    5062.5139    5502.8168    5846.5612   -219.74758   -238.05181   -277.14148   -4085.2422 
14775000    127.09828   -4988.6928    -4743.573   -4988.6928            0    4992.6288    20.137748    19.867078    20.371478    8150.1844    3315.1191    6066.4274    5596.3399    289.13181    758.56057   -242.38281   -4150.1388 
14776000    130.23722   -4987.2306   -4736.0572   -4987.2306            0    6494.3759    19.909142    19.778312    20.461923    8057.2754    7216.4572    5348.5811    6918.0894    47.156018   -337.43616    -29.10875   -3972.9219 
14777000    125.20575   -4984.0371   -4742.5673   -4984.0371            0    5614.8233     19.80158    19.804653    20.729196    8129.2328    4984.5359    7193.8188    4666.1153   -470.09837   -13.656694   -1080.6404   -4076.8933 
14778000    125.75699   -5008.4106   -4765.8777   -5008.4106            0    5310.6611    19.978267    19.700604    20.642449    8124.5365    4749.5075    6349.6798    4832.7959   -345.83893    442.62576   -477.61147   -4136.6279 
14779000    127.15155   -4992.9661   -4747.7436   -4992.9661            0    5635.2427    19.963129    19.804421    20.446127    8083.5441    5852.7724    4586.2137     6466.742    244.23872    226.46373    218.45827   -4083.4037 
14780000     124.5455   -4985.2187   -4745.0223   -4985.2187            0     5073.747    19.893818    19.895518    20.486137    8108.3683    4800.7245    5833.2003    4587.3162   -202.42469    708.79938    259.29314   -4145.0404 
14781000    129.67818   -4987.0614   -4736.9662   -4987.0614            0    5748.2465    19.796231    19.822104    20.611135    8087.8704      4758.89    6636.3617    5849.4878   -45.516541    421.41413   -591.55071   -4058.9416 
14782000    127.46968   -4993.6862   -4747.8502   -4993.6862            0    5088.2426    19.883358    19.846461    20.563802    8114.7699    4888.6172    4854.9527     5521.158   -63.715851    1085.0737     290.6753   -4145.6791 
14783000     118.5261   -4979.1614   -4750.5738   -4979.1614            0    5094.7585    19.993714    19.891317    20.373542    8102.5843    3399.1743    5308.1499    6576.9514   -256.50829    285.46552    381.52825    -4148.537 
14784000    121.87316   -4994.1476   -4759.1049   -4994.1476            0    6342.6083    19.906542    19.750469    20.437851    8035.4178    5756.7494    7298.1524    5972.9231    479.89359    1204.6294    245.91546   -4015.8253 
14785000    118.56709   -5002.1773   -4773.5107   -5002.1773            0     6456.933    19.694666    19.947676    20.499473    8053.4804    7648.5687    5194.8346    6527.3957    -244.3469    639.13921    251.11957   -4015.1326 
14786000    123.54979   -5003.9722   -4765.6961   -5003.9722            0    5137.8605    19.736327    19.903859    20.533439    8066.1315    6246.3509    4490.0855    4677.1452    -156.9857    819.19352   -355.22731   -4161.2974 
14787000    124.59025    -4988.889   -4748.6062    -4988.889            0    5981.3389    19.688394    19.678444    20.816588    8065.1154    6495.4433    7123.3547    4325.2186    245.26097   -247.36459   -112.79357   -4045.0726 
14788000    130.84978   -4992.9369   -4740.5821   -4992.9369            0    6895.5544    19.714284    19.837939     20.54833     8036.262    7028.2014    7166.2807     6492.181    45.869507   -123.24525   -407.26702   -3932.4187 
14789000     126.8865   -5003.0373    -4758.326   -5003.0373            0    6005.7266    19.753481    19.733638    20.672388    8058.2629    5750.8772    6611.7708    5654.5316   -186.44958    667.81671     820.5264    -4052.524 
14790000    130.88157   -5007.6793   -4755.2632   -5007.6793            0    6359.8928    19.731763    19.914528    20.581595    8087.5124    7727.9139     5898.261    5453.5036   -33.694103     344.4385    356.57124   -4005.1261 
14791000    127.22221   -4996.5073   -4751.1486   -4996.5073            0    5861.4801    19.899333     19.79681    20.539373    8091.3486    6557.9294    4626.1619    6400.3489   -325.81589    464.31894   -704.45953   -4059.4704 
14792000    127.09782   -4997.3857   -4752.2669   -4997.3857            0    7005.5928    19.827068    19.853504    20.370449    8018.5579    6238.7335    6681.3794    8096.6655    -353.2709    1396.5135    419.33922   -3933.0157 
14793000    129.07854   -4990.7418    -4741.803   -4990.7418            0    5907.0539    19.701324    20.011885    20.420206    8050.8837    5672.2067    5705.6304    6343.3247   -352.68595    352.83638   -151.29847   -4048.2329 
14794000    121.09712   -5002.8719   -4769.3259   -5002.8719            0    5163.7984    19.897169    19.876628    20.462807    8092.8073    6733.6613    4091.9155    4665.8184    106.25704    252.91678    124.35411   -4159.8671 
14795000    124.74645   -5009.6603   -4769.0763   -5009.6603            0    7245.8632    19.875381    19.748411    20.504241    8048.0621    6757.5788    7515.4519     7464.559   -307.69899    502.04342    1118.1746   -3918.6096 
14796000    124.03338   -5006.3263   -4767.1175   -5006.3263            0    4666.0071    19.898366    19.710841    20.710781    8123.0483    3601.4532    6455.1615    3941.4064   -30.296899    269.13404    -1221.176   -4214.3528 
14797000    120.61207   -4987.4751   -4754.8646   -4987.4751            0    5951.9288    19.827353    19.900589    20.491325     8085.385    6592.3736    5627.5264    5635.8864   -337.95596    104.57933    239.15791   -4053.0307 
14798000    120.52827   -5002.1278   -4769.6789   -5002.1278            0    5380.9768    19.707509    19.821203    20.705348    8088.0584    6326.0114    4967.9262    4848.9927   -24.335655   -881.89969    485.09151   -4134.9602 
14799000    125.43107   -4992.8689   -4750.9645   -4992.8689            0    4950.5903    19.853901    19.801187    20.685378    8132.0594    5096.1527    5455.6453     4299.973   -304.04117    1129.1492   -363.85611   -4163.8357 
14800000    120.14711   -5003.4761   -4771.7623   -5003.4761            0    5075.7363    19.916232    19.882932    20.531307    8130.2555    5900.1001    4502.0686    4825.0401   -368.37574   -93.619386    -803.3335   -4169.9249 
14801000    133.39472   -4971.2462   -4713.9832   -4971.2462            0    6148.4755     19.75587    19.879986    20.417566     8018.926    6743.3753    5874.7569    5827.2943   -33.983269   -13.312812   -59.909069   -3994.9325 
14802000    120.21593   -4997.7739   -4765.9273   -4997.7739            0     4646.841    19.706819    19.889177    20.668134    8100.9247    5645.5718    4162.5333    4132.4178   -43.162323   -152.20069   -879.25059   -4216.9325 
14803000    121.41964   -5000.2521   -4766.0841   -5000.2521            0    6505.4251    19.684374    19.794774    20.661269    8050.6167    6693.4865    6798.1916    6024.5973    236.28675    45.467417    256.55698   -4002.2822 
14804000    128.74407   -4985.8713   -4737.5775   -4985.8713            0    6308.7332    19.783334    19.891479    20.464507    8053.1881    7122.6312     4944.782    6858.7864    -376.2789    927.00366    516.80591   -3996.6326 
14805000    126.08817   -4993.0866    -4749.915   -4993.0866            0    5884.6633    19.882697    19.865232    20.479635    8088.9314    4533.7275    7792.6487    5327.6137    337.66291   -487.34673   -44.732107   -4055.7085 
14806000    132.43314   -4994.5027   -4739.0942   -4994.5027            0     4069.022     19.88617    19.926642    20.593287    8160.3904    3615.1726    4250.5968    4341.2967    -131.7702   -650.42796    416.51501   -4254.8361 
14807000    121.08907   -5002.8964   -4769.3659   -5002.8964            0    6551.9819     19.86564    19.901524    20.352368     8046.441    6817.3822    6212.0622    6626.5013   -111.60343   -455.56269    820.18259   -4000.4968 
14808000    125.44494   -4996.5943   -4754.6632   -4996.5943            0    5311.3515    20.013663    19.864794    20.409591    8114.1861    4594.0814    5451.0321    5888.9409    372.86382   -1324.7251   -141.53596   -4126.1333 
14809000    122.51897   -4996.9744   -4760.6862   -4996.9744            0    5411.3795    19.937779     19.87436    20.430669     8095.665    5184.5133    5627.4219    5422.2035   -13.556052    1324.3504   -371.54577    -4121.781 
14810000     128.3553   -4999.4583   -4751.9143   -4999.4583            0    5183.8407    19.892425    19.853514    20.343439    8034.3265    5442.2145    4487.9362    5621.3713    166.35547    149.93343   -224.57757   -4144.5112 
14811000    124.29854   -4991.7827   -4752.0625   -4991.7827            0    5104.0083    19.963198    19.841392    20.442581    8097.2581    3642.9401    6236.1569     5432.928   -28.800703    -619.3161   -129.51704   -4149.3291 
14812000    130.04744   -4985.6003   -4734.7929   -4985.6003            0    4751.1547      20.0331    19.776881    20.537135    8136.6537    4287.8563     5967.762    3997.8459   -125.02346     94.00399    50.356875   -4170.9983 
14813000    131.00085   -4990.9477   -4738.3016   -4990.9477            0    6485.1793    19.854574     19.75573    20.482519    8034.0959    6360.2394    7093.4606    6001.8377    152.81024    10.677342    549.85061   -3978.4393 
14814000    127.06222   -4995.9391    -4750.889   -4995.9391            0    5982.6715    19.756704    19.744088    20.653111    8056.3263     7200.477    5459.0944    5288.4431   -239.34479   -245.39593   -234.02501   -4047.9654 
14815000    127.71485   -5004.2151   -4757.9063   -5004.2151            0    5483.1586    19.826679    19.810317    20.480331    8044.1169    5583.0366    5343.3167    5523.1224   -444.48445    537.41422    686.65652   -4114.6485 
14816000     130.7202   -4986.2486   -4734.1437   -4986.2486            0    5741.1295    19.944937      19.8258    20.375471    8056.9566    5769.4501    5772.6388    5681.2995    441.16263   -888.27841   -330.59849   -4059.5469 
14817000    120.07405   -4990.7141   -4759.1411   -4990.7141            0    7037.8781    19.832506    19.875918    20.447876    8060.3333    7628.1732    6489.4304    6996.0307     167.0354    355.28079    780.07688   -3931.8267 
14818000    127.82301   -5006.1088   -4759.5913   -5006.1088            0    4880.6635    19.790952     19.85673     20.69456    8132.6223    3124.6954    6067.6229    5449.6721   -205.82276   -389.13084    24.799928   -4180.7156 
14819000    120.33111   -5002.9282   -4770.8595   -5002.9282            0    5794.9737    19.922198    19.655932    20.673147    8095.3846    7135.8971     5504.058    4744.9659    754.74868   -98.834431    554.32743   -4086.6882 
14820000    124.17342   -4982.6353   -4743.1564   -4982.6353            0    6401.0206    19.822996    19.770065    20.512434    8038.8625    7872.6992    5520.6786    5809.6841    15.769691   -839.33166    80.827891   -3992.7099 
14821000     130.2733   -4998.0407   -4746.7976   -4998.0407            0    5778.7811      19.7232    19.945164    20.484137    8058.0999    5824.7753    6357.1942    5154.3738   -202.86362    -548.7132    466.25837   -4067.6804 
14822000    134.07154   -4984.8771   -4726.3088   -4984.8771            0    5340.4397    19.801311    19.790112      20.6631    8097.2526    4976.8072     6011.408    5033.1039   -358.62717    114.65474    1207.4339   -4095.6556 
14823000    121.70611   -5009.0657   -4774.3452   -5009.0657            0    5744.3983    19.769186    19.865906    20.597035    8089.1313    7890.9762    4695.1074    4647.1114   -553.98156    167.05248   -250.53673   -4096.6689 
14824000    123.05163   -5001.8515   -4764.5361   -5001.8515            0    6563.0885    19.883361    19.760479    20.492764    8051.7038    6974.5626    6100.0488     6614.654   -107.35041   -85.108421    339.55449   -3993.8599 
14825000    122.86401   -4996.7481   -4759.7945   -4996.7481            0    5705.8703    19.770353    19.903901    20.517584    8073.8165    6194.1186    5012.6641    5910.8282   -400.37736    328.98093    410.89335   -4087.9378 
14826000    126.95397   -5001.2253   -4756.3839   -5001.2253            0    5532.5142    20.033856    19.806941    20.308728    8058.6943    4758.5496    4991.4871    6847.5058    158.31485    196.66503    157.13075   -4106.1597 
14827000    122.13228   -5004.8174    -4769.275   -5004.8174            0    5775.8542    19.946158    19.818677    20.331895    8037.3297    4988.1482    6311.2443      6028.17   -24.267379    580.48859    465.55914   -4092.2513 
14828000    130.92639   -4985.8336   -4733.3311   -4985.8336            0    6218.8638    19.881094    19.826284    20.431546    8053.4659    5595.1755    6862.2022    6199.2138  0.018917023    750.71432    599.31451    -4002.916 
14829000    123.20993   -4999.3394   -4761.7187   -4999.3394            0    5650.2132     20.03909    19.748654    20.457345    8095.8932    6728.3248    4999.4514    5222.8633    156.47585    354.14084    1017.8184   -4094.5964 
14830000    128.27211   -4995.7931   -4748.4095   -4995.7931            0    6245.7835    19.933934    19.829508    20.441145    8079.9777    5397.2882    6205.3251    7134.7371   -177.66725    358.54106    1581.5861   -4012.4177 
14831000     130.8174    -5002.439   -4750.1466    -5002.439            0    5040.2759      19.7003    19.895355    20.615414    8080.0973     5943.689    4641.9168     4535.222   -437.53517    404.57111   -291.61988   -4156.2009 
14832000     124.2804   -5007.0731   -4767.3879   -5007.0731            0    5807.5166    19.912994    19.797133    20.547001    8100.0428    3523.2191    7629.8209    6269.5096    209.58017    693.62718   -1137.5804   -4081.3413 
14833000    122.49419   -4985.3128   -4749.0725   -4985.3128            0    5096.6309    19.944026    19.828484    20.499469    8106.7159    6838.9032    3273.7537     5177.236   -87.451208    343.18608    909.99812   -4146.5073 
14834000    130.31781   -4985.6752   -4734.3463   -4985.6752            0    5166.2577    19.898781    19.933252    20.479019    8122.9496    6994.6964    3737.7596    4766.3171   -147.65746    407.69418    444.32805   -4122.3262 
14835000    121.77382   -4991.7433   -4756.8923   -4991.7433            0    6631.3714    19.923734    19.684467    20.498876    8039.4148    7500.0091    6338.7716    6055.3336    54.063914   -780.52161   -524.11082   -3979.3864 
14836000    123.59377   -5001.7366   -4763.3756   -5001.7366            0    5046.1518    19.917174    19.796853    20.571101    8111.1309    4440.6638      5546.38    5151.4115    42.136634    1397.0647   -703.03624   -4166.4536 
14837000    119.69511   -4991.8634   -4761.0213   -4991.8634            0    6907.4105    19.786293    19.916845     20.52219    8087.3951    7469.7127    6464.6129    6787.9059    401.41555     63.26821   -353.34874   -3946.3174 
14838000     125.1101   -4993.8704   -4752.5851   -4993.8704            0    5238.2054    19.890482    20.009626    20.382487    8112.2519    4205.8675    5078.5191    6430.2296   -82.913385    952.05347    72.202539   -4132.8589 
14839000     115.8897   -5000.5995   -4777.0964   -5000.5995            0     6496.192    19.823733    19.907079    20.419964     8058.384    6792.9076    5392.8713     7302.797   -190.99701    213.93789    54.356267   -4013.6427 
14840000    125.14046   -4996.1403   -4754.7964   -4996.1403            0    6579.3158    19.845441    19.731144    20.451847    8008.3966    6687.7084    6217.9792    6832.2596   -521.55428     420.4699    -401.0787   -3986.3702 
14841000    126.51135   -5003.8183   -4759.8306   -5003.8183            0     5374.354    19.845257    19.810619    20.486241    8054.1002    5716.5828    4649.3752     5757.104    374.18428    -200.6429    219.38233   -4128.5547 
14842000    127.92479   -5004.4181   -4757.7044   -5004.4181            0    5824.3568    19.752043    19.774966    20.684903    8079.4397    5873.0387    5979.2338    5620.7978    316.16487    334.50415    136.66741   -4071.4184 
14843000    124.20562   -4983.6641   -4744.1232   -4983.6641            0    5034.5791    19.849217    19.799184    20.627996    8106.7673    5826.1147    4767.6778    4509.9449     407.8975   -551.86702   -120.17822   -4148.8905 
14844000    125.08235   -4997.6969   -4756.4651   -4997.6969            0    5478.5779    19.809422    19.725064    20.671272    8077.1368     7328.635    4235.0133    4872.0853    66.186992    497.20783   -872.36118   -4111.1064 
14845000    117.34037    -5008.327   -4782.0262    -5008.327            0    5623.0507    19.801698    19.976695    20.561641    8133.6195    5678.0853    6342.1138    4848.9529   -159.30077    694.99955    13.959178   -4115.0172 
14846000    126.36137   -4993.1198   -4749.4213   -4993.1198            0    4204.5658    19.736085    19.805428    20.670725    8079.8063    5732.0145    4701.2687    2180.4143    345.04334    558.88178   -309.95735   -4253.9734 
14847000    123.75245   -4993.3321   -4754.6651   -4993.3321            0    5994.4019    19.994251    19.716425    20.486081    8075.9235    5134.1714    7258.6768    5590.3575   -118.59988   -687.75602    -804.9875   -4048.6501 
14848000      127.917   -5002.4433   -4755.7446   -5002.4433            0    5582.6518    19.885618    19.883775     20.42076    8074.3918    5829.2902    5035.4204    5883.2448    214.15161   -570.01974   -76.140118   -4098.3498 
14849000    124.38255   -4994.1765   -4754.2943   -4994.1765            0    7090.8773    19.812884    19.886684    20.346268    8016.6852    8304.0042    5408.1439    7560.4838   -142.02406    1089.0763    958.31685   -3925.2634 
14850000    126.57028   -4996.8949   -4752.7935   -4996.8949            0    6566.1698    19.799997    19.805595    20.484673    8033.0791    5509.8651    7406.7514     6781.893   -547.00199    401.33079   -868.57849    -3983.539 
14851000    120.27608   -5007.9854   -4776.0229   -5007.9854            0    5430.6047    19.980578    19.762868    20.525954     8105.156    4860.1838     6247.335    5184.2953   -214.20705   -103.19942   -72.895086   -4134.0961 
14852000    119.67775   -4986.7926    -4755.984   -4986.7926            0    4969.2568    19.898698    19.735009    20.685709    8123.2982    3181.9831    6773.2456    4952.5417   -891.61879    961.57605    357.09477   -4167.2763 
14853000    123.14379   -4987.1839   -4749.6908   -4987.1839            0    4363.3152    19.955827    19.745271    20.716552    8163.0092     4500.897    4172.2426    4416.8058   -206.19504    35.280449    342.05582    -4230.242 
14854000    120.22204   -4972.0053    -4740.147   -4972.0053            0    7377.4799     19.66779    19.832755    20.580646    8027.8197    8952.7866    6882.6766    6296.9766    410.91727    601.63587    262.20537   -3876.4099 
14855000    133.18215   -4993.3572   -4736.5043   -4993.3572            0    4980.1361     19.72546    19.870127    20.778131    8143.9339    5188.9073    5135.9509    4615.5501    16.164164    1173.4445    675.69036   -4145.0089 
14856000    119.25121   -4995.9308   -4765.9448   -4995.9308            0    6984.5063     19.82993    19.803789    20.524417     8060.098    6545.3928    7702.5453    6705.5808   -389.09874   -968.02031    324.32795   -3944.9282 
14857000    123.15712   -4989.2508    -4751.732   -4989.2508            0    5022.8618     19.82134    19.827792    20.568257    8083.6006    5360.1196    4345.1762    5363.2896    218.31281    404.35629    200.11828   -4159.5816 
14858000     128.9884   -4994.4659   -4745.7009   -4994.4659            0    5374.0898    19.778866    19.897927     20.51413    8073.5088    3844.5319    5765.8865    6511.8511    -192.0186    1045.7163   -319.44038   -4112.9349 
14859000    118.77127   -4988.6183    -4759.558   -4988.6183            0    5133.5718    19.865338    19.935739    20.614074    8163.7956    6395.1677    3652.4623    5353.0854    205.91093    538.55662     451.5524   -4148.3519 
14860000    127.60883   -4987.5441   -4741.4398   -4987.5441            0    6138.1173    19.886498    19.871992    20.441117    8078.0094    6069.5958    5796.5509    6548.2051   -205.37657   -867.43628    86.443886   -4018.3114 
14861000    130.68026   -4990.4446   -4738.4167   -4990.4446            0    6010.7751     19.98468    19.757422      20.4356    8068.9101    5002.6076    6282.5721    6747.1456   -682.25121    1210.8642    155.81746   -4031.0881 
14862000     131.1258   -4997.6923   -4744.8052   -4997.6923            0     6234.636    19.974311    19.778171    20.373549    8048.6798     5786.189    6593.9627    6323.7562   -215.02742    950.50546    322.03816   -4012.9727 
14863000    123.52081   -5001.3012   -4763.0809   -5001.3012            0    7169.0212    19.790618    19.794158    20.523269    8039.7573    7714.3131    6757.4508    7035.2999    10.305003   -41.509224   -394.41106   -3922.5016 
14864000    125.91972    -4989.367   -4746.5202    -4989.367            0     4604.304     19.74217    19.756541    20.694305    8071.5446    6651.2245    3927.7836    3233.9039     77.54746    991.32851    226.70972   -4204.5237 
14865000    123.87231   -4992.1371   -4753.2389   -4992.1371            0    5399.7819    19.857623    19.624265    20.678623    8058.2787    5905.8981    5800.8423    4492.6054    -343.1321    1037.4592    754.26073   -4118.6472 
14866000     124.2387   -5011.5922   -4771.9874   -5011.5922            0    4875.7396    19.926109    19.742971     20.60178    8104.7524    4510.6342    4635.5556     5481.029   -105.34925   -415.66788    1544.9441   -4195.6774 
14867000    125.13369   -5010.3153   -4768.9844   -5010.3153            0     4926.617    19.895188    19.855268    20.476325    8088.6457    4425.4325     5482.502    4871.9166    29.925182    316.73863    614.30463    -4187.818 
14868000    125.61643   -5002.8023   -4760.5405   -5002.8023            0    5800.1942    19.802825    19.898787    20.450308    8058.4888    6673.5024    4520.3182     6206.762   -219.42387   -313.47775   -715.30138   -4078.8739 
14869000    121.14096   -4995.5859   -4761.9554   -4995.5859            0    4815.7075    19.887917    19.987406    20.282634    8062.5068    5209.1082    4741.5679    4496.4465    120.78448   -132.49547   -242.69056   -4195.7082 
14870000    128.21235   -5002.1412   -4754.8729   -5002.1412            0    5887.5463    19.960179    19.756614    20.561793    8108.4519    5257.7966    6765.1433    5639.6989   -179.79918    166.30014   -435.01345   -4058.6502 
14871000    126.78375   -5018.5422    -4774.029   -5018.5422            0    5882.8775    19.898366    19.824195    20.470562    8075.0043     6584.879    4828.9216    6234.8319   -194.56135    319.43679    -126.4542   -4081.2281 
14872000    126.26653   -4977.4786    -4733.963   -4977.4786            0    5892.0259    19.866021    19.770556    20.395869    8010.7282    6112.7098    5432.1437    6131.2243   -147.67911   -1010.2712   -232.81351   -4045.6079 
14873000    122.22275   -4990.8992   -4755.1823   -4990.8992            0    4830.7477    19.840175    19.839998    20.575315    8099.0414    5200.8601     5215.269     4076.114   -65.243168    365.19889    -353.4531   -4184.5927 
14874000    126.66759   -4998.4475   -4754.1584   -4998.4475            0    5954.4106    19.737162    19.868089    20.592613    8075.1809    6745.9022    5539.9434    5577.3862   -218.58691    949.67556    1026.7276    -4052.918 
14875000    126.65269   -4984.4434    -4740.183   -4984.4434            0    6268.2283    19.795949    19.840191    20.579284    8082.6254    5880.3379    6905.3758    6018.9713    229.98392   -696.82964   -48.364626   -4001.3043 
14876000    124.24769   -5010.8657   -4771.2436   -5010.8657            0    5622.8483    19.821035    19.915595    20.447407     8071.567    5960.9615    5675.3057    5232.2777    243.33184   -116.91125    1586.2129   -4109.3471 
14877000    125.33006   -5000.1676   -4758.4581   -5000.1676            0    5358.3965    19.992497    19.972307     20.29243    8102.6919    4005.0595    6401.3345    5668.7956    -594.3141    487.02174     1054.464   -4125.2593 
14878000    127.07066   -5000.4587   -4755.3923   -5000.4587            0    6009.0508    19.852543    19.769577    20.465548    8032.2442     7759.752    5124.5382    5142.8622    8.4280017    397.24457   -365.33833   -4051.4798 
14879000    131.10319   -4989.9726    -4737.129   -4989.9726            0    4890.0014     19.76956     19.96507    20.563411    8116.3916    5037.4735     4342.599    5289.9316   -100.96124   -188.63309   -476.22412   -4158.3033 
14880000     115.9319   -4991.3826   -4767.7982   -4991.3826            0    7073.0624    19.771918    19.761182    20.468166    7997.2493    5545.4835    8864.2994    6809.4043   -163.49635    704.87568    40.200257   -3942.8551 
14881000    122.41886   -5013.2351     -4777.14   -5013.2351            0    5746.5129    19.921571    19.830054    20.536248    8112.7588    4950.9236    7182.0147    5106.6004    48.677329   -403.11233   -295.98155   -4097.2341 
14882000    128.91181   -4989.4468   -4740.8296   -4989.4468            0    4866.8335    19.844586    19.824471    20.597938    8103.4024    4496.5961    5247.7356    4856.1688    179.71767    1124.9163   -36.402103   -4165.6681 
14883000    128.31372   -4985.8493   -4738.3855   -4985.8493            0    5258.3649    19.758576    19.996963    20.481637    8092.5309    5638.2591    5129.0082    5007.8274   -360.95316    519.09355    477.30992   -4117.7867 
14884000    120.30911   -5000.5179   -4768.4916   -5000.5179            0     5051.956    19.782889    19.941879    20.560051     8111.104    5839.5248    4373.8757    4942.4675    312.86496    357.01765    226.14022    -4170.885 
14885000    126.05035   -4998.0842   -4754.9855   -4998.0842            0    6458.6963    19.878962    19.733359    20.549169    8061.0012    6941.0281    6518.2876    5916.7731      221.939    603.16022   -139.87518   -3995.6919 
14886000     128.1119   -5001.4468   -4754.3722   -5001.4468            0    5502.6459    19.877702     19.80617     20.52971    8082.5702    5251.2333     5977.819    5278.8853    -143.1981    251.76892    -677.9015   -4105.7423 
14887000    116.72904    -4988.458   -4763.3362    -4988.458            0    5740.2647    19.747969     19.85862    20.602097    8079.4708    6374.5085    4794.5487    6051.7369    75.208079    382.32331   -19.737889   -4086.9562 
14888000    119.92155   -4990.1556   -4758.8768   -4990.1556            0    6682.1734    19.914424    19.876924    20.335595     8049.591    5711.8081    6858.2346    7476.4774   -517.49649   -743.48952   -726.61077   -3974.4229 
14889000    120.35459   -5006.6351   -4774.5212   -5006.6351            0    6221.0364     19.90139     19.70096    20.488098    8032.9016    5818.6544    6041.2777    6803.1771   -437.39697   -621.16043    41.144485   -4045.7166 
14890000    130.55072   -5002.0471   -4750.2691   -5002.0471            0    3899.4599    19.936083    19.686991    20.662072    8109.4811    3506.0333    4435.8813     3756.465    718.60825    1232.4899    668.55898    -4289.086 
14891000    121.02763   -4995.5683   -4762.1563   -4995.5683            0    3959.2159    19.857274    19.887893    20.588279    8130.7096    3465.6221    4942.7554      3469.27   -561.78973     491.5496    1091.6456   -4292.6802 
14892000    123.23567   -4992.4237   -4754.7533   -4992.4237            0    5059.8838    19.819356     19.67258    20.749481    8090.1783    5583.6156    5072.1695    4523.8664    -51.72756    685.60746    591.23551   -4157.7531 
14893000     123.7257   -4996.4601   -4757.8447   -4996.4601            0    7063.0715     19.90483    19.662329    20.584369    8056.2137    6884.0536    7791.5196    6513.6414    476.32972   -481.79862   -637.91836    -3927.993 
14894000    127.63542   -4997.6529   -4751.4972   -4997.6529            0    5876.6439    19.770663    19.869793    20.521529    8061.6569    5885.9299    5304.3955    6439.6063   -771.47336    295.40614    203.60761   -4060.5744 
14895000    126.77234   -5001.8049   -4757.3138   -5001.8049            0    5609.9527    19.906097    19.798239    20.494964    8077.1816    5421.6038    5573.0513    5835.2031   -169.32585    644.65783   -33.919348   -4096.4759 
14896000    121.55115   -5005.2013   -4770.7797   -5005.2013            0     4152.414    19.865579    19.829834    20.679713     8146.383    3797.7214    4647.2986    4012.2219    221.65966     537.9737   -366.71635   -4277.4454 
14897000    127.47223   -5014.6599   -4768.8189   -5014.6599            0     6222.948    19.757018    19.847065    20.604146    8079.2735    7360.6629    5762.0902     5546.091   -600.37598   -219.94517    521.10509    -4035.582 
14898000    121.79172   -4999.5117   -4764.6262   -4999.5117            0     6167.099    19.659939    20.004427    20.483511    8055.8743    7789.9929    4464.3561    6246.9481   -234.88015    1073.9951    1095.2739   -4040.0743 
14899000     125.2592   -4985.7203   -4744.1474   -4985.7203            0    6348.2604    19.850657     19.89279     20.46301    8080.5348    6289.8202    5754.4854    7000.4755     14.03798   -65.348692     509.7753   -3996.0284 
14900000    125.53658   -5000.1987   -4758.0909   -5000.1987            0     5457.077    19.930562    19.700915    20.590197    8084.7474    4495.0156    6001.4502    5874.7652    215.16526    -452.6443    188.54951   -4114.6592 
14901000    132.17579   -4992.4028   -4737.4907   -4992.4028            0    4546.7821    19.616051    19.971059    20.715627    8115.4153      3857.06    5684.9088    4098.3776    -316.1891    -457.9694    726.82759   -4199.3562 
14902000    123.81963    -4978.261   -4739.4644    -4978.261            0    6918.6163     19.83885    19.694489    20.594612    8046.6448     7532.745    6652.8624    6570.2415   -73.708174   -412.32607    10.137847   -3927.5505 
14903000    121.88529   -4993.9356   -4758.8696   -4993.9356            0    6031.8823    19.803164    19.816652    20.560575    8068.6358    6731.8831    5704.2066    5659.5571    271.05013    759.53918   -421.54864   -4049.0812 
14904000    120.20347   -4984.3145    -4752.492   -4984.3145            0    4759.4558    19.700386    19.777641     20.68944    8061.1675    4908.6079    6260.7644    3108.9951    287.93634    504.24566   -708.94198    -4192.952 
14905000    123.44136   -4996.0707   -4758.0036   -4996.0707            0    5255.1204    19.845183    19.735843    20.617353    8075.0218    4789.9044    5260.7266    5714.7301    297.87118   -138.66487   -105.37342   -4139.1296 
14906000    119.39619   -4998.1396    -4767.874   -4998.1396            0    5154.9623    19.863771    19.865865    20.566846    8115.9035    4039.1755     5940.254    5485.4575    274.38724    419.26684   -16.028178   -4157.7217 
14907000    130.98013   -5006.9306   -4754.3244   -5006.9306            0    5205.4866    19.776422    19.821281    20.628601    8086.2883    5777.1308    4772.1362    5067.1926    407.80901    925.67153    -4.904521   -4140.4402 
14908000    119.90092   -5002.2451   -4771.0061   -5002.2451            0     4962.336    19.781198    19.822467    20.606131    8079.9141    5160.7154    5447.7103    4278.5823    184.61013    -429.9129   -213.17766    -4186.258 
14909000    129.31133    -5017.321   -4767.9332    -5017.321            0    4394.8157    19.951063      19.7869    20.511305    8097.2414    3486.1455     4966.629    4731.6727    -244.7627   -133.67056   -1062.5433   -4248.9496 
14910000    124.52401   -4990.9279   -4750.7728   -4990.9279            0    6507.9093    19.991668    19.819921    20.296108    8041.9934    5795.9144    6871.4505    6856.3631    83.895677    925.88068   -113.58015   -3987.4977 
14911000    124.01088   -5002.8618   -4763.6964   -5002.8618            0    6309.7435    19.851892    19.867996    20.441095    8062.3219    5822.2525    5599.9629    7507.0151   -341.98645    1414.6493   -1135.0439   -4021.7924 
14912000    123.23425   -4993.5928   -4755.9252   -4993.5928            0    5285.4746    19.939841    19.926879    20.492189    8142.3421    5969.5845    4691.1182    5195.7212    -607.8647   -332.54349    314.84964   -4128.2872 
14913000    125.25005   -4992.0296   -4750.4744   -4992.0296            0    5869.1464    19.918282    19.850891    20.457025    8088.6187     6496.263    5413.4505    5697.7257    351.99876    327.15128   -453.45825   -4058.1251 
14914000    127.63324   -5007.3229   -4761.1715   -5007.3229            0     5535.906    19.928357    19.883408    20.384447    8077.2074    4568.7059    6243.2264    5795.7857   -431.84296   -308.73862    -785.2397    -4109.054 
14915000    124.66396   -4992.5809    -4752.156   -4992.5809            0    6669.8884    19.933602    19.796753    20.374049    8040.0196    6024.5461    7165.2561    6819.8632    164.35825    453.51706    222.63407   -3970.0753 
14916000    126.07597    -4985.183   -4742.0348    -4985.183            0    6719.3985    19.890441    19.896908    20.323857    8043.3347    7360.3365      5002.17    7795.6888   -176.57544   -117.71182   -995.06636    -3953.824 
14917000    128.07905   -5000.7333   -4753.7221   -5000.7333            0    4984.0017    19.834973    19.916069    20.456998     8081.224    5910.3543    4296.6301    4745.0208   -9.5694426    416.95843    424.28017   -4166.3258 
14918000    126.78516   -4978.2653   -4733.7494   -4978.2653            0    6322.5844    19.793566     19.72118    20.655946       8063.1    7424.9088     5769.579    5773.2654   -110.01859    660.13608   -835.37373   -3990.2638 
14919000    133.06595   -4997.3716   -4740.7427   -4997.3716            0     5757.848    19.757458     19.78493    20.670561    8080.1202    5680.5746    6258.5022    5334.4673    364.21471     547.7346    592.58223   -4062.2364 
14920000    129.48327   -5002.7986   -4753.0792   -5002.7986            0    5217.2142    19.701522    19.919634    20.545467    8063.0091    5564.5462    5056.3374    5030.7591   -130.61989    1049.9938    69.965305   -4139.5832 
14921000    124.15102   -4988.3654   -4748.9297   -4988.3654            0    4952.9792    19.896942    19.846237    20.521965    8103.7015    4344.7028    6476.1568     4038.078    260.55762    835.03643    35.491255    -4163.566 
14922000    121.65552   -4999.3349    -4764.712   -4999.3349            0    5062.5465    19.913832    19.791723    20.475811     8070.112    4695.6645    5765.0568    4726.9181   -176.09117    456.25925    1232.3472   -4168.8791 
14923000    126.08381   -5008.5522    -4765.389   -5008.5522            0    6140.8946     19.81981    19.911963    20.414664    8056.6739    5089.1308    6984.0451    6349.5079   -353.88921    1359.2958    12.062735   -4043.8441 
14924000    121.51698   -4988.5459   -4754.1902   -4988.5459            0    6688.7959    19.847757    19.811964    20.507889    8064.1749    6907.3155    6368.8111    6790.2609    497.93192    864.81905   -576.37331   -3967.5362 
14925000    122.58251    -4994.538   -4758.1273    -4994.538            0    6080.9731    19.937265     19.93502    20.293765    8065.7523    5132.8011    7143.1874    5966.9309   -124.64177    145.43085    225.96358    -4042.818 
14926000    123.78941   -5005.6067   -4766.8684   -5005.6067            0    6485.9414    19.791967     19.82893    20.492682    8042.4255    6970.9497    6224.9019    6261.9727    149.31696    778.30962   -357.83234    -4006.129 
14927000    126.73142   -4992.8437   -4748.4315   -4992.8437            0    5886.9626    19.787928    19.918811    20.410735    8044.9322    4863.4607    7056.0267    5741.4004    286.32301    222.46818   -113.51946   -4057.7313 
14928000    121.79415   -4990.9042   -4756.0139   -4990.9042            0    4872.0078    19.906012    20.015539    20.393126    8125.2243    4289.4374    5326.7775    4999.8084    -472.7064     487.7974   -344.23485   -4178.6904 
14929000    125.18293   -4978.3657   -4736.9399   -4978.3657            0     7043.636    19.948432    19.690117    20.491863    8048.9365    6612.7573    7870.2809    6647.8697   -377.63121   -265.54105    512.21501   -3910.1193 
14930000     125.1584   -4993.3282   -4751.9497   -4993.3282            0    5912.2219    19.929519    19.752869     20.56271    8094.8228    6567.4527    5732.1142    5437.0989   -292.65041    257.62964    372.20033   -4053.9841 
14931000    122.25524   -4992.8423   -4757.0628   -4992.8423            0     6240.639     19.67996     19.93056    20.602026    8080.7869    6236.6868    7070.4581     5414.772    328.57401     23.74571    886.05772   -4021.6036 
14932000    123.68352   -4992.3496   -4753.8155   -4992.3496            0    6784.6755    19.783311    19.785331    20.649951    8082.7905    6892.4699    7434.3859    6027.1706   -816.84437   -183.65939   -378.74102   -3954.0434 
14933000     121.8063   -5006.3739   -4771.4602   -5006.3739            0    5849.2625    19.892329    19.760288    20.573198     8086.875    6304.1723     6134.775    5108.8402    23.228383   -374.94047    -118.6014   -4081.6053 
14934000    118.73388   -5000.6907   -4771.7024   -5000.6907            0    5314.4967    19.962299    19.830146    20.543562    8132.2777     5574.664    4827.6901    5541.1359    294.51556   -589.59466    658.77057   -4141.3982 
14935000    125.93652   -4988.2672   -4745.3881   -4988.2672            0    5276.2619    19.818445    19.916992    20.543259    8108.9135    5609.3193    4238.6806    5980.7859    302.44874    873.07657    171.01179   -4121.4163 
14936000    127.48137   -4987.5217   -4741.6632   -4987.5217            0    6149.3016     19.97049    19.634102    20.532478    8050.8386    5739.0798     7130.112     5578.713    612.24368    170.53713    410.79798   -4019.6539 
14937000    119.81966   -4994.5294   -4763.4471   -4994.5294            0    5561.4267    19.931376    19.846935    20.513993    8114.8578    4860.0924    5591.4478      6232.74    80.985534    959.39769   -608.81347   -4105.2697 
14938000    125.86304     -4986.95   -4744.2125     -4986.95            0    6234.1513    19.921012    19.650665    20.549356    8044.2744    6258.0811    5954.5887    6489.7842   -274.79928   -158.06091    35.642607   -4012.8375 
14939000    112.98516   -4984.5261   -4766.6247   -4984.5261            0    5335.3917    19.751073     19.90807    20.512517    8065.6393     5192.024    5625.5798    5188.5715   -189.00092    606.39554     -399.056   -4139.0275 
14940000    128.21111   -4983.2265   -4735.9606   -4983.2265            0    5281.9609    19.966095    19.774168    20.521465    8102.1395    5791.2427     4936.459     5118.181     147.3844    84.146331    131.63802   -4111.8368 
14941000    122.76345   -4990.5912   -4753.8315   -4990.5912            0     5692.366    19.799708    19.987324    20.482248    8105.7098    5684.8278    5560.1095    5832.1607    187.55958    118.64996    -407.2379   -4080.9172 
14942000     122.9975   -4988.7046   -4751.4935   -4988.7046            0    5634.5553     19.77874    19.885567     20.55376    8084.0294    5502.2617    5877.2107    5524.1935    87.257709    493.56737    616.20628   -4087.1948 
14943000    129.90498   -5002.7268   -4752.1941   -5002.7268            0    5954.8473    20.029192    19.840392    20.346849    8085.5738    4748.5934    6452.1968    6663.7517   -406.13576    383.59836    625.89358   -4049.9997 
14944000    127.76612    -4991.066   -4744.6583    -4991.066            0    6033.7704    20.014747    19.840173    20.423988     8110.285    4504.2468    6696.7731    6900.2915   -394.83486    68.836437    -381.4883   -4030.9828 
14945000    123.70339   -4995.0387   -4756.4663   -4995.0387            0    4167.8905    19.928761    19.897924    20.463209    8114.5007     3024.468    4814.1651    4665.0384   -497.32496    870.50205    1233.4045   -4263.2312 
14946000    128.00955   -5009.1309   -4762.2537   -5009.1309            0    5866.5476    19.817995    19.904881    20.576851    8117.0499    5857.4478     6265.565    5476.6299   -203.94476    211.94476   -775.79818   -4067.7786 
14947000    122.71669   -4994.0849   -4757.4155   -4994.0849            0    4510.9857    19.815622     19.94444    20.551415    8122.1555    6388.0877    2960.6731    4184.1962    139.49439    -369.5428   -933.64338   -4223.0743 
14948000    128.10278   -5000.6292   -4753.5722   -5000.6292            0    4932.1418    19.828109    19.778884    20.677457     8109.241     5264.523    4923.5547    4608.3476   -141.80009    22.134195    824.84332   -4170.2727 
14949000    125.05721   -4980.4254   -4739.2421   -4980.4254            0    6867.4536    19.792312    19.772332    20.560454    8046.1313    6568.2574    8329.1166    5704.9867    55.167779    301.05518    962.59845   -3933.3837 
14950000    122.70015   -4996.5843   -4759.9467   -4996.5843            0     5457.032    19.859829    19.773509    20.532157    8062.9474    5364.7395    5435.7329    5570.6237     215.1562   -383.06337    385.74558   -4118.2553 
14951000    118.69085   -4990.7083    -4761.803   -4990.7083            0    5371.6356    20.021977    19.824595    20.484598     8130.902    4233.3419    6159.6185    5721.9465   -185.78721    871.87956    336.78671   -4124.8298 
14952000    122.96674   -4984.5804   -4747.4287   -4984.5804            0    6655.2197    19.782158    19.845989    20.513875     8053.675    6670.9866    7691.5249    5603.1477   -436.18065   -412.60711   -60.708619   -3965.7426 
14953000    126.09256   -5009.8379   -4766.6578   -5009.8379            0    5579.2407    19.887563    19.881475    20.481896    8098.4202    6355.4923    4805.3757    5576.8541   -189.69386    406.00131     13.18253   -4107.7095 
14954000    122.02814   -5003.6572   -4768.3157   -5003.6572            0    5716.5356    19.893563    19.745034    20.587911    8086.9127    5026.0629    7408.5831    4714.9608    118.21116   -678.83481     1093.415   -4094.1113 
14955000    124.77907     -5005.07   -4764.4231     -5005.07            0    6942.2242     19.74309    19.777246    20.505228    8006.5521    7437.6311    7323.1304    6065.9111   -35.768668    848.75274     713.1127   -3953.7979 
14956000    121.51036   -5003.8188   -4769.4758   -5003.8188            0    4856.5022     19.78275    20.009912    20.473908    8104.6188    5992.7513     3370.795    5205.9603   -293.02926   -237.47372    1067.5467   -4195.4491 
14957000    122.84927   -4992.9246   -4755.9994   -4992.9246            0    5157.6472    19.909181    19.914148    20.371718    8076.8642     6535.755    2841.4226    6095.7638    6.8933054    1301.0675   -194.49887   -4148.4658 
14958000    123.10469   -4986.9689   -4749.5511   -4986.9689            0    5157.1571    19.927266    19.812584    20.485388    8087.8485    4553.7441    5728.4894    5189.2379    261.63923    503.40295   -1165.0135   -4141.2491 
14959000    123.72927   -4994.0411   -4755.4188   -4994.0411            0    5215.4126    19.915138    19.799915    20.495296     8081.665    5247.8635    6015.9355    4382.4387    139.49313   -84.187208    872.45554   -4140.7157 
14960000    126.53974   -4987.8628   -4743.8202   -4987.8628            0    4818.3391    19.909009    19.864125    20.576395    8137.4509     5126.149    3793.3896    5535.4787    261.44437    69.277878   -1159.1912   -4171.9972 
14961000    123.64481   -4986.0818   -4747.6224   -4986.0818            0    6497.8911    19.780434    19.731852    20.637192    8054.7908    6508.0221    6438.5886    6547.0624     172.0686    200.38974    535.16735   -3984.3095 
14962000    123.92904   -4992.5029   -4753.4954   -4992.5029            0    5177.6454    19.786623    19.752627    20.683123    8083.7461      5116.03    5571.0782     4845.828     117.5693    711.68893   -736.86646   -4143.0865 
14963000    126.84262    -4991.101   -4746.4743    -4991.101            0    5984.7324    19.942469    19.818816    20.529228    8113.8926    6281.2784    6320.4399     5352.479   -331.15371    466.47731    630.00915   -4038.2842 
14964000    134.51929   -5008.6026   -4749.1709   -5008.6026            0    5999.1161    19.732959    19.972559    20.480593    8071.7639    5792.0199     6493.834    5711.4943   -210.71644    282.94465    410.11119   -4042.9646 
14965000    120.39783   -5006.9691   -4774.7717   -5006.9691            0    6079.2801    19.733747     19.92268     20.49542    8057.7566    7091.7564    4815.0111    6331.0729     152.3979   -520.92159     93.69777   -4060.3705 
14966000      116.097   -4987.4989   -4763.5961   -4987.4989            0    5007.2996    19.844661    19.955149    20.481294    8110.6572    5828.2933    3574.4936    5619.1119    114.36205   -113.96359    873.47623   -4171.3046 
14967000    116.37949   -5000.8505   -4776.4029   -5000.8505            0    4762.6276    19.714477    20.076817    20.483007    8107.2554    6213.2497    3032.3687    5042.2645   -345.45239    -69.42605   -230.64725   -4213.2888 
14968000      122.441   -4983.1525   -4747.0147   -4983.1525            0      4447.59    19.831048    19.952532    20.516185    8117.8362    4705.9238    4332.9785    4303.8678    237.68275    710.29674   -122.72061   -4220.4631 
14969000    128.77787   -4998.4059   -4750.0469   -4998.4059            0    4984.2249    19.825759    19.793585    20.600484    8084.1007    5065.0244    5087.7792    4799.8711   -1180.7671     393.8876   -246.84168   -4162.4152 
14970000    123.48715   -5006.9635   -4768.8081   -5006.9635            0    6148.1126    19.688102     19.78689    20.728989    8075.3159    6650.7804    6276.2789    5517.2784   -974.87675    475.59256    209.47933   -4044.7437 
14971000    125.67917   -4995.5146   -4753.1317   -4995.5146            0    7289.9747    19.856858    19.766718    20.417812    8014.0913    6562.5504    7319.2512    7988.1226   -218.32949   -42.588398    229.04149   -3901.0991 
14972000    128.08173   -5014.5573   -4767.5409   -5014.5573            0    5335.4961    19.818864    19.968203     20.41277    8078.2946    6587.3977    3543.6037     5875.487   -699.30481    1790.4479   -49.459994   -4138.9467 
14973000    123.42878   -4999.4638    -4761.421   -4999.4638            0    5982.2061     19.76732    19.914204    20.512882    8074.9052    5164.8094     7299.701    5482.1079    274.40667   -447.17988    748.38885   -4056.9312 
14974000    122.35564   -4990.0011    -4754.028   -4990.0011            0    5952.6313    19.880141    19.795027    20.508294    8070.5865    5469.8451    6718.1901    5669.8587    -424.8904   -356.26095    693.81998    -4053.396 
14975000    118.44486   -4993.3666   -4764.9357   -4993.3666            0    6336.7146    19.952155    19.767709    20.447393    8064.6235    5710.4054    6582.6297    6717.1088    425.51656   -404.37596    569.01007   -4019.6477 
14976000    123.07035   -4990.0101   -4752.6586   -4990.0101            0    6384.5085    19.899002    19.755615    20.510574    8063.0557    5331.0747    7738.6024    6083.8484   -402.24452    766.10729   -79.312592   -4001.8953 
14977000    132.79728   -4980.7582   -4724.6475   -4980.7582            0    6579.4105    19.811567    19.790288    20.586004    8071.2905    6718.9495    7232.3406    5786.9414   -295.54091   -433.85718   -489.66607   -3950.1752 
14978000    133.74723   -5004.4171   -4746.4743   -5004.4171            0     5633.668    19.771431    19.873263    20.618895    8101.6348    5177.4951    5889.0498    5834.4591   -508.29697   -185.18242    10.756057   -4080.8337 
14979000    122.37717    -4980.531   -4744.5163    -4980.531            0    6702.6753     19.80899    19.886786     20.44485     8053.986    7214.5598    6325.2793    6568.1869    222.15772    418.63243    462.84061    -3957.226 
14980000    129.18549   -4988.2812   -4739.1361   -4988.2812            0     4716.558    19.966619    19.828312    20.512007    8120.7929    5346.4314    3075.0698    5728.1728    568.20633    134.14513   -533.51739   -4180.5379 
14981000    130.25509   -4999.1809    -4747.973   -4999.1809            0    6473.4749    19.972814    19.735093    20.457204    8063.5208    4866.7009    8449.8397     6103.884   -497.70005   -953.96839    375.12443   -3986.7041 
14982000    128.46109   -5001.1803   -4753.4322   -5001.1803            0    5824.3921    19.726494    19.786888    20.647786     8059.366    5135.3767     7100.292    5237.5075    127.93904   -470.61572    163.94077   -4068.8472 
14983000    123.30534   -4997.1694   -4759.3646   -4997.1694            0    5259.7563     19.89234    19.749601    20.526319    8064.0884    4549.0742    6490.0262    4740.1686   -297.74079    1041.0903       578.27   -4140.7833 
14984000    128.88404   -5000.8628    -4752.299   -5000.8628            0    3801.6903    19.930215    19.802486    20.642587    8146.9645    4451.1761    4117.6998    2836.1951    1.6734513    283.91496    137.45975   -4300.6008 
14985000    122.65861   -4999.8318   -4763.2743   -4999.8318            0    6355.4027    19.978328    19.735247    20.426778    8053.8138    5609.0407    6768.1733    6688.9942    141.47597    92.073025    378.90462   -4016.7902 
14986000    122.77872   -4997.0367   -4760.2476   -4997.0367            0    6074.2547    19.726333    19.887604    20.487608    8037.4831    5537.4455     6492.227    6193.0916   -159.15776   -460.67519   -368.22605   -4048.2329 
14987000    125.98944    -4998.984   -4756.0027    -4998.984            0    4716.0714    19.912457     19.83637    20.504226    8098.9818     5310.712    4143.6874    4693.8148    622.55669    1136.4158   -1067.4731   -4198.9623 
14988000    124.20604   -4987.3658   -4747.8241   -4987.3658            0    6664.8437    19.897227    19.770099     20.45508    8046.4176    5139.1489    8768.5353     6086.847   -330.05591    824.10796    853.78951    -3965.713 
14989000    122.03979   -4992.1048   -4756.7409   -4992.1048            0    4819.3354    19.916105    19.850541    20.471524     8093.324    4089.5426    4939.0641    5429.3995    33.321255    1327.0136    1370.5945   -4187.9011 
14990000    123.77725   -4993.5654   -4754.8506   -4993.5654            0    5502.4377     20.09304    19.689574    20.594079    8147.4993    5676.0757    5348.3441    5482.8933   -142.15346    1060.3043     909.7312   -4101.0349 
14991000    121.35673   -5005.2886   -4771.2419   -5005.2886            0    5106.8017    19.801966    19.885204    20.611004    8115.9156    4065.5563    5540.5223    5714.3266   -414.53019    31.063882    366.27551   -4166.7891 
14992000    125.06371   -4999.0397   -4757.8439   -4999.0397            0    4678.8838    19.791928    19.706792    20.745742    8091.5741    4127.9715    5486.3012    4422.3786    504.27218   -61.826548    139.63483   -4205.7014 
14993000    124.26922   -4981.7441   -4742.0805   -4981.7441            0    5711.1437    19.873364    19.716232    20.571286    8060.4028    5764.9539    6755.6878    4612.7896   -281.51081   -1370.4609   -653.64553   -4070.7201 
14994000    128.55489   -4996.3843   -4748.4554   -4996.3843            0    5680.4778    19.812503     19.78047    20.630699    8085.1835    6211.8952    5623.3698    5206.1684   -521.35473    1552.0718    600.03993    -4078.647 
14995000    133.09736   -4992.1548   -4735.4653   -4992.1548            0    6797.7983    19.801674    19.879343      20.5372    8084.3516    6207.1465    6950.8845    7235.3638    323.22913    473.07325    1160.9738   -3933.9915 
14996000    128.54713     -4990.83    -4742.916     -4990.83            0    6137.6093     19.79287    19.817763    20.537371    8055.7925    6989.3882    4851.0827     6572.357   -109.72518    230.53637    472.40817   -4021.8361 
14997000    122.88483    -4994.792   -4757.7983    -4994.792            0     5138.715    19.821152    19.763185     20.66236    8094.0476    5793.5575    5002.5747    4620.0127   -332.50505   -227.59112    669.73176    -4151.207 
14998000    129.76861   -4994.2621   -4743.9924   -4994.2621            0    4756.8555    19.698025    19.866023    20.666142    8087.1041    4995.0842    5297.9792    3977.5032   -354.37402     579.4079   -342.47681   -4182.9588 
14999000    120.50252   -4996.7368   -4764.3375   -4996.7368            0    6234.7637    19.858435    19.803854    20.510538    8066.2519    5158.4269    6580.9299    6964.9344     262.9689    1128.3412   -587.94836   -4030.8923 
15000000    129.96571   -4985.6024   -4734.9526   -4985.6024            0    6128.9566    19.733386    19.880912    20.614296    8087.3535    6063.8255    5413.5094    6909.5348   -150.65942    1514.2735    883.54144   -4012.0682 
Loop time of 365.104 on 64 procs for 250000 steps with 972 atoms

Performance: 118.323 ns/day, 0.203 hours/ns, 684.737 timesteps/s
99.0% CPU use with 64 MPI tasks x 1 OpenMP threads

MPI task timing breakdown:
Section |  min time  |  avg time  |  max time  |%varavg| %total
---------------------------------------------------------------
Pair    | 19.213     | 28.382     | 38.859     |  87.5 |  7.77
Bond    | 0.26144    | 0.27698    | 0.288      |   1.1 |  0.08
Kspace  | 144.43     | 154.78     | 164.07     |  37.9 | 42.39
Neigh   | 1.016      | 1.0438     | 1.0661     |   1.1 |  0.29
Comm    | 84.311     | 85.739     | 87.116     |   8.3 | 23.48
Output  | 0.55464    | 0.55544    | 0.55683    |   0.0 |  0.15
Modify  | 87.612     | 88.561     | 89.643     |   6.4 | 24.26
Other   |            | 5.766      |            |       |  1.58

Nlocal:        15.1875 ave          19 max          12 min
Histogram: 9 6 8 0 13 8 0 12 5 3
Nghost:        2308.02 ave        2344 max        2280 min
Histogram: 6 10 4 9 6 11 7 7 2 2
Neighs:        4863.55 ave        6709 max        3210 min
Histogram: 2 4 12 9 7 9 12 5 3 1

Total # of neighbors = 311267
Ave neighs/atom = 320.23354
Ave special neighs/atom = 2.0000000
Neighbor list builds = 2666
Dangerous builds = 0

unfix		3
unfix		2
unfix		1

write_data	data.final.${pid}
write_data	data.final.1
System init for write_data ...
PPPM initialization ...
  extracting TIP4P info from pair style
  using 12-bit tables for long-range coulomb (../kspace.cpp:340)
  G vector (1/distance) = 0.37195934
  grid = 24 24 24
  stencil order = 5
  estimated absolute RMS force accuracy = 0.003540153
  estimated relative force accuracy = 1.0661066e-05
  using double precision FFTW3
  3d grid and FFT values/proc = 2197 216
Last active /omp style is kspace_style pppm/tip4p/omp
WARNING: Not all mixed pair coeffs generated from mixing. Use write_data with 'pair ij' option to store all pair coeffs. (../write_data.cpp:312)

write_restart   restart.lmp.${pid}
write_restart   restart.lmp.1
System init for write_restart ...
PPPM initialization ...
  extracting TIP4P info from pair style
  using 12-bit tables for long-range coulomb (../kspace.cpp:340)
  G vector (1/distance) = 0.37195934
  grid = 24 24 24
  stencil order = 5
  estimated absolute RMS force accuracy = 0.003540153
  estimated relative force accuracy = 1.0661066e-05
  using double precision FFTW3
  3d grid and FFT values/proc = 2197 216
Last active /omp style is kspace_style pppm/tip4p/omp
Total wall time: 0:06:05
