LAMMPS data file via write_data, version 30 Jul 2021, timestep = 30500000

1296 atoms
2 atom types
864 bonds
1 bond types
432 angles
1 angle types

-10.598907015298414 12.578907015298414 xlo xhi
-9.212309526641445 12.202307526641444 ylo yhi
0.09561602644733647 21.7643829735516 zlo zhi
-9.075043276365404 1.9337412163746628 2.781251599368426 xy xz yz

Masses

1 1.008
2 15.999

Pair Coeffs # lj/cut/tip4p/long/omp

1 0 0
2 0.21084 3.1668

Bond Coeffs # harmonic/omp

1 450 0.9572

Angle Coeffs # harmonic/omp

1 55 104.52

Atoms # full

280 94 2 -1.1794 -9.351862550789837 -4.445760149960443 1.4892466750984816 1 1 0
270 90 1 0.5897 -8.30228015608219 -7.386075847381626 1.9439881548461357 1 1 0
269 90 1 0.5897 -8.91982922879925 -6.043882917282135 2.274426705323731 1 1 0
268 90 2 -1.1794 -8.885349777957538 -6.954238163412599 2.5683150423868004 1 1 0
314 105 1 0.5897 -8.584626331447568 -6.6874764494093295 4.445969268385467 1 1 0
299 100 1 0.5897 -6.479452903231666 -7.758811569703276 3.954728437905379 1 1 0
163 55 2 -1.1794 -7.1527541410060085 -7.855767600949438 0.7098281253941727 1 1 0
164 55 1 0.5897 -6.4274539617515405 -8.293517497127679 1.1555061118980536 1 1 0
298 100 2 -1.1794 -5.794026065098844 -7.090752389578446 3.9427553638933683 1 1 0
73 25 2 -1.1794 -8.228146879545257 -3.6837022642923927 4.768140471737868 1 0 0
324 108 1 0.5897 -6.983501117369782 -4.176952384621248 3.4951750079023287 1 1 0
275 92 1 0.5897 -10.400263705373234 -7.819257143489796 3.3453061818077434 1 1 0
282 94 1 0.5897 -10.216260738684449 -4.06542816400983 1.6455730683793495 1 1 0
84 28 1 0.5897 -8.100219116134596 -0.5252265778471639 4.074707105874362 1 0 0
75 25 1 0.5897 -9.006838200685232 -3.306636959197898 4.3585424007373526 1 0 0
281 94 1 0.5897 -8.752906127101062 -3.6995827282351508 1.5163608032111064 1 1 0
301 101 2 -1.1794 -7.8876497231446825 -2.046277556492674 1.3573990540343253 1 1 0
53 18 1 0.5897 -12.371812889011505 0.9881412733967352 2.3044259493859847 1 0 0
307 103 2 -1.1794 -2.521712930782078 -0.7738375860086144 0.8064071301115907 1 1 0
317 106 1 0.5897 -1.3303111675659363 -3.794512915283139 1.4068816292799995 1 1 0
322 108 2 -1.1794 -6.452482115350663 -4.52075128882161 2.776802886776083 1 1 0
300 100 1 0.5897 -4.977516725142813 -7.583130402929278 4.027466439952638 1 1 0
199 67 2 -1.1794 0.4030725738903165 -7.999697500938894 0.7788236819316515 1 1 0
256 86 2 -1.1794 -11.908508084663168 -3.3257790220850296 1.755544840033292 1 1 0
258 86 1 0.5897 -12.439898724077986 -2.738753767124873 1.21763422077992 1 1 0
201 67 1 0.5897 0.29060919408116703 -8.663519182691314 0.09842141907358497 1 1 0
90 30 1 0.5897 -3.7891546572937624 -0.18818288752856738 2.001034412464402 1 0 0
69 23 1 0.5897 -11.069748672075395 -2.5535546619473077 3.2805487187974967 1 0 0
272 91 1 0.5897 -9.28280247653982 -0.9608556555855312 1.2498239153848971 1 1 0
83 28 1 0.5897 -9.595367015139182 -0.7531414277539437 4.142068583448147 1 0 0
82 28 2 -1.1794 -8.930642557691659 -0.06723419345332537 4.204777960426256 1 0 0
271 91 2 -1.1794 -10.127399515824784 -0.7039861655635882 0.8797253853501826 1 1 0
98 33 1 0.5897 -11.760848377222914 0.3237904693335967 4.2995605659053595 1 0 0
54 18 1 0.5897 -11.476256908861592 -0.19907175960929102 2.0206050039496404 1 0 0
67 23 2 -1.1794 -10.61780447759715 -2.329856683369914 4.094164010640418 1 0 0
68 23 1 0.5897 -11.236441748634967 -2.5664823288524943 4.785200456012986 1 0 0
52 18 2 -1.1794 -12.226287384924841 0.07414222432343465 2.5488527762412967 1 0 0
261 87 1 0.5897 -6.6637976112943305 -4.882842192660185 1.0369683410319097 1 1 0
323 108 1 0.5897 -6.10043999214623 -5.345431240613731 3.1119042941308295 1 1 0
310 104 2 -1.1794 -3.4006091510806193 -8.406893111865568 3.7907902357783776 1 1 0
3 1 1 0.5897 -1.2794230283554473 -3.405638016361954 4.6333169412756 0 0 0
103 35 2 -1.1794 -2.7120441398758217 -2.4854539667640143 3.9665328839649354 1 0 0
89 30 1 0.5897 -4.4858639137869485 1.1135787504837111 2.335791617550147 1 0 0
99 33 1 0.5897 -11.55455398465589 1.6179104137842764 5.057636453948898 1 0 0
59 20 1 0.5897 -13.521930411998756 -0.9389713003998708 3.3378663002701816 1 0 0
88 30 2 -1.1794 -4.3982856771240835 0.20550528261468237 2.6257009638283817 1 0 0
302 101 1 0.5897 -7.418678737119195 -1.8358709956320443 2.1649013208140997 1 1 0
107 36 1 0.5897 -9.147138140102639 1.5849394929607605 3.508546178126972 1 0 0
306 102 1 0.5897 -0.8129144723115456 -7.456647297370035 1.9989334445122766 1 1 0
304 102 2 -1.1794 -1.3369031848856405 -6.976836416759372 2.640385532801236 1 1 0
318 106 1 0.5897 -2.7669407505753227 -4.2415323409157 1.5748524445757974 1 1 0
242 81 1 0.5897 -0.8166051484830383 -6.777939374834594 4.436332952641154 0 1 0
305 102 1 0.5897 -1.3827614577034861 -6.085499588347949 2.2943677205023616 1 1 0
316 106 2 -1.1794 -1.871205060516468 -4.575378114651025 1.5250068198348692 1 1 0
311 104 1 0.5897 -2.6602886767518763 -7.945924112939503 3.396228161996799 1 1 0
293 98 1 0.5897 -4.97592507682263 -3.7423882740878733 2.065525295940331 1 1 0
303 101 1 0.5897 -7.225276134809013 -1.9761173956279743 0.6699613816735205 1 1 0
294 98 1 0.5897 -4.531490158439857 -2.72789203173948 1.0333993880108086 1 1 0
243 81 1 0.5897 -0.8056629889235882 -5.524958447000095 5.2859767628593275 0 1 0
96 32 1 0.5897 -6.099205124646171 -1.7586979468480308 4.4102699066119975 1 0 0
95 32 1 0.5897 -5.731253845727728 -0.7798459609337698 3.3155230181501185 1 0 0
105 35 1 0.5897 -3.146122176275605 -2.712090782243026 3.1440524421763887 1 0 0
94 32 2 -1.1794 -6.453486273896485 -1.3195460662621379 3.637007357607788 1 0 0
104 35 1 0.5897 -3.4244474355320857 -2.4122308336137124 4.601629382667096 1 0 0
26 9 1 0.5897 -4.315670169840355 0.34816033667396695 4.429527696287121 0 0 0
292 98 2 -1.1794 -4.194549923613695 -3.3315793378896563 1.6954790852334687 1 1 0
241 81 2 -1.1794 -0.8751444298570039 -6.477937966240095 5.3434234585689016 0 1 0
97 33 2 -1.1794 -11.74355446236341 0.6881419550128367 5.184542312662443 1 0 0
260 87 1 0.5897 -6.776332817963426 -6.153067103656998 0.2209784782917579 1 1 0
313 105 2 -1.1794 -8.60165866072333 -6.409103626957736 5.361643676540741 1 1 0
259 87 2 -1.1794 -6.597834254491344 -5.215944447353481 0.1420216900733679 1 1 0
315 105 1 0.5897 -8.507672877686364 -5.457209625683804 5.324878108770931 1 1 0
44 15 1 0.5897 -9.803231976867472 0.8655870147163736 0.3075836325512683 1 0 0
257 86 1 0.5897 -12.545911807590285 -3.8625652851337504 2.226525058157969 1 1 0
25 9 2 -1.1794 -4.217746150403722 0.6328798164498988 5.3381492010227385 0 0 0
273 91 1 0.5897 -10.286087293900431 -1.338471139935045 0.180796767304718 1 1 0
27 9 1 0.5897 -4.063339858069348 1.5757160055612403 5.278883341851585 0 0 0
633 211 1 0.5897 -5.636419637880097 -5.976339979370671 5.284529496544707 1 1 0
1010 337 1 0.5897 -12.702620172107965 1.4073554754787878 0.09605000835530464 0 -1 1
420 140 1 0.5897 -9.02895814039157 -6.350802092912811 9.970195827649666 1 0 0
618 206 1 0.5897 -7.661118980410511 -7.5454495005429365 6.710604000663216 1 1 0
413 138 1 0.5897 -7.601288419804987 -3.748423273726872 7.713792537325014 1 0 0
419 140 1 0.5897 -8.66135271588008 -5.428031566740928 8.827668428769933 1 0 0
418 140 2 -1.1794 -9.40279368172917 -5.713590805983269 9.361484819148977 1 0 0
414 138 1 0.5897 -6.69137854849971 -4.884934861827883 7.29855908077955 1 0 0
350 117 1 0.5897 -6.916306374434029 -4.379151624910901 9.818528893193609 0 0 0
412 138 2 -1.1794 -7.320539544405621 -4.62638575740881 7.972014273867073 1 0 0
429 143 1 0.5897 -6.168471332461482 -7.341714773417426 8.77503495269877 1 0 0
427 143 2 -1.1794 -5.814762652711496 -7.1243398314606114 9.637530272100074 1 0 0
428 143 1 0.5897 -6.550627257972112 -7.24857061923337 10.236948238177938 1 0 0
627 209 1 0.5897 -9.96001985371411 -6.803347598755605 6.619013958971248 1 1 0
351 117 1 0.5897 -6.760150923681456 -3.0865935062292857 10.591116838423536 0 0 0
330 110 1 0.5897 -2.9727373081597257 -0.3587339411435231 6.50649160457824 0 0 0
435 145 1 0.5897 -7.362280622290519 -1.0060563127426203 9.590292525357919 0 0 0
425 142 1 0.5897 -7.235120649155629 -1.478102388733161 7.110717438429591 1 0 0
400 134 2 -1.1794 -10.403031748169623 -0.7013627798418849 7.34258898924019 1 0 0
536 179 1 0.5897 -9.492555031753415 -0.18156020359417724 10.12928010906158 1 0 0
402 134 1 0.5897 -10.689245656772368 -0.1524655574744429 6.612452070175042 1 0 0
526 176 2 -1.1794 -12.367147261314736 1.0682831637435886 9.266890081900032 1 0 0
405 135 1 0.5897 -4.868407880195828 -2.574905993235973 6.502722650402086 1 0 0
537 179 1 0.5897 -9.358443447718287 -0.11606745839656618 8.622739978553472 1 0 0
426 142 1 0.5897 -8.738782565850071 -1.648309071597862 7.065987658276773 1 0 0
401 134 1 0.5897 -11.213289102459976 -1.0576643440850368 7.706973615427545 1 0 0
527 176 1 0.5897 -11.743436813106205 1.578693251064184 8.750442266991282 1 0 0
535 179 2 -1.1794 -8.891374975513845 0.08494803486181368 9.433731341189674 1 0 0
424 142 2 -1.1794 -7.919706306622345 -2.142582120940343 7.0328244511318445 1 0 0
528 176 1 0.5897 -11.832643461459428 0.6446401456500439 9.93856189289479 1 0 0
522 174 1 0.5897 -9.840058023499012 2.193071682823893 7.425828675548252 1 0 0
337 113 2 -1.1794 -6.282410297769187 0.06652394966325659 6.943865014190177 0 0 0
356 119 1 0.5897 1.0514073186261719 -6.853101134233826 10.322294136253962 0 0 0
631 211 2 -1.1794 -5.430021468191778 -5.377719014653454 6.002369924307862 1 1 0
415 139 2 -1.1794 -8.549927944559943 1.622080319297302 6.334512377810528 1 0 0
329 110 1 0.5897 -3.2257214742016433 -1.4211615389890664 7.554958780217581 0 0 0
454 152 2 -1.1794 -4.7933515956637525 1.1332170155852843 9.130027072481738 0 0 0
335 112 1 0.5897 -4.95976033008725 -5.4750639187838175 9.477813045110803 0 0 0
433 145 2 -1.1794 -6.541503077808497 -1.339168112774403 9.953139493585132 0 0 0
410 137 1 0.5897 -13.359054596134778 0.24718726273994385 7.893189664717626 1 0 0
465 155 1 0.5897 -1.5858367249413412 -0.33309768659492 8.558671441543334 0 0 0
555 185 1 0.5897 -2.5307631423271495 -6.63179514810944 6.237687318905229 0 1 0
416 139 1 0.5897 -7.770475418647602 1.2066104396083208 6.703495802475181 1 0 0
347 116 1 0.5897 -1.1147078466060911 -5.489420224385397 8.767744963705901 0 0 0
348 116 1 0.5897 -1.416880203079474 -6.485057648095295 9.867478718248318 0 0 0
336 112 1 0.5897 -3.4647743843258034 -5.238867097202991 9.4433519235272 0 0 0
359 120 1 0.5897 -4.349623034549856 -3.1638230398323817 8.577586158563623 0 0 0
346 116 2 -1.1794 -1.8300603871524395 -5.990139198436443 9.159915590838692 0 0 0
632 211 1 0.5897 -4.731466849529429 -5.8168079813373 6.487690476962403 1 1 0
546 182 1 0.5897 0.10139707842699686 -7.375122510533933 6.694036255212428 0 1 0
553 185 2 -1.1794 -3.1841213461475277 -6.807845011514868 6.914710204838761 0 1 0
554 185 1 0.5897 -2.7504075350332755 -6.570357394124608 7.734317348589955 0 1 0
334 112 2 -1.1794 -4.3016912553109545 -4.7815637987730755 9.525387161896534 0 0 0
442 148 2 -1.1794 -7.257250029243675 2.3420519028225737 9.584916351480418 0 0 0
338 113 1 0.5897 -5.902597783721867 0.3180369592028427 7.785733335330833 0 0 0
464 155 1 0.5897 -1.780717114249052 -0.026071963145422927 10.028253670659021 0 0 0
456 152 1 0.5897 -4.413277727802415 0.4784194118402869 9.715777590332378 0 0 0
360 120 1 0.5897 -5.2093495504867615 -1.9800397174776379 8.966898999178511 0 0 0
328 110 2 -1.1794 -2.521720836406965 -0.950455014397452 7.108793343139094 0 0 0
339 113 1 0.5897 -5.633651091312561 0.34173449736861095 6.296094604882032 0 0 0
455 152 1 0.5897 -4.055980799578269 1.6915599811034738 8.883520106549248 0 0 0
411 137 1 0.5897 -13.037843215979978 0.28708895473877405 6.414286715529767 1 0 0
444 148 1 0.5897 -6.393679216045999 1.9517792828344636 9.449993385368916 0 0 0
358 120 2 -1.1794 -4.566769427814371 -2.2682237667967673 8.318610370249512 0 0 0
443 148 1 0.5897 -7.867539850410225 1.6094999904150136 9.500213945238583 0 0 0
626 209 1 0.5897 -10.335542449197504 -6.5100218850276805 8.05597160064335 1 1 0
616 206 2 -1.1794 -7.26546553549673 -8.055569293554363 7.417392081979036 1 1 0
349 117 2 -1.1794 -6.978605603528511 -4.012137978686429 10.700379816927589 0 0 0
434 145 1 0.5897 -6.413109256338409 -0.8363393884424735 10.757457641789438 0 0 0
544 182 2 -1.1794 0.4877438144385984 -7.853802280131456 7.427460549140807 0 1 0
417 139 1 0.5897 -8.816508857472886 1.0416831853707489 5.621542296658857 1 0 0
403 135 2 -1.1794 -4.990155561020142 -2.7502251762375796 5.569614148277606 1 0 0
404 135 1 0.5897 -5.105208455324653 -3.699043570959585 5.516721953995949 1 0 0
74 25 1 0.5897 -8.0905278527649 -3.154963128605319 5.554108806920294 1 0 0
652 218 2 -1.1794 -5.562143555864667 -5.470105379576196 12.609900403336674 0 0 0
780 260 1 0.5897 -7.549920490415532 -3.730657111673011 15.21530711309858 0 0 0
779 260 1 0.5897 -7.031908880625571 -2.95487510511225 14.02291516135124 0 0 0
778 260 2 -1.1794 -7.8405886482440295 -3.260945200969541 14.433524652094524 0 0 0
768 256 1 0.5897 -9.45306364542525 -2.644352061550829 14.685143039412104 0 0 0
654 218 1 0.5897 -5.95757286631615 -4.911374433662953 11.940747053252464 0 0 0
653 218 1 0.5897 -6.289451296086087 -5.994259582263954 12.94535507360747 0 0 0
662 221 1 0.5897 -8.734760560885988 -4.142639320321562 13.07305367054132 0 0 0
661 221 2 -1.1794 -9.320833954767531 -4.4373079189681235 12.375951351706137 0 0 0
663 221 1 0.5897 -8.762009786280593 -4.494928147148016 11.600952853586326 0 0 0
684 228 1 0.5897 -8.359819884414469 -6.5625246103432096 14.186058157872521 0 0 0
682 228 2 -1.1794 -7.655833515234894 -6.91817943239844 13.643698402126475 0 0 0
836 279 1 0.5897 -11.218022062556722 -1.3497818529047665 11.271661456365178 1 0 0
771 257 1 0.5897 -11.500762719503207 2.6576565410810247 11.867675795917629 0 0 0
797 266 1 0.5897 -1.7232077409623923 1.2543882571246066 13.134962784549044 0 0 0
727 243 2 -1.1794 -8.188711092625931 -7.5722194832917005 10.986667276987319 1 0 0
766 256 2 -1.1794 -10.325900047280873 -2.2719079468571532 14.810515716980477 0 0 0
757 253 2 -1.1794 -9.641846944329773 -5.910709067258026 15.344370351093106 0 0 0
770 257 1 0.5897 -11.843804642175154 2.844738620421376 13.330285826634357 0 0 0
790 264 2 -1.1794 -10.734733490102974 0.29439717931265363 13.841468821617699 0 0 0
762 254 1 0.5897 -8.998421757660672 2.217534058793687 11.976561480781601 0 0 0
761 254 1 0.5897 -9.334773460777955 1.1677460094033538 13.014268877984273 0 0 0
817 273 2 -1.1794 -5.395262366944372 -1.560105648422251 16.221552363299146 0 0 0
792 264 1 0.5897 -11.395283480909578 0.5947300690378601 14.465739277590849 0 0 0
865 289 2 -1.1794 -12.67796201862227 1.1581513035887028 15.679182418165242 0 0 0
760 254 2 -1.1794 -8.611310377582468 1.6993279912169754 12.682194396713555 0 0 0
837 279 1 0.5897 -10.81074605298626 -0.12462992776414694 12.062293510273225 1 0 0
791 264 1 0.5897 -10.561227012752934 -0.612650295553907 14.09341801555103 0 0 0
769 257 2 -1.1794 -12.222729523954218 2.581673648779784 12.491553412390845 0 0 0
788 263 1 0.5897 -4.997992282079307 -4.6855504952928335 15.432530276016985 0 0 0
669 223 1 0.5897 -3.889606393500377 -3.6751418972222236 10.957785608293513 0 0 0
896 299 1 0.5897 -7.8350462650432044 2.3983764536281225 15.575699754850897 0 0 0
805 269 2 -1.1794 -4.541154021828206 2.4827249774185454 12.445574468763395 0 0 0
924 308 1 0.5897 -2.616920938969015 2.979664020584517 15.24831396619176 0 0 0
806 269 1 0.5897 -4.063793025743356 2.605904974994722 13.266075741441881 0 0 0
897 299 1 0.5897 -7.730285058149963 2.3662992273901686 14.06575967253436 0 0 0
678 226 1 0.5897 -4.050805700000414 -6.341537468180626 12.459292136692406 0 0 0
802 268 2 -1.1794 -2.6754524958763737 -2.352103321011704 14.907431936034136 0 0 0
816 272 1 0.5897 0.32403507269457954 -4.107880780302338 15.359276059073864 0 0 0
763 255 2 -1.1794 -3.377982479447846 -0.36927032197448106 11.037416713868016 0 0 0
667 223 2 -1.1794 -3.696395877445158 -3.0514413829633433 11.65772447472439 0 0 0
789 263 1 0.5897 -4.5132809089060055 -4.841261927112416 14.0067983974049 0 0 0
676 226 2 -1.1794 -3.197997768188456 -6.744284092831102 12.295625926780552 0 0 0
814 272 2 -1.1794 -0.11238597451841059 -3.5808295608404777 14.689897265801362 0 0 0
785 262 1 0.5897 -5.6636574453249215 0.9535522201285556 12.29150903255165 0 0 0
657 219 1 0.5897 -0.32346187318793795 -7.183024093690777 12.155844198102697 0 0 0
803 268 1 0.5897 -3.3061308606421154 -3.0454966578941605 15.10163112857 0 0 0
795 265 1 0.5897 -2.760913936041046 -5.722365874664753 15.266716302980319 0 0 0
720 240 1 0.5897 -0.6067768606045423 -6.64156574550794 14.609538560186792 0 0 0
804 268 1 0.5897 -1.8344208216211282 -2.8043782111028293 14.841103158480285 0 0 0
698 233 1 0.5897 -0.9970267159763733 -4.447933697080124 13.33314266253167 0 0 0
699 233 1 0.5897 -0.78524075968072 -4.316701287927415 11.839869706360934 0 0 0
697 233 2 -1.1794 -1.4271114833169936 -4.599014305303507 12.491437123029332 0 0 0
718 240 2 -1.1794 0.06595919879939771 -6.923318505648153 13.989634837987197 0 0 0
677 226 1 0.5897 -2.5788635875017203 -6.014775171126558 12.32305625457972 0 0 0
668 223 1 0.5897 -2.888247590587511 -3.3777439488543948 12.0536048789586 0 0 0
793 265 2 -1.1794 -1.9914228433415424 -6.11092579966638 15.682900054732082 0 0 0
773 258 1 0.5897 -5.697740764654507 -1.193030568935285 13.154636077550144 0 0 0
774 258 1 0.5897 -4.854348334247181 -2.425543028029721 12.906315880391457 0 0 0
818 273 1 0.5897 -5.403379109954445 -1.9002344551621286 15.326852054654267 0 0 0
787 263 2 -1.1794 -4.225264793844035 -4.57221348443437 14.87910392247306 0 0 0
901 301 2 -1.1794 -4.878090093340527 1.1065695951209396 15.617992866043837 0 0 0
772 258 2 -1.1794 -5.522861790435582 -2.071342931136771 13.492725357418022 0 0 0
827 276 1 0.5897 -2.9597780517095647 -0.7916561867763097 14.006413446335559 0 0 0
765 255 1 0.5897 -3.2404860884025624 -0.09395748664767467 11.943807218793467 0 0 0
784 262 2 -1.1794 -6.30793008156178 0.2479360586867667 12.23424208898284 0 0 0
828 276 1 0.5897 -3.709267018508129 0.4669894577605831 14.388665219518893 0 0 0
826 276 2 -1.1794 -3.1064216504696436 0.11425569245685985 13.73414625416014 0 0 0
740 247 1 0.5897 -10.799667120038157 -3.3902961225097474 12.020882937515843 1 0 0
895 299 2 -1.1794 -7.208929545663827 2.495010872399458 14.858155897992408 0 0 0
903 301 1 0.5897 -5.720811871853348 1.3871646685703034 15.261081510056632 0 0 0
786 262 1 0.5897 -7.154694845663807 0.6938530203953412 12.255103555093791 0 0 0
888 296 1 0.5897 -10.327590338477366 3.171855948744474 15.296988765457087 0 0 0
729 243 1 0.5897 -8.192658022981155 -7.247046577014567 11.886939397006373 1 0 0
764 255 1 0.5897 -3.5334499964594253 -1.312101056437478 11.093943451804575 0 0 0
767 256 1 0.5897 -10.91086883892393 -3.029517539518862 14.820781447483679 0 0 0
819 273 1 0.5897 -5.179019962377865 -0.6327562726639346 16.123807394179956 0 0 0
655 219 2 -1.1794 -0.415400344564981 -7.435591668198718 11.237146749201745 0 0 0
807 269 1 0.5897 -3.898494733730871 2.675216973788178 11.76280838934345 0 0 0
902 301 1 0.5897 -4.650255133988842 1.7831798746549907 16.255602364276918 0 0 0
689 230 1 0.5897 1.3104455681035478 -5.873974207342961 13.208436792159565 0 0 0
866 289 1 0.5897 -12.347840786461813 1.7779906980689937 16.329624176919026 0 0 0
794 265 1 0.5897 -1.7065959527300087 -5.4557213938083216 16.319953796571674 0 0 0
1101 367 1 0.5897 -10.164499081654595 -1.1772858955090815 16.32462860746601 0 0 0
1137 379 1 0.5897 -2.486174032851748 -1.112298504235337 16.289081425023312 0 0 0
1087 363 2 -1.1794 -6.528392599441148 -4.887221087527211 16.341982605717355 0 0 0
758 253 1 0.5897 -9.428919790800684 -5.393079885984688 16.120883689724714 0 0 0
835 279 2 -1.1794 -10.927766443494452 -0.4435974431865066 11.16741231025336 1 0 0
1150 384 2 -1.1794 -6.161401624910839 -4.276331391447053 19.15852031810202 0 0 0
1152 384 1 0.5897 -6.718180357996635 -3.8710034081993117 19.823311155771435 0 0 0
1227 409 1 0.5897 -8.85503866921183 -2.9891834404834263 20.711587213253253 0 0 0
1109 370 1 0.5897 -8.677896558756128 -3.566881516317844 17.707349763605293 0 0 0
1089 363 1 0.5897 -6.456755352506558 -4.554823976834012 17.236760036264606 0 0 0
1151 384 1 0.5897 -6.143541807356697 -5.204093026371547 19.39355619590544 0 0 0
1108 370 2 -1.1794 -9.32431453517655 -4.266091454335134 17.60986650122816 0 0 0
1225 409 2 -1.1794 -7.986234977707177 -3.299638303543592 20.966719828067056 0 0 0
1132 378 2 -1.1794 -1.154306874174365 -6.713548660953066 18.889022159609915 0 0 0
1097 366 1 0.5897 -9.041742090590258 -5.78617006632273 18.479444753496324 0 0 0
1178 393 1 0.5897 -0.9608963431939941 -6.362520277540683 20.73084178201065 0 0 0
1231 411 2 -1.1794 -1.5375835184885123 2.078589621251119 16.478838348172488 0 0 0
1130 377 1 0.5897 -7.218609888711326 -1.8474950310978713 18.612535950611345 0 0 0
1248 416 1 0.5897 -5.659001719269532 -1.515919960439029 20.546399384029534 0 0 0
1232 411 1 0.5897 -1.7225946308210673 1.1466453455188201 16.59522795290185 0 0 0
1129 377 2 -1.1794 -7.650338268512577 -2.0265951880136956 17.777191194567344 0 0 0
1142 381 1 0.5897 -8.48522465489761 -6.188893424517925 20.682085701508043 0 0 0
1131 377 1 0.5897 -6.942150857569935 -2.013338349780547 17.13335270481742 0 0 0
1143 381 1 0.5897 -8.410993756322004 -4.945226612937498 21.542172324502474 0 0 0
1246 416 2 -1.1794 -6.176599868373077 -1.0105293379913398 19.91951753534545 0 0 0
1125 375 1 0.5897 1.3299580518804497 -4.817077147904056 17.538402246070426 0 0 0
1295 432 1 0.5897 -1.114867729057961 1.7950811498378538 19.578507416781278 0 0 0
1187 396 1 0.5897 1.7133972461768199 -5.4873742166300925 19.528575319473042 0 0 0
1121 374 1 0.5897 -4.73021846455757 -3.4136942879468144 18.510701728615807 0 0 0
1219 407 2 -1.1794 -10.294610941812296 -2.143596643847409 20.391200761474707 0 0 0
1099 367 2 -1.1794 -9.945002038193499 -0.6391894377830187 17.085233172535723 0 0 0
1236 412 1 0.5897 -7.845427148398618 -0.2779217803500291 20.281300834422616 0 0 0
1009 337 2 -1.1794 -10.991458853852265 3.6048364667999664 21.03961173489936 0 -1 0
1100 367 1 0.5897 -9.109058271813105 -0.9890903290707094 17.39356794134663 0 0 0
1234 412 2 -1.1794 -8.663388489964866 0.21677189590886137 20.33133100393662 0 0 0
1259 420 1 0.5897 -9.006676264573237 1.7622889961510317 19.507648460500917 0 0 0
1258 420 2 -1.1794 -9.087548400708883 2.6418329649937817 19.138627563746596 0 0 0
1260 420 1 0.5897 -9.662846734195414 3.105468349677288 19.74716544774784 0 0 0
1216 406 2 -1.1794 -12.181540179503498 2.897510476550657 17.59855831046788 0 0 0
1197 399 1 0.5897 -9.240880400662512 2.262915539077179 17.34419463787399 0 0 0
1206 402 1 0.5897 -11.176212592736277 -0.06703249957506863 18.293779170828458 0 0 0
1235 412 1 0.5897 -9.346134908521874 -0.45251065068533336 20.377992834224514 0 0 0
1196 399 1 0.5897 -9.546645985696674 1.0691144694551298 16.464811312779837 0 0 0
1217 406 1 0.5897 -11.560049492572192 3.6254933621123175 17.605897489352103 0 0 0
1186 396 2 -1.1794 1.6458615510819676 -4.5905795648275545 19.200683816985354 0 0 0
1166 389 1 0.5897 0.4051614321730863 -1.694305480096575 18.57550868877906 0 0 0
1011 337 1 0.5897 -11.826654872511757 3.9377999659657252 20.711151867341492 0 -1 0
1204 402 2 -1.1794 -11.727527888363655 0.4375784094486548 18.89182718085305 0 0 0
1250 417 1 0.5897 -11.482198820885436 0.5978839702088976 20.771705373907494 0 0 0
1045 349 2 -1.1794 -3.1095725148758895 3.7122337715286626 21.17342469305887 0 -1 0
1141 381 2 -1.1794 -8.480304061865354 -5.8985301208970515 21.594174755081724 0 0 0
1165 389 2 -1.1794 0.007545631595663238 -2.0310594234301744 17.772540906236323 0 0 0
1047 349 1 0.5897 -3.942743683564963 4.023106717788702 20.819187586001767 0 -1 0
1124 375 1 0.5897 1.1845687084648233 -5.974060493473466 16.572896444637976 0 0 0
1252 418 2 -1.1794 -4.51341185415291 2.850712069634266 17.74473562764122 0 0 0
1240 414 2 -1.1794 -3.9717276176213794 0.4781419066788146 18.86775112031402 0 0 0
1110 370 1 0.5897 -10.16600454281483 -3.838523769218696 17.76804520310793 0 0 0
1221 407 1 0.5897 -10.634690791365939 -2.264689684243999 19.5046658611409 0 0 0
1247 416 1 0.5897 -5.52691226713788 -0.564008063754077 19.376591759700673 0 0 0
1249 417 2 -1.1794 -11.570167017007927 0.8690549703079391 21.685471115070015 0 0 0
1145 382 1 0.5897 -1.091225404750217 -3.5287866675528594 17.765805748581343 0 0 0
1122 374 1 0.5897 -4.40095074202903 -2.3486419734762 17.486362358999585 0 0 0
1242 414 1 0.5897 -3.379621942308079 0.11780152214626938 18.207597454240883 0 0 0
1270 424 2 -1.1794 -0.8906400300917383 0.2898730763409709 20.358344959738297 0 0 0
1271 424 1 0.5897 -1.5487071787947517 -0.4024814327338575 20.296331647317707 0 0 0
1144 382 2 -1.1794 -1.7423711433942 -4.227622568635474 17.70335808231775 0 0 0
1263 421 1 0.5897 -1.212523918630401 -3.2120509218802127 20.544665642414145 0 0 0
1133 378 1 0.5897 -1.3452807548771322 -5.840350050261063 18.54642413734286 0 0 0
1188 396 1 0.5897 0.9909199815564111 -4.177863508758797 19.763679888950847 0 0 0
1257 419 1 0.5897 -3.021410546780084 -2.2625284875447527 19.458240870247195 0 0 0
1255 419 2 -1.1794 -2.534145485983 -2.0084992836620668 20.242018003258366 0 0 0
1261 421 2 -1.1794 -0.35952539405858275 -3.538172301912125 20.831611123164947 0 0 0
1256 419 1 0.5897 -3.1761262890492423 -2.058071051376559 20.950279815015953 0 0 0
1120 374 2 -1.1794 -3.999222486845766 -2.9159372347629127 18.14446394555892 0 0 0
1146 382 1 0.5897 -2.5844799803525476 -3.7779673634356943 17.773691961539043 0 0 0
1205 402 1 0.5897 -11.7977484953918 1.300391894013666 18.483252743709883 0 0 0
1177 393 2 -1.1794 -0.8189500192472128 -6.120858509269736 21.64609964294356 0 0 0
1296 432 1 0.5897 -1.8782254333497423 3.085092963961097 19.791092565552837 0 0 0
1254 418 1 0.5897 -5.348987470678105 3.2371095641528314 18.006967722224225 0 0 0
1135 379 2 -1.1794 -2.1931022940466285 -0.5344797322616088 16.993700998637536 0 0 0
1286 429 1 0.5897 -3.6147008816877113 0.8174206143493148 20.51605335894132 0 0 0
1136 379 1 0.5897 -1.4099539687897789 -0.9599668485175119 17.342912056287496 0 0 0
1088 363 1 0.5897 -6.69885120256957 -5.823321596867792 16.44664510347735 0 0 0
1241 414 1 0.5897 -4.245524015952553 1.3224675711574 18.5093205486965 0 0 0
1195 399 2 -1.1794 -9.476251324797108 2.023603828063697 16.447765095532397 0 0 0
1233 411 1 0.5897 -1.4796411021168527 2.424797872515658 17.369357554677514 0 0 0
1096 366 2 -1.1794 -8.872255966664675 -6.646570931660735 18.863248180435257 0 0 0
1229 410 1 0.5897 -7.712515099261466 3.7173712081804826 18.58879701035046 0 0 0
1251 417 1 0.5897 -11.34817065123629 1.8001722904167572 21.681917410493682 0 0 0
1123 375 2 -1.1794 1.2705576147768305 -5.021242584546039 16.605112647883736 0 0 0
1179 393 1 0.5897 -0.5603938119986989 -5.199776008654966 21.61378373499759 0 0 0
1272 424 1 0.5897 -0.05368427419464794 -0.1745928527092957 20.366506784944228 0 0 0
1218 406 1 0.5897 -13.042044710705994 3.316422692908091 17.61671222541311 0 0 0
1285 429 2 -1.1794 -3.7096872007224055 1.0761814503219966 21.43271027462532 0 0 0
1287 429 1 0.5897 -3.532395664710452 2.0168446632711863 21.436146213909453 0 0 0
1253 418 1 0.5897 -3.9044507421720533 3.5888790832369484 17.721508916404254 0 0 0
1262 421 1 0.5897 -0.09263729486654881 -2.9345225121344862 21.524888208388198 0 0 0
309 103 1 0.5897 -0.8041578509971163 1.4041241569232508 21.764147937137032 1 1 -1
165 55 1 0.5897 -5.533926442964202 -5.717924640158369 21.743688001893652 1 1 -1
1226 409 1 0.5897 -7.694850370528798 -2.676864386069081 21.632679622579936 0 0 0
40 14 2 -1.1794 -15.003390108553678 3.7814473016692034 1.9307538586844517 1 0 0
177 59 1 0.5897 -14.036524888942573 4.536702057777941 3.3044284183340293 1 0 0
56 19 1 0.5897 -12.42317728331556 5.936569699189549 1.4304355108090456 1 0 0
66 22 1 0.5897 -13.394921499921969 3.01472356370326 1.634958141798035 1 0 0
65 22 1 0.5897 -11.938288712019208 3.4131533079256027 1.7418888149468235 1 0 0
64 22 2 -1.1794 -12.510175165276484 2.6500952936181275 1.6584887635029777 1 0 0
191 64 1 0.5897 -12.6440007097835 6.464197776147424 4.273224740935219 1 0 0
183 61 1 0.5897 -12.215398271098572 3.788904804703572 4.459225126617179 1 0 0
175 59 2 -1.1794 -13.633705176601897 4.829589660987969 4.121871995872841 1 0 0
176 59 1 0.5897 -14.249388227824149 4.559295155225627 4.803130488813819 1 0 0
181 61 2 -1.1794 -11.368050225538353 3.4089351334848246 4.691443378428457 1 0 0
55 19 2 -1.1794 -13.216332385937914 6.319796545870961 1.0558050424401126 1 0 0
42 14 1 0.5897 -15.340213686474819 4.427897655843514 1.3102955403293806 1 0 0
108 36 1 0.5897 -9.968264661973791 2.856877154334869 3.5128562970467123 1 0 0
215 72 1 0.5897 -12.19897509739252 8.766182082747637 3.428070548643648 1 0 0
190 64 2 -1.1794 -12.008817457459658 7.1715633721623355 4.161702847018512 1 0 0
151 51 2 -1.1794 -12.84407690572166 9.069962191090678 0.4022877419166885 1 0 0
153 51 1 0.5897 -12.787452580755701 9.346642093347274 1.3168855233475314 1 0 0
216 72 1 0.5897 -13.03109193988415 10.010005842439728 3.657280212119666 1 0 0
162 54 1 0.5897 -14.403135737349084 6.879363727998403 2.3136365836945627 1 0 0
194 65 1 0.5897 -13.629801704743896 12.376126886569665 2.379221362223814 1 0 0
148 50 2 -1.1794 -18.088961671340787 11.092505069274495 1.6647772516368786 1 0 0
174 58 1 0.5897 -16.51720468702745 10.137728495295462 1.4824895824293163 1 0 0
214 72 2 -1.1794 -12.36215343917745 9.642651350973864 3.079514262987246 1 0 0
167 56 1 0.5897 -16.5522956797582 6.1965660789916654 3.2587401067467816 1 0 0
206 69 1 0.5897 -14.978950139982896 7.476598744747726 4.517597757783369 1 0 0
160 54 2 -1.1794 -15.151778493009004 7.221136493200849 2.802485197979421 1 0 0
173 58 1 0.5897 -15.020811540871254 10.367138710901507 1.4706437726382908 1 0 0
85 29 2 -1.1794 -10.967568980236571 4.919602858608707 1.826077171326586 1 0 0
219 73 1 0.5897 -7.4766960739315165 10.956970136737976 4.4194907748484225 0 0 0
291 97 1 0.5897 -15.216189938722454 10.829915235563853 4.36738977891102 1 0 0
161 54 1 0.5897 -15.387478693112033 8.029172485786255 2.346584905661742 1 0 0
172 58 2 -1.1794 -15.680095912515903 9.674034985929087 1.5054813038624677 1 0 0