LAMMPS data file via write_data, version 30 Jul 2021, timestep = 10250000

1920 atoms
2 atom types
1280 bonds
1 bond types
640 angles
1 angle types

-0.11798895644690077 24.847989956439072 xlo xhi
-0.11158673749634751 24.84158773748944 ylo yhi
-0.13735719721957196 22.947357197223443 zlo zhi

Masses

1 1.008
2 15.999

Pair Coeffs # lj/cut/tip4p/long/omp

1 0 0
2 0.21084 3.1668

Bond Coeffs # harmonic/omp

1 450 0.9572

Angle Coeffs # harmonic/omp

1 55 104.52

Atoms # full

1 1 2 -1.1794 4.666910305376313 1.35256418190703 4.172222728186494 0 0 0
2 1 1 0.5897 4.605906881871364 2.211295492351544 4.590503721669905 0 0 0
3 1 1 0.5897 5.3637290825664135 1.4506326211839653 3.523365311034954 0 0 0
4 2 2 -1.1794 2.829294624042898 1.4821427313459141 1.9917697403840116 0 0 0
5 2 1 0.5897 3.428543999458944 1.3267122608490822 2.7217771683765903 0 0 0
6 2 1 0.5897 1.980303974677022 1.1734127056506134 2.308213196596324 0 0 0
9 3 1 0.5897 5.040383982954627 4.396346837336541 3.398662668631215 0 0 0
10 4 2 -1.1794 3.205754837672951 4.415014827068702 3.438552373770811 0 0 0
11 4 1 0.5897 2.9376857492396056 5.216957362697707 3.8870410202654897 0 0 0
12 4 1 0.5897 2.704394401097117 4.417012684748161 2.6232025676843076 0 0 0
13 5 2 -1.1794 1.4487095391633242 2.9442683165574066 4.857087422268657 0 0 0
14 5 1 0.5897 2.0867628976211545 3.3918896005176733 4.301471533069239 0 0 0
22 8 2 -1.1794 1.3239307633737478 4.104584992421054 1.4048813660739736 0 0 0
24 8 1 0.5897 1.1217792400332267 4.7660683667330535 0.7433038191433852 0 0 0
20 7 1 0.5897 3.771830667716592 2.865218019427823 0.965823127945856 0 0 0
21 7 1 0.5897 5.279935589551461 2.825423765557236 0.8393994415031716 0 0 0
23 8 1 0.5897 0.6723117471994374 4.2452243336105875 2.0917610214167013 0 0 0
15 5 1 0.5897 1.5027811710699002 2.025960486097618 4.592730463101982 0 0 0
19 7 2 -1.1794 4.487700236860827 3.088057104808494 0.37078928099813047 0 0 0
27 9 1 0.5897 4.382530091283601 4.9527609419175995 0.28471054346783214 0 0 0
867 289 1 0.5897 4.593557017236814 -0.0013303851117243276 5.461273637530102 0 1 0
25 9 2 -1.1794 4.341606542876253 5.896579390855361 0.43840357359412674 0 0 0
28 10 2 -1.1794 1.6526599686865038 0.19706384095642054 4.677601242306277 0 0 0
98 33 1 0.5897 0.2027529700123844 5.33047526135333 3.734682355998299 1 0 0
1455 485 1 0.5897 1.2990534574432866 2.9914384850011966 0.09364611318108457 0 0 1
387 129 1 0.5897 3.815030603564501 0.3614760253041108 0.808831502827886 0 1 0
16 6 2 -1.1794 0.006131097781018127 1.0453118396252976 2.031264454432192 0 0 0
99 33 1 0.5897 -0.003227357674870854 3.834830935379694 3.844995671512313 1 0 0
7 3 2 -1.1794 5.9843858732328155 4.529749705842563 3.4842085407188064 0 0 0
150 50 1 0.5897 1.855659088834447 5.986377564264413 5.527844901077312 0 0 0
47 16 1 0.5897 5.929258570918318 0.9399419180275395 1.652750504734553 0 0 0
8 3 1 0.5897 6.072992314983935 5.174578827044878 4.185958039885188 0 0 0
26 9 1 0.5897 5.03033874303563 6.065084222044613 1.0814013878767332 0 0 0
385 129 2 -1.1794 4.641054075385133 -0.08900059757118584 0.6328385701380145 0 1 0
528 176 1 0.5897 6.037112438700751 2.2601552076679843 7.089659465979628 0 0 0
489 163 1 0.5897 5.069985083263756 4.79603680733239 9.352847238360619 0 0 0
494 165 1 0.5897 1.4942667830529845 1.991719202812452 10.698183086676355 0 0 0
577 193 2 -1.1794 0.16069858531455133 4.635532824375685 8.991683679992898 1 0 0
487 163 2 -1.1794 6.006017385229509 4.641728768356448 9.225255284769702 0 0 0
508 170 2 -1.1794 1.0990353210115886 0.18038126530708354 10.765425736031967 0 0 0
490 164 2 -1.1794 3.335009872519244 4.87836138877677 9.24075727187643 0 0 0
482 161 1 0.5897 5.245531851035512 1.585777336064398 9.233091673811002 0 0 0
491 164 1 0.5897 2.9074265824692844 4.850852402753848 8.384859079525095 0 0 0
579 193 1 0.5897 0.538470140077948 3.860990358282683 9.408210714108693 1 0 0
496 166 2 -1.1794 0.09516983457023157 1.7174294775906855 7.95001897182388 0 0 0
503 168 1 0.5897 1.1419985491023499 4.982053765748177 7.5937706420779945 0 0 0
481 161 2 -1.1794 4.507583828297984 1.4339327552129515 9.823493383945292 0 0 0
483 161 1 0.5897 4.565188912682132 2.140736751056429 10.466309409728348 0 0 0
502 168 2 -1.1794 1.8520274387270699 4.9411619625179535 6.953159834665454 0 0 0
493 165 2 -1.1794 1.7229627510461554 2.916889686569294 10.60953465167146 0 0 0
500 167 1 0.5897 3.9869654232570966 3.017203758585341 6.622488947109277 0 0 0
499 167 2 -1.1794 4.666218922199716 3.388849588120418 6.059747065912654 0 0 0
486 162 1 0.5897 3.2489376422644116 1.0391327672203847 7.027819099001497 0 0 0
498 166 1 0.5897 0.9622721561533321 1.6697303083722925 7.5474127199437095 0 0 0
485 162 1 0.5897 3.0483003925901135 1.53630840435161 8.443508814934736 0 0 0
504 168 1 0.5897 1.6778279925352446 4.144273777300728 6.452431017266897 0 0 0
492 164 1 0.5897 3.0308196678577004 4.08784060093952 9.68646729269931 0 0 0
484 162 2 -1.1794 2.823181776422545 1.7311028004888767 7.533825526271096 0 0 0
501 167 1 0.5897 4.551786198582575 4.335812774288782 6.13889737851237 0 0 0
629 210 1 0.5897 2.33347787376964 5.994751748098482 10.345675152970228 0 0 0
505 169 2 -1.1794 4.408236869455499 6.126367693080163 6.385890971160208 0 0 0
527 176 1 0.5897 5.835488514546843 0.7724567835935723 7.28371453487024 0 0 0
578 193 1 0.5897 0.36681860361251123 5.354049658720281 9.5894761918429 1 0 0
1347 449 1 0.5897 4.5207682640809725 0.3465865309851708 11.257386590341742 0 1 0
495 165 1 0.5897 1.3669482622788014 3.3285728749564862 11.39687334155138 0 0 0
961 321 2 -1.1794 4.562388859055493 1.365984930313611 15.577485276834834 0 0 0
962 321 1 0.5897 5.311837068998054 1.2416118140852102 14.99519817317571 0 0 0
964 322 2 -1.1794 2.8048114259110712 1.316895019565915 13.55598312462876 0 0 0
965 322 1 0.5897 3.1119208828791223 1.2242303384909288 14.457777893470299 0 0 0
966 322 1 0.5897 1.8533080170168965 1.2318634515078188 13.61652988381896 0 0 0
970 324 2 -1.1794 3.199239002533214 4.567963803514517 15.120771623033537 0 0 0
971 324 1 0.5897 4.152993593754003 4.617657876585703 15.18513498500881 0 0 0
972 324 1 0.5897 2.9680118691120296 3.769292625259545 15.594873979222642 0 0 0
973 325 2 -1.1794 1.4166215702116824 2.599548673695613 16.281967960380722 0 0 0
975 325 1 0.5897 0.6949675391710265 2.991570452283401 15.790306707518207 0 0 0
982 328 2 -1.1794 1.3602713982386758 4.364310092306479 12.948361487752276 0 0 0
983 328 1 0.5897 1.2650796028028406 5.193189621420806 12.479320466384046 0 0 0
984 328 1 0.5897 2.091781574859363 4.51057853757346 13.548107931111705 0 0 0
981 327 1 0.5897 5.270985157613304 2.762527176160271 12.477321191602263 0 0 0
963 321 1 0.5897 4.534660963541223 0.5688357788276182 16.106531502011705 0 0 0
990 330 1 0.5897 1.5301241920975555 0.8700973356758658 16.0703576427142 0 0 0
980 327 1 0.5897 3.7590821475857488 2.752724626706876 12.3998468479749 0 0 0
987 329 1 0.5897 4.702093036784823 5.03652950326956 11.871155849216402 0 0 0
979 327 2 -1.1794 4.5401555044604995 3.0197614194653792 11.915255321302677 0 0 0
1109 370 1 0.5897 0.5375975244714962 5.550577910890101 16.16533687903323 0 0 0
967 323 2 -1.1794 5.832625523955416 4.539963760463131 15.131065865728678 0 0 0
976 326 2 -1.1794 0.06591401086710036 1.3751470193731072 13.734955010442263 0 0 0
1346 449 1 0.5897 3.7482701853193294 0.3581708654810061 12.559251701319983 0 1 0
985 329 2 -1.1794 4.688556220545023 5.989686420970688 11.95718243050847 0 0 0
974 325 1 0.5897 1.347555874229234 2.9829707621766732 17.156233199112776 0 0 0
1460 487 1 0.5897 4.5664592685671215 2.611772013793471 16.865885285088893 0 0 0
1108 370 2 -1.1794 1.1594333365291725 6.06037001320844 16.68458267260994 0 0 0
1110 370 1 0.5897 2.0194334905138804 5.788512739733584 16.364085319086733 0 0 0
988 330 2 -1.1794 1.5559311740825221 -0.0836752879078233 16.146128698465215 0 0 0
1008 336 1 0.5897 6.10175740225877 0.6961344504261173 13.02539046102907 0 0 0
977 326 1 0.5897 -0.0754146640269795 2.197205787463902 13.265535449305304 0 0 0
1447 483 2 -1.1794 5.9580034379957665 4.433781979058764 20.96325104460264 0 0 0
386 129 1 0.5897 4.942257005209257 0.2780284442646728 22.88647233346433 0 1 -1
1443 481 1 0.5897 4.182031429474881 1.9746059442717794 21.81516430415488 0 0 0
1456 486 2 -1.1794 0.2592523289192259 1.1498284087817263 19.108898337268037 0 0 0
1463 488 1 0.5897 1.3619026741463955 4.873265192082115 18.09095537307803 0 0 0
1465 489 2 -1.1794 4.1162513341770905 6.00924280562343 17.754132431370778 0 0 0
1588 530 2 -1.1794 1.3675392338550516 5.985526124412984 22.392011304664333 0 0 0
1487 496 1 0.5897 5.899332981314129 1.331171074456574 20.125890168094134 0 0 0
1590 530 1 0.5897 2.0486734091443446 5.732227417410528 21.769050607969245 0 0 0
1464 488 1 0.5897 0.5639859469483238 4.074826533495232 19.09967522358453 0 0 0
1488 496 1 0.5897 5.9963741253144365 0.7336557618549214 18.738388998053775 0 0 0
1454 485 1 0.5897 2.0383050984844755 3.1679067814187563 21.869140879457312 0 0 0
1453 485 2 -1.1794 1.471539826997459 2.558709221387398 22.342232066725135 0 0 0
1450 484 2 -1.1794 2.8343629556033925 4.283775698644521 20.815789427515625 0 0 0
1441 481 2 -1.1794 4.570936511322028 1.3147505912221933 21.241166010629033 0 0 0
1462 488 2 -1.1794 1.3447759157820462 4.032275503066846 18.54761962759274 0 0 0
1469 490 1 0.5897 1.4328489731931326 0.786505559879207 22.243502608160217 0 0 0
1459 487 2 -1.1794 4.4852405157810455 3.067079485175819 17.703866414888047 0 0 0
1451 484 1 0.5897 3.7663799147260573 4.424891235854216 20.64941862339691 0 0 0
1445 482 1 0.5897 2.0475874328261194 1.3402682891495719 19.024836476445966 0 0 0
1466 489 1 0.5897 4.1119023604813645 5.0537991023282 17.810724122216243 0 0 0
1444 482 2 -1.1794 2.9952838316660504 1.2197873701770632 19.08493523368646 0 0 0
1461 487 1 0.5897 5.253083585102554 2.789282191879852 18.203318921363774 0 0 0
1452 484 1 0.5897 2.4576395504411055 4.12381256884877 19.950555435565533 0 0 0
1446 482 1 0.5897 3.3606184822753162 1.9113911430274309 18.533263796873246 0 0 0
1442 481 1 0.5897 4.007251196233625 1.3073776455195658 20.46762083712759 0 0 0
1539 513 1 0.5897 0.2803905886328813 5.0703655847358196 21.20778137347711 1 0 0
1457 486 1 0.5897 0.016985236819028415 1.2078501785009346 20.033056140557015 0 0 0
121 41 2 -1.1794 4.575973375900629 7.5982935892091215 4.071391604124716 0 0 0
122 41 1 0.5897 3.96585858048247 7.656329405198526 3.336160382146735 0 0 0
123 41 1 0.5897 5.442950912584039 7.626859576688219 3.6667140205426016 0 0 0
124 42 2 -1.1794 2.822607305027535 7.814988172991465 2.041568903453183 0 0 0
126 42 1 0.5897 3.3490677227179 8.537531865596817 1.6996462936064805 0 0 0
130 44 2 -1.1794 3.1658527422303524 10.805102429984718 3.596993294903683 0 0 0
132 44 1 0.5897 2.7786172246202008 10.035818213066694 4.0145712710252965 0 0 0
133 45 2 -1.1794 1.1919472112648026 8.998746850546027 4.906224317677355 0 0 0
137 46 1 0.5897 0.9489130718671512 7.5166193182290115 2.1409887896596143 0 0 0
139 47 2 -1.1794 4.8554638984654765 9.376630330422037 0.8690917735118464 0 0 0
142 48 2 -1.1794 1.434480357590929 10.651359640562834 1.4437956230635738 0 0 0
143 48 1 0.5897 2.1196037513822974 10.61862760069804 2.111437788841347 0 0 0
125 42 1 0.5897 3.0617650161534953 7.065150749758326 1.4969079978827005 0 0 0
135 45 1 0.5897 0.5920915843468258 9.5437348147572 4.396978621966605 0 0 0
129 43 1 0.5897 5.138242742410527 10.601617605663103 3.6390530431409114 0 0 0
149 50 1 0.5897 1.4062600589525591 7.220287993091749 4.774780701104951 0 0 0
131 44 1 0.5897 2.808499375249066 11.54772453390583 4.083749236141853 0 0 0
140 47 1 0.5897 4.880853227467781 10.316505819901316 0.6899765473710721 0 0 0
144 48 1 0.5897 1.6532608629690098 11.417076225177926 0.9128313828103181 0 0 0
148 50 2 -1.1794 1.703336542193433 6.319911407563914 4.643721381341418 0 0 0
218 73 1 0.5897 0.11836168022310073 11.01092622166551 2.9479496503413842 1 0 0
621 207 1 0.5897 4.735479509858087 8.881842038664029 5.514906035170535 0 0 0
145 49 2 -1.1794 4.504303859449325 12.102988911311945 0.5070356531080364 0 0 0
507 169 1 0.5897 4.5020856901358 6.62690701248927 5.575481373778428 0 0 0
127 43 2 -1.1794 6.077469856726449 10.420546107089125 3.602786233828177 0 0 0
1574 525 1 0.5897 1.4659398670336565 9.389478347764351 0.1847788003096229 0 0 1
136 46 2 -1.1794 -0.0019190435101249376 7.558160386029478 2.243232272786662 0 0 0
270 90 1 0.5897 0.9742563478999744 12.23639628157744 4.765580638905322 0 0 0
141 47 1 0.5897 5.0016793457229305 8.965926337872018 0.016998237802667404 0 0 0
606 202 1 0.5897 1.893396454280964 8.023181834128676 7.737905737231509 0 0 0
698 233 1 0.5897 0.525868283591772 11.639233024856061 9.730630304497273 1 0 0
623 208 1 0.5897 2.1975960903944793 10.839082592784765 7.481661099305735 0 0 0
134 45 1 0.5897 1.424310257114358 9.538768808832796 5.66154036652585 0 0 0
648 216 1 0.5897 5.786305856191305 6.883193166886605 7.367463593444087 0 0 0
625 209 2 -1.1794 4.685605138303559 12.1746205474904 6.319544480109326 0 0 0
1106 369 1 0.5897 4.562145816981569 12.285309543027799 11.293214683114078 0 0 0
607 203 2 -1.1794 5.862721311759607 10.84902660786343 9.094906420177924 0 0 0
622 208 2 -1.1794 1.380634867267929 10.829814450417361 6.982946656603503 0 0 0
616 206 2 -1.1794 0.023991580247772454 7.868837318249524 7.755517993526314 0 0 0
602 201 1 0.5897 4.727226002055136 7.224313111333137 10.57228366558971 0 0 0
628 210 2 -1.1794 1.5853983047058233 6.315080539160232 10.849622636116695 0 0 0
624 208 1 0.5897 1.474737492205511 11.545950900747421 6.354932816812256 0 0 0
613 205 2 -1.1794 1.6646467274336727 9.070709243392114 10.677314539988261 0 0 0
612 204 1 0.5897 2.8478477041482146 11.512690081809662 9.520362462282286 0 0 0
603 201 1 0.5897 4.086383833114614 7.9196664945455275 9.390141851562348 0 0 0
611 204 1 0.5897 4.029395393700084 10.682691616110496 9.065554531374044 0 0 0
619 207 2 -1.1794 4.742929363360683 9.404576630371409 6.316656803861718 0 0 0
630 210 1 0.5897 1.6842703553639158 7.267083449609471 10.846993705758308 0 0 0
626 209 1 0.5897 4.791946886172155 11.23139412768128 6.442454982585149 0 0 0
615 205 1 0.5897 0.8572574945390319 9.33886003370654 10.238642413198436 0 0 0
605 202 1 0.5897 3.216815344556696 8.571844979953564 7.2486262869113345 0 0 0
620 207 1 0.5897 5.519738849342893 9.10682121555571 6.790062363293516 0 0 0
614 205 1 0.5897 2.339282564207508 9.640176000754135 10.307520616048288 0 0 0
610 204 2 -1.1794 3.072329844234038 10.69423457768962 9.077820030484848 0 0 0
604 202 2 -1.1794 2.839615857338155 7.9112508496623235 7.829540145462061 0 0 0
601 201 2 -1.1794 4.819819763792334 7.987031980852322 10.001491362480543 0 0 0
699 233 1 0.5897 0.41057743584538264 10.875712318744215 8.428571113713277 1 0 0
697 233 2 -1.1794 -0.032913554775221274 11.017110019082658 9.264919133403492 1 0 0
506 169 1 0.5897 3.705406786945406 6.569175306151626 6.861434071035518 0 0 0
1081 361 2 -1.1794 4.391422882577689 7.694346796864879 15.761997335920102 0 0 0
1083 361 1 0.5897 4.235832962437312 7.01069382920608 16.413549523027832 0 0 0
1084 362 2 -1.1794 2.651756376365596 7.619934122393066 13.665033256846815 0 0 0
1086 362 1 0.5897 3.073195623833577 8.420515301094769 13.352645401066056 0 0 0
1089 363 1 0.5897 4.804477584615171 10.527412886731115 14.890611732703192 0 0 0
1090 364 2 -1.1794 2.860615168203606 10.572069194636182 14.999615409774151 0 0 0
1092 364 1 0.5897 2.6084370823455854 9.792101805691134 15.49374584254262 0 0 0
1097 366 1 0.5897 0.7669567076126736 7.6740727972557945 13.697434175549816 0 0 0
1099 367 2 -1.1794 4.684350693749492 9.284101935647607 12.43096020996759 0 0 0
1102 368 2 -1.1794 1.2418035754467716 10.896151562640965 12.797293977839084 0 0 0
1103 368 1 0.5897 1.2605188723013108 10.116592556219844 12.242280871139549 0 0 0
1100 367 1 0.5897 5.311129774286571 8.733508308335459 12.900171891018855 0 0 0
1091 364 1 0.5897 2.5138142012510025 11.302824123692428 15.511326730059626 0 0 0
1095 365 1 0.5897 0.4209619301380221 8.87702120920123 16.130511324512106 0 0 0
1094 365 1 0.5897 1.2760420441582747 7.815307445669672 16.788755736545177 0 0 0
1085 362 1 0.5897 3.152710044197239 7.372629018535295 14.442235735604365 0 0 0
1082 361 1 0.5897 4.506065267723751 8.493775488987648 16.275683125080683 0 0 0
1104 368 1 0.5897 2.011525046835261 10.80895951411091 13.359551278174301 0 0 0
1093 365 2 -1.1794 1.282046742382263 8.734976422194837 16.523683026494705 0 0 0
1107 369 1 0.5897 4.734398688932183 11.066362445175168 12.174186775582028 0 0 0
1127 376 1 0.5897 5.617217421263122 7.223194931843163 14.571002063216834 0 0 0
1101 367 1 0.5897 4.573009422301489 8.852659734915854 11.583861808713772 0 0 0
1179 393 1 0.5897 0.26707873273636457 10.696455848441316 14.249493218101883 1 0 0
1088 363 1 0.5897 5.802656584789341 11.240583536055093 15.777630278774083 0 0 0
1105 369 2 -1.1794 4.4901092165473555 11.9914050549064 12.20126530807292 0 0 0
1128 376 1 0.5897 6.108313194431798 6.683055836407778 13.244833987895262 0 0 0
1087 363 2 -1.1794 5.741367789737934 10.592935708077649 15.075553508775657 0 0 0
986 329 1 0.5897 3.85557869062201 6.179881475137184 12.38868332922862 0 0 0
1178 393 1 0.5897 0.13027691159076685 11.320907966971083 15.621698937197369 1 0 0
750 250 1 0.5897 1.7714409030067835 12.01018596409385 11.498590512224105 0 0 0
1585 529 2 -1.1794 4.42847755145405 12.119991213148927 17.88788728720271 0 0 0
1230 410 1 0.5897 1.256677980498995 12.19561153600041 17.408120571600403 0 0 0
1576 526 2 -1.1794 0.1317296759247668 7.3589101601190325 19.538780424541248 0 0 0
1583 528 1 0.5897 0.5717800983793725 10.320680942012677 19.318041341292766 0 0 0
1710 570 1 0.5897 2.4241399084582316 11.941150808257886 21.771596408650314 0 0 0
1467 489 1 0.5897 4.985248108467219 6.26404165960787 18.064212275260896 0 0 0
1709 570 1 0.5897 0.9119501410022164 12.002945852798105 21.80919665999293 0 0 0
1575 525 1 0.5897 2.217525921931733 9.26871791089672 21.960969374247195 0 0 0
1708 570 2 -1.1794 1.6943434233868249 12.337247487104513 22.247724865686454 0 0 0
1581 527 1 0.5897 3.8745975147822818 9.024281816658702 18.747233760225445 0 0 0
1567 523 2 -1.1794 6.063704954726312 10.682178313639163 20.586858752091455 0 0 0
1573 525 2 -1.1794 1.465019039699635 8.917381946094654 22.436884835283205 0 0 0
1566 522 1 0.5897 3.314311675572453 7.047098832201011 19.243963306104835 0 0 0
1570 524 2 -1.1794 3.3316197631133617 10.710700963507097 20.850151838329513 0 0 0
1561 521 2 -1.1794 4.999565327302084 7.662128949191977 21.61057745463463 0 0 0
1571 524 1 0.5897 2.9583217233255183 10.85322842604254 19.98039795764703 0 0 0
1563 521 1 0.5897 4.249723552204119 7.796876412706279 21.031109250886164 0 0 0
1584 528 1 0.5897 1.2577520374554796 9.87493127679833 18.044292141118678 0 0 0
1579 527 2 -1.1794 4.582530008580603 9.376055772311892 18.20753598487792 0 0 0
1580 527 1 0.5897 5.30743529203074 8.763850060904579 18.333635946467144 0 0 0
1582 528 2 -1.1794 1.3620771565389305 10.458363393527568 18.795848224839865 0 0 0
1572 524 1 0.5897 4.274865044996737 10.64905211039574 20.699352114952674 0 0 0
1564 522 2 -1.1794 2.9881045901058507 7.720602535022097 19.840704831661217 0 0 0
1589 530 1 0.5897 1.3847252150282106 6.942495719588838 22.390380864087504 0 0 0
1587 529 1 0.5897 4.3829049043165975 11.166876245952782 17.96262732986973 0 0 0
1562 521 1 0.5897 4.7214322140301395 6.965183180639023 22.204734810276374 0 0 0
1565 522 1 0.5897 2.0418948195418762 7.731271891185786 19.696395336250106 0 0 0
1577 526 1 0.5897 -0.03275672965210319 8.107535230906176 18.965536278434723 0 0 0
241 81 2 -1.1794 4.7980468103820035 14.079967152515128 4.043476109817224 0 0 0
242 81 1 0.5897 4.8218635416101545 13.313696119520056 4.616503538875881 0 0 0
243 81 1 0.5897 4.018197045794859 13.951667333579687 3.503484849808252 0 0 0
244 82 2 -1.1794 2.931748011847834 13.991036268724407 1.8251634150215055 0 0 0
245 82 1 0.5897 2.0002693150202924 14.197453311642413 1.7478035014637652 0 0 0
246 82 1 0.5897 3.371786589204397 14.674107415771797 1.3192844339620886 0 0 0
250 84 2 -1.1794 2.9600401948321835 17.209474657812336 3.3799551225600086 0 0 0
251 84 1 0.5897 2.753493504067913 16.850170018220076 2.517192801634965 0 0 0
252 84 1 0.5897 3.914179792421881 17.285862939607874 3.3859768140436466 0 0 0
253 85 2 -1.1794 1.5382856149702167 15.332865964652914 5.006180265647621 0 0 0
255 85 1 0.5897 2.2256687583163695 15.752864293593978 4.489181800741985 0 0 0
259 87 2 -1.1794 4.6522766731643825 15.873103216182558 0.4587382578551783 0 0 0
262 88 2 -1.1794 1.3169564755344583 16.935563323034465 1.133522110302319 0 0 0
263 88 1 0.5897 1.4186232757712156 16.251355690479805 0.4719860737336564 0 0 0
264 88 1 0.5897 0.9823094589925212 17.69007119835289 0.6489124203823938 0 0 0
254 85 1 0.5897 0.7392518381360019 15.804843855025922 4.771673901824877 0 0 0
269 90 1 0.5897 1.694220481155867 13.566589210410065 4.827793531484249 0 0 0
260 87 1 0.5897 4.617400771754047 16.826196537828977 0.378197250850841 0 0 0
740 247 1 0.5897 4.689415939315621 15.185052775294833 5.532846508071553 0 0 0
256 86 2 -1.1794 0.20776756384032463 14.038508379469276 1.8303253795625432 0 0 0
268 90 2 -1.1794 1.7955447202933421 12.640195979436182 5.046016004081145 0 0 0
338 113 1 0.5897 0.07717849614105393 17.008252535563393 2.6161144384501824 1 0 0
147 49 1 0.5897 3.754352162895262 12.461479646131757 0.9816440312201586 0 0 0
389 130 1 0.5897 1.8413143101056701 18.568299242054024 4.227097746048545 0 0 0
288 96 1 0.5897 5.900367678114909 14.822368585618996 1.1990747554360819 0 0 0
339 113 1 0.5897 -0.09391129313678201 17.972546624129997 3.7704336400933642 1 0 0
287 96 1 0.5897 5.896535172092854 14.223075572036949 2.5891962699006354 0 0 0
247 83 2 -1.1794 5.746330168020989 16.914609599312286 3.5999124552008697 0 0 0
248 83 1 0.5897 6.095070900134469 16.153696704838453 4.064144230609146 0 0 0
146 49 1 0.5897 5.247941935089539 12.629497791036004 0.8002629583808641 0 0 0
768 256 1 0.5897 5.889614217194915 14.590976913725678 7.314550539823395 0 0 0
727 243 2 -1.1794 6.055248647369063 16.77925688269444 9.208395140107383 0 0 0
732 244 1 0.5897 2.90657186929848 16.47254348284909 9.845464510847739 0 0 0
743 248 1 0.5897 1.7575467329362031 17.898306662775056 6.595576156530307 0 0 0
627 209 1 0.5897 5.312927617296231 12.567882082592806 6.926159178430438 0 0 0
738 246 1 0.5897 0.14112104768214095 13.638355929769771 8.631740051513805 0 0 0
869 290 1 0.5897 0.8684993767954758 18.390320026057466 10.284805006113581 0 0 0
723 241 1 0.5897 5.332126307633215 14.008516017481174 9.331150571855952 0 0 0
726 242 1 0.5897 3.485226922221778 14.50358086151177 7.27498550385962 0 0 0
742 248 2 -1.1794 1.6693973831771565 17.1214402285324 7.147673138447707 0 0 0
730 244 2 -1.1794 3.3261579488848505 17.04172207576432 9.200390423382402 0 0 0
741 247 1 0.5897 4.764767801532894 16.653198220064212 5.893975389727781 0 0 0
749 250 1 0.5897 1.6561544366628977 13.4896472076288 11.199511016903026 0 0 0
744 248 1 0.5897 1.698993729269478 16.386877337564727 6.534775286943992 0 0 0
725 242 1 0.5897 3.388193842684532 13.023162472896658 7.575802742142325 0 0 0
733 245 2 -1.1794 1.5436596969017067 15.514863769299984 10.795616988397459 0 0 0
721 241 2 -1.1794 4.579280151115441 13.845285255268605 9.899287055086901 0 0 0
739 247 2 -1.1794 4.7138273259758625 15.779874673537751 6.282311918026937 0 0 0
731 244 1 0.5897 2.784620622717324 16.955316186130034 8.415895579449694 0 0 0
737 246 1 0.5897 1.318086764988988 14.02451964038222 7.761424546354857 0 0 0
735 245 1 0.5897 0.8233362037458231 15.98187500521122 10.372259994296712 0 0 0
722 241 1 0.5897 3.8182654352554874 13.997567951143907 9.3390411830619 0 0 0
728 243 1 0.5897 5.117749050537939 16.931902259175956 9.089879545787374 0 0 0
724 242 2 -1.1794 3.0354788541414646 13.873475663873922 7.837862083402776 0 0 0
748 250 2 -1.1794 1.6963109547698545 12.63258073397255 10.775342096434404 0 0 0
818 273 1 0.5897 0.21899540726833355 17.161499724752602 8.605994109184003 1 0 0
736 246 2 -1.1794 0.36457149440955033 13.941032460801699 7.751637515003594 0 0 0
870 290 1 0.5897 2.379333325659187 18.483414546073305 10.258975356393645 0 0 0
1201 401 2 -1.1794 4.901567932238669 13.96374701881786 15.830487930198354 0 0 0
1204 402 2 -1.1794 3.0236780650974238 13.585951250512045 13.853673456938935 0 0 0
1205 402 1 0.5897 3.6264127119727103 13.661649975688526 14.593370110100766 0 0 0
1206 402 1 0.5897 3.4474008061655925 12.964699195842249 13.261521732051873 0 0 0
1210 404 2 -1.1794 3.336052988391589 16.954554740836386 14.894776239303887 0 0 0
1212 404 1 0.5897 4.2190720049606885 17.230838969365422 14.649458262714303 0 0 0
1213 405 2 -1.1794 1.6122187361741076 15.041016676641151 16.210788617438634 0 0 0
1215 405 1 0.5897 2.389465921356071 15.363142172211921 15.754361687461781 0 0 0
1218 406 1 0.5897 1.1207979263952075 13.809870428914271 13.720011744874341 0 0 0
1222 408 2 -1.1794 1.4284309039631926 16.924144958239246 12.988060484275687 0 0 0
1224 408 1 0.5897 2.223371500706039 16.90188922097724 13.520778966162096 0 0 0
1202 401 1 0.5897 5.566408749721996 13.899256877061768 15.14491433546218 0 0 0
1229 410 1 0.5897 1.531860683663571 13.315092100760834 16.426989515520095 0 0 0
1203 401 1 0.5897 5.0450509453391 13.191400103628709 16.377299954090653 0 0 0
1223 408 1 0.5897 1.5314586795995995 17.698879751356095 12.43553532996515 0 0 0
1214 405 1 0.5897 0.9117016367325055 15.634487501375435 15.940144546221028 0 0 0
1220 407 1 0.5897 3.804255331707931 14.962628763874767 12.830103157051507 0 0 0
1211 404 1 0.5897 2.982932922477759 17.692626639846367 15.391441562092924 0 0 0
1219 407 2 -1.1794 4.4497776617318 15.486692318112343 12.355942192696242 0 0 0
1227 409 1 0.5897 4.590579659636168 17.40330762206876 12.214017147770502 0 0 0
1207 403 2 -1.1794 6.023357527281772 17.054680242911935 14.855001614744998 0 0 0
1298 433 1 0.5897 0.35202868491400263 16.909641054041316 14.414778687851973 1 0 0
1247 416 1 0.5897 5.731644683632438 14.40860360587949 13.092850182981474 0 0 0
1221 407 1 0.5897 4.27860970923571 15.300554570107913 11.432808215363895 0 0 0
1225 409 2 -1.1794 4.412425389805869 18.343659890676705 12.22434872490432 0 0 0
734 245 1 0.5897 1.6168782977185527 15.919470900969133 11.659937872660999 0 0 0
1700 567 1 0.5897 4.6795357293114455 15.241304310610209 17.15132475407489 0 0 0
1216 406 2 -1.1794 0.19233467628434125 13.590691208334178 13.641494975607259 0 0 0
1350 450 1 0.5897 0.8607088566393784 18.170138444407392 15.991914285544993 0 0 0
1248 416 1 0.5897 6.057559698088124 12.930795294197024 13.130748905002463 0 0 0
1297 433 2 -1.1794 -0.11554868654619455 16.927818421423083 15.249758145860772 1 0 0
1348 450 2 -1.1794 1.534483904829609 18.602642632098693 16.5164682414558 0 0 0
1228 410 2 -1.1794 1.3907795124507862 12.369718242604858 16.47655049601034 0 0 0
1778 593 1 0.5897 0.26529046517172333 16.627494369359304 19.73514112717296 1 0 0
1586 529 1 0.5897 5.144322711352713 12.372468934916881 18.470994152717402 0 0 0
261 87 1 0.5897 4.435631779379615 15.550284956576155 22.668824405131257 0 0 -1
1779 593 1 0.5897 0.054672338299112805 17.58691084130944 20.886989598882103 1 0 0
1699 567 2 -1.1794 4.541701322467008 15.737543812526797 17.958084535386142 0 0 0
1726 576 2 -1.1794 6.02368023743703 13.926068995142273 19.273385774336283 0 0 0
1693 565 2 -1.1794 1.6392105690860737 15.119509075515932 22.22404957322637 0 0 0
1707 569 1 0.5897 4.57011295696321 17.50243209872645 17.693766179919336 0 0 0
1728 576 1 0.5897 5.712719149485622 14.712093807639748 18.82440902831472 0 0 0
1683 561 1 0.5897 4.329646395916122 13.17726092292725 22.1372055487394 0 0 0
1687 563 2 -1.1794 5.822224484162937 17.36523751450141 20.59906277973833 0 0 0
1691 564 1 0.5897 2.941897905931673 15.984612787978746 21.129472319710214 0 0 0
1694 565 1 0.5897 0.9047177982157606 15.501619639168744 21.743723368919074 0 0 0
1695 565 1 0.5897 1.396777030271178 14.201172787240353 22.342312078739734 0 0 0
1689 563 1 0.5897 4.870709296593958 17.363515607213778 20.49476398491144 0 0 0
1686 562 1 0.5897 3.1057129702742095 14.04277123580263 20.097912280935265 0 0 0
1685 562 1 0.5897 3.3679080216267248 13.363640816171658 18.770641564514857 0 0 0
1692 564 1 0.5897 2.7050579441479528 16.855856687108165 19.914385981528138 0 0 0
1704 568 1 0.5897 1.531078308039939 17.445403467813485 17.941524990783677 0 0 0
1697 566 1 0.5897 1.0171656199520427 13.925226100376385 19.36943450406975 0 0 0
1702 568 2 -1.1794 1.4752822701628328 16.61562627987349 18.415292010197454 0 0 0
1690 564 2 -1.1794 3.219467669144242 16.8039479601155 20.7198948766813 0 0 0
1682 561 1 0.5897 5.013938292019164 13.73198256408997 20.906068531477526 0 0 0
1684 562 2 -1.1794 2.7587087562330126 13.956925367299668 19.210016937688344 0 0 0
1681 561 2 -1.1794 4.325537493126073 13.926769296891257 21.541955491469924 0 0 0
1701 567 1 0.5897 3.729394719000119 15.38460164177615 18.321129258476443 0 0 0
1703 568 1 0.5897 1.5323825787417487 15.94593281707308 17.733852725643896 0 0 0
1705 569 2 -1.1794 4.4974933233112555 18.43370595891971 17.902444005694647 0 0 0
1830 610 1 0.5897 2.0594751775898814 18.139153609851142 21.793480336521238 0 0 0
1696 566 2 -1.1794 0.10706088145146708 13.646196846071405 19.469892369210985 0 0 0
361 121 2 -1.1794 4.555582966167826 20.466368300563573 3.820868590670786 0 0 0
362 121 1 0.5897 3.779982791779456 20.160981453675824 3.350349468268206 0 0 0
364 122 2 -1.1794 2.626190373966155 20.049919207505035 1.6144330157612534 0 0 0
365 122 1 0.5897 2.674315197767894 20.957225427031815 1.3134815802421558 0 0 0
370 124 2 -1.1794 3.261968787409373 23.046081388064636 3.4069582206693667 0 0 0
371 124 1 0.5897 4.203051393970443 23.102176345794156 3.5727046393047646 0 0 0
372 124 1 0.5897 2.9135938160765527 22.56936500582824 4.160291489701035 0 0 0
373 125 2 -1.1794 1.6217814182428716 21.607852414735504 5.173632918087007 0 0 0
375 125 1 0.5897 0.8990570063945971 21.79949010956929 4.576016175903231 0 0 0
382 128 2 -1.1794 1.3848489615572026 23.03835880521671 1.0792416721500806 0 0 0
383 128 1 0.5897 2.0832466361627144 23.219135443526632 1.7083284236935896 0 0 0
390 130 1 0.5897 1.5088316137298114 19.842528932691565 4.973679165510106 0 0 0