LAMMPS data file via write_data, version 30 Jul 2021, timestep = 17750000

1008 atoms
2 atom types
672 bonds
1 bond types
336 angles
1 angle types

-3.152637209454424 14.762636209008631 xlo xhi
-0.088294754657813 22.668293754652044 ylo yhi
-0.05168412975901937 19.281682129756327 zlo zhi
0.1226449331431348 -6.576262711843152 0.020024804769335946 xy xz yz

Masses

1 1.008
2 15.999

Pair Coeffs # lj/cut/tip4p/long/omp

1 0 0
2 0.21084 3.1668

Bond Coeffs # harmonic/omp

1 450 0.9572

Angle Coeffs # harmonic/omp

1 55 104.52

Atoms # full

21 7 1 0.5897 1.196894387684556 2.2633354774158456 0.8427401396096127 0 0 0
55 19 2 -1.1794 -0.491356708925653 3.967402731120819 3.429457287702725 0 0 0
56 19 1 0.5897 -1.1335816288329457 3.501530907111646 2.8940637124464654 0 0 0
57 19 1 0.5897 0.14628694443435775 4.304679362282483 2.80022886786002 0 0 0
121 41 2 -1.1794 -2.4322989926968464 2.5590551287950145 2.2355302977146536 1 0 0
122 41 1 0.5897 -2.210436994987605 2.2469361840465365 1.3583393899274354 1 0 0
86 29 1 0.5897 -2.3510664694034356 1.5127267016501715 3.752447877064879 1 0 0
31 11 2 -1.1794 1.2163399159917416 1.1253222305271726 2.265814040805255 0 0 0
32 11 1 0.5897 1.2996331485390353 1.3732566024996216 3.1865133442504363 0 0 0
46 16 2 -1.1794 2.072523012221808 4.772521911753035 2.2641780965672185 0 0 0
123 41 1 0.5897 -3.3484818127038243 2.82834567397154 2.169815692707574 1 0 0
33 11 1 0.5897 0.43413689808863776 0.5744624871784823 2.235524490388471 0 0 0
70 24 2 -1.1794 3.8835387929770953 0.48876287113096994 1.5981840540015226 0 0 0
6 2 1 0.5897 3.519420651359657 1.4674872137943156 4.585835592094917 0 0 0
47 16 1 0.5897 1.952793822457128 5.29392997235876 1.4703716170648868 0 0 0
101 34 1 0.5897 -2.61235666332366 4.765375429484447 -0.040150649113884385 1 0 0
54 18 1 0.5897 3.1093222850641045 3.4932124411836587 3.1238199592204663 0 0 0
158 53 1 0.5897 -4.1263792836680375 4.415205656728152 4.262902768717335 1 0 0
602 201 1 0.5897 -0.5812169524737856 5.289076167122504 0.4424966498083348 1 0 1
19 7 2 -1.1794 1.2638934311916303 2.627167574792818 -0.04011909429698325 0 0 0
527 176 1 0.5897 4.036562524802702 1.779430283418084 0.2441907431353102 0 0 1
71 24 1 0.5897 3.1268723432669656 0.6710861104208042 2.155303612975676 0 0 0
52 18 2 -1.1794 3.726945136198954 2.9874185952379646 3.652039004312044 0 0 0
16 6 2 -1.1794 5.016628151361219 4.742117139418039 0.4470921116342653 0 0 0
78 26 1 0.5897 0.38126932600456565 2.8041657339637105 4.609234806193936 0 0 0
53 18 1 0.5897 4.474884335253074 2.8416837369861927 3.072806049977503 0 0 0
482 161 1 0.5897 -1.201411819380831 0.03515131114696632 0.9310807000381478 1 1 0
48 16 1 0.5897 2.0230614490339267 5.407862672253212 2.9782791378517834 0 0 0
85 29 2 -1.1794 -2.44670653502771 1.151572987579743 4.63376621210995 1 0 0
18 6 1 0.5897 4.507209945729528 3.9996520360011907 0.12246674132090601 0 0 0
9 3 1 0.5897 -0.7493014604548938 5.554495831675712 4.3504091082285985 0 0 0
72 24 1 0.5897 4.456068339596461 -0.053397256018080624 2.1409373014779485 0 0 0
87 29 1 0.5897 -3.392632096594741 1.08837542187779 4.765875888575878 1 0 0
157 53 2 -1.1794 -3.6339138700994793 5.063726226174597 4.76589841669757 1 0 0
134 45 1 0.5897 -2.2281357389818117 2.5600874691196447 5.715920049823105 1 0 0
135 45 1 0.5897 -1.6087105513937763 3.4601836925597222 6.763627428359126 1 0 0
401 134 1 0.5897 2.427117165921164 0.061183839330961415 9.118128103533444 0 1 0
34 12 2 -1.1794 0.1342542904559365 1.2503524834756485 7.267360409670058 0 0 0
35 12 1 0.5897 0.27793205954203426 1.8473405310915125 8.001536718525488 0 0 0
36 12 1 0.5897 -0.7868848084200146 0.9999733064840963 7.338334402951844 0 0 0
44 15 1 0.5897 -0.1274718505867951 5.326943358797876 7.9518005122459225 0 0 0
67 23 2 -1.1794 -2.3013195496453944 0.36667209453201327 8.30773108355732 0 0 0
124 42 2 -1.1794 -4.99500093167468 2.6601155545656665 7.4039796520924925 1 0 0
58 20 2 -1.1794 2.431062593861933 3.927465972700368 6.304412873749146 0 0 0
59 20 1 0.5897 2.1035111958056065 3.211414518412028 5.760289676149563 0 0 0
68 23 1 0.5897 -3.1614739966786565 0.05027908264757178 8.031661512304435 0 0 0
43 15 2 -1.1794 -0.12340265713164911 4.870372991633003 7.110610513328384 0 0 0
126 42 1 0.5897 -4.118212364027963 2.974231076463703 7.183031054531004 1 0 0
45 15 1 0.5897 0.7999193262881241 4.679307088109933 6.945765891653061 0 0 0
133 45 2 -1.1794 -2.4491957475169954 3.21826095530873 6.3747119029503505 1 0 0
60 20 1 0.5897 2.9556058888155086 3.495781310804299 6.978799249825582 0 0 0
159 53 1 0.5897 -3.0687008601212526 4.5447960277612385 5.338222820845943 1 0 0
669 223 1 0.5897 -5.285643463571533 1.7392329530590176 8.960623661903314 1 0 0
98 33 1 0.5897 -4.147815590095581 5.112733887899365 8.718886471303191 1 0 0
77 26 1 0.5897 0.5285509351698066 1.7843815747616418 5.718539723159235 0 0 0
69 23 1 0.5897 -2.4886595400957168 1.1481044713351627 8.827662460425564 0 0 0
522 174 1 0.5897 2.2739435967828054 5.436662202568683 9.238701722612415 0 0 0
11 4 1 0.5897 2.3441252407721604 5.328059672965025 5.163518544597493 0 0 0
402 134 1 0.5897 1.3976079213749166 0.20245083470012298 8.017204812649696 0 1 0
22 8 2 -1.1794 0.3616073692913546 2.7542357928118815 9.4817485973282 0 0 0
90 30 1 0.5897 -5.096090890199454 1.6520377479351482 5.912944931789967 1 0 0
5 2 1 0.5897 3.008277042593619 0.07759282854812688 4.900384628493095 0 0 0
97 33 2 -1.1794 -4.18047562866374 4.703719684868535 9.583730719535543 1 0 0
4 2 2 -1.1794 3.7242884494329456 0.6825785067162262 5.094057670983264 0 0 0
606 202 1 0.5897 -6.075645776475451 4.354619106314332 9.5309489288891 1 0 0
76 26 2 -1.1794 0.9641516406293755 2.117880468094571 4.934117774447336 0 0 0
525 175 1 0.5897 -1.5527718888306397 2.8680231578660726 9.672760036074784 0 0 0
23 8 1 0.5897 0.46021906280739033 2.0832169634874083 10.157299230361767 0 0 0
560 187 1 0.5897 -4.614719740877249 3.970782394211896 12.54701749916313 0 0 0
520 174 2 -1.1794 2.370216197783151 4.687269241313883 9.826482685520004 0 0 0
627 209 1 0.5897 -6.841143776703698 2.927202041336256 12.075615226339382 1 0 0
550 184 2 -1.1794 -1.4237004030672935 5.130621770240952 12.10582264457833 0 0 0
574 192 2 -1.1794 0.6279428053174314 0.3837199978371411 10.99345031569336 0 0 0
24 8 1 0.5897 0.9961222021826837 3.430016557397935 9.720258133429489 0 0 0
535 179 2 -1.1794 -1.7830125699535078 0.9271940512087467 12.188052451062106 0 0 0
536 179 1 0.5897 -1.7652834906496055 1.3362683766346004 13.053166835793096 0 0 0
537 179 1 0.5897 -2.0668457606905304 1.6255437670413886 11.598066992356847 0 0 0
576 192 1 0.5897 -0.14695918495137184 0.3331052221450237 11.553070735191888 0 0 0
625 209 2 -1.1794 -5.92258537585567 2.6840284691234655 11.960245058172596 1 0 0
556 186 2 -1.1794 0.5226461854627873 3.430087867632648 12.919780593165102 0 0 0
561 187 1 0.5897 -3.503874968074549 3.492454351995486 13.457634101296147 0 0 0
668 223 1 0.5897 -5.831024377374744 1.6742835596442354 10.371347363982002 1 0 0
558 186 1 0.5897 -0.17997687165704512 4.030736566379248 12.67116434866949 0 0 0
559 187 2 -1.1794 -3.8677943286333902 4.282493417650645 13.057999848038133 0 0 0
593 198 1 0.5897 -7.403700249808229 0.8290946532798861 14.34457345838267 1 0 0
552 184 1 0.5897 -2.3168675718239378 4.810889463017313 12.233358970016974 0 0 0
626 209 1 0.5897 -5.7926439320835605 1.9469720608043954 12.557087351893216 1 0 0
557 186 1 0.5897 0.0916094027883414 2.7660357994219296 13.457901329525805 0 0 0
662 221 1 0.5897 -7.399047277852617 4.683052773775557 13.920992913545579 1 0 0
661 221 2 -1.1794 -6.940478341516493 5.4711019265358765 14.2122619902304 1 0 0
523 175 2 -1.1794 -2.4206374932363004 2.59334557329309 9.968669383626905 0 0 0
99 33 1 0.5897 -3.787895103668292 5.35048317931239 10.169966723632895 1 0 0
667 223 2 -1.1794 -5.540320948003787 1.1215047800324944 9.646105630664936 1 0 0
575 192 1 0.5897 1.3222528174751753 -0.029058487815650333 11.507099714373881 0 0 0
524 175 1 0.5897 -2.996998593368564 3.318580518814801 9.72761349379595 0 0 0
589 197 2 -1.1794 -5.64740159711441 1.0106335230010715 14.220206637725317 1 0 0
547 183 2 -1.1794 -3.6884312640051045 4.899859792213321 16.88494761326168 0 0 0
581 194 1 0.5897 -2.6960607835904558 1.9096567548469108 15.114862432584111 0 0 0
590 197 1 0.5897 -5.4923164149564485 1.7135819315267113 14.850984031925801 1 0 0
629 210 1 0.5897 -8.791672237174325 3.2768986828056677 16.610680672829623 1 0 0
630 210 1 0.5897 -8.224712442403401 2.1046860182237306 15.838658234382446 1 0 0
563 188 1 0.5897 -0.9250259686271702 5.114122275752202 15.827689134998415 0 0 0
639 213 1 0.5897 -5.75740928870025 3.913059025496473 15.055003899852755 1 0 0
572 191 1 0.5897 -6.441057343718475 0.10049789174361773 17.46258691406568 0 0 0
538 180 2 -1.1794 -3.1771292572570617 1.0185967651735823 16.612681861881114 0 0 0
539 180 1 0.5897 -2.8519142268105897 1.5379165196604967 17.347951753692072 0 0 0
571 191 2 -1.1794 -5.587035307118357 0.5146169471378396 17.58651660023402 0 0 0
540 180 1 0.5897 -4.113396916212161 0.9187330572979833 16.78489237379577 0 0 0
638 213 1 0.5897 -6.268565412879397 3.25636320398104 16.319742147358248 1 0 0
549 183 1 0.5897 -4.350837893918962 4.27774162240422 16.584359394796493 0 0 0
562 188 2 -1.1794 -1.1382280712580117 4.269573492931555 16.224695288445332 0 0 0
165 55 1 0.5897 -9.29147863663717 0.6839754663612015 18.920222295542956 1 0 -1
564 188 1 0.5897 -1.9266327669733139 4.438945878437522 16.740360412052276 0 0 0
637 213 2 -1.1794 -5.500516344714292 3.3079333828839994 15.750831419690916 1 0 0
164 55 1 0.5897 -8.49069185414329 1.8757118270509023 18.440037120671505 1 0 -1
628 210 2 -1.1794 -8.179282157381099 2.5452101121792228 16.6871584622194 1 0 0
20 7 1 0.5897 -5.470606987728731 1.9018762402552196 18.71399780545987 0 0 -1
582 194 1 0.5897 -1.9183034196684803 3.2084977890318 15.117203026854256 0 0 0
548 183 1 0.5897 -3.658859973410353 5.568411401839977 16.200459583053792 0 0 0
508 170 2 -1.1794 0.4500498816053904 1.2573365290837673 14.74320527369504 0 0 0
528 176 1 0.5897 -3.654765143265128 2.642021456555593 18.99556410986689 0 0 0
603 201 1 0.5897 -6.584410976479049 4.052493559570029 19.156077277788434 1 0 0
580 194 2 -1.1794 -2.2947513968080653 2.5527820171100095 14.53033282815277 0 0 0
526 176 2 -1.1794 -2.71922029314836 2.459549536660705 18.907948342447547 0 0 0
163 55 2 -1.1794 -8.572984002413628 1.264164515199833 19.171879705859823 1 0 -1
601 201 2 -1.1794 -7.281020392306537 4.7000221630380805 19.047970773125257 1 0 0
591 197 1 0.5897 -5.075383702682856 0.29922887188421926 14.508261520045085 1 0 0
289 97 2 -1.1794 -2.468173922144854 10.480460670782305 2.4977471927259067 1 0 0
255 85 1 0.5897 -1.9206684619673675 9.243968433462152 3.8558702274394814 1 0 0
146 49 1 0.5897 -1.3441203322084465 6.559665847612581 2.2325360181610465 1 0 0
147 49 1 0.5897 -0.9292475066842489 7.343479897539485 1.0055023494459958 1 0 0
332 111 1 0.5897 -2.2720589698593368 9.436820168695427 0.9359159798925204 1 0 0
145 49 2 -1.1794 -0.6456656218662813 6.634083959356752 1.5822888215966444 1 0 0
112 38 2 -1.1794 -3.3821043850631405 6.4804132642188454 2.444010764627317 1 0 0
291 97 1 0.5897 -3.241745566746835 10.934653689723076 2.8315993767361665 1 0 0
188 63 1 0.5897 1.0296240374462853 9.702151599644669 1.1791773953337914 0 0 0
222 74 1 0.5897 3.2008572859598363 11.069883642052305 3.056431763341213 0 0 0
221 74 1 0.5897 4.501932833200749 10.297304571722405 3.102960542680129 0 0 0
29 10 1 0.5897 4.918836018169108 7.183680765104336 2.300906195682825 0 0 0
696 232 1 0.5897 4.284370393527603 10.98263595490906 0.1070688974401359 0 0 1
10 4 2 -1.1794 2.195046130297352 6.087569409597288 4.600247310792686 0 0 0
200 67 1 0.5897 0.6032511753656244 7.7067018364688185 2.3571758895685786 0 0 0
199 67 2 -1.1794 1.1662694226193508 8.377168260946355 2.743991746182514 0 0 0
245 82 1 0.5897 1.1893889162574887 9.365943922345021 4.3036544836996695 0 0 0
189 63 1 0.5897 2.050508915367966 10.003243937614847 0.10259303958045746 0 0 0
290 97 1 0.5897 -1.7398379565219972 11.068760379793472 2.6968102671390235 1 0 0
220 74 2 -1.1794 3.754629794139465 10.554455150556162 3.6429257826072217 0 0 0
201 67 1 0.5897 2.0317322702147926 8.20781612683611 2.371858771424493 0 0 0
239 80 1 0.5897 3.800536643735141 8.791348015857093 1.1785864248326179 0 0 0
238 80 2 -1.1794 3.5255813434886525 7.97719866581512 1.6003640229274445 0 0 0
240 80 1 0.5897 3.3001795581551523 7.395271966456275 0.8746746350772201 0 0 0
187 63 2 -1.1794 1.1079311660292488 9.985737691069131 0.268294035526544 0 0 0
113 38 1 0.5897 -3.5172751635266324 6.078760199701821 3.3023231498799315 1 0 0
224 75 1 0.5897 0.3319827712538519 11.137868709571345 3.8489537077351756 0 0 0
694 232 2 -1.1794 3.810725650584974 10.159877014245557 -0.015006272653477301 0 0 1
114 38 1 0.5897 -3.4195911417548204 5.748706599305297 1.8281643093802327 1 0 0
174 58 1 0.5897 3.5593223086851937 8.944746378387446 4.7008159003048835 0 0 0
254 85 1 0.5897 -1.7361598979435047 7.997102737281487 4.694602310345132 1 0 0
331 111 2 -1.1794 -2.0218369502430473 8.723130639519784 0.34932150743803797 1 0 0
253 85 2 -1.1794 -1.9799209863372922 8.92075154732204 4.754928290628556 1 0 0
191 64 1 0.5897 0.7430150875932315 9.959511092265672 8.87148176234088 0 0 0
12 4 1 0.5897 1.3126365751908473 6.383044538126684 4.824386489686417 0 0 0
109 37 2 -1.1794 -4.226064813852437 6.422906780936717 7.216213831796061 1 0 0
835 279 2 -1.1794 -5.212679236547771 8.727646506764314 9.556933368520335 1 0 0
293 98 1 0.5897 -3.7946837218825538 10.430164142794988 7.276704638307032 1 0 0
111 37 1 0.5897 -5.1273347985316455 6.703180752862741 7.375436865738065 1 0 0
292 98 2 -1.1794 -4.744800176647807 10.313982760769921 7.275391742109738 1 0 0
8 3 1 0.5897 -0.6607462572610472 6.025320560142129 5.786389898520438 0 0 0
246 82 1 0.5897 0.7365644034294316 9.528890310002932 5.7389655846330685 0 0 0
294 98 1 0.5897 -4.936346459271181 9.893603226588716 8.113786369257207 1 0 0
228 76 1 0.5897 2.2186173994503173 11.211674581132089 5.802384326934181 0 0 0
64 22 2 -1.1794 2.2078274267958022 6.897423376174057 8.108797890608649 0 0 0
66 22 1 0.5897 2.9004154057917777 6.612568116940047 7.51270564668226 0 0 0
202 68 2 -1.1794 0.36777739944981924 8.715909295990768 7.278308237271228 0 0 0
203 68 1 0.5897 -0.5013075233392983 8.470681957123434 7.595793877953066 0 0 0
204 68 1 0.5897 0.9476314947906328 8.03243064721156 7.614322223135557 0 0 0
110 37 1 0.5897 -4.229021565219784 6.107383520362525 6.312588780329007 1 0 0
235 79 2 -1.1794 -1.987788103035066 7.9539112240036065 8.303030606479972 0 0 0
236 79 1 0.5897 -2.7020595594444816 7.647579471152326 7.744341930081104 0 0 0
237 79 1 0.5897 -2.367880896836336 8.675098520330556 8.804527616095854 0 0 0
302 101 1 0.5897 -1.8396282506789423 10.368873509468353 6.121842810439068 1 0 0
588 196 1 0.5897 -1.1017149323738686 6.799360150295104 9.511094224686191 0 0 0
301 101 2 -1.1794 -2.146390594227884 10.925229023909012 6.837685411488515 1 0 0
172 58 2 -1.1794 3.8160831226203573 8.226597431746837 5.279336873377978 0 0 0
837 279 1 0.5897 -5.896611716774942 8.1627129274378 9.197445349293526 1 0 0
173 58 1 0.5897 3.2792720319631137 7.486507982064441 4.996023455041332 0 0 0
65 22 1 0.5897 2.6271725144900726 7.550200842994321 8.669267353055428 0 0 0
7 3 2 -1.1794 -0.7130562735197783 6.34672746160338 4.886252603166091 0 0 0
257 86 1 0.5897 -3.9206557354217715 9.00290828518118 4.820168978282918 1 0 0
244 82 2 -1.1794 1.097954436319898 10.017097400824394 4.999133111549377 0 0 0
258 86 1 0.5897 -4.982131794699345 9.452150042146645 5.801546382798364 1 0 0
724 242 2 -1.1794 0.6049718312479531 10.689526384490755 13.077227250815545 0 0 0
794 265 1 0.5897 -5.085559359227403 10.35115500859256 12.083000719573159 1 0 0
836 279 1 0.5897 -4.54432867841423 8.121618242941846 9.87680277745932 1 0 0
513 171 1 0.5897 -3.7864286976139985 5.672622442055807 14.13713152988138 0 0 0
742 248 2 -1.1794 0.8671608265442394 7.886941004379261 11.573835855167305 0 0 0
192 64 1 0.5897 1.3763920123374476 10.99854848570725 9.77192622400674 0 0 0
616 206 2 -1.1794 -6.364063907483693 6.547934354117757 11.762533956274654 1 0 0
693 231 1 0.5897 -2.1933624866848276 9.410370171016547 10.83313692886208 0 0 0
649 217 2 -1.1794 -3.635256068755009 7.01021778151411 10.842058394394089 1 0 0
650 217 1 0.5897 -3.1338500031955245 7.456024684185291 11.524669516533644 1 0 0
651 217 1 0.5897 -4.5100533385647665 6.90575734240619 11.216289189663657 1 0 0
795 265 1 0.5897 -5.3717250925515 9.261029264915065 11.072447736724454 1 0 0
744 248 1 0.5897 0.6376207651626902 7.247208274079092 10.899946538545022 0 0 0
793 265 2 -1.1794 -5.651885108119512 9.596016013491287 11.924142637995752 1 0 0
678 226 1 0.5897 0.6916663117946085 9.233647536983113 14.221005952825589 0 0 0
759 253 1 0.5897 -5.54396952174984 8.919542309457814 13.583185469152259 1 0 0
703 235 2 -1.1794 -1.7593912065207675 8.51152936323678 12.302237918139108 0 0 0
704 235 1 0.5897 -0.8130107520067318 8.563805740417893 12.168610563486219 0 0 0
705 235 1 0.5897 -1.9087268967726505 8.955146917275336 13.137081815323285 0 0 0
743 248 1 0.5897 1.0383845879092473 8.694695356519606 11.089540990928233 0 0 0
587 196 1 0.5897 -0.7781262401033096 5.77233778387724 10.575373986009419 0 0 0
726 242 1 0.5897 0.05501112341213332 11.118411666269946 12.421559286847696 0 0 0
691 231 2 -1.1794 -2.223488071816143 9.970978574420512 10.057799459691728 0 0 0
750 250 1 0.5897 -2.9338085593727063 10.604476930580729 14.207551835800475 0 0 0
586 196 2 -1.1794 -0.4207117683284327 6.187361170073895 9.790322763285106 0 0 0
692 231 1 0.5897 -1.3097075398177602 10.20509626460664 9.89525258380429 0 0 0
190 64 2 -1.1794 0.7286058874896755 10.293868815620272 9.768192887492086 0 0 0
618 206 1 0.5897 -6.550466066342608 5.787689297377409 11.211759342073126 1 0 0
663 221 1 0.5897 -6.7159970800311655 5.931075831836222 13.403338577195921 1 0 0
551 184 1 0.5897 -1.2776278573656645 5.732159407844531 12.835801178634924 0 0 0
757 253 2 -1.1794 -5.69204215782986 8.461290327685157 14.410471645550512 1 0 0
797 266 1 0.5897 -7.154735549760801 10.403699626086532 17.097809340137474 1 0 0
695 232 1 0.5897 -2.5702364583820385 9.922072572335793 18.41753835815758 0 0 0
741 247 1 0.5897 -5.751414890995754 8.743812350058754 18.33828130864059 0 0 0
758 253 1 0.5897 -5.424932035930738 9.08780426458798 15.082930867836195 1 0 0
740 247 1 0.5897 -6.280235231872226 7.663647349652343 17.418975257952646 0 0 0
568 190 2 -1.1794 -1.1774663080390066 6.970879080885769 17.931913606046145 0 0 0
511 171 2 -1.1794 -3.6877669958925017 6.45989568642435 14.67243189473257 0 0 0
512 171 1 0.5897 -4.490144608015907 6.9580829715494135 14.516712677476496 0 0 0
514 172 2 -1.1794 -0.8788335252194361 6.43965014641045 14.510241152177318 0 0 0
516 172 1 0.5897 -0.4148263068143665 7.275902662578887 14.550147356226134 0 0 0
569 190 1 0.5897 -1.5000102946296447 6.202895625352107 18.4036024563082 0 0 0
749 250 1 0.5897 -2.787918388175079 9.61716745991718 15.346025387799202 0 0 0
84 28 1 0.5897 -3.8747485817571246 5.713716607967365 18.514399032114362 0 0 -1
613 205 2 -1.1794 -7.534425874097432 6.449514952991764 16.694130751122927 1 0 0
796 266 2 -1.1794 -8.019754574037663 10.043269338457426 17.29293241989287 1 0 0
706 236 2 -1.1794 -2.942359867827739 8.813282594927038 16.961223026260427 0 0 0
707 236 1 0.5897 -3.794367877123203 8.444903808900595 17.19494686522136 0 0 0
708 236 1 0.5897 -2.3082025951766028 8.16678906404181 17.271343108837797 0 0 0
739 247 2 -1.1794 -5.466872454263372 8.050762858535329 17.742642926682493 0 0 0
798 266 1 0.5897 -8.236611275350786 9.51179540983196 16.52704347577845 1 0 0
676 226 2 -1.1794 0.7037921631348709 8.557378962561803 14.898406065656465 0 0 0
333 111 1 0.5897 -8.515942470945205 9.15659169054175 18.82324788046772 1 0 -1
805 269 2 -1.1794 -5.656423767504072 10.767371857094068 16.01303145133638 1 0 0
570 190 1 0.5897 -0.3344332485601704 6.695031929644358 17.572212786842144 0 0 0
515 172 1 0.5897 -1.8006336627129294 6.670972904478077 14.62415407991109 0 0 0
762 254 1 0.5897 -7.37610273681038 8.661864773458728 14.716724362003893 1 0 0
615 205 1 0.5897 -7.341148785888823 6.053661979366134 15.844409127736702 1 0 0
807 269 1 0.5897 -4.910928361023473 11.188195137278994 16.441169697116855 1 0 0
82 28 2 -1.1794 -4.20191520799626 6.324729031149168 19.17444913969328 0 0 -1
614 205 1 0.5897 -7.356522429917815 5.755058407829955 17.328505182435656 1 0 0
83 28 1 0.5897 -4.825812216669628 6.876391572717804 18.702542433557873 0 0 -1
731 244 1 0.5897 -1.5057593321172291 11.276751162547269 15.385975062447441 0 0 0
748 250 2 -1.1794 -2.3503299980231436 9.929326781497858 14.553972782228769 0 0 0
280 94 2 -1.1794 -3.2346236329516365 13.8506526678663 2.4844696808027313 1 0 0
281 94 1 0.5897 -3.2065018787385986 13.512364622713733 3.379486130501338 1 0 0
282 94 1 0.5897 -2.3179120175437573 14.008041795345914 2.2584534385847967 1 0 0
500 167 1 0.5897 -1.7247345842126243 15.873110340385571 0.6074125041478698 1 0 0
499 167 2 -1.1794 -2.3765223606646533 16.41780008248647 0.1661055710638892 1 0 0
214 72 2 -1.1794 2.3191304087328586 12.525788776988335 2.4057909838644553 0 0 0
313 105 2 -1.1794 -0.7587879576981567 14.583890785696093 1.6009606018290683 1 0 0
315 105 1 0.5897 -0.30819647810440465 13.981626788700424 1.0090696104989572 1 0 0
314 105 1 0.5897 -0.07488257907599705 15.183209299623638 1.8997301561149909 1 0 0
223 75 2 -1.1794 -0.22874944699270472 11.671942078324578 3.286233420078648 0 0 0
225 75 1 0.5897 -0.2626483602634675 12.524183444032369 3.7205523085956655 0 0 0
369 123 1 0.5897 1.1504719075855494 16.61645946006049 3.2752683909963385 0 0 0
252 84 1 0.5897 3.047335948427955 14.51976805148048 0.4313971497092663 0 0 0
423 141 1 0.5897 -2.42766531490355 16.160949265590048 3.772903694651633 1 0 0
408 136 1 0.5897 4.0781002031149205 16.42957572567121 1.4209123987700243 0 0 0
367 123 2 -1.1794 1.2171397181248622 16.15125937484656 2.441483150979996 0 0 0
216 72 1 0.5897 1.3824586288405616 12.347244779298281 2.489449295197448 0 0 0
180 60 1 0.5897 2.5008164484432935 13.781231116399605 3.9526799214126447 0 0 0
368 123 1 0.5897 2.1280283880505726 15.85995131450537 2.401414245083215 0 0 0
215 72 1 0.5897 2.409441000882798 12.935611754287127 1.545439509631545 0 0 0
407 136 1 0.5897 4.506414342316846 15.093874603382064 1.9906216748907055 0 0 0
406 136 2 -1.1794 3.750290717700964 15.55394710590514 1.6260878958583695 0 0 0
184 62 2 -1.1794 5.371143349396938 12.385707352793302 0.36257507779136267 0 0 0
770 257 1 0.5897 -1.2904576224308728 12.077746996379204 0.18973862310677025 1 0 1
421 141 2 -1.1794 -2.3051913254481944 15.9141482210253 4.689603908723726 1 0 0
771 257 1 0.5897 0.12161376611742636 11.568833825319574 -0.00748162678854547 1 0 1
177 59 1 0.5897 0.5053944229831275 14.399778766391327 4.717938746785093 0 0 0
176 59 1 0.5897 -0.9762192700305845 14.710267880829777 4.701132242103773 0 0 0
425 142 1 0.5897 -4.052892632195297 15.878151637511719 4.7259438660985875 1 0 0
769 257 2 -1.1794 -0.40057276896972915 12.371045322992416 -0.006031558935275967 1 0 1
404 135 1 0.5897 -1.549004820370405 16.213954929700527 7.750448600401783 0 0 0
175 59 2 -1.1794 -0.3547714427589881 13.991138798225947 4.814718253833703 0 0 0
326 109 1 0.5897 -2.9739934964753 11.928096793265732 5.401649986049292 1 0 0
327 109 1 0.5897 -3.2213230292666557 13.39065314849838 5.704091741551622 1 0 0
405 135 1 0.5897 -2.2002598712032415 16.62151363577051 9.054822479629387 0 0 0
211 71 2 -1.1794 -0.018796298678213308 12.755880354441125 7.264601457523772 0 0 0
227 76 1 0.5897 1.600033685511236 12.185334449083186 6.782607770638379 0 0 0
213 71 1 0.5897 -0.4603465341137949 13.23441816259993 6.56292118472551 0 0 0
212 71 1 0.5897 0.051580877025386496 13.3886720034019 7.9792131466863765 0 0 0
318 106 1 0.5897 -5.987118557469087 15.154939433689893 8.792839591232854 1 0 0
232 78 2 -1.1794 2.3763518690588823 14.670006732677345 8.215405672709492 0 0 0
179 60 1 0.5897 2.556134516293433 13.434465483452701 5.42531467647505 0 0 0
234 78 1 0.5897 1.8003661121221182 15.244774702647161 7.711236686807596 0 0 0
370 124 2 -1.1794 0.2750640592019393 16.28425645604915 7.203900771475558 0 0 0
341 114 1 0.5897 3.3596089671314218 15.71007216687149 5.19561692499871 0 0 0
277 93 2 -1.1794 -3.732597619665334 13.867689241872087 7.418396921163832 1 0 0
278 93 1 0.5897 -3.134401167147331 14.488368312917958 7.834397150031417 1 0 0
756 252 1 0.5897 -1.2816770951331788 14.721331595790621 9.243759207127866 0 0 0
372 124 1 0.5897 0.29559878700834075 16.66520688327832 6.325970688878277 0 0 0
403 135 2 -1.1794 -2.1579650046460825 15.905259832615888 8.421376310846105 0 0 0
226 76 2 -1.1794 2.442189669919692 11.901323830204346 6.427262515085332 0 0 0
267 89 1 0.5897 -3.5115657974538794 12.428685052454393 8.698523152488725 1 0 0
340 114 2 -1.1794 3.7057863661301784 16.597523142093596 5.28924196875729 0 0 0
279 93 1 0.5897 -4.605376331720985 14.171960514697277 7.6671282804058905 1 0 0
233 78 1 0.5897 3.1310864055853926 14.526045517113124 7.64459436212656 0 0 0
1004 335 1 0.5897 -5.071549622394093 16.812945852433337 8.973117895128421 1 0 0
325 109 2 -1.1794 -3.206995097801606 12.75824728667971 4.985841948732555 1 0 0
178 60 2 -1.1794 2.439649149501319 14.170786330166905 4.824795647991222 0 0 0
462 154 1 0.5897 -4.950061452230342 16.96411717018307 6.353789157046393 1 0 0
690 230 1 0.5897 2.186020246092575 13.290822472288509 9.476074485514246 0 0 0
265 89 2 -1.1794 -3.7364065231928167 12.215395478782774 9.6041703429401 1 0 0
422 141 1 0.5897 -2.124210113414206 16.740029896847677 5.13823542117205 1 0 0
303 101 1 0.5897 -1.3652494169401215 11.39698026482401 7.126570052219868 1 0 0
1005 335 1 0.5897 -4.460417047880049 15.786398162555583 9.90308414920778 1 0 0
728 243 1 0.5897 -2.997733450203101 11.87077051896056 12.417349086089274 0 0 0
754 252 2 -1.1794 -0.6981203493743662 14.174647365372563 9.769968934861401 0 0 0
718 240 2 -1.1794 -1.1034225703963259 12.399875270531142 11.812633491391956 0 0 0
912 304 1 0.5897 1.2553176542674587 15.281962459969579 11.833272375286187 0 0 0
720 240 1 0.5897 -1.1683924510754755 13.03547934673471 12.525225774678972 0 0 0
785 262 1 0.5897 -6.953304572784632 14.466374878340371 11.751583655538202 1 0 0
872 291 1 0.5897 -2.1072128243698858 16.896829521470167 11.776716745430834 0 0 0
774 258 1 0.5897 -5.4586226564102995 12.125691514439582 9.688536192795807 1 0 0
784 262 2 -1.1794 -6.258071928971418 13.858402778852506 12.003116202886975 1 0 0
729 243 1 0.5897 -4.020720019568008 12.538159812330766 13.311623013014527 0 0 0
911 304 1 0.5897 -0.09071091546771193 15.973121037627141 11.784515509953113 0 0 0
910 304 2 -1.1794 0.7539884023222649 15.928651461584149 11.33650789778214 0 0 0
727 243 2 -1.1794 -3.7856099378934656 11.692127809531879 12.930744414800511 0 0 0
829 277 2 -1.1794 -6.740453867262514 12.649599875389674 14.440526388674673 1 0 0
719 240 1 0.5897 -0.8661609499582723 12.922004431166133 11.046217741898493 0 0 0
786 262 1 0.5897 -6.4804451723124545 13.595649342524723 12.896298816769354 1 0 0
817 273 2 -1.1794 -3.614353346144111 14.521526863968456 11.144507812816531 1 0 0
818 273 1 0.5897 -4.40401487701694 14.389911458506676 11.669221171577444 1 0 0
819 273 1 0.5897 -3.462591940828169 13.675686615404246 10.723071838413901 1 0 0
873 291 1 0.5897 -2.443191459234634 15.470265605217516 12.156291903960787 0 0 0
871 291 2 -1.1794 -1.8084191810587678 16.167664325947992 12.320187376468548 0 0 0
755 252 1 0.5897 -0.16661726278871702 14.798139527640709 10.264810111845934 0 0 0
682 228 2 -1.1794 -0.7745618305520461 14.049571174763175 14.144390652489067 0 0 0
773 258 1 0.5897 -6.461305409044596 12.662795089679822 10.68742038262895 1 0 0
1003 335 2 -1.1794 -5.239004365037137 16.3299822508272 9.782453080107281 1 0 0
725 242 1 0.5897 0.9281852571208606 11.405142266350865 13.624504386643943 0 0 0
688 230 2 -1.1794 2.29492545405696 12.540274196388033 10.060174766194347 0 0 0
831 277 1 0.5897 -7.283354554185029 11.972047760923935 14.03766379835965 1 0 0
772 258 2 -1.1794 -6.398502676280698 12.232982676068286 9.834549097711227 1 0 0
962 321 1 0.5897 -5.453591231692245 16.816201866031495 12.904850881426512 1 0 0
684 228 1 0.5897 -0.13391038350592233 14.735236826271409 14.333127124545312 0 0 0
925 309 2 -1.1794 -5.426732060033025 15.767019750259639 14.381353967041424 1 0 0
926 309 1 0.5897 -4.683645274826393 15.16401565593499 14.360916772176921 1 0 0
846 282 1 0.5897 0.5368799980517851 16.681005298939013 14.400539519577068 0 0 0
266 89 1 0.5897 -3.1747519105366426 11.47157482061725 9.822207618047283 1 0 0
783 261 1 0.5897 -8.451039107637396 14.199435747874166 17.128026196728854 1 0 0
683 228 1 0.5897 -0.6446788903647551 13.402290804861869 14.837564121336808 0 0 0
717 239 1 0.5897 -2.702889239510043 11.988076340674121 16.811883377897765 0 0 0
501 167 1 0.5897 -8.463607200135122 16.886043357289708 18.80947710531965 1 0 -1
737 246 1 0.5897 -1.0340755550266882 14.977922439123915 18.300788625907728 0 0 0
681 227 1 0.5897 -3.6635055251785698 13.390887746276382 15.336731850869604 0 0 0
830 277 1 0.5897 -7.28437609962009 13.007030086624736 15.142317939100485 1 0 0
875 292 1 0.5897 -3.1746666055483006 16.509940783722666 16.02882415654433 0 0 0
715 239 2 -1.1794 -3.617864882559764 12.240609333558446 16.93538087958413 0 0 0
716 239 1 0.5897 -3.6230452198381995 12.72859160637003 17.758734889461024 0 0 0
874 292 2 -1.1794 -3.3036131759289313 16.08111042162901 16.87486964112815 0 0 0
907 303 2 -1.1794 -5.8199645824733 15.500007696663745 17.81028265279012 0 0 0
738 246 1 0.5897 -0.435930608784985 14.202999846573952 17.146146067430948 0 0 0
876 292 1 0.5897 -2.5464927345654287 15.503041542438087 16.968884837455327 0 0 0
736 246 2 -1.1794 -1.2716334950886719 14.424590736414437 17.55684679030155 0 0 0
909 303 1 0.5897 -5.064697804658151 15.736833066902463 17.272007935712338 0 0 0
781 261 2 -1.1794 -7.711970520433335 13.66659149290697 16.83473874723898 1 0 0
782 261 1 0.5897 -7.500837229243891 13.113989535183673 17.587324356203176 1 0 0
730 244 2 -1.1794 -1.0044426835188167 11.921600088141187 15.884920418344867 0 0 0