LAMMPS data file via write_data, version 30 Jul 2021, timestep = 7250000

864 atoms
2 atom types
576 bonds
1 bond types
288 angles
1 angle types

0.10781037215140188 18.099762027850694 xlo xhi
0.12419329893543463 23.50498450106328 ylo yhi
0.0454237598325129 22.167772040160017 zlo zhi

Masses

1 1.00794
2 15.9994

Atoms # full

707 1 1 0.5897 2.994219719629465 1.8779760870020572 3.725278377157553 0 0 0
706 1 2 -1.1794 2.934488117806691 1.6464519647617184 2.7984687737103804 0 0 0
30 1 1 0.5897 5.2842365768791355 3.7629047135214466 2.4584435836237346 0 0 0
708 1 1 0.5897 2.2114644136971204 2.177481420094809 2.4646283466701044 0 0 0
29 1 1 0.5897 4.667603062087655 2.404791409729834 2.199013646478805 0 0 0
28 1 2 -1.1794 5.4344054150123435 2.939645712692087 1.9937103790211306 0 0 0
495 1 1 0.5897 8.237426868444535 2.2395884714567798 3.008579374419407 0 0 0
668 1 1 0.5897 5.41500365564362 3.1313385269376917 0.1722584305366999 0 0 0
1 1 2 -1.1794 0.6943454059648059 2.880350656228445 1.8916920247441718 0 0 0
494 1 1 0.5897 6.730971699009081 2.1281841949432767 2.9088403497247333 0 0 0
493 1 2 -1.1794 7.472533606199352 1.8886083009413481 3.4645819692629507 0 0 0
846 1 1 0.5897 7.417926395363267 1.9146736239940607 5.364172688963301 0 0 0
3 1 1 0.5897 0.7217717779233563 3.7828950563058994 2.2094153840514275 0 0 0
136 1 2 -1.1794 5.069945426081293 5.633090077487866 3.1101806642110423 0 0 0
20 1 1 0.5897 0.24575439234404026 2.9187067176975114 0.21752068689188342 0 0 0
137 1 1 0.5897 5.050264586522857 5.679745501247265 4.065995759639976 0 0 0
595 1 2 -1.1794 0.5029442404231999 5.521248011490885 2.7227685450329955 0 0 0
597 1 1 0.5897 0.47270275584133625 5.572253715779899 3.678074391384036 0 0 0
181 1 2 -1.1794 0.48149023654054096 5.818939124746707 5.5039793642645325 0 0 0
83 1 1 0.5897 4.136975120189372 2.8376916219529313 6.506585723160662 0 0 0
488 1 1 0.5897 1.901778031684785 2.589886568763251 5.797010102299709 0 0 0
356 1 1 0.5897 7.6726375026211215 0.7823696496770544 10.135800042744199 0 0 0
35 1 1 0.5897 0.6750631409820778 3.7882457387148336 9.747788343835582 0 0 0
676 1 2 -1.1794 5.475169470267117 5.5344310339637905 10.535808562470057 0 0 0
183 1 1 0.5897 0.5882200487593409 4.986753621879464 5.964777033324418 0 0 0
82 1 2 -1.1794 4.947778977003268 3.2262768747026196 6.834902305063652 0 0 0
489 1 1 0.5897 2.5393892681520076 1.2647804966641252 6.157003315412878 0 0 0
84 1 1 0.5897 5.61963245524105 2.5692363116127956 6.652858328225482 0 0 0
673 1 2 -1.1794 3.216648658429697 1.7235860428731815 10.391653982113223 0 0 0
355 1 2 -1.1794 7.770611167302484 1.7084841162765148 10.357180234253258 0 0 0
274 1 2 -1.1794 5.399699685062715 2.9178268887791075 9.489052099429859 0 0 0
678 1 1 0.5897 5.585705050165354 4.687719396217157 10.103207418856025 0 0 0
845 1 1 0.5897 7.407513713216966 1.0293532646409922 6.592122767226494 0 0 0
36 1 1 0.5897 1.7853664160447484 2.7756099221807347 9.564275918452552 0 0 0
34 1 2 -1.1794 0.8878005736088544 2.971727802272231 9.295795902698428 0 0 0
674 1 1 0.5897 4.047555309174658 1.997716568002417 10.003560057785087 0 0 0
785 1 1 0.5897 0.4603503658847103 3.0987593905695845 7.671653981212127 0 0 0
276 1 1 0.5897 6.274692742994447 2.589140383647992 9.695288733646098 0 0 0
675 1 1 0.5897 3.1368722679715253 0.798411551722553 10.159329524341551 0 0 0
275 1 1 0.5897 5.416148432836194 3.0673602382102048 8.543803570376747 0 0 0
686 1 1 0.5897 4.988164113234181 4.875913003104484 6.161547854883374 0 0 0
487 1 2 -1.1794 2.7186324980315777 2.096972432258852 5.719301642245589 0 0 0
784 1 2 -1.1794 0.3837143667452701 3.2167684778582344 6.724916870730835 0 0 0
176 1 1 0.5897 9.084797900609445 2.7796006990528435 9.715779027602503 0 0 0
685 1 2 -1.1794 5.059515349306667 5.74981383056094 5.777495097187421 0 0 0
844 1 2 -1.1794 7.387146426290537 1.9469435968114555 6.320278320253792 0 0 0
112 1 2 -1.1794 0.5400124259744999 5.5352691590052565 10.240316606606124 0 0 0
419 1 1 0.5897 9.032468949048646 2.497689124774635 6.650821052447654 0 0 0
166 1 2 -1.1794 3.20782858263481 1.7100817197386011 13.239517012643569 0 0 0
167 1 1 0.5897 3.3887321692622536 1.7658696118911064 12.301285503599393 0 0 0
457 1 2 -1.1794 5.23585217456543 3.349349173476186 14.323941612818393 0 0 0
458 1 1 0.5897 5.9477172382919505 2.9813443994379196 13.800502246179251 0 0 0
459 1 1 0.5897 4.497740913823179 2.7585699147987026 14.174258898180591 0 0 0
762 1 1 0.5897 4.99470183507372 5.138146106906558 13.565128954331755 0 0 0
594 1 1 0.5897 8.11588928595024 2.828485631543608 13.023042198993652 0 0 0
168 1 1 0.5897 2.3077170624497034 2.0229811009353815 13.329381455480405 0 0 0
466 1 2 -1.1794 0.660132352693169 2.762041639618581 13.642153881046543 0 0 0
592 1 2 -1.1794 7.261952686729115 2.399030430502743 12.972423073109903 0 0 0
468 1 1 0.5897 0.61009449770795 2.844667140074824 14.594403600938593 0 0 0
365 1 1 0.5897 0.4483094125857815 4.5138411246988825 13.308377345682226 0 0 0
593 1 1 0.5897 7.323902887567934 1.6683464426786352 13.587634098960024 0 0 0
71 1 1 0.5897 5.030565559867856 3.3015708060504227 16.148595383470685 0 0 0
113 1 1 0.5897 0.5763973332071083 5.602965452938537 11.194361429184841 0 0 0
357 1 1 0.5897 7.491788056169393 1.767589014620252 11.270899077414152 0 0 0
761 1 1 0.5897 5.103271846347844 5.896823952490714 12.259621727287197 0 0 0
364 1 2 -1.1794 0.29260958530381587 5.412500252541006 13.017758067037342 0 0 0
366 1 1 0.5897 1.0476287459854494 5.903723536950915 13.34157996884263 0 0 0
133 1 2 -1.1794 0.5382234111556274 3.208278247457304 16.328112565980284 0 0 0
277 1 2 -1.1794 5.34714080040614 5.910493800149693 18.05311856889366 0 0 0
40 1 2 -1.1794 7.576382034262118 2.157797682389682 20.231924865838817 0 0 0
19 1 2 -1.1794 0.27340287777526706 3.07840655887236 21.396551530429996 0 0 0
755 1 1 0.5897 7.668303144384923 2.2573563738302767 18.49782043445213 0 0 0
754 1 2 -1.1794 7.707449244230496 2.204880526487461 17.542925718941394 0 0 0
667 1 2 -1.1794 5.277089561140828 3.1770080316777283 21.348554714764205 0 0 0
289 1 2 -1.1794 2.82661564625111 2.051280975788296 17.918973254343086 0 0 0
134 1 1 0.5897 0.6019750797907465 4.037019452093304 16.802869150118948 0 0 0
143 1 1 0.5897 5.190280547028525 4.917886722100334 20.897346875462006 0 0 0
569 1 1 0.5897 1.8935711056246671 2.225813265789895 21.051700027084127 0 0 0
21 1 1 0.5897 0.34383575216100326 4.029652508074263 21.316139495302686 0 0 0
570 1 1 0.5897 2.614209162164464 2.1205927763693073 19.724587882074726 0 0 0
278 1 1 0.5897 5.266798125290086 5.027263163211451 17.692945353863866 0 0 0
669 1 1 0.5897 4.414966555041142 2.7840440747416 21.212473434182666 0 0 0
291 1 1 0.5897 2.1439943147007683 2.3103540495303623 17.300035496513374 0 0 0
571 1 2 -1.1794 0.765778793692599 5.559536664282315 17.832194359121388 0 0 0
568 1 2 -1.1794 2.718555883485745 1.9407521663541767 20.658871224438375 0 0 0
41 1 1 0.5897 6.76054639934498 2.5099710595922335 20.587685679007254 0 0 0
648 1 1 0.5897 0.7723559268077969 5.6087329637270065 19.82617588122631 0 0 0
756 1 1 0.5897 6.8536342530673595 2.5232247881024517 17.249905654206096 0 0 0
42 1 1 0.5897 7.670609636962055 1.3017136508768767 20.649658100369553 0 0 0
290 1 1 0.5897 3.0439805343187625 1.1518292955385556 17.673952271621776 0 0 0
323 1 1 0.5897 7.725215598387177 0.3962112830912823 17.081458202357524 0 1 0
72 1 1 0.5897 4.268631690206559 3.039936479536151 17.43030077998296 0 0 0
81 1 1 0.5897 3.168488028134434 0.19224163089158158 20.848506294213735 0 1 0
646 1 2 -1.1794 0.7873269409906086 5.633861193268496 20.782863292053943 0 0 0
360 1 1 0.5897 8.707395523349863 3.0418657889168443 21.262019333058955 0 0 0
599 1 1 0.5897 8.973049192805556 3.238398125876355 16.84033202841042 0 0 0
142 1 2 -1.1794 5.120428188239148 5.868037146820589 20.804416424359392 0 0 0
70 1 2 -1.1794 5.121834612594452 3.322688119174707 17.10114655102325 0 0 0
43 1 2 -1.1794 0.8018818205075621 11.00088193337307 1.7216203420024985 0 0 0
123 1 1 0.5897 2.9689993569625823 8.89025237830806 2.398290478583948 0 0 0
121 1 2 -1.1794 2.9870056843081008 9.809523292800806 2.6645917575910354 0 0 0
122 1 1 0.5897 3.1513573185666233 9.783107351628201 3.6071552772706155 0 0 0
44 1 1 0.5897 1.6855990173286777 10.753125979205732 1.9934771897776473 0 0 0
218 1 1 0.5897 6.068300852234393 10.417786047830862 2.2486711604017415 0 0 0
255 1 1 0.5897 2.077657862580991 6.549999156103262 2.2757669434976933 0 0 0
219 1 1 0.5897 4.562293604775251 10.47007815177022 2.1038863295185233 0 0 0
417 1 1 0.5897 8.021869524065533 6.4802730935619755 2.6096732022837683 0 0 0
217 1 2 -1.1794 5.357388171688427 10.973803173093152 1.9298322171317817 0 0 0
254 1 1 0.5897 2.8094756371005825 7.259666379511227 1.1565979008072076 0 0 0
415 1 2 -1.1794 7.263698704588648 7.006722050218296 2.356226720529443 0 0 0
416 1 1 0.5897 6.5253348306694985 6.596317431628277 2.806300954540034 0 0 0
66 1 1 0.5897 7.650272827929522 9.681300933618163 3.8260667621039763 0 0 0
65 1 1 0.5897 7.470829793193447 8.652008568768563 2.7305290021607274 0 0 0
64 1 2 -1.1794 7.51530255753229 9.596082785790173 2.8823134443074316 0 0 0
253 1 2 -1.1794 2.803391640005243 7.151022804777047 2.1075377367200474 0 0 0
773 1 1 0.5897 9.052568145561327 10.482574174619945 2.1203480726089237 0 0 0
138 1 1 0.5897 4.229104007769627 5.99822371701586 2.8347621726253154 0 0 0
793 1 2 -1.1794 3.2874181335941586 9.640881220890257 5.3893153008277315 0 0 0
162 1 1 0.5897 7.25951141900701 7.247278719064575 0.6059430120801821 0 0 1
363 1 1 0.5897 5.616219074707156 10.9278288413179 0.15052581647867225 0 0 1
712 1 2 -1.1794 7.499410817992886 9.567475556061261 5.582479125567867 0 0 0
579 1 1 0.5897 5.534562634217146 11.607150151539836 6.55723059156008 0 0 0
10 1 2 -1.1794 2.9442788646876323 7.068481205591802 6.55455011484137 0 0 0
526 1 2 -1.1794 7.412064822938299 7.02118709513335 9.278174368022158 0 0 0
145 1 2 -1.1794 7.463858053437465 6.973199308051293 6.499853083343623 0 0 0
580 1 2 -1.1794 5.219683230587 10.913907954392965 9.626731403639907 0 0 0
794 1 1 0.5897 2.44955417640256 10.0289535836885 5.641471989806343 0 0 0
822 1 1 0.5897 8.374011353972362 9.850702734126326 10.307042603325069 0 0 0
651 1 1 0.5897 3.6716436341385803 6.240190595613569 9.399825998580791 0 0 0
258 1 1 0.5897 3.77822353486119 9.950656874697122 10.149547347785166 0 0 0
650 1 1 0.5897 2.9211365099654327 6.938795485382094 8.286035092511923 0 0 0
146 1 1 0.5897 6.712029647363837 6.4368197723368334 6.248332071736209 0 0 0
527 1 1 0.5897 7.4041198340529855 7.885777479311511 9.688895419658984 0 0 0
15 1 1 0.5897 1.763350438341528 10.597042159770341 9.615402655491103 0 0 0
578 1 1 0.5897 6.144126592974164 10.231583427456389 6.389128229932024 0 0 0
581 1 1 0.5897 6.010519000885338 10.622443837570438 10.080378501943185 0 0 0
147 1 1 0.5897 7.486672285263249 6.921399904509476 7.455320693798221 0 0 0
795 1 1 0.5897 3.9418048730653297 10.153721644999095 5.863619191722676 0 0 0
649 1 2 -1.1794 2.9435582355697227 6.840133073606857 9.23785522544409 0 0 0
577 1 2 -1.1794 5.39259087345254 10.684959780136436 6.771007098073736 0 0 0
13 1 2 -1.1794 0.9559328080537838 10.940188559092134 9.232644887119847 0 0 0
713 1 1 0.5897 8.24568940669698 9.821330136561741 6.125416611760775 0 0 0
551 1 1 0.5897 0.8244235233591778 10.861393858059477 7.234589174244771 0 0 0
257 1 1 0.5897 3.072095624868843 8.611471582447551 10.148992474712875 0 0 0
14 1 1 0.5897 0.7676768009898237 11.730817747937596 9.738353242998478 0 0 0
820 1 2 -1.1794 7.528549888922333 9.462498128137796 10.532169636072346 0 0 0
550 1 2 -1.1794 0.8818135538580988 10.725991999145954 6.288816178410906 0 0 0
12 1 1 0.5897 3.1167982087772756 7.9625484444654715 6.259316965964386 0 0 0
256 1 2 -1.1794 2.978437731379153 9.5165303095506 10.446316947793925 0 0 0
582 1 1 0.5897 5.408771284362412 10.771479257120534 8.699329325839772 0 0 0
11 1 1 0.5897 2.137044474534535 6.8188011133535635 6.104890578987943 0 0 0
714 1 1 0.5897 7.344408222872336 8.648731974327715 5.8019550400253035 0 0 0
687 1 1 0.5897 4.298650698640085 6.222895380514337 6.114363920806358 0 0 0
528 1 1 0.5897 8.293872455707737 6.6862934616255965 9.440812281904766 0 0 0
114 1 1 0.5897 1.2889289165879618 6.047056819974018 9.9346991889948 0 0 0
677 1 1 0.5897 6.205085689190215 6.064577595010991 10.215846196397502 0 0 0
552 1 1 0.5897 0.8363719782133364 11.606924138593012 5.9171144768540165 0 0 0
828 1 1 0.5897 7.3062155298466065 7.362243420960365 14.826946822116142 0 0 0
333 1 1 0.5897 3.120256615538322 6.4654425758049845 13.704736488785688 0 0 0
332 1 1 0.5897 2.5221234596363704 7.85522599778372 13.651575894162294 0 0 0
797 1 1 0.5897 3.0900229207592735 9.543550039916003 12.09039633815708 0 0 0
796 1 2 -1.1794 3.0850857598051795 9.55874151260426 13.047397727627626 0 0 0
798 1 1 0.5897 2.4344332022393256 10.223392364810527 13.273497919809023 0 0 0
722 1 1 0.5897 4.412134694948131 10.530645977696963 13.775267343751324 0 0 0
261 1 1 0.5897 1.0910215175659168 11.246341330455982 14.872535246687919 0 0 0
851 1 1 0.5897 8.850623550119707 6.650761587200624 12.941612114447958 0 0 0
225 1 1 0.5897 2.8767600366839385 6.8359295818690065 15.9829699274392 0 0 0
723 1 1 0.5897 5.061610554590522 11.124042561516845 15.007237593452228 0 0 0
331 1 2 -1.1794 2.343957978729682 6.965560284347621 13.95663534557177 0 0 0
259 1 2 -1.1794 0.9844371681852715 11.323153726842289 13.924456992107698 0 0 0
826 1 2 -1.1794 7.3121270982627715 7.359799931737223 13.869827441730123 0 0 0
475 1 2 -1.1794 7.278357537691723 10.033956723053976 13.225991409611176 0 0 0
476 1 1 0.5897 6.552721485492545 10.609955447014578 13.46659687308086 0 0 0
477 1 1 0.5897 6.978489637448073 9.157091648188535 13.46584577789583 0 0 0
721 1 2 -1.1794 4.971864746765567 11.251887850257944 14.062931207949296 0 0 0
827 1 1 0.5897 6.5003256008244605 6.915119693691605 13.625955609923146 0 0 0
821 1 1 0.5897 7.470261787597835 9.549504094877024 11.48356917474587 0 0 0
760 1 2 -1.1794 5.00132805822407 6.024111748629213 13.202763910955149 0 0 0
520 1 2 -1.1794 7.38158981295888 7.111846656250399 16.590683465016905 0 0 0
104 1 1 0.5897 9.086781100388793 10.421669329089458 13.775474731671778 0 0 0
260 1 1 0.5897 0.25402859817099555 10.740300584240117 13.717087041856969 0 0 0
160 1 2 -1.1794 7.377638111286443 7.124327873993851 21.786461125293794 0 0 0
223 1 2 -1.1794 2.9717646493597014 6.912194113738004 16.93233258142437 0 0 0
7 1 2 -1.1794 7.758507957526842 9.80624981331241 17.464269399366422 0 0 0
139 1 2 -1.1794 7.728266797424564 9.427512020132578 20.10846971261876 0 0 0
395 1 1 0.5897 0.3031073342154128 10.643219224504756 20.863860703266518 0 0 0
647 1 1 0.5897 1.5849387882747552 6.117478170561154 20.997765865554722 0 0 0
141 1 1 0.5897 7.5992462150691305 8.595781028179708 20.564363444615392 0 0 0
394 1 2 -1.1794 1.0860273918153651 11.120033014156276 21.13932104361405 0 0 0
161 1 1 0.5897 6.555409531444725 6.7338038614435325 21.490448078954632 0 0 0
680 1 1 0.5897 4.530019310558475 10.525651582717687 17.072171023543934 0 0 0
690 1 1 0.5897 2.660776276913119 10.211535685635877 20.517863291277873 0 0 0
625 1 2 -1.1794 3.0130539443357174 9.628688019735977 17.382506275955024 0 0 0
688 1 2 -1.1794 3.393737692741112 9.695991301223327 20.181398863691605 0 0 0
140 1 1 0.5897 7.114425289576885 10.029568778369631 20.529110723811936 0 0 0
627 1 1 0.5897 2.1920971330665475 10.073626850409578 17.172136678533338 0 0 0
689 1 1 0.5897 4.167893022598741 10.224386141528125 20.375584572289707 0 0 0
4 1 2 -1.1794 2.9082900565412237 7.2422316757266625 21.323193574779232 0 0 0
626 1 1 0.5897 3.1587128846369907 9.819338373997837 18.309089246533805 0 0 0
9 1 1 0.5897 6.898310468491782 10.11249889533903 17.17710480120082 0 0 0
6 1 1 0.5897 2.9549402734610584 8.069358365858195 20.843679317313356 0 0 0
5 1 1 0.5897 3.6990493707201857 6.769410654663512 21.063701467224924 0 0 0
8 1 1 0.5897 7.662575357122094 9.67065338146032 18.406902945004465 0 0 0
361 1 2 -1.1794 5.668873901629382 10.82309703855031 21.32294025546597 0 0 0
287 1 1 0.5897 9.08124924775786 10.431392912092294 20.858834725158722 0 0 0
445 1 2 -1.1794 0.681126326945477 11.174181178908585 16.66366363564339 0 0 0
279 1 1 0.5897 4.570789897500898 6.371072084326018 17.734769529846226 0 0 0
224 1 1 0.5897 2.8579618400023845 7.845762809152325 17.1106914495585 0 0 0
144 1 1 0.5897 5.216035143003168 6.024949580645705 19.865074335908016 0 0 0
711 1 1 0.5897 9.098850067152851 6.653867253462905 17.303381608906776 0 0 0
521 1 1 0.5897 6.664768994139362 6.700731163467985 17.073747900885085 0 0 0
462 1 1 0.5897 8.686463934106884 6.17191454403426 20.78607417418013 0 0 0
362 1 1 0.5897 5.711920486946483 11.717628204580294 20.984939396877255 0 0 0
572 1 1 0.5897 1.5696178421767015 6.009874621442649 17.572900883501774 0 0 0
396 1 1 0.5897 0.9996705686104521 11.194535586578576 22.089637033544083 0 0 -1
522 1 1 0.5897 7.4811948025331265 7.9732799064012925 16.99600166640072 0 0 0
679 1 2 -1.1794 5.343598658581696 10.994194386336405 16.885754728332888 0 0 0
374 1 1 0.5897 0.5622705924753841 13.461789786199493 3.6898564729777554 0 0 0
173 1 1 0.5897 4.479827644036673 13.852041083209514 3.0614163924602305 0 0 0
172 1 2 -1.1794 5.192851128502501 13.379328500344386 3.490768032913508 0 0 0
293 1 1 0.5897 2.9377583072009488 16.609378479772655 2.9057317163590133 0 0 0
558 1 1 0.5897 3.268806769435801 14.912077638453985 1.3385122778158736 0 0 0
556 1 2 -1.1794 3.160032826497135 14.809621867368426 2.2839147326501714 0 0 0
557 1 1 0.5897 2.2693515624552787 14.474945389105125 2.388130570641426 0 0 0
478 1 2 -1.1794 7.127282068784035 15.033058627146065 2.394563443052387 0 0 0
200 1 1 0.5897 5.010304338766209 13.389890800162119 5.321442457919649 0 0 0
174 1 1 0.5897 5.153681177471631 12.49760313935474 3.1202109061693792 0 0 0
479 1 1 0.5897 7.8800262641293575 14.456454277456256 2.5253982822167003 0 0 0
449 1 1 0.5897 7.642542133124269 16.771870946896748 2.6873749556996973 0 0 0
480 1 1 0.5897 6.3851164525614035 14.542670119310934 2.7479870089682197 0 0 0
373 1 2 -1.1794 0.7287902467585531 13.562719456824295 2.752728724881031 0 0 0
317 1 1 0.5897 7.041884082643856 15.05535506862722 0.484033719801059 0 0 0
448 1 2 -1.1794 7.6756516697964 17.609589220654396 3.1493614562633043 0 0 0
294 1 1 0.5897 2.9158913807060776 17.465026240479713 4.1543880843183505 0 0 0
292 1 2 -1.1794 2.7982818641566967 17.507703154749155 3.2054567570134846 0 0 0
45 1 1 0.5897 0.6667319842456695 11.8673126086435 2.1055151441110747 0 0 0
655 1 2 -1.1794 0.6260132558736943 13.221966129471639 5.511715083989012 0 0 0
201 1 1 0.5897 5.982630897823799 13.918089112746854 6.354553181353439 0 0 0
186 1 1 0.5897 7.941141445476939 16.432272307512573 10.168416757276631 0 0 0
199 1 2 -1.1794 5.201199576749937 13.373574608031488 6.259221308193892 0 0 0
519 1 1 0.5897 8.234816883071906 14.278906466187985 6.342679084891475 0 0 0
811 1 2 -1.1794 2.790461122943782 14.996159173292142 9.509470999565659 0 0 0
454 1 2 -1.1794 5.307009992072638 13.697309361132321 10.161003934634971 0 0 0
813 1 1 0.5897 2.1136341956045173 14.359686107889797 9.739782620764048 0 0 0
17 1 1 0.5897 2.476781291498006 14.767490142260288 7.49600281061749 0 0 0
384 1 1 0.5897 2.9894673063933626 16.546254062035555 10.298519447792751 0 0 0
377 1 1 0.5897 6.743948551055751 14.623068774544233 9.607993257195533 0 0 0
376 1 2 -1.1794 7.667098195273846 14.855082937280951 9.507252849955144 0 0 0
656 1 1 0.5897 1.3968423571028825 13.69341425480427 5.827560059077523 0 0 0
456 1 1 0.5897 5.162981509455012 12.794812131931344 9.876307969642651 0 0 0
812 1 1 0.5897 3.615033230599856 14.530101678446941 9.647612775930112 0 0 0
767 1 1 0.5897 0.39551813486877474 13.65141576488865 11.021341279620572 0 0 0
184 1 2 -1.1794 7.892055510692337 17.3640416281558 10.382158491899064 0 0 0
16 1 2 -1.1794 2.696912501499741 14.659362879989121 6.570819742475945 0 0 0
517 1 2 -1.1794 7.521905763400487 14.760919229519736 6.761749105698238 0 0 0
18 1 1 0.5897 3.521498026595037 14.173303469448063 6.575544506609888 0 0 0
378 1 1 0.5897 7.7570687591097105 15.085671106887984 8.582669152596875 0 0 0
518 1 1 0.5897 7.549935132585084 15.628972145266633 6.35929646062864 0 0 0
766 1 2 -1.1794 0.5756645091258648 13.586639795570486 10.083540848730731 0 0 0
239 1 1 0.5897 3.2942654193114476 16.518169316320034 6.016615977870032 0 0 0
59 1 1 0.5897 9.045189130316972 13.68517950177729 10.147200867658746 0 0 0
307 1 2 -1.1794 7.52176425292496 17.53707866863251 5.9820340269628725 0 0 0
238 1 2 -1.1794 3.174146545842121 17.455545935768505 5.864326626657361 0 0 0
382 1 2 -1.1794 3.149942045117567 17.420385564401172 10.65406863306966 0 0 0
429 1 1 0.5897 5.862307126289588 14.111205008294233 13.338160934720143 0 0 0
232 1 2 -1.1794 2.762693829639812 14.980435523617508 13.88819981887389 0 0 0
234 1 1 0.5897 2.9499502833700273 14.74019899159279 14.795582023397127 0 0 0
606 1 1 0.5897 2.8396980882140244 16.715136668883293 13.533276941558778 0 0 0
427 1 2 -1.1794 5.047283198749297 13.875611289434922 12.89500004059685 0 0 0
233 1 1 0.5897 3.563116913661828 14.760446181530586 13.411666106145091 0 0 0
639 1 1 0.5897 1.3216912574520203 14.252481254325758 13.091837033870714 0 0 0
428 1 1 0.5897 4.7681940474073485 13.065020014903734 13.320799445946959 0 0 0
638 1 1 0.5897 0.7180443526973533 12.871417254181921 13.234239509929274 0 0 0
297 1 1 0.5897 8.124799647358508 14.266639274813869 13.905630036509608 0 0 0
296 1 1 0.5897 7.1310753514805425 14.920406544559798 14.842024002119125 0 0 0
295 1 2 -1.1794 7.430032353816605 14.924507707493394 13.932782349480565 0 0 0
270 1 1 0.5897 7.407947635340554 16.66590852356752 13.470188611405517 0 0 0
637 1 2 -1.1794 0.5252372720720861 13.752441689021735 12.913447897171395 0 0 0
269 1 1 0.5897 7.575927828181481 17.562329476905013 12.26189479185051 0 0 0
268 1 2 -1.1794 7.559824466539864 17.576962080886354 13.21878537517916 0 0 0
455 1 1 0.5897 5.211601106938215 13.666741235752097 11.11288835123995 0 0 0
604 1 2 -1.1794 3.0146422600018963 17.64864488990646 13.413889121920517 0 0 0
823 1 2 -1.1794 3.159018612696311 14.554790230265453 16.542998150119733 0 0 0
49 1 2 -1.1794 6.978259039938573 15.214614319546138 16.6052384052422 0 0 0
157 1 2 -1.1794 7.5165798113634175 17.578044705557307 20.456638863958087 0 0 0
316 1 2 -1.1794 7.123155938982599 14.894336287380266 21.66638935854054 0 0 0
126 1 1 0.5897 5.797947902582154 13.955665956450762 17.544251708567224 0 0 0
825 1 1 0.5897 2.363811313254825 14.227946559296065 16.963697682340946 0 0 0
665 1 1 0.5897 2.098237132606519 14.627526065306093 21.417486350072164 0 0 0
664 1 2 -1.1794 2.942688941611562 14.956027283652965 21.72610984116331 0 0 0
125 1 1 0.5897 5.0151524109895025 13.522590977357867 18.765460686046243 0 0 0
51 1 1 0.5897 7.791218418504303 14.963525547336651 17.04367095179265 0 0 0
684 1 1 0.5897 4.338207556536123 13.837925587464284 21.01842235946189 0 0 0
53 1 1 0.5897 1.0101755127345662 13.676922701066314 18.920976650080434 0 0 0
666 1 1 0.5897 2.939975841604754 15.883792765100425 21.490448388145467 0 0 0
318 1 1 0.5897 7.116069895177038 15.766535019867787 21.272045568108126 0 0 0
52 1 2 -1.1794 0.9554241929069274 13.749574654117442 17.968163552582972 0 0 0
54 1 1 0.5897 0.1992775418351073 14.315803362193677 17.81371449454166 0 0 0
452 1 1 0.5897 0.6342597728675247 12.908651161645382 21.002918123558747 0 0 0
824 1 1 0.5897 3.8704482690351294 14.08071350722712 16.9734676401405 0 0 0
683 1 1 0.5897 5.848094152193074 13.945258269061561 21.039697456877935 0 0 0
446 1 1 0.5897 0.7149042614389792 12.065627293441242 17.010740026317198 0 0 0
682 1 2 -1.1794 5.128666803373696 13.47281330726568 20.62087538939998 0 0 0
124 1 2 -1.1794 5.043965461771466 13.430872612912479 17.81316170685716 0 0 0
50 1 1 0.5897 6.73743642653863 16.049832000861265 17.00609828370489 0 0 0
584 1 1 0.5897 2.8685054750815753 16.351021282232377 17.698010310234963 0 0 0
583 1 2 -1.1794 2.8333219136666776 17.20900627495914 18.120963858155825 0 0 0
451 1 2 -1.1794 0.6847451446347083 13.843468511784158 20.803235336878377 0 0 0
716 1 1 0.5897 2.823360573685815 17.607154991452475 19.95279943694448 0 0 0
715 1 2 -1.1794 2.79104868507552 17.617582467208784 20.90935011634437 0 0 0
681 1 1 0.5897 5.198418936103106 11.874573819506049 17.232389482562755 0 0 0
117 1 1 0.5897 8.655846439874987 13.992648488070014 20.901728326369785 0 0 0
267 1 1 0.5897 5.947871585353734 22.001633147954777 3.0844166772411192 0 0 0
696 1 1 0.5897 1.6017603202519268 22.025445781250983 2.5668190423316344 0 0 0
266 1 1 0.5897 4.466358462542233 21.722739478315923 2.946225697884817 0 0 0
265 1 2 -1.1794 5.234272443344925 21.492907723167153 3.4693480594911086 0 0 0
694 1 2 -1.1794 0.7908703777391738 21.74812829191754 2.993112298678561 0 0 0
228 1 1 0.5897 5.164630045168698 19.668054969717783 2.932404744184924 0 0 0
343 1 2 -1.1794 0.6158437352576084 18.90550481195353 2.0613682866944827 0 0 0
345 1 1 0.5897 0.7113381088406427 18.981835202261593 1.1120683384073748 0 0 0
227 1 1 0.5897 4.36633548992976 18.41407097804572 2.6456932566596145 0 0 0
226 1 2 -1.1794 5.209401358872594 18.831566817456164 2.469220994496177 0 0 0
450 1 1 0.5897 6.808432086862288 17.991971145784234 3.015510654886009 0 0 0
817 1 2 -1.1794 7.415159956347476 22.701418120895436 2.1929188385431977 0 0 0
344 1 1 0.5897 1.4030091711374164 18.440694639623437 2.3451370115114396 0 0 0
189 1 1 0.5897 3.1294679550918683 22.512594026350058 0.8052138453832735 0 0 0
249 1 1 0.5897 5.1983786067584274 21.17163362014838 5.178651125303253 0 0 0
602 1 1 0.5897 5.405911720723343 18.73967435220568 0.6404059695923047 0 0 0
818 1 1 0.5897 8.24059761762109 22.276998408286047 2.4268253474766563 0 0 0
187 1 2 -1.1794 3.1962925281076404 22.481233976293698 1.7594983347098665 0 0 0
695 1 1 0.5897 0.7172101248530459 20.816507421030856 2.785869910957719 0 0 0
413 1 1 0.5897 0.795936402763393 21.400935179451164 4.836464047673655 0 0 0
498 1 1 0.5897 7.649174749993842 22.889583482137617 0.36785716733092394 0 0 0
819 1 1 0.5897 7.384924730675948 23.485822210946655 2.7406928421128045 0 -1 0
188 1 1 0.5897 3.1107025526545646 23.393608977746673 2.036151564414518 0 0 0
308 1 1 0.5897 7.584202455161217 17.74362729737244 5.049507593294111 0 0 0
247 1 2 -1.1794 5.118037437671881 21.13426511332275 6.131682230018058 0 0 0
185 1 1 0.5897 8.730939843119279 17.721548880676693 10.09122619489409 0 0 0
101 1 1 0.5897 6.436816225838326 18.245604602634092 9.980549539282224 0 0 0
701 1 1 0.5897 2.9069973326482814 22.683742189392092 7.674018416289064 0 0 0
248 1 1 0.5897 4.264731899545458 21.526750172056015 6.316144206311483 0 0 0
403 1 2 -1.1794 1.2063993065433418 18.54822733380411 9.386140444139988 0 0 0
32 1 1 0.5897 8.056473495726326 22.096845293595795 6.680475522059971 0 0 0
414 1 1 0.5897 0.8430681525390531 20.497859973072533 6.050541494667448 0 0 0
39 1 1 0.5897 3.6997380723323174 21.928428791876836 9.72048480711961 0 0 0
37 1 2 -1.1794 2.9215759734043187 22.38381647689998 9.39911191781486 0 0 0
86 1 1 0.5897 7.300664137248796 22.37317088135478 8.80252057271641 0 0 0
385 1 2 -1.1794 5.312754397871144 18.472410712749074 7.037500358552369 0 0 0
100 1 2 -1.1794 5.5486622551935225 18.54467521919013 9.785764032968194 0 0 0
102 1 1 0.5897 5.461260534159788 18.436366008191772 8.8387999929339 0 0 0
33 1 1 0.5897 6.542794376605935 22.11376281133461 6.696065652565315 0 0 0
555 1 1 0.5897 5.255277125260628 20.245557354657283 10.46429662993385 0 0 0
386 1 1 0.5897 6.109198124270386 18.124995538821924 6.636047802470385 0 0 0
38 1 1 0.5897 2.187330712242474 21.862322247278577 9.723359989412204 0 0 0
340 1 2 -1.1794 0.8177374511244943 18.701390844750833 6.7436855778824905 0 0 0
341 1 1 0.5897 1.4400422071848296 18.17497464216342 6.241870746794364 0 0 0
31 1 2 -1.1794 7.308255541049669 22.620563161637133 6.967038152010606 0 0 0
702 1 1 0.5897 2.0368433214765798 22.491907494700527 6.450219991474376 0 0 0
85 1 2 -1.1794 7.172758665088804 22.47391722668685 9.745711282407742 0 0 0
554 1 1 0.5897 5.648750796808534 21.6967258227332 10.287317335657178 0 0 0
404 1 1 0.5897 1.9935338058653385 18.1702675343243 9.77823887667287 0 0 0
700 1 2 -1.1794 2.915646481146616 22.758690875012853 6.719858444703685 0 0 0
387 1 1 0.5897 5.244444250510908 19.365945958253604 6.701036492405837 0 0 0
87 1 1 0.5897 7.9940978696495435 22.171182102653667 10.1329245024454 0 0 0
553 1 2 -1.1794 4.907557161907103 21.135892133913543 10.5160190308353 0 0 0
94 1 2 -1.1794 0.6925504964117414 20.969818717216395 10.600470627565416 0 0 0
342 1 1 0.5897 1.1514694755080188 18.677354022246778 7.64043554969428 0 0 0
405 1 1 0.5897 1.0642493757048663 19.361892415075367 9.869869414870626 0 0 0
309 1 1 0.5897 8.279802007269511 17.969772699387914 6.374895070700445 0 0 0
383 1 1 0.5897 3.9745604753245822 17.694927247063443 10.253071118884348 0 0 0
240 1 1 0.5897 3.987798867323672 17.854902505383613 6.172064015807245 0 0 0
412 1 2 -1.1794 0.6937628770509525 21.406228914175376 5.788120162910285 0 0 0
512 1 1 0.5897 9.009985039867187 18.496404013847588 13.839223307806861 0 0 0
88 1 2 -1.1794 5.729049102229479 21.43971563707109 13.258820300358439 0 0 0
381 1 1 0.5897 1.586775420905851 21.80662905141093 13.50700668260412 0 0 0
90 1 1 0.5897 5.797561116391282 20.559650966048473 13.629090991604563 0 0 0
763 1 2 -1.1794 5.296433660750564 18.85783697143242 14.31375799713103 0 0 0
738 1 1 0.5897 4.005121139478652 21.991360713777997 14.152058697502836 0 0 0
89 1 1 0.5897 5.503370847838851 21.29643961775298 12.339766737004576 0 0 0
736 1 2 -1.1794 3.2091867374227707 22.50128006857185 14.302645475461436 0 0 0
789 1 1 0.5897 7.078184134293399 22.669912399466494 13.828364417865158 0 0 0
502 1 2 -1.1794 0.8685009162637791 18.922613474670783 14.566507417523757 0 0 0
503 1 1 0.5897 1.718796539413252 18.55739250867897 14.32196237338288 0 0 0
765 1 1 0.5897 6.135109685659518 18.472326666700855 14.060349398610684 0 0 0
787 1 2 -1.1794 7.7378333272729245 23.258798779460875 14.194918046855083 0 0 0
380 1 1 0.5897 0.6296773322234982 20.674848396480062 13.815164849677428 0 0 0
350 1 1 0.5897 3.0717167441048305 22.77790088377984 16.170829241796042 0 0 0