LAMMPS data file via MDAnalysis

        3840  atoms
        2560  bonds
        1280  angles
           0  dihedrals
           0  impropers

           2  atom types
           1  bond types
           1  angle types
           0  dihedral types
           0  improper types

0.000000 52.789078 xlo xhi
0.000000 24.996000 ylo yhi
0.000000 23.046000 zlo zhi


Masses

1 1.008000
2 15.999000

Atoms

1 0 2 -1.179400 5.660915 22.381065 5.496787
2 0 1 0.589700 5.590858 23.322575 5.660211
3 0 1 0.589700 6.178065 22.047749 6.231059
4 0 2 -1.179400 2.154505 10.637899 13.368885
5 0 1 0.589700 2.076732 10.366709 14.284717
6 0 1 0.589700 2.319133 11.580840 13.410801
7 0 2 -1.179400 20.342388 13.757691 4.820662
8 0 1 0.589700 20.160734 13.810599 5.760077
9 0 1 0.589700 20.285221 12.823151 4.617129
10 0 2 -1.179400 0.794406 1.751182 2.844110
11 0 1 0.589700 -0.044712 1.569587 2.420337
12 0 1 0.589700 1.446896 1.588480 2.162102
13 0 2 -1.179400 -0.617437 2.504534 5.100165
14 0 1 0.589700 -0.083548 2.284254 4.335890
15 0 1 0.589700 -1.324372 3.047346 4.749914
16 0 2 -1.179400 50.959103 1.375157 2.011508
17 0 1 0.589700 50.575558 0.574496 1.651466
18 0 1 0.589700 50.363136 2.072519 1.736074
19 0 2 -1.179400 7.596868 12.038142 9.286691
20 0 1 0.589700 7.636259 12.017897 10.243986
21 0 1 0.589700 8.488070 11.831057 9.005023
22 0 2 -1.179400 -0.469972 4.142901 1.323969
23 0 1 0.589700 -0.917825 3.433921 0.860833
24 0 1 0.589700 -0.637574 4.921504 0.791257
25 0 2 -1.179400 1.420091 22.279352 22.052809
26 0 1 0.589700 1.380498 21.858597 21.192745
27 0 1 0.589700 2.026213 21.736574 22.558184
28 0 2 -1.179400 -0.504784 24.911303 5.404560
29 0 1 0.589700 -0.620323 0.665085 5.526819
30 0 1 0.589700 -1.136438 24.678013 4.723388
31 0 2 -1.179400 20.861223 2.572047 10.897419
32 0 1 0.589700 21.675962 2.476161 11.391172
33 0 1 0.589700 21.127419 2.972406 10.068561
34 0 2 -1.179400 6.627828 9.018188 17.105059
35 0 1 0.589700 7.213501 9.241949 17.829252
36 0 1 0.589700 5.933052 8.498831 17.510868
37 0 2 -1.179400 4.656413 3.569080 13.105905
38 0 1 0.589700 4.006052 4.231231 13.342118
39 0 1 0.589700 5.254001 3.542814 13.854051
40 0 2 -1.179400 14.858161 0.702735 10.636573
41 0 1 0.589700 15.451818 1.437591 10.478773
42 0 1 0.589700 15.095773 0.054541 9.972136
43 0 2 -1.179400 9.708245 24.154909 21.503183
44 0 1 0.589700 10.460000 24.588150 21.098055
45 0 1 0.589700 9.763423 24.393705 22.429623
46 0 2 -1.179400 16.260799 3.048681 10.371937
47 0 1 0.589700 16.712934 3.718642 10.886187
48 0 1 0.589700 15.706403 3.543699 9.767656
49 0 2 -1.179400 6.638612 21.048561 12.279972
50 0 1 0.589700 7.020474 21.025728 11.401513
51 0 1 0.589700 6.630075 20.132935 12.562170
52 0 2 -1.179400 21.408625 20.589661 13.242071
53 0 1 0.589700 20.997351 20.231297 12.454444
54 0 1 0.589700 22.154165 21.093655 12.914782
55 0 2 -1.179400 2.252083 18.712866 16.803648
56 0 1 0.589700 1.371353 18.860743 16.458746
57 0 1 0.589700 2.759821 19.463619 16.493599
58 0 2 -1.179400 11.127789 15.299041 3.899103
59 0 1 0.589700 10.988672 15.008612 2.996550
60 0 1 0.589700 11.816863 14.723826 4.232914
61 0 2 -1.179400 20.258768 22.919006 10.950597
62 0 1 0.589700 20.447250 22.269773 10.271541
63 0 1 0.589700 19.469761 22.591665 11.383224
64 0 2 -1.179400 9.480866 20.572918 13.744814
65 0 1 0.589700 9.293409 20.572498 14.684578
66 0 1 0.589700 8.739902 20.111164 13.351439
67 0 2 -1.179400 11.352970 10.109149 22.965218
68 0 1 0.589700 12.234372 10.196726 0.012350
69 0 1 0.589700 10.921653 9.470547 0.218222
70 0 2 -1.179400 0.647012 19.883184 1.659550
71 0 1 0.589700 0.930567 19.089146 2.114592
72 0 1 0.589700 1.275588 19.988369 0.944527
73 0 2 -1.179400 21.286358 2.851577 18.497086
74 0 1 0.589700 21.013290 2.014740 18.875357
75 0 1 0.589700 22.085947 2.646023 18.012075
76 0 2 -1.179400 17.414761 16.866903 2.316124
77 0 1 0.589700 17.675259 17.445490 3.034092
78 0 1 0.589700 17.705124 15.996427 2.591556
79 0 2 -1.179400 21.290995 0.512495 6.826795
80 0 1 0.589700 21.232731 1.302057 6.287031
81 0 1 0.589700 20.411888 0.134757 6.795743
82 0 2 -1.179400 17.569098 3.717185 3.569604
83 0 1 0.589700 17.803085 4.437843 4.156089
84 0 1 0.589700 17.823538 2.926497 4.047174
85 0 2 -1.179400 12.038623 10.009344 12.292671
86 0 1 0.589700 11.503497 10.798237 12.386217
87 0 1 0.589700 12.330169 10.023927 11.380003
88 0 2 -1.179400 12.550319 18.627514 17.541550
89 0 1 0.589700 13.288657 18.186420 17.120485
90 0 1 0.589700 12.858994 18.821478 18.427685
91 0 2 -1.179400 23.705061 2.682459 0.235081
92 0 1 0.589700 23.888422 3.622806 0.245534
93 0 1 0.589700 24.447495 2.287531 0.693148
94 0 2 -1.179400 13.331395 6.832169 11.105068
95 0 1 0.589700 13.028085 7.030843 10.218120
96 0 1 0.589700 12.567108 6.985941 11.661119
97 0 2 -1.179400 25.042719 4.567150 3.395548
98 0 1 0.589700 25.736376 4.367508 2.766108
99 0 1 0.589700 25.392769 5.289255 3.918930
100 0 2 -1.179400 6.113071 4.681056 5.629238
101 0 1 0.589700 5.604631 4.631526 6.439667
102 0 1 0.589700 5.629282 5.297834 5.078589
103 0 2 -1.179400 14.345393 0.812073 21.825872
104 0 1 0.589700 13.910233 1.665478 21.826195
105 0 1 0.589700 14.186221 0.460703 22.703074
106 0 2 -1.179400 13.728245 4.898378 15.937603
107 0 1 0.589700 13.509710 4.252458 16.610765
108 0 1 0.589700 14.612749 4.662753 15.657215
109 0 2 -1.179400 21.265629 2.863459 1.578074
110 0 1 0.589700 22.122534 2.697351 1.184713
111 0 1 0.589700 21.112278 2.108292 2.147570
112 0 2 -1.179400 15.491619 -0.009373 7.860800
113 0 1 0.589700 14.583891 0.259082 7.718172
114 0 1 0.589700 15.559643 24.325697 7.432466
115 0 2 -1.179400 24.017632 5.475237 0.514100
116 0 1 0.589700 23.097775 5.664244 0.699790
117 0 1 0.589700 24.498066 5.903454 1.223730
118 0 2 -1.179400 20.753939 11.215641 13.120419
119 0 1 0.589700 20.142860 11.838846 13.514811
120 0 1 0.589700 21.168560 10.781378 13.867015
121 0 2 -1.179400 30.114540 1.177526 4.214017
122 0 1 0.589700 29.440514 1.144328 3.534402
123 0 1 0.589700 30.941380 1.166198 3.731366
124 0 2 -1.179400 28.350382 1.145466 2.260199
125 0 1 0.589700 27.393290 1.132902 2.261792
126 0 1 0.589700 28.600704 0.307925 1.867971
127 0 2 -1.179400 31.539164 4.294149 3.306956
128 0 1 0.589700 31.978342 4.367628 2.458640
129 0 1 0.589700 31.752047 3.411313 3.612360
130 0 2 -1.179400 28.692034 4.350426 3.653822
131 0 1 0.589700 29.618694 4.559360 3.535699
132 0 1 0.589700 28.337862 4.319918 2.764041
133 0 2 -1.179400 26.575333 2.548637 4.885365
134 0 1 0.589700 27.261854 2.915391 4.327347
135 0 1 0.589700 25.799278 3.072689 4.685492
136 0 2 -1.179400 25.637442 1.134138 2.013441
137 0 1 0.589700 25.020456 1.288524 2.729648
138 0 1 0.589700 25.251875 0.412837 1.514542
139 0 2 -1.179400 30.111626 2.682203 0.554757
140 0 1 0.589700 30.145796 3.639512 0.533810
141 0 1 0.589700 29.316000 2.481014 1.048064
142 0 2 -1.179400 27.055338 4.185158 1.211439
143 0 1 0.589700 26.915176 4.924675 0.618475
144 0 1 0.589700 27.091494 3.419690 0.636184
145 0 2 -1.179400 30.164005 5.607297 0.403629
146 0 1 0.589700 30.893526 5.992213 0.890139
147 0 1 0.589700 30.266947 5.941232 22.827478
148 0 2 -1.179400 26.678005 25.025661 4.986034
149 0 1 0.589700 25.891970 24.690228 4.554190
150 0 1 0.589700 26.608738 0.788443 4.905677
151 0 2 -1.179400 36.359657 0.739081 4.086699
152 0 1 0.589700 35.659096 0.865359 3.446026
153 0 1 0.589700 37.159142 0.696809 3.561445
154 0 2 -1.179400 34.517715 1.111717 2.036612
155 0 1 0.589700 33.581848 0.918708 2.092871
156 0 1 0.589700 34.558216 2.043448 1.816839
157 0 2 -1.179400 37.655483 4.383410 3.580364
158 0 1 0.589700 38.068977 4.235232 2.728879
159 0 1 0.589700 38.139050 3.818684 4.184480
160 0 2 -1.179400 34.981514 4.089537 3.626585
161 0 1 0.589700 35.937042 4.126161 3.584037
162 0 1 0.589700 34.745029 4.747786 4.281471
163 0 2 -1.179400 32.894260 2.556883 4.805133
164 0 1 0.589700 33.599045 2.960085 4.297352
165 0 1 0.589700 33.008114 1.615314 4.669066
166 0 2 -1.179400 31.729069 0.979015 1.794201
167 0 1 0.589700 31.357662 1.780246 1.422844
168 0 1 0.589700 31.194380 0.273693 1.427942
169 0 2 -1.179400 36.750404 2.999327 0.598889
170 0 1 0.589700 36.585453 2.682670 23.025774
171 0 1 0.589700 36.603439 3.944767 0.548360
172 0 2 -1.179400 33.470192 4.240471 1.379423
173 0 1 0.589700 34.158802 4.442046 2.013783
174 0 1 0.589700 33.553406 4.920698 0.709674
175 0 2 -1.179400 36.281528 5.641905 0.386860
176 0 1 0.589700 37.007111 5.876964 0.965978
177 0 1 0.589700 36.365116 6.238818 22.958069
178 0 2 -1.179400 33.307709 25.061245 4.751314
179 0 1 0.589700 32.496895 24.642286 4.461835
180 0 1 0.589700 33.494282 24.661324 5.601900
181 0 2 -1.179400 42.752338 1.319471 4.048394
182 0 1 0.589700 42.783092 0.507489 4.556213
183 0 1 0.589700 42.070587 1.167415 3.393142
184 0 2 -1.179400 40.947258 1.233696 1.930527
185 0 1 0.589700 41.403221 1.864082 1.371554
186 0 1 0.589700 41.274467 0.379340 1.646147
187 0 2 -1.179400 44.243958 4.226241 3.417169
188 0 1 0.589700 44.646355 4.993754 3.825557
189 0 1 0.589700 44.587814 3.482007 3.912925
190 0 2 -1.179400 41.335918 4.398372 3.329519
191 0 1 0.589700 42.284595 4.293083 3.401218
192 0 1 0.589700 40.975159 3.631611 3.776495
193 0 2 -1.179400 39.828518 2.579917 4.664361
194 0 1 0.589700 39.628746 1.648429 4.766307
195 0 1 0.589700 39.679821 2.954110 5.533926
196 0 2 -1.179400 38.207512 1.208602 2.166335
197 0 1 0.589700 37.812435 1.872549 1.599821
198 0 1 0.589700 39.143391 1.252650 1.970188
199 0 2 -1.179400 42.707676 2.794853 0.395698
200 0 1 0.589700 42.884853 3.728069 0.521026
201 0 1 0.589700 43.467678 2.352711 0.774951
202 0 2 -1.179400 39.458412 4.477303 1.434287
203 0 1 0.589700 40.152763 4.525624 2.092134
204 0 1 0.589700 39.527832 5.301342 0.950277
205 0 2 -1.179400 42.752060 5.633882 0.603248
206 0 1 0.589700 42.025181 5.858892 1.184722
207 0 1 0.589700 43.521534 6.020873 1.021652
208 0 2 -1.179400 39.412975 24.879671 4.876301
209 0 1 0.589700 40.151749 24.399755 4.500957
210 0 1 0.589700 39.324123 24.528580 5.763521
211 0 2 -1.179400 48.858799 1.068682 4.143995
212 0 1 0.589700 49.597904 1.240236 3.559741
213 0 1 0.589700 49.222126 0.514639 4.836080
214 0 2 -1.179400 47.263023 0.957066 1.771317
215 0 1 0.589700 47.614204 1.012557 2.661078
216 0 1 0.589700 46.321995 1.097553 1.876076
217 0 2 -1.179400 50.748856 4.293324 3.568661
218 0 1 0.589700 49.864502 4.376743 3.211645
219 0 1 0.589700 -1.471291 4.281152 2.798095
220 0 2 -1.179400 47.667152 3.971868 3.697727
221 0 1 0.589700 47.375961 4.696258 4.253113
222 0 1 0.589700 47.129967 4.043182 2.907769
223 0 2 -1.179400 45.802429 2.373788 5.069149
224 0 1 0.589700 45.794815 1.415858 5.088160
225 0 1 0.589700 46.609295 2.598434 4.605135
226 0 2 -1.179400 44.436966 0.955825 1.942642
227 0 1 0.589700 43.917015 0.354525 1.408136
228 0 1 0.589700 43.908001 1.098679 2.728449
229 0 2 -1.179400 48.964256 2.853027 0.689745
230 0 1 0.589700 48.960281 2.483288 23.121813
231 0 1 0.589700 48.274807 2.376163 1.152798
232 0 2 -1.179400 46.171078 4.376052 1.545167
233 0 1 0.589700 45.451305 4.411128 2.175910
234 0 1 0.589700 45.956684 3.635628 0.976062
235 0 2 -1.179400 49.250107 5.547962 0.692267
236 0 1 0.589700 49.009590 4.622601 0.630701
237 0 1 0.589700 49.111893 5.891480 23.124573
238 0 2 -1.179400 45.884201 24.773417 4.913078
239 0 1 0.589700 45.904884 24.379662 5.786495
240 0 1 0.589700 45.166145 24.325792 4.464631
241 0 2 -1.179400 17.938450 4.990372 11.228436
242 0 1 0.589700 17.521563 5.785170 11.563453
243 0 1 0.589700 18.037481 5.148863 10.288530
244 0 2 -1.179400 12.949292 2.557687 3.236625
245 0 1 0.589700 13.841816 2.673167 2.910233
246 0 1 0.589700 12.846887 3.239053 3.902540
247 0 2 -1.179400 1.709731 5.979475 22.011166
248 0 1 0.589700 0.762311 5.921079 22.134514
249 0 1 0.589700 2.042568 6.290188 22.854231
250 0 2 -1.179400 12.949442 24.557375 4.571418
251 0 1 0.589700 12.163658 24.606524 4.026415
252 0 1 0.589700 13.576279 -0.050145 4.140464
253 0 2 -1.179400 3.099281 7.324580 16.558287
254 0 1 0.589700 2.551309 8.107791 16.497061
255 0 1 0.589700 3.681663 7.496874 17.299032
256 0 2 -1.179400 50.901855 7.271884 2.217497
257 0 1 0.589700 50.436188 6.529962 1.829724
258 0 1 0.589700 50.482681 7.400680 3.069354
259 0 2 -1.179400 2.561905 1.460826 0.693636
260 0 1 0.589700 3.456479 1.801244 0.677076
261 0 1 0.589700 2.566853 0.740903 0.061275
262 0 2 -1.179400 1.384426 18.051220 3.672823
263 0 1 0.589700 2.077205 18.711370 3.709310
264 0 1 0.589700 0.729541 18.356470 4.301527
265 0 2 -1.179400 6.285728 0.456527 2.452173
266 0 1 0.589700 5.429097 0.290168 2.846028
267 0 1 0.589700 6.847907 24.953100 2.800446
268 0 2 -1.179400 -0.759170 6.058748 5.536980
269 0 1 0.589700 -0.858616 7.006293 5.435486
270 0 1 0.589700 -1.299189 5.684407 4.839929
271 0 2 -1.179400 4.909126 15.254278 18.382103
272 0 1 0.589700 4.135798 15.631538 17.961941
273 0 1 0.589700 5.530367 15.981142 18.436834
274 0 2 -1.179400 3.257674 17.009239 7.689442
275 0 1 0.589700 3.952054 17.487494 7.235293
276 0 1 0.589700 2.735138 16.621042 6.986639
277 0 2 -1.179400 12.552656 24.363184 18.053520
278 0 1 0.589700 11.750301 23.975117 17.703640
279 0 1 0.589700 13.163808 24.354832 17.316017
280 0 2 -1.179400 2.263993 24.712713 5.905995
281 0 1 0.589700 1.341640 24.514439 5.743897
282 0 1 0.589700 2.678737 23.855452 6.009861
283 0 2 -1.179400 1.416795 12.353598 22.198448
284 0 1 0.589700 1.751770 13.123132 22.660517
285 0 1 0.589700 0.471070 12.379689 22.343912
286 0 2 -1.179400 3.928726 19.086740 3.714627
287 0 1 0.589700 4.209806 18.382744 3.128623
288 0 1 0.589700 4.327091 19.877470 3.348802
289 0 2 -1.179400 11.473886 10.031177 17.313120
290 0 1 0.589700 10.861137 10.231569 16.604712
291 0 1 0.589700 11.568595 9.078105 17.286337
292 0 2 -1.179400 7.618383 16.808981 21.926147
293 0 1 0.589700 6.674938 16.947134 21.842081
294 0 1 0.589700 7.739789 15.873068 21.760742
295 0 2 -1.179400 21.704765 7.884515 13.549619
296 0 1 0.589700 20.866144 8.196465 13.890297
297 0 1 0.589700 21.477125 7.133296 13.000160
298 0 2 -1.179400 2.612071 3.491974 6.523670
299 0 1 0.589700 3.286435 3.532560 7.202548
300 0 1 0.589700 1.906330 2.978576 6.917934
301 0 2 -1.179400 8.429284 18.880369 3.757574
302 0 1 0.589700 8.424071 18.785158 4.711139
303 0 1 0.589700 9.270332 18.513655 3.484086
304 0 2 -1.179400 -1.474209 14.941216 10.890611
305 0 1 0.589700 -1.509846 13.994401 10.748043
306 0 1 0.589700 51.071648 15.320766 10.045051
307 0 2 -1.179400 7.514835 15.566498 14.653522
308 0 1 0.589700 6.589929 15.537041 14.898494
309 0 1 0.589700 7.875764 14.741418 14.980322
310 0 2 -1.179400 21.536467 12.397763 1.687494
311 0 1 0.589700 21.637278 13.318131 1.934090
312 0 1 0.589700 22.331367 12.192405 1.194738
313 0 2 -1.179400 2.454272 8.033008 0.699143
314 0 1 0.589700 1.962278 7.702845 1.451935
315 0 1 0.589700 3.364071 8.049306 0.996459
316 0 2 -1.179400 1.996897 9.754714 7.508070
317 0 1 0.589700 2.152583 10.274571 8.297838
318 0 1 0.589700 1.810426 8.873174 7.833848
319 0 2 -1.179400 22.155474 12.439881 7.813506
320 0 1 0.589700 22.782993 12.232415 7.120254
321 0 1 0.589700 22.042599 11.616176 8.289819
322 0 2 -1.179400 18.712557 1.289907 4.083661
323 0 1 0.589700 18.337845 1.098637 3.222824
324 0 1 0.589700 19.630753 1.029965 4.008280
325 0 2 -1.179400 15.333675 20.255325 1.259033
326 0 1 0.589700 14.609394 19.723879 0.927369
327 0 1 0.589700 15.346045 20.083437 2.201726
328 0 2 -1.179400 9.361855 17.878706 19.955908
329 0 1 0.589700 10.209855 17.631594 20.325319
330 0 1 0.589700 8.740431 17.743694 20.672184
331 0 2 -1.179400 19.152601 14.970127 -0.046472
332 0 1 0.589700 19.490259 15.522407 22.563301
333 0 1 0.589700 18.256128 15.276967 0.089928
334 0 2 -1.179400 23.051247 5.805179 6.782483
335 0 1 0.589700 23.316227 5.863793 5.863482
336 0 1 0.589700 23.688314 6.344970 7.251601
337 0 2 -1.179400 24.949900 10.513362 3.411594
338 0 1 0.589700 25.320791 11.263686 3.877751
339 0 1 0.589700 25.171274 9.757810 3.957665
340 0 2 -1.179400 1.170656 21.937157 8.993162
341 0 1 0.589700 0.783126 21.444689 9.717890
342 0 1 0.589700 1.949444 21.435165 8.751650
343 0 2 -1.179400 16.027697 22.956564 10.261115
344 0 1 0.589700 15.808152 22.977402 9.328575
345 0 1 0.589700 16.722088 23.608763 10.358735
346 0 2 -1.179400 9.398191 9.600737 5.471910
347 0 1 0.589700 10.096996 10.020310 4.969141
348 0 1 0.589700 9.019027 8.961173 4.867690
349 0 2 -1.179400 20.646051 7.188375 7.330139
350 0 1 0.589700 21.422073 6.685058 7.082533
351 0 1 0.589700 20.559383 7.849987 6.642417
352 0 2 -1.179400 15.810380 13.427050 4.662055
353 0 1 0.589700 16.287565 12.600695 4.745839
354 0 1 0.589700 15.767756 13.771459 5.555307
355 0 2 -1.179400 18.653381 1.993829 9.516851
356 0 1 0.589700 19.356981 2.419607 10.007555
357 0 1 0.589700 17.849623 2.370145 9.876212
358 0 2 -1.179400 15.971843 10.985984 7.520855
359 0 1 0.589700 15.874929 10.647997 8.412307
360 0 1 0.589700 15.758958 11.917374 7.592621
361 0 2 -1.179400 30.146755 7.326509 4.185813
362 0 1 0.589700 29.923035 8.000776 4.828783
363 0 1 0.589700 29.473160 7.405795 3.509591
364 0 2 -1.179400 28.587896 7.398892 1.842672
365 0 1 0.589700 28.923532 6.756052 1.216518
366 0 1 0.589700 27.651783 7.454247 1.650565
367 0 2 -1.179400 31.498199 10.383599 3.330768
368 0 1 0.589700 32.033012 9.687879 3.714786
369 0 1 0.589700 31.791777 10.438189 2.420271
370 0 2 -1.179400 28.610096 10.514365 3.449606
371 0 1 0.589700 29.562126 10.423083 3.488457
372 0 1 0.589700 28.431446 10.785242 2.547948
373 0 2 -1.179400 26.796206 8.948102 5.048147
374 0 1 0.589700 26.846025 8.003145 4.897723
375 0 1 0.589700 27.513533 9.312253 4.528593
376 0 2 -1.179400 25.447725 7.571383 1.827390
377 0 1 0.589700 25.105736 7.564983 2.722432
378 0 1 0.589700 24.867275 8.166866 1.352075
379 0 2 -1.179400 30.125978 9.132159 0.486851
380 0 1 0.589700 29.425314 8.642131 0.918195
381 0 1 0.589700 30.924965 8.848826 0.932012
382 0 2 -1.179400 26.954212 10.573228 1.208864
383 0 1 0.589700 26.163322 10.500032 1.743667
384 0 1 0.589700 26.883839 9.857216 0.575968
385 0 2 -1.179400 29.997738 11.986576 0.255569
386 0 1 0.589700 29.279270 12.384533 0.748033
387 0 1 0.589700 29.876453 11.043436 0.373064
388 0 2 -1.179400 26.978096 6.174558 4.751771
389 0 1 0.589700 27.679651 5.606140 4.432697
390 0 1 0.589700 26.849642 5.909011 5.663527
391 0 2 -1.179400 36.215889 7.715137 4.074167
392 0 1 0.589700 36.222458 6.892191 4.564938
393 0 1 0.589700 36.059837 8.388931 4.737348
394 0 2 -1.179400 34.736759 7.681611 1.728971
395 0 1 0.589700 35.220486 7.579006 2.549516
396 0 1 0.589700 34.941120 6.890442 1.228628
397 0 2 -1.179400 37.582153 10.456271 3.519540
398 0 1 0.589700 37.961720 11.251258 3.896015
399 0 1 0.589700 36.647861 10.649954 3.443016
400 0 2 -1.179400 34.774933 10.447388 3.245371
401 0 1 0.589700 34.413750 9.728893 3.766134
402 0 1 0.589700 34.551708 11.237743 3.738874
403 0 2 -1.179400 33.222801 8.689856 4.764307
404 0 1 0.589700 32.952465 9.056235 5.607421
405 0 1 0.589700 33.123764 7.742844 4.871053
406 0 2 -1.179400 31.719952 7.311640 1.851245
407 0 1 0.589700 32.655304 7.513708 1.874837
408 0 1 0.589700 31.429018 7.416151 2.758223
409 0 2 -1.179400 36.690708 9.251946 0.590637
410 0 1 0.589700 36.014809 8.900796 1.171235
411 0 1 0.589700 36.557762 10.200548 0.612846
412 0 2 -1.179400 33.246536 10.624026 1.017058
413 0 1 0.589700 33.837524 10.593795 1.770291
414 0 1 0.589700 33.456730 9.835856 0.514409
415 0 2 -1.179400 36.615360 12.027212 0.433897
416 0 1 0.589700 35.727932 12.370838 0.538039
417 0 1 0.589700 37.181667 12.718310 0.779032
418 0 2 -1.179400 33.045162 5.936960 4.975171
419 0 1 0.589700 32.962547 5.355052 5.732007
420 0 1 0.589700 32.565395 5.491475 4.275797
421 0 2 -1.179400 42.798252 7.396773 4.022121
422 0 1 0.589700 42.612011 8.058546 4.689586
423 0 1 0.589700 42.087952 7.489531 3.386483
424 0 2 -1.179400 41.127628 7.334876 1.995306
425 0 1 0.589700 40.179253 7.418221 2.094578
426 0 1 0.589700 41.344414 7.915293 1.264371
427 0 2 -1.179400 44.114071 10.613411 3.463018
428 0 1 0.589700 44.522804 11.341395 3.932873
429 0 1 0.589700 44.483902 10.658695 2.580281
430 0 2 -1.179400 41.188511 10.746835 3.397985
431 0 1 0.589700 40.847485 10.053128 3.964025
432 0 1 0.589700 42.128120 10.572124 3.344459
433 0 2 -1.179400 39.357422 8.878603 5.004086
434 0 1 0.589700 39.317112 7.934037 4.848439
435 0 1 0.589700 38.642654 9.239391 4.478680
436 0 2 -1.179400 38.277496 7.280776 2.109586
437 0 1 0.589700 37.759048 7.455509 2.895973
438 0 1 0.589700 38.050713 7.991934 1.508838
439 0 2 -1.179400 42.665222 9.335596 0.281684
440 0 1 0.589700 42.387028 9.058406 22.723803
441 0 1 0.589700 42.623596 10.292462 0.254836
442 0 2 -1.179400 39.370808 10.934307 1.338647
443 0 1 0.589700 38.518406 10.811419 1.756908
444 0 1 0.589700 39.998020 10.909429 2.062128
445 0 2 -1.179400 42.550659 12.034029 0.759553
446 0 1 0.589700 42.623051 12.618071 0.003313
447 0 1 0.589700 43.252552 12.314165 1.347803
448 0 2 -1.179400 39.362286 6.048183 4.764880
449 0 1 0.589700 40.115189 5.788619 4.233128
450 0 1 0.589700 38.601677 5.820904 4.229351
451 0 2 -1.179400 49.369446 7.292282 4.480169
452 0 1 0.589700 48.982166 7.983977 5.018150
453 0 1 0.589700 48.736439 7.152612 3.775038
454 0 2 -1.179400 47.419048 7.263041 2.494964
455 0 1 0.589700 46.471752 7.375185 2.574218
456 0 1 0.589700 47.523975 6.517251 1.902563
457 0 2 -1.179400 50.581081 10.540229 3.666310
458 0 1 0.589700 50.957039 9.792809 4.133069
459 0 1 0.589700 51.017719 10.535889 2.813518
460 0 2 -1.179400 47.607285 10.534750 3.301875
461 0 1 0.589700 47.350227 11.118838 4.016620
462 0 1 0.589700 48.560337 10.477675 3.369971
463 0 2 -1.179400 45.776627 8.866269 4.902847
464 0 1 0.589700 45.102661 9.345264 4.419583
465 0 1 0.589700 46.603527 9.198656 4.552910
466 0 2 -1.179400 44.654530 7.560600 1.808468
467 0 1 0.589700 44.266808 8.100779 1.118689
468 0 1 0.589700 44.002956 7.561965 2.510473
469 0 2 -1.179400 48.919346 9.030486 0.653871
470 0 1 0.589700 48.103920 8.767147 1.081070
471 0 1 0.589700 49.607300 8.616418 1.175840
472 0 2 -1.179400 45.651611 10.789628 1.075931
473 0 1 0.589700 45.611435 9.959480 0.599100
474 0 1 0.589700 46.286556 10.634143 1.775984
475 0 2 -1.179400 48.806061 11.708623 0.623633
476 0 1 0.589700 49.017200 10.774083 0.620037
477 0 1 0.589700 48.191185 11.812921 1.350628
478 0 2 -1.179400 45.801979 5.909285 4.804112
479 0 1 0.589700 45.407246 5.558662 5.603618
480 0 1 0.589700 45.547314 6.832857 4.795258
481 0 2 -1.179400 -0.639826 10.514132 18.890896
482 0 1 0.589700 0.311404 10.616799 18.862080
483 0 1 0.589700 -0.845854 9.971144 18.128736
484 0 2 -1.179400 6.497723 14.430409 7.957254
485 0 1 0.589700 6.880516 13.684202 8.420368
486 0 1 0.589700 6.536924 14.184846 7.031772
487 0 2 -1.179400 14.946247 20.687496 16.314865
488 0 1 0.589700 15.317959 20.293343 15.524632
489 0 1 0.589700 14.002681 20.701330 16.154438
490 0 2 -1.179400 3.922188 9.118787 5.693999
491 0 1 0.589700 4.499382 9.872808 5.568794
492 0 1 0.589700 3.345716 9.375338 6.414708
493 0 2 -1.179400 -0.825829 15.068689 4.815740
494 0 1 0.589700 -0.809987 15.663617 5.566781
495 0 1 0.589700 -0.952533 14.200179 5.200065
496 0 2 -1.179400 50.393166 13.811016 2.013934
497 0 1 0.589700 50.005402 14.646954 1.751993
498 0 1 0.589700 50.014740 13.170636 1.410115
499 0 2 -1.179400 0.564580 13.624268 2.232959
500 0 1 0.589700 -0.381753 13.729496 2.330981
501 0 1 0.589700 0.874991 13.413219 3.114570
502 0 2 -1.179400 2.176503 24.337494 18.482443
503 0 1 0.589700 3.011251 24.806187 18.469999
504 0 1 0.589700 1.535991 24.996628 18.751743
505 0 2 -1.179400 1.740657 12.421071 4.500825
506 0 1 0.589700 1.620839 11.551687 4.116263
507 0 1 0.589700 2.425166 12.299981 5.159638
508 0 2 -1.179400 -0.794560 12.250250 5.311946
509 0 1 0.589700 -1.289571 11.728246 4.679357
510 0 1 0.589700 0.101690 12.247101 4.975523
511 0 2 -1.179400 10.294704 13.376310 6.385716
512 0 1 0.589700 10.375409 12.762489 7.117113
513 0 1 0.589700 11.174352 13.738218 6.277443
514 0 2 -1.179400 18.842363 0.537104 13.353703
515 0 1 0.589700 19.398060 0.040227 12.752151
516 0 1 0.589700 17.952234 0.250115 13.149362
517 0 2 -1.179400 9.065014 2.494540 18.438923
518 0 1 0.589700 9.765735 2.870845 18.972340
519 0 1 0.589700 8.790689 1.712798 18.920177
520 0 2 -1.179400 21.925858 14.597079 14.089404
521 0 1 0.589700 21.857635 15.371707 14.649269
522 0 1 0.589700 22.407936 13.960310 14.618369
523 0 2 -1.179400 5.359755 18.267269 15.648651
524 0 1 0.589700 5.599673 18.499218 16.546907
525 0 1 0.589700 4.829383 19.004391 15.343906
526 0 2 -1.179400 16.377104 18.762310 18.488964
527 0 1 0.589700 16.008390 18.967640 17.628771
528 0 1 0.589700 15.614453 18.630426 19.052835
529 0 2 -1.179400 19.449205 9.016776 14.840933
530 0 1 0.589700 18.613258 9.482694 14.813755
531 0 1 0.589700 19.622290 8.888386 15.774668
532 0 2 -1.179400 9.789721 24.634972 5.323378
533 0 1 0.589700 9.379400 24.437544 4.480394
534 0 1 0.589700 10.303947 23.853355 5.528742
535 0 2 -1.179400 5.571605 24.699236 13.343037
536 0 1 0.589700 6.124760 24.633160 14.122332
537 0 1 0.589700 6.068553 24.253204 12.656150
538 0 2 -1.179400 11.166162 1.434355 16.865635
539 0 1 0.589700 11.573059 0.664768 17.265560
540 0 1 0.589700 10.397548 1.608746 17.409485
541 0 2 -1.179400 17.766747 8.324595 18.598408
542 0 1 0.589700 17.307358 8.352880 17.758150
543 0 1 0.589700 18.689787 8.229251 18.363373
544 0 2 -1.179400 13.871297 15.988694 22.987560
545 0 1 0.589700 14.738945 15.762636 22.651943
546 0 1 0.589700 13.988948 16.050934 0.620422
547 0 2 -1.179400 18.224661 24.792618 10.487786
548 0 1 0.589700 18.353191 0.470406 10.101251
549 0 1 0.589700 19.081848 24.371168 10.423251
550 0 2 -1.179400 16.244049 16.210426 8.905439
551 0 1 0.589700 16.914558 16.145983 9.586297
552 0 1 0.589700 15.797557 17.038406 9.086415
553 0 2 -1.179400 12.770337 7.300394 8.564486
554 0 1 0.589700 13.197475 7.875661 7.928526
555 0 1 0.589700 12.209599 6.732319 8.034982
556 0 2 -1.179400 6.872063 16.443277 4.214543
557 0 1 0.589700 7.103446 16.279310 3.299218
558 0 1 0.589700 7.670162 16.801044 4.604218
559 0 2 -1.179400 20.779266 8.605061 2.343594
560 0 1 0.589700 19.881496 8.934194 2.389290
561 0 1 0.589700 21.270788 9.165693 2.945080
562 0 2 -1.179400 14.712044 11.912367 21.362551
563 0 1 0.589700 14.936429 11.152534 20.823702
564 0 1 0.589700 15.546540 12.358105 21.509428
565 0 2 -1.179400 13.334169 13.192419 9.296012
566 0 1 0.589700 14.075873 13.504238 9.815310
567 0 1 0.589700 13.230187 12.275110 9.552492
568 0 2 -1.179400 2.871041 22.000078 5.931444
569 0 1 0.589700 2.446907 21.944189 5.074162
570 0 1 0.589700 3.807868 21.968052 5.737521
571 0 2 -1.179400 23.726366 15.876957 6.482473
572 0 1 0.589700 24.059160 16.760248 6.318530
573 0 1 0.589700 23.274197 15.943313 7.324511
574 0 2 -1.179400 22.180050 22.619654 20.308941
575 0 1 0.589700 23.111931 22.828489 20.374279
576 0 1 0.589700 21.861086 22.661404 21.211525
577 0 2 -1.179400 24.915110 17.031250 3.206220
578 0 1 0.589700 25.110023 16.392073 3.892955
579 0 1 0.589700 23.965221 17.142714 3.244961
580 0 2 -1.179400 13.553259 17.660109 11.080035
581 0 1 0.589700 12.954196 18.406853 11.108539
582 0 1 0.589700 13.021990 16.937653 10.743392
583 0 2 -1.179400 3.819963 12.383593 2.239870
584 0 1 0.589700 3.109549 11.757350 2.097871
585 0 1 0.589700 3.526665 12.916777 2.979981
586 0 2 -1.179400 8.927767 8.315390 10.648492
587 0 1 0.589700 8.013384 8.465476 10.408187
588 0 1 0.589700 9.419668 8.504109 9.848364
589 0 2 -1.179400 23.708199 15.892039 0.190521
590 0 1 0.589700 23.598070 15.350851 22.723581
591 0 1 0.589700 24.079454 15.297228 0.843433
592 0 2 -1.179400 21.177752 22.186024 23.052183
593 0 1 0.589700 20.919827 23.093756 -0.098385
594 0 1 0.589700 22.068846 22.123394 0.080274
595 0 2 -1.179400 8.691958 19.407988 23.098700
596 0 1 0.589700 8.905150 18.478928 23.001974
597 0 1 0.589700 7.913162 19.418690 0.339581
598 0 2 -1.179400 5.682257 25.082952 6.117955
599 0 1 0.589700 6.134576 0.657829 5.758989
600 0 1 0.589700 5.076494 0.255575 6.765560
601 0 2 -1.179400 30.029409 13.510386 3.884222
602 0 1 0.589700 29.989290 14.316889 4.400055
603 0 1 0.589700 29.978052 12.807401 4.533353
604 0 2 -1.179400 28.339586 13.592237 1.778218
605 0 1 0.589700 28.613937 14.342638 1.249421
606 0 1 0.589700 28.959969 13.572114 2.507723
607 0 2 -1.179400 31.490129 16.663036 3.327901
608 0 1 0.589700 31.972235 16.010921 3.837792
609 0 1 0.589700 31.923147 16.668779 2.473269
610 0 2 -1.179400 28.524466 16.522160 3.699566
611 0 1 0.589700 29.447800 16.693378 3.513923
612 0 1 0.589700 28.142124 17.390127 3.834494
613 0 2 -1.179400 26.514530 14.891623 4.650292
614 0 1 0.589700 26.657207 13.944667 4.680726
615 0 1 0.589700 27.343334 15.249575 4.331476
616 0 2 -1.179400 24.572340 14.066218 2.396983
617 0 1 0.589700 23.984648 14.039196 3.152920
618 0 1 0.589700 25.439695 14.215798 2.773666
619 0 2 -1.179400 29.842342 15.633334 0.452074
620 0 1 0.589700 29.998352 16.573154 0.350079
621 0 1 0.589700 30.692944 15.274442 0.705596
622 0 2 -1.179400 26.944887 16.687120 1.135961
623 0 1 0.589700 26.190306 17.011597 1.628201
624 0 1 0.589700 27.613045 16.523981 1.802482
625 0 2 -1.179400 30.093109 18.357103 0.468633
626 0 1 0.589700 30.893059 18.769094 0.795942
627 0 1 0.589700 29.408104 18.655285 1.067865
628 0 2 -1.179400 26.941582 12.267839 4.845499
629 0 1 0.589700 27.035730 11.825456 5.690320
630 0 1 0.589700 27.519173 11.783326 4.254624
631 0 2 -1.179400 36.450352 13.415527 3.885126
632 0 1 0.589700 36.280552 14.102273 4.531415
633 0 1 0.589700 35.779915 13.545901 3.213700
634 0 2 -1.179400 34.684402 13.738678 1.806420
635 0 1 0.589700 34.886044 14.456282 1.204352
636 0 1 0.589700 33.771648 13.883990 2.055693
637 0 2 -1.179400 37.676125 16.997320 3.330481
638 0 1 0.589700 37.989811 16.257437 3.852134
639 0 1 0.589700 38.209396 17.738663 3.619502
640 0 2 -1.179400 34.886688 17.104958 3.474653
641 0 1 0.589700 35.840424 17.139326 3.401118
642 0 1 0.589700 34.701836 16.218662 3.788226
643 0 2 -1.179400 33.354088 14.882923 4.555303
644 0 1 0.589700 33.443970 13.970292 4.832946
645 0 1 0.589700 33.499817 15.392328 5.353743
646 0 2 -1.179400 31.855047 13.606066 1.629274
647 0 1 0.589700 31.319729 12.919122 1.230446