LAMMPS data file via write_data, version 30 Jul 2021, timestep = 18250000

972 atoms
2 atom types
648 bonds
1 bond types
324 angles
1 angle types

0.06064772486781678 19.939353275135822 xlo xhi
-0.03890414298437861 20.03890514299178 ylo yhi
0.025133933814219134 20.674864066181335 zlo zhi

Masses

1 1.008
2 15.999

Pair Coeffs # lj/cut/tip4p/long/omp

1 0 0
2 0.21084 3.1668

Bond Coeffs # harmonic/omp

1 450 0.9572

Angle Coeffs # harmonic/omp

1 55 104.52

Atoms # full

33 11 1 0.5897 1.4212079758057328 2.2208330487584114 1.8520427758205007 0 0 0
11 4 1 0.5897 1.1157175466049798 3.3718134369175794 3.4308552481535393 0 0 0
9 3 1 0.5897 5.101024287673919 4.1653504241166415 4.943732194576477 0 0 0
10 4 2 -1.1794 1.338728537143081 4.241018358621013 3.763980505424028 0 0 0
12 4 1 0.5897 2.293366515752029 4.233554175883847 3.8338800608873767 0 0 0
236 79 1 0.5897 0.9769319344153051 0.35953699160502045 2.280925624646907 0 1 0
16 6 2 -1.1794 3.9953752597306575 4.128401915412576 3.3564422311392788 0 0 0
5 2 1 0.5897 4.2377654658975725 0.8839759487345217 2.3354948412758763 0 0 0
24 8 1 0.5897 3.0595352685810973 1.0563526582294676 4.351726141289535 0 0 0
22 8 2 -1.1794 2.435532956049016 0.8908991860650369 5.05847348951532 0 0 0
4 2 2 -1.1794 4.192607439594241 1.4533110222378174 3.1036759086113217 0 0 0
18 6 1 0.5897 4.0904462953926615 3.216636744109519 3.0808615545051667 0 0 0
1 1 2 -1.1794 2.2216687447285537 2.6897995875571064 0.20858424989600058 0 0 0
48 16 1 0.5897 7.403911164777354 4.09699540438935 4.506252524397347 0 0 0
46 16 2 -1.1794 8.149421972719287 3.8216702561866516 3.972698878112849 0 0 0
6 2 1 0.5897 4.99114105410346 1.2583058767365551 3.594190556910283 0 0 0
273 91 1 0.5897 7.301971913040323 0.26169896882660854 1.7928283437681827 0 1 0
69 23 1 0.5897 6.1642861003153175 2.429058992937806 1.853968207312989 0 0 0
67 23 2 -1.1794 6.947079025799622 2.0095379643222566 2.2110684906516185 0 0 0
47 16 1 0.5897 7.826005131394889 3.0679794075461726 3.479121202946323 0 0 0
68 23 1 0.5897 7.636234020642875 2.2082272628884847 1.5771340476336904 0 0 0
34 12 2 -1.1794 5.034797092825202 2.6326222200376588 0.16658000099304623 0 0 0
31 11 2 -1.1794 0.7855937547414935 1.9252564896470876 2.5038367870776246 0 0 0
17 6 1 0.5897 4.40013944377939 4.635333055068119 2.652545109032204 0 0 0
2 1 1 0.5897 2.158547347319068 3.6345545041328107 0.06802705905974119 0 0 0
3 1 1 0.5897 3.1612306637712835 2.5072807644986046 0.1942936563881476 0 0 0
29 10 1 0.5897 6.838667834807034 0.7582744235376926 4.846773630905489 0 0 0
28 10 2 -1.1794 5.892183452098316 0.6402536979695225 4.927274666795779 0 0 0
41 14 1 0.5897 9.961649136975288 1.1106128341844728 4.039647681819339 0 0 0
37 13 2 -1.1794 9.164182674133192 2.8111238019602274 0.4695083698816279 0 0 0
58 20 2 -1.1794 8.494224721656712 0.7993522245986633 5.060539175149458 0 0 0
325 109 2 -1.1794 2.7771628018729424 2.706876122388289 7.005950068026378 0 0 0
326 109 1 0.5897 2.6365006969853177 2.2724812925236 6.164659201301159 0 0 0
327 109 1 0.5897 3.6141546263019384 2.3620499703760114 7.317106776273135 0 0 0
356 119 1 0.5897 1.666271833513071 2.2204100146626353 8.30404816796846 0 0 0
355 119 2 -1.1794 1.0569879832618536 1.9457106077564743 8.989318678533008 0 0 0
59 20 1 0.5897 8.599728530208097 1.4699466592310737 5.735410830931489 0 0 0
359 120 1 0.5897 6.181588795472617 2.0734620068290215 7.901325128720618 0 0 0
554 185 1 0.5897 4.836297773276969 0.015674496033479812 8.777918757911701 0 1 0
392 131 1 0.5897 8.099789495425979 2.682301698723858 8.300412064854147 0 0 0
342 114 1 0.5897 4.319714995493003 4.477542394736044 9.635010404449206 0 0 0
358 120 2 -1.1794 5.500393530405855 2.0964796517903377 7.229219397165189 0 0 0
362 121 1 0.5897 9.430347346450064 3.565719870956849 6.658011103400912 0 0 0
360 120 1 0.5897 5.795711389784892 1.471880039808871 6.566734966396323 0 0 0
361 121 2 -1.1794 9.366554581310151 2.675204810790703 7.00327362527122 0 0 0
393 131 1 0.5897 7.793716063884143 1.4489081714853835 9.123271472705435 0 0 0
23 8 1 0.5897 2.566417100331434 -0.030246405156502065 5.283487238170794 0 0 0
8 3 1 0.5897 5.681422775083506 3.501330121862032 6.174273074352565 0 0 0
391 131 2 -1.1794 7.597424594951311 2.3835546973760717 9.058473175655104 0 0 0
27 9 1 0.5897 2.672869821379236 4.444633478971368 6.33407042388534 0 0 0
60 20 1 0.5897 8.658670172387799 -0.026735635428239056 5.515284125413971 0 0 0
357 119 1 0.5897 0.19014121033692766 2.1313861263198035 8.628260585621579 0 0 0
328 110 2 -1.1794 4.502189388816372 1.272553635086441 10.149280809320352 0 0 0
371 124 1 0.5897 8.15679924812988 3.4355588059666102 10.325255685155598 0 0 0
7 3 2 -1.1794 5.862505186777503 4.179632134067096 5.523582695120517 0 0 0
102 34 1 0.5897 0.7155373544551566 0.6393448721517025 5.373421395453388 1 0 0
649 217 2 -1.1794 2.775836400310322 2.4624526537070195 13.927748614231403 0 0 0
650 217 1 0.5897 2.352588539196998 2.0150844745038836 13.19494491481067 0 0 0
680 227 1 0.5897 0.31121073758201245 2.0865325088961484 15.338313448682223 0 0 0
347 116 1 0.5897 1.4452110273274508 0.7984455528836286 11.723321004635089 0 0 0
382 128 2 -1.1794 8.762210736708521 0.5317800584474621 12.754711277101036 0 0 0
372 124 1 0.5897 7.653193549544287 4.309080245140407 11.45453766449232 0 0 0
386 129 1 0.5897 8.817008390673521 4.857443832396965 13.645888955961166 0 0 0
685 229 2 -1.1794 9.05615904092625 2.9281191900224277 14.351134744938312 0 0 0
684 228 1 0.5897 5.951941963545004 3.4140738440618716 13.736669671460076 0 0 0
651 217 1 0.5897 2.2333691623904746 2.2466073519250735 14.686312545374193 0 0 0
384 128 1 0.5897 9.249217275076207 0.732797941739734 11.955531993268318 0 0 0
351 117 1 0.5897 2.7943189064917613 4.138748102708212 13.511695962041669 0 0 0
329 110 1 0.5897 3.64120351338405 1.1078086011441972 10.53377031488771 0 0 0
683 228 1 0.5897 4.890176720246308 2.578745118057199 14.419945583267497 0 0 0
383 128 1 0.5897 8.72597453756528 1.3624512154417585 13.229015531701558 0 0 0
353 118 1 0.5897 7.136883284596912 0.7410560390818967 12.38821390941157 0 0 0
334 112 2 -1.1794 1.1791786600073269 4.247626443957307 10.943489371609658 0 0 0
370 124 2 -1.1794 8.356911893792406 4.236489461965233 10.809735356622813 0 0 0
682 228 2 -1.1794 5.836137366292252 2.721467962897172 14.387171382991792 0 0 0
332 111 1 0.5897 5.382206377244152 4.515174455292784 11.759215535249432 0 0 0
352 118 2 -1.1794 6.210088765875028 0.9451067365171921 12.263026036061131 0 0 0
354 118 1 0.5897 6.018496672803154 1.6078345405410888 12.926604997048305 0 0 0
686 229 1 0.5897 8.519224039792924 2.6792143895286404 15.10347723059767 0 0 0
346 116 2 -1.1794 2.3643836005141727 0.5411024651433399 11.795002617731171 0 0 0
336 112 1 0.5897 1.8493279532559512 4.308175257087874 11.624288103480428 0 0 0
687 229 1 0.5897 9.951457647769967 2.942657879460565 14.689543163878566 0 0 0
330 110 1 0.5897 5.108085099975517 1.226831304507619 10.888924692893987 0 0 0
331 111 2 -1.1794 6.024461055181074 4.592805570154231 12.464737441960425 0 0 0
340 114 2 -1.1794 4.172765390902705 4.044294101025459 10.475798497773752 0 0 0
335 112 1 0.5897 1.390402442343428 3.443141961936049 10.469692264812485 0 0 0
341 114 1 0.5897 4.571589410254932 3.1801369207366608 10.373462306233778 0 0 0
681 227 1 0.5897 1.1477116370950915 2.5449424388207045 16.513937507147503 0 0 0
671 224 1 0.5897 1.76566064002036 1.318742806575454 19.278015663718236 0 0 0
653 218 1 0.5897 2.9302215201442934 0.9513114851426454 17.565364110357955 0 0 0
702 234 1 0.5897 9.85963095008871 4.495209237434807 17.713249677775046 0 0 0
676 226 2 -1.1794 5.903196388187637 0.7326787938940892 18.93164946149176 0 0 0
36 12 1 0.5897 5.363657374421367 3.4056321541929098 20.35743756779015 0 0 -1
707 236 1 0.5897 8.944556701559291 0.31106268304979856 19.485057679590746 0 0 0
665 222 1 0.5897 3.335396720524747 4.08269115526538 17.23198902173077 0 0 0
658 220 2 -1.1794 1.5372114055133277 4.023842028593469 17.45250128281686 0 0 0
715 239 2 -1.1794 7.350913691158622 2.250997591193153 16.458359559845164 0 0 0
652 218 2 -1.1794 3.804681259596308 1.2431785195145184 17.307677223544587 0 0 0
666 222 1 0.5897 4.388926809180506 2.998227911331078 17.309943360129722 0 0 0
664 222 2 -1.1794 4.281704528539227 3.9427534638515285 17.197381515137167 0 0 0
670 224 2 -1.1794 1.4744150599647095 0.6317316200995658 18.678455232922374 0 0 0
672 224 1 0.5897 0.5207708200570735 0.629384297695374 18.76122470274754 0 0 0
659 220 1 0.5897 0.9582854276446089 4.238945407566262 18.1838397019229 0 0 0
38 13 1 0.5897 9.033741791268303 2.2870739164209994 20.328924515327216 0 0 -1
35 12 1 0.5897 5.397485060493278 1.8923069694865353 20.329822718545508 0 0 -1
655 219 2 -1.1794 5.613025323636868 4.840485255369222 19.37622773768654 0 0 0
677 226 1 0.5897 5.137548232945493 0.9152459289321937 18.386967068605593 0 0 0
706 236 2 -1.1794 8.59182261487745 1.081374526407563 19.039539111746947 0 0 0
694 232 2 -1.1794 7.9070049940737075 4.572456406186453 17.68080913198738 0 0 0
695 232 1 0.5897 7.7855770228653265 3.6889440223980308 17.333038371936098 0 0 0
708 236 1 0.5897 7.665210833950215 0.8797916752428315 18.908992017775148 0 0 0
654 218 1 0.5897 4.067519758916109 0.6338005656349635 16.617861107280447 0 0 0
656 219 1 0.5897 4.946580675063388 4.564232748946201 18.747113234321226 0 0 0
717 239 1 0.5897 6.784544123112367 2.4597258098479995 15.7154336241043 0 0 0
657 219 1 0.5897 6.441630225493156 4.74074735643316 18.90745186976799 0 0 0
660 220 1 0.5897 1.3221563667434355 4.668638156516393 16.778514104889354 0 0 0
885 295 1 0.5897 0.761402453247254 0.00917498765232068 16.031450566949367 0 1 0
716 239 1 0.5897 7.282969000056368 1.3008213827800144 16.552426341360963 0 0 0
679 227 2 -1.1794 1.1019089731789617 1.8729847446586503 15.833772176349795 0 0 0
710 237 1 0.5897 9.045857674551398 4.516379774478017 20.576836723476738 0 0 0
139 47 2 -1.1794 0.6759682265568836 9.057751019059646 1.9381879741983226 0 0 0
177 59 1 0.5897 8.341973528798757 8.74188797597888 1.2888173309625035 0 0 0
15 5 1 0.5897 4.331845849525947 6.821630261128611 2.1344936412795845 0 0 0
114 38 1 0.5897 4.612033091751171 7.579009073052522 3.9440293458864932 0 0 0
112 38 2 -1.1794 4.149005733821463 8.160747231997282 3.3412199546292185 0 0 0
166 56 2 -1.1794 8.721084797792109 7.614872870392563 5.069632611124052 0 0 0
111 37 1 0.5897 1.8828495808943841 9.2148707431807 0.6353825602838393 0 0 0
14 5 1 0.5897 3.8047710791010285 6.012214066715491 0.9687126160977589 0 0 0
113 38 1 0.5897 3.22594847388117 7.930447331143324 3.4468532356076316 0 0 0
176 59 1 0.5897 7.722515376744715 7.673149044784222 2.164065951033821 0 0 0
142 48 2 -1.1794 5.369514783857774 9.476987826464429 0.2349666844630482 0 0 0
56 19 1 0.5897 6.485618524565854 5.967984211915531 1.9411716194903677 0 0 0
55 19 2 -1.1794 7.435506894716443 5.887159294560311 2.0274212784327172 0 0 0
674 225 1 0.5897 1.5184781199731017 5.768139963810264 0.513719257994385 0 0 1
19 7 2 -1.1794 0.45566265296900493 6.359883208111072 2.0891016261231434 0 0 0
13 5 2 -1.1794 4.588325895098564 6.151875994160234 1.5005155219206354 0 0 0
20 7 1 0.5897 0.6820999601690549 5.593015904440984 2.615343918427863 0 0 0
175 59 2 -1.1794 7.669321307821302 8.606005361337166 1.9561243137902777 0 0 0
57 19 1 0.5897 7.5597985527317695 5.1741337965838285 2.6538413944014465 0 0 0
140 47 1 0.5897 0.971183333196266 9.584846554730857 2.6806669596783443 0 0 0
141 47 1 0.5897 0.6530424774383743 8.16166014551888 2.2740353769287474 0 0 0
143 48 1 0.5897 6.028217730084462 9.360662827318903 0.9196728639275168 0 0 0
132 44 1 0.5897 1.0089989331046978 7.222909126749043 4.690437543421597 0 0 0
711 237 1 0.5897 8.719407922817851 5.7869618979274025 0.6828079697215524 0 0 1
126 42 1 0.5897 4.314693502812741 9.88279353520469 3.743735172222568 0 0 0
130 44 2 -1.1794 1.9556993662575566 7.346333712827542 4.75954074589306 0 0 0
673 225 2 -1.1794 2.2932979032806236 5.383007578429451 0.10432037951111506 0 0 1
149 50 1 0.5897 9.909200938660641 7.612351146749928 3.631200334282873 0 0 0
155 52 1 0.5897 7.739415775429908 9.958747751229124 3.2864315897842937 0 0 0
138 46 1 0.5897 6.884458910646666 7.256092840740731 5.0546127522731314 0 0 0
110 37 1 0.5897 3.3098836431710685 9.37624583824316 0.15628871977323888 0 0 0
131 44 1 0.5897 2.275885660521882 6.5332227498356 5.150141451684375 0 0 0
443 148 1 0.5897 0.988403217200912 9.913356506925748 10.14640176087001 0 0 0
345 115 1 0.5897 1.1194633347661886 6.8280696917440995 8.818940109148437 0 0 0
137 46 1 0.5897 5.878976228805644 6.263461715837944 5.598418603027745 0 0 0
343 115 2 -1.1794 1.0003413437769695 5.903578151227919 8.60125095825754 0 0 0
61 21 2 -1.1794 9.573718527883793 5.252504364839223 6.403937533915864 0 0 0
437 146 1 0.5897 4.335367705389024 7.290367092772983 9.444077909288929 0 0 0
500 167 1 0.5897 7.325545626788146 9.689175092830368 9.481267672592654 0 0 0
464 155 1 0.5897 1.5260832108174947 8.860434575497509 8.145674527933233 0 0 0
337 113 2 -1.1794 4.779093125515253 5.851508982961796 8.281348455361458 0 0 0
435 145 1 0.5897 2.388462286399374 8.530650726426119 6.048012975868381 0 0 0
436 146 2 -1.1794 4.107827263661204 7.871107687141671 10.170197742759338 0 0 0
468 156 1 0.5897 4.287194974361768 9.12071261180618 7.307766964018529 0 0 0
469 157 2 -1.1794 9.000824905703308 9.799157041451076 6.944811423808969 0 0 0
338 113 1 0.5897 5.688964779977405 6.018731815264727 8.035516343630862 0 0 0
470 157 1 0.5897 8.477191776554427 9.624124506526535 7.726762885315101 0 0 0
339 113 1 0.5897 4.317868245324295 5.76138036405213 7.447434653210485 0 0 0
433 145 2 -1.1794 2.659667815653313 9.187985442228678 6.688816313041008 0 0 0
463 155 2 -1.1794 0.8368897271595389 8.634122677812607 8.770238286236237 0 0 0
466 156 2 -1.1794 5.24050392923746 9.034499582844086 7.301814301891292 0 0 0
380 127 1 0.5897 7.56339053528175 7.170399943401054 8.268709801453294 0 0 0
467 156 1 0.5897 5.406576994907789 8.240971777572089 6.792936215708704 0 0 0
381 127 1 0.5897 7.561088200049319 5.724229499746651 8.716643610191475 0 0 0
168 56 1 0.5897 8.811280155173884 8.22465421328891 5.801966190378178 0 0 0
499 167 2 -1.1794 7.3649519349986985 8.940295993019241 8.886365663385973 0 0 0
379 127 2 -1.1794 7.5305658263022615 6.274259869487054 7.933838073012852 0 0 0
26 9 1 0.5897 2.104094218249446 5.563680340025389 7.180280082549603 0 0 0
501 167 1 0.5897 6.5174950566771415 8.942518324187253 8.441278863119116 0 0 0
167 56 1 0.5897 9.11517078779513 6.801420429102313 5.38470555318732 0 0 0
62 21 1 0.5897 8.784964809962952 5.603866525627729 6.817092578042411 0 0 0
471 157 1 0.5897 9.848906460899501 9.395030394552492 7.1284749585035625 0 0 0
438 146 1 0.5897 4.158844050949809 8.751676266351238 9.79831817987711 0 0 0
136 46 2 -1.1794 5.949959183552527 7.14359028023859 5.228786974351857 0 0 0
344 115 1 0.5897 1.1509290910661465 5.441471227192268 9.425903821089838 0 0 0
25 9 2 -1.1794 2.6723718444329374 5.3972014754585915 6.428232766540512 0 0 0
668 223 1 0.5897 1.5168627853462324 5.668256803486805 14.583020753302442 0 0 0
456 152 1 0.5897 2.3373318603200173 6.9292203903708645 12.173170361818448 0 0 0
455 152 1 0.5897 2.3456432613926985 8.219889010778333 11.381868375099952 0 0 0
705 235 1 0.5897 7.896297687797639 6.159593927242751 14.987150708746748 0 0 0
454 152 2 -1.1794 1.9996847628764598 7.824878750115139 12.182215341348018 0 0 0
792 264 1 0.5897 4.978022741033626 9.771289915000418 14.380016885231349 0 0 0
461 154 1 0.5897 5.576484595701263 8.101900026556152 12.867004738691879 0 0 0
791 264 1 0.5897 6.488555583491534 9.71518964701157 14.46476534431434 0 0 0
758 253 1 0.5897 2.564420052994205 8.717042752832059 13.483283676252494 0 0 0
387 129 1 0.5897 8.99824117158249 6.179260364759037 12.9303458671713 0 0 0
794 265 1 0.5897 9.218030587991295 9.048122232676244 13.064434465284208 0 0 0
533 178 1 0.5897 0.11789208061199373 7.643255416901358 12.361861395022519 1 0 0
492 164 1 0.5897 7.422345800265475 7.651603729434646 11.87382525634912 0 0 0
333 111 1 0.5897 5.87935083812417 5.467197761890989 12.8262333693606 0 0 0
460 154 2 -1.1794 5.7758174430006335 7.330725183273174 12.336122646240629 0 0 0
793 265 2 -1.1794 9.65404275944171 9.544652799207398 13.756978205056091 0 0 0
491 164 1 0.5897 8.816166672146482 7.7274768671572955 11.28775322858765 0 0 0
462 154 1 0.5897 5.2698689526963385 7.4548875847197476 11.533085724921712 0 0 0
490 164 2 -1.1794 8.340535684627081 7.769382593936206 12.117384404568602 0 0 0
790 264 2 -1.1794 5.766796079975015 9.762439548664792 13.837775792461844 0 0 0
349 117 2 -1.1794 2.697421929839987 5.07036193349224 13.314213650092356 0 0 0
350 117 1 0.5897 3.5422612003837344 5.454527928968845 13.548522036246682 0 0 0
757 253 2 -1.1794 2.795626044259486 9.312247212224973 14.196407258991709 0 0 0
824 275 1 0.5897 8.66147127738761 9.019367492005085 15.09640768862783 0 0 0
789 263 1 0.5897 1.4836528720394608 8.73120089647315 15.216533687642267 0 0 0
385 129 2 -1.1794 9.194796026928929 5.730468248205845 13.752677452552753 0 0 0
661 221 2 -1.1794 4.64778706692697 6.150544458364332 15.088868047801888 0 0 0
704 235 1 0.5897 6.41042374121409 6.202996950422447 15.274001014211382 0 0 0
667 223 2 -1.1794 0.9735491678087815 5.692578877272261 15.370727367377368 0 0 0
787 263 2 -1.1794 0.8222372523248039 8.515465238245428 15.874007801257045 0 0 0
760 254 2 -1.1794 4.462634494755487 7.888514343360948 17.075090957242395 0 0 0
779 260 1 0.5897 2.9159521439772615 7.388484255019947 17.86501882006401 0 0 0
144 48 1 0.5897 5.5576847753548115 8.785051564054955 20.25058760744252 0 0 -1
823 275 2 -1.1794 7.907928781342135 8.917695845747284 15.677887254493033 0 0 0
780 260 1 0.5897 2.4738929143651793 7.728565353938914 19.272467019374048 0 0 0
788 263 1 0.5897 0.8678309761882248 9.233842857087643 16.504994320102682 0 0 0
778 260 2 -1.1794 2.240752613625427 7.192360161001299 18.514570322797823 0 0 0
696 232 1 0.5897 7.604467496501852 5.149946882641682 16.97994354739557 0 0 0
761 254 1 0.5897 4.368334300311628 8.829206239797632 17.225030829620025 0 0 0
675 225 1 0.5897 2.4355060485740463 5.9091393171126905 19.967129286199146 0 0 0
816 272 1 0.5897 9.273415415928422 7.95490368263175 19.328713716717814 0 0 0
762 254 1 0.5897 4.973070454894784 7.576371895189688 17.822283536213455 0 0 0
703 235 2 -1.1794 7.2656266528914255 6.275373844116019 15.697850355393411 0 0 0
814 272 2 -1.1794 8.841046773788017 7.344182944359609 18.731758898187103 0 0 0
825 275 1 0.5897 7.754878533495517 7.973320070221714 15.709529342702437 0 0 0
785 262 1 0.5897 5.669425341851839 6.5750928258796755 19.35255888442068 0 0 0
815 272 1 0.5897 8.845924587918109 6.508411446971509 19.198397471766754 0 0 0
786 262 1 0.5897 6.940805379040315 7.297530086878844 18.96054617674789 0 0 0
784 262 2 -1.1794 6.011717795523301 7.443152073376701 19.139054069213515 0 0 0
145 49 2 -1.1794 9.266167165548808 9.30987110025398 20.589633255744495 0 0 -1
662 221 1 0.5897 4.606288443229448 5.299897994804574 15.52587451586447 0 0 0
109 37 2 -1.1794 2.481970595154163 8.948170520331104 20.587841699181794 0 0 -1
709 237 2 -1.1794 9.156776970577532 5.466570441766625 20.54365537494251 0 0 0
797 266 1 0.5897 9.953562095843246 7.860664350685718 17.388919573153146 0 0 0
663 221 1 0.5897 4.588283957326811 6.788760919369276 15.79979930924317 0 0 0
669 223 1 0.5897 0.9744925637908652 6.612717387085109 15.634602925157452 0 0 0
120 40 1 0.5897 1.2372985494719717 11.350311409572905 3.141437623519833 0 0 0
119 40 1 0.5897 2.386861608979669 10.940604047556446 4.037345128676515 0 0 0
118 40 2 -1.1794 1.4604506483808142 10.768882638582912 3.8683554414227865 0 0 0
129 43 1 0.5897 0.8735948818314395 13.476357715410218 2.06773132522244 0 0 0
220 74 2 -1.1794 3.707697729217447 14.285134862372635 3.0647688625906957 0 0 0
240 80 1 0.5897 2.422619082740324 14.58034728105735 4.254501529000203 0 0 0
245 82 1 0.5897 5.237131405552726 13.831329281300842 4.47190862586716 0 0 0
154 52 2 -1.1794 7.975258995647472 10.583949540823435 3.971799722035563 0 0 0
222 74 1 0.5897 3.9965221451747044 13.629538290911347 2.4299159472253424 0 0 0
125 42 1 0.5897 4.643832937235714 10.934567906496879 4.781750629386134 0 0 0
275 92 1 0.5897 7.8327487529285955 14.570925399787104 5.007520402435838 0 0 0
123 41 1 0.5897 4.385096921030086 11.771091687177119 2.247556254143905 0 0 0
122 41 1 0.5897 4.19290314316943 12.27927759494218 0.8344756875680359 0 0 0
121 41 2 -1.1794 4.7666197657376 12.359977668364465 1.5964582683638835 0 0 0
164 55 1 0.5897 7.839810947577619 12.24746562044293 2.898997862695416 0 0 0
819 273 1 0.5897 8.740453608685417 12.245443010776075 0.6138913565070465 0 0 1
127 43 2 -1.1794 0.7328868283109765 12.565939453578494 1.8076654187393812 0 0 0
285 95 1 0.5897 7.635660553187995 14.528672671040196 2.3704965989998774 0 0 0
165 55 1 0.5897 6.655055560538303 12.606133882626214 2.0274184106504367 0 0 0
163 55 2 -1.1794 7.599445565997532 12.737110980020868 2.1124078270479805 0 0 0
156 52 1 0.5897 8.911716910967165 10.444025282909012 4.112373014061039 0 0 0
783 261 1 0.5897 2.000891838335771 12.003950623580764 0.40004439352206067 0 0 1
124 42 2 -1.1794 4.130326148170115 10.790072491269521 3.9869492796496844 0 0 0
276 92 1 0.5897 9.248092435410822 14.781922774146281 4.513240672566951 0 0 0
238 80 2 -1.1794 1.9226572846230559 14.319614385830784 5.0280168289634135 0 0 0
317 106 1 0.5897 0.1375550282287593 14.284480879078892 5.108892594799056 1 0 0
133 45 2 -1.1794 2.7919431585316765 12.036580076217907 6.503271121256833 0 0 0
134 45 1 0.5897 2.1402126348965607 12.264932781359486 7.16612569723155 0 0 0
135 45 1 0.5897 3.6328421153374206 12.236558643573215 6.914582668613238 0 0 0
171 57 1 0.5897 8.888287973912421 11.52105084885758 6.303552488201527 0 0 0
115 39 2 -1.1794 6.055012627058215 11.136807208167394 5.863229079293348 0 0 0
451 151 2 -1.1794 0.9326603386821483 12.413116558924099 8.538696576899378 0 0 0
169 57 2 -1.1794 9.087850822136025 12.450038490298368 6.187623372074221 0 0 0
450 150 1 0.5897 4.285803312896961 11.463306379156299 9.536508100307156 0 0 0
117 39 1 0.5897 6.028299498938978 10.362792318528399 6.425795411993246 0 0 0
446 149 1 0.5897 4.5852017705897135 13.533743216593868 8.605485073414695 0 0 0
445 149 2 -1.1794 4.8878627180596625 12.818642998965187 8.045746331078032 0 0 0
573 191 1 0.5897 1.02798746524853 14.100518884252347 9.094291361587763 0 0 0
489 163 1 0.5897 7.614657356161003 14.036160984026944 8.58024949748256 0 0 0
488 163 1 0.5897 8.141129583076104 13.081774723608842 7.5295372078678575 0 0 0
487 163 2 -1.1794 7.493529126089269 13.153260479631518 8.230810469274997 0 0 0
448 150 2 -1.1794 3.8974330493485025 10.91068584427585 10.214787647842629 0 0 0
447 149 1 0.5897 5.817892514958975 12.998684747521386 7.908200015812983 0 0 0
434 145 1 0.5897 2.384783247690879 10.02208947190032 6.308040761486952 0 0 0
453 151 1 0.5897 1.0738961789314112 11.744081516074473 9.208558203839774 0 0 0
480 160 1 0.5897 7.4466735923727425 11.960611852260062 9.600400593942348 0 0 0
478 160 2 -1.1794 7.510326711405936 11.293111102863453 10.283525799625053 0 0 0
239 80 1 0.5897 2.491456090079381 13.69883433049796 5.483386722151904 0 0 0
544 182 2 -1.1794 4.190694734502108 14.875984574117737 10.088201991038632 0 0 0
170 57 1 0.5897 9.510999653170638 12.499434656381542 5.330452338935134 0 0 0
188 63 1 0.5897 0.28426638832698503 11.293733068033186 5.300589191553148 1 0 0
116 39 1 0.5897 6.779127867003722 10.970027956103324 5.259800702003153 0 0 0
246 82 1 0.5897 5.746539266088138 12.989825004346036 5.622689525252515 0 0 0
244 82 2 -1.1794 5.80355928771615 13.866553000896916 5.242734456722692 0 0 0
457 153 2 -1.1794 2.6660726839478333 11.9343549406353 13.29797042910722 0 0 0
458 153 1 0.5897 2.05912577858985 12.314998751080706 13.932779143932091 0 0 0
459 153 1 0.5897 3.499610371595657 11.880240636612287 13.765478217761036 0 0 0
563 188 1 0.5897 2.5324160502300606 13.287312516829106 12.097130225263182 0 0 0
562 188 2 -1.1794 2.1973230884992416 14.115210001296571 11.752752582020914 0 0 0
493 165 2 -1.1794 9.101855564801806 12.192814872334422 13.275941592924193 0 0 0
442 148 2 -1.1794 1.2025219340404631 10.702264469140513 10.644456232337808 0 0 0
441 147 1 0.5897 5.7762484714501925 11.203219205835142 12.923622782866135 0 0 0
440 147 1 0.5897 6.371136815998368 11.782096540952411 11.657516548227262 0 0 0
564 188 1 0.5897 2.4069640552229745 14.75901816595821 12.429390223966786 0 0 0
600 200 1 0.5897 8.7125703771931 14.916852256106731 12.354904488883104 0 0 0
495 165 1 0.5897 9.762551574850306 12.209619987451434 13.968342408459252 0 0 0
439 147 2 -1.1794 5.667425795332121 11.914825450502898 12.2927002710847 0 0 0
570 190 1 0.5897 6.860418098153734 14.491132986098501 11.775619676254124 0 0 0
795 265 1 0.5897 9.481627674423335 10.46094639261466 13.540286660939884 0 0 0
449 150 1 0.5897 4.366807163211548 11.147099518891183 11.014831676345846 0 0 0
759 253 1 0.5897 2.6419050118349148 10.18667352549562 13.838591585754228 0 0 0
598 200 2 -1.1794 8.689143146001369 14.206846098908041 11.713323007679628 0 0 0
494 165 1 0.5897 8.2713334401447 12.324102428615939 13.733398106602689 0 0 0
568 190 2 -1.1794 6.023837086072463 14.639186717074784 12.216630384025981 0 0 0
569 190 1 0.5897 5.648114333076426 13.76469907357319 12.318406800542249 0 0 0
599 200 1 0.5897 8.869450320081206 13.416840364259325 12.22290103714648 0 0 0
770 257 1 0.5897 5.511368621486733 12.413770965664991 15.302532311047193 0 0 0
444 148 1 0.5897 2.1591550947434373 10.713826124010756 10.6761256934697 0 0 0
546 182 1 0.5897 4.8669849882581975 14.641054428085177 10.723594234523224 0 0 0
769 257 2 -1.1794 4.558837996192034 12.328048273865894 15.342765187223323 0 0 0
641 214 1 0.5897 0.5070203542935572 13.768722553969372 12.102024564416194 1 0 0
545 182 1 0.5897 3.366914597111905 14.648088620650569 10.519174770019019 0 0 0
479 160 1 0.5897 8.430229166157348 11.307176952009517 10.547836480838102 0 0 0
811 271 2 -1.1794 7.2417652571470965 12.766591804021434 15.220276878346654 0 0 0
776 259 1 0.5897 0.08491863842496708 12.398451095196668 15.242479392159414 0 0 0
775 259 2 -1.1794 1.0185606929493622 12.526822734780788 15.41008008304752 0 0 0
888 296 1 0.5897 2.6885472397367973 13.278206978546631 19.260821563965465 0 0 0
818 273 1 0.5897 9.191662895658606 12.762990696479976 19.91435572041957 0 0 0
772 258 2 -1.1794 4.015948412595007 10.55303717515791 17.350104152872007 0 0 0
781 261 2 -1.1794 2.7532350347575223 11.8758393761873 20.471982476170886 0 0 0
774 258 1 0.5897 4.059218861214542 11.127026033338918 16.585289491299207 0 0 0
886 296 2 -1.1794 2.2869526803159594 14.008715452453188 18.7903198790183 0 0 0
924 308 1 0.5897 9.413345266876675 14.199099229686896 18.17050888392844 0 0 0
766 256 2 -1.1794 1.1795373352551959 10.889349166941425 17.480231009268948 0 0 0
813 271 1 0.5897 7.405195146508473 12.162250746848448 15.944388406931678 0 0 0
768 256 1 0.5897 1.0883583695059253 11.585835649002371 16.829957203972178 0 0 0
764 255 1 0.5897 5.8842558987392035 10.667376708595148 19.73040593904239 0 0 0
765 255 1 0.5897 5.422385080178321 10.94907833738154 18.316439345734516 0 0 0
773 258 1 0.5897 3.1059796032899425 10.609896244374047 17.641660272801325 0 0 0
887 296 1 0.5897 2.392561588257723 14.75847934653795 19.37597382869712 0 0 0
767 256 1 0.5897 0.6225090956290881 11.16597814733304 18.20788174973324 0 0 0
252 84 1 0.5897 5.457603016948413 14.848589770463255 20.310442271389995 0 0 -1
803 268 1 0.5897 7.535517848369754 11.117199972082343 18.082098926855835 0 0 0
763 255 2 -1.1794 6.0662426928340505 11.220529002922511 18.97068739281815 0 0 0
802 268 2 -1.1794 8.272036313810009 11.038745457033087 17.4757909603654 0 0 0
777 259 1 0.5897 1.0929632899295068 13.447575937370841 15.66101483060709 0 0 0
804 268 1 0.5897 8.096088326676467 10.23461148654339 16.987214769559834 0 0 0
894 298 1 0.5897 5.841550227575229 12.987670005234813 18.968426906023176 0 0 0
922 308 2 -1.1794 8.911227979938475 14.242371304025143 18.98431097526349 0 0 0
892 298 2 -1.1794 5.942615809245968 13.930915215083026 18.84045911931939 0 0 0
893 298 1 0.5897 6.878529955358383 14.090709963070577 18.96218142896641 0 0 0
869 290 1 0.5897 3.367718167928936 14.427740383653859 17.405102197664938 0 0 0
812 271 1 0.5897 7.365839431475711 13.636156734800531 15.600737829334973 0 0 0
771 257 1 0.5897 4.261986022387639 13.139859363658111 15.754010145805587 0 0 0
870 290 1 0.5897 4.869149278727815 14.275706769823813 17.28438601695281 0 0 0
868 290 2 -1.1794 4.099246597215852 14.587662568234647 16.808802281105912 0 0 0
146 49 1 0.5897 9.061850856503778 10.231213183271151 20.429480859240655 0 0 -1
817 273 2 -1.1794 9.291423222867518 12.022904390240258 20.513188875884126 0 0 0
782 261 1 0.5897 2.6492231358730938 10.9854433486394 20.136418759082908 0 0 0
965 322 1 0.5897 0.4842216795866387 14.277353935046078 18.79269761989965 1 0 0
247 83 2 -1.1794 0.8888626496923501 15.475246064400576 1.7190577315717137 0 0 0
234 78 1 0.5897 4.4425564629707175 17.813805944859052 2.759011104655532 0 0 0
250 84 2 -1.1794 5.298729255396039 15.585103471042096 0.2511319114585929 0 0 0
228 76 1 0.5897 0.9204705773564915 17.380177192496568 4.411625762480742 0 0 0
254 85 1 0.5897 8.841996405910875 16.39719561882069 0.6183879004651471 0 0 0
263 88 1 0.5897 7.5780197117129875 17.98857095405124 4.2757298622584665 0 0 0
262 88 2 -1.1794 8.190188350295175 17.971503241904312 3.540066732453144 0 0 0
232 78 2 -1.1794 4.321504873865856 17.040232676921498 3.309651622471531 0 0 0
264 88 1 0.5897 9.041440246633643 17.79396688464799 3.940238409544437 0 0 0
890 297 1 0.5897 1.8641885444403554 19.068313496375712 0.6880179757923318 0 0 1
235 79 2 -1.1794 0.9299946081963261 19.48795996743691 2.1681272236478546 0 0 0
233 78 1 0.5897 3.4274631973186582 17.11992315437763 3.64225554739956 0 0 0
227 76 1 0.5897 1.465486578847643 17.921106646114033 3.1068787309397994 0 0 0
226 76 2 -1.1794 1.654628795729159 17.292672882232853 3.8036883751519626 0 0 0
249 83 1 0.5897 1.1308174545801215 15.952653197586562 2.5126666175558916 0 0 0
230 77 1 0.5897 4.337576950152002 19.210255975036635 0.8041108834588414 0 0 0