LAMMPS (30 Jul 2021)
  using 1 OpenMP thread(s) per MPI task
package omp 0
using multi-threaded neighbor list subroutines
echo both

include		in.partitions
variable        pid world 0
include		in.temp
variable        temperature equal 244.64
variable	tempDamp equal 100.0
include		in.pressure
variable        pressure equal 625.0
variable        pressureDamp equal 1000.0 # This is 1 ps
include		in.seed
variable        seed world 745823

units		real
atom_style	full
read_restart	restart.lmp.${pid}
read_restart	restart.lmp.0
Reading restart file ...
  restart file = 30 Jul 2021, LAMMPS = 30 Jul 2021
  restoring atom style full from restart
  orthogonal box = (0.024590434 1.1204956 0.030000273) to (18.182982 22.508682 22.183196)
  4 by 4 by 4 MPI processor grid
  restoring pair style lj/cut/tip4p/long/omp from restart
  restoring bond style harmonic/omp from restart
  restoring angle style harmonic/omp from restart
  864 atoms
  576 bonds
  288 angles
Finding 1-2 1-3 1-4 neighbors ...
  special bond factors lj:    0        0        0       
  special bond factors coul:  0        0        0       
     2 = max # of 1-2 neighbors
     1 = max # of 1-3 neighbors
     1 = max # of 1-4 neighbors
     2 = max # of special neighbors
  special bonds CPU = 0.772 seconds
  read_restart CPU = 1.017 seconds
include 	in.setup
variable	out_freq equal 1000
variable	out_freq2 equal 10000
variable	out_freq3 equal 1000

timestep	2.0

neigh_modify    delay 7 every 1

include		in.tip4p
# This is TIP4P/Ice

# create groups ###
group ox type 2
288 atoms in group ox
group hy type 1
576 atoms in group hy

# set charges - beside manually ###
set group ox charge -1.1794
Setting atom values ...
  288 settings made for charge
set group hy charge 0.5897
Setting atom values ...
  576 settings made for charge

# ### TIP3P Potential Parameters ###
pair_style lj/cut/tip4p/long/omp 2 1 1 1 0.1577 8.5
pair_coeff 1 1*2 0.000 0.000
pair_coeff 2 2 0.21084 3.1668
bond_style  harmonic
bond_coeff  1 450 0.9572
angle_style harmonic
angle_coeff 1 55 104.52
kspace_style pppm/tip4p/omp 1.0e-5
pair_modify tail yes

thermo          ${out_freq}
thermo          1000
thermo_style    custom step temp pe etotal epair emol press lx ly lz vol pxx pyy pzz pxy pxz pyz enthalpy

restart 	${out_freq3} restart.lmp.${pid} restart2.lmp.${pid}
restart 	1000 restart.lmp.${pid} restart2.lmp.${pid}
restart 	1000 restart.lmp.0 restart2.lmp.${pid}
restart 	1000 restart.lmp.0 restart2.lmp.0


include         in.dump
dump            myDump all atom ${out_freq2} dump.water.${pid}
dump            myDump all atom 10000 dump.water.${pid}
dump            myDump all atom 10000 dump.water.0
dump            myDump2 all dcd ${out_freq2} dump.dcd
dump            myDump2 all dcd 10000 dump.dcd
dump_modify     myDump append yes
dump_modify     myDump2 append yes


variable natoms 	equal  "count(all)"                        # NUMBER ATOMS
variable H      	equal  "enthalpy/v_natoms"                 # ENTHALPY-per-atom
variable Vol      	equal  "vol/v_natoms"                 # volume-per-atom
fix AVG all 		ave/time ${out_freq} 1 ${out_freq} v_Vol v_H file vol_enthalpy.dat
fix AVG all 		ave/time 1000 1 ${out_freq} v_Vol v_H file vol_enthalpy.dat
fix AVG all 		ave/time 1000 1 1000 v_Vol v_H file vol_enthalpy.dat


timer           timeout 23:50:00 every 1000
New timer settings: style=normal  mode=nosync  timeout=23:50:00

fix 		1 all shake 1e-6 200 0 b 1 a 1
       0 = # of size 2 clusters
       0 = # of size 3 clusters
       0 = # of size 4 clusters
     288 = # of frozen angles
  find clusters CPU = 0.219 seconds
fix             2 all nph iso ${pressure} ${pressure} ${pressureDamp}
fix             2 all nph iso 625 ${pressure} ${pressureDamp}
fix             2 all nph iso 625 625 ${pressureDamp}
fix             2 all nph iso 625 625 1000
fix             3 all temp/csvr ${temperature} ${temperature} ${tempDamp} ${seed}
fix             3 all temp/csvr 244.64 ${temperature} ${tempDamp} ${seed}
fix             3 all temp/csvr 244.64 244.64 ${tempDamp} ${seed}
fix             3 all temp/csvr 244.64 244.64 100 ${seed}
fix             3 all temp/csvr 244.64 244.64 100 745823

run             250000
PPPM initialization ...
  extracting TIP4P info from pair style
  using 12-bit tables for long-range coulomb (../kspace.cpp:340)
  G vector (1/distance) = 0.37167356
  grid = 24 25 25
  stencil order = 5
  estimated absolute RMS force accuracy = 0.0032852817
  estimated relative force accuracy = 9.8935284e-06
  using double precision FFTW3
  3d grid and FFT values/proc = 2940 384
Last active /omp style is kspace_style pppm/tip4p/omp
Neighbor list info ...
  update every 1 steps, delay 7 steps, check yes
  max neighbors/atom: 2000, page size: 100000
  master list distance cutoff = 10.8154
  ghost atom cutoff = 10.8154
  binsize = 5.4077, bins = 4 4 5
  1 neighbor lists, perpetual/occasional/extra = 1 0 0
  (1) pair lj/cut/tip4p/long/omp, perpetual
      attributes: half, newton on, omp
      pair build: half/bin/newton/omp
      stencil: half/bin/3d
      bin: standard
Per MPI rank memory allocation (min/avg/max) = 9.232 | 9.237 | 9.248 Mbytes
Step Temp PotEng TotEng E_pair E_mol Press Lx Ly Lz Volume Pxx Pyy Pzz Pxy Pxz Pyz Enthalpy 
13750000      247.217   -3929.2482   -3505.5268   -3929.2482            0    558.12384    18.158392    21.388187    22.153195    8603.7487    313.56925   -332.04853    1692.8508    466.62018    129.69058    -105.1628   -3435.4951 
13751000    238.80073   -3926.5039   -3517.2076   -3926.5039            0    1029.5612    18.222699    21.463932     22.23165    8695.4827     587.2744    739.05398    1762.3553    296.27894   -361.80631   -808.65608   -3386.6441 
13752000    245.60225   -3965.1702   -3544.2163   -3965.1702            0    1549.9471    18.126862    21.351049    22.114729    8559.0088    1981.6915    1557.5418     1110.608   -815.89393   -1169.4067   -236.61647   -3350.7451 
13753000    250.15824   -3979.4888   -3550.7261   -3979.4888            0    403.76818    18.156736    21.386237    22.151176    8601.3961     636.8914    678.92944    -104.5163   -1257.7462    -12.26156    498.61422   -3500.0764 
13754000    226.55263   -3976.0385   -3587.7351   -3976.0385            0    370.26488    18.150904    21.379368    22.144061    8593.1103    1939.6675   -1066.4265     237.5537   -178.36032    486.92983    -1116.344   -3541.3328 
13755000    237.17715   -3936.2779   -3529.7644   -3936.2779            0    889.26318    18.181668    21.415604    22.181593     8636.878    1425.4671    672.61021    569.71227   -667.06732    75.742166   -264.91877   -3417.7528 
13756000    240.73751   -3931.9092   -3519.2934   -3931.9092            0    1199.2119    18.145282    21.372746    22.137202    8585.1279     2469.953   -1414.9035    2542.5863    1534.7321    506.20174   -553.16496   -3369.1457 
13757000    234.93905   -3943.1118   -3540.4343   -3943.1118            0    353.02237    18.154386    21.383469    22.148309    8598.0567    496.10665    405.10296    157.85749     25.39349    728.73793   -1234.0585   -3496.1675 
13758000    250.36359    -3956.214   -3527.0993    -3956.214            0   -778.64457    18.161456    21.391796    22.156934     8608.105    833.00481   -1746.7915    -1422.147    402.11647   -397.56029    -1467.684   -3624.8507 
13759000    262.24801   -3959.2854   -3509.8013   -3959.2854            0    1140.4254    18.093488    21.311739    22.074013    8511.8208    2228.6613    166.82592     1025.789    127.93167    1469.1667   -473.96711   -3368.2332 
13760000    250.44693   -3944.7938   -3515.5364   -3944.7938            0    767.99895    18.025944    21.232181    21.991609    8416.8505   -722.44971    103.78811    2922.6584    61.904647    91.659151    1206.0155   -3421.2636 
13761000    240.93873   -3939.7911   -3526.8304   -3939.7911            0    1313.4316    18.093386    21.311618    22.073888    8511.6765    1179.0979    2083.7101    677.48694   -459.03444   -279.34158   -85.923416   -3363.7887 
13762000    249.75924   -3915.3536   -3487.2748   -3915.3536            0    1379.8669    18.022286    21.227872    21.987146    8411.7273    2085.0068    745.84507    1308.7487    1255.7681   -684.73832   -262.21398   -3317.9976 
13763000     243.8782   -3918.0327   -3500.0338   -3918.0327            0    1250.2177    18.022017    21.227555    21.986819    8411.3512    412.88726    2359.1064    978.65929    347.36941   -217.35505    250.59122   -3346.6685 
13764000    242.22894    -3957.169   -3541.9969    -3957.169            0    254.28107     18.05366    21.264827    22.025423    8455.7349   -325.70709   -81.701811    1170.2521   -149.14594    426.20541    386.24951   -3510.6394 
13765000    251.15416   -3934.5826    -3504.113   -3934.5826            0     1032.683    18.086648    21.303683    22.065669    8502.1719    1754.9242   -554.90443    1898.0293   -279.62129    733.40219   -765.25033    -3376.065 
13766000    251.97924   -3948.9285   -3517.0447   -3948.9285            0    369.65141    18.072434     21.28694    22.048327    8482.1419   -720.08124   -361.92444    2190.9599    389.84473   -461.98371   -128.71881   -3471.3176 
13767000    242.72449   -3935.4721   -3519.4506   -3935.4721            0    425.40104    18.171528     21.40366    22.169222    8622.4354    563.54547   -782.03522    1494.6929    439.89557    136.35694   -648.66083   -3465.9567 
13768000    233.92229   -3964.3966   -3563.4618   -3964.3966            0    2488.4613    18.044292    21.253793    22.013994    8442.5792    2897.3264    2531.8945    2036.1629   -625.58664    1173.5469    772.01398   -3257.0667 
13769000    254.22081   -3964.8078    -3529.082   -3964.8078            0     836.8491    18.047174    21.257187     22.01751    8446.6244    904.53667   -348.26801    1954.2786   -350.15089    361.61777    534.49819   -3425.9944 
13770000    232.36406    -3961.049   -3562.7849    -3961.049            0    1195.6337    18.064005    21.277011    22.038043    8470.2786    761.13066    1224.3353    1601.4352   -2109.9433   -95.595679    1357.1661   -3415.0879 
13771000    247.06377   -3978.5574   -3555.0986   -3978.5574            0    679.87486     18.16175    21.392142    22.157292    8608.5234   -207.87588    726.31829    1521.1822    388.39342   -149.93326   -1014.3576   -3469.7427 
13772000    236.84634   -3927.8256   -3521.8791   -3927.8256            0    1804.2888    18.173784    21.406317    22.171974    8625.6465    1088.7283    1745.0366    2579.1014     288.7367   -582.72183   -307.17726   -3294.9064 
13773000    233.68337   -3976.2854   -3575.7601   -3976.2854            0    283.59779    18.109344    21.330415    22.093357     8534.218    968.74491    882.87973   -1000.8313    391.86516    1433.8472   -1364.3162   -3540.4627 
13774000    256.45136   -3929.6293   -3490.0804   -3929.6293            0    849.36402    18.096265    21.315009    22.077401    8515.7403    1314.5815    1367.2555   -133.74493    896.51779    516.44804   -132.77873   -3384.5951 
13775000    240.92317   -3934.8833   -3521.9492   -3934.8833            0   -303.75134    17.992981    21.193355    21.951395    8370.7616    81.793267   -348.83546   -644.21182    744.22569   -865.30579   -91.383866   -3559.0309 
13776000    248.10372    -3922.341   -3497.0997    -3922.341            0     1380.726    18.042655    21.251864    22.011997     8440.281    549.79567    3169.9327    422.44967   -491.87542   -375.35232   -653.37662   -3327.1422 
13777000    251.03718   -3953.7839   -3523.5147   -3953.7839            0    856.65411    18.092086    21.310088    22.072303    8509.8428   -413.24609    1305.2353    1677.9731    277.75457   -224.55244    1432.1284   -3417.1977 
13778000    231.99018   -3955.4094   -3557.7862   -3955.4094            0   -72.415585    18.139375    21.365787    22.129995    8576.7456    1511.5191    -346.7504   -1382.0155    888.75202    16.570233    296.75429   -3566.8442 
13779000    230.44581   -3971.5427   -3576.5664   -3971.5427            0    1338.4156    18.055382    21.266855    22.027523    8458.1544    1918.8597    1369.7181    726.66903   -340.43692   -598.36346   -910.43645   -3411.4682 
13780000    255.34168   -3949.1418   -3511.4949   -3949.1418            0    148.23163    18.097732    21.316738    22.079191    8517.8122   -649.33952     108.7718    985.26263    1078.6617   -654.74835    376.41332    -3493.081 
13781000    241.99944    -3910.615   -3495.8363    -3910.615            0    491.92033    18.177776    21.411019    22.176844    8631.3319     -258.854    585.52156    1149.0934   -898.98734   -1812.0017    1440.2708   -3433.9138 
13782000    241.14937    -3937.373   -3524.0512    -3937.373            0    829.11831    18.098897     21.31811    22.080612    8519.4574     332.2935    950.09902    1204.9624    176.79014   -92.085676   -301.07527   -3421.0353 
13783000     240.3033   -3946.5901   -3534.7185   -3946.5901            0    1369.2416    18.061897    21.274529    22.035473    8467.3146    913.54395    790.59186     2403.589    365.36269   -314.18558    579.00958   -3365.6348 
13784000    235.51107   -3972.0331   -3568.3752   -3972.0331            0    1331.3146    17.986268    21.185448    21.943205    8361.3952    1421.9199     2694.905   -122.88095   -1295.7381   -174.71475    619.92678   -3406.0315 
13785000    227.25856   -3954.5807   -3565.0673   -3954.5807            0    682.79834    18.056478    21.268146    22.028861    8459.6958   -1183.9883    1788.2003     1444.183     135.0072   -1371.4848    796.13882   -3480.8263 
13786000    236.71757   -3967.9497   -3562.2239   -3967.9497            0    30.108542    18.181605    21.415529    22.181515    8636.7874    319.95717   -1127.7352    898.10363    385.69004    242.19717    1017.1021   -3558.4315 
13787000    239.77457   -3935.2314   -3524.2659   -3935.2314            0   -114.03744    18.127685    21.352018    22.115733    8560.1741    874.19524   -349.53851   -866.76904    788.57414   -14.726544   -806.04443   -3538.5025 
13788000    240.73805   -3947.2539   -3534.6371   -3947.2539            0   -206.83871    18.136162    21.362004    22.126076    8572.1899   -2020.2454    1265.0924    134.63686   -753.35448   -510.80607   -522.43695   -3560.4954 
13789000    250.65203   -3956.2504   -3526.6414   -3956.2504            0   -279.55177    18.056522    21.268198    22.028915    8459.7576   -897.34758    777.06704   -718.37476   -81.792198    1249.6899    692.20316   -3561.1316 
13790000    231.54384   -3950.3533   -3553.4951   -3950.3533            0    752.03855    18.160693    21.390898    22.156003    8607.0206    1418.6472    24.471839    812.99657   -408.85632    1059.3584    1048.0418   -3459.0958 
13791000    240.79292   -3961.7672   -3549.0563   -3961.7672            0   -1364.9183    18.190603    21.426127    22.192493    8649.6167   -832.65517   -1816.3601   -1445.7396    256.24041    -415.3885    943.98327    -3721.235 
13792000     246.9725   -3986.9672   -3563.6648   -3986.9672            0    1220.5953    18.123182    21.346715     22.11024    8553.7973    728.03906    1225.9601    1707.7868    -311.7422    895.10316    432.96437   -3411.3975 
13793000    251.44606   -3953.1674   -3522.1975   -3953.1674            0    123.37165    18.179521    21.413075    22.178974    8633.8187   -260.80654   -791.58123    1422.5027    690.61975    346.65343    491.90354   -3506.6631 
13794000    238.93314   -3958.4928   -3548.9696   -3958.4928            0    426.12205    18.201896     21.43943    22.206271    8665.7369    773.64856    1219.4982   -714.78057    178.60021   -294.98257     1815.113   -3495.1159 
13795000    227.15643   -3980.3004    -3590.962   -3980.3004            0   -105.28161    18.100683    21.320214    22.082791    8521.9796    99.400567   -1633.5761    1218.3307   -303.42754   -796.21021    282.38298   -3604.0469 
13796000    245.16223   -3947.1546   -3526.9549   -3947.1546            0    66.067144    18.164817    21.395755    22.161034    8612.8853    1502.8186   -1036.7334   -267.88372   -96.950464    -283.2398   -704.06166   -3518.6562 
13797000    235.11492   -3957.8851   -3554.9062   -3957.8851            0    57.444347    18.094906     21.31341    22.075744    8513.8229    -116.7341   -640.15946    929.22659     70.07531    244.57956   -1187.2431   -3547.7736 
13798000    254.47394   -3972.8551   -3536.6955   -3972.8551            0    992.97139     18.18074     21.41451     22.18046    8635.5551    932.07769    2321.2171   -274.38066    1477.7242   -473.05692    294.93176     -3411.64 
13799000     245.6878   -3933.1527   -3512.0522   -3933.1527            0    1049.6779    18.168527    21.400124     22.16556    8618.1632    1682.3602    953.41165    513.26202   -677.44571   -89.336574     680.4258   -3380.1212 
13800000    243.80315   -3943.4154   -3525.5452   -3943.4154            0    1010.9252    18.142823    21.369849    22.134202    8581.6379    2067.0797    1251.9205   -286.22471    47.426976    -11.58302    640.33624   -3399.0234 
13801000    246.65573   -3929.4624   -3506.7029   -3929.4624            0    643.56508    18.172123     21.40436    22.169947    8623.2817    295.16924    489.11788    1146.4081   -489.15469   -46.055924    187.87676    -3425.767 
13802000    232.56097   -3930.9025   -3532.3009   -3930.9025            0      1113.16    18.151912    21.380555     22.14529    8594.5416    236.61013    1220.5037    1882.3663   -623.78489    176.01786    371.90729   -3392.7746 
13803000    250.48973   -3961.5747   -3532.2439   -3961.5747            0    936.03498    18.110442    21.331708    22.094697    8535.7706    276.94287    1050.3699    1480.7922    375.00041    472.25991   -1148.2905   -3415.7211 
13804000    256.83609   -3958.1154   -3517.9071   -3958.1154            0   -210.61094    18.151227    21.379748    22.144454    8593.5685   -135.03084   -318.83361   -177.96838    552.58429    201.94892   -857.43933   -3544.3027 
13805000    257.03326   -3972.7686   -3532.2224   -3972.7686            0     380.6586    18.065028    21.278217    22.039292    8471.7186    40.095176    596.35877    505.52184   -270.60634    -308.4703   -94.481579   -3485.1915 
13806000    257.19229   -3968.2316   -3527.4128   -3968.2316            0    476.58008    18.174402    21.407044    22.172728    8626.5263    -392.6228    730.07643    1092.2866    1167.1542     14.29896    1061.2428   -3467.4547 
13807000     251.1195   -3977.4658   -3547.0555   -3977.4658            0    349.98472    18.054647    21.265989    22.026627    8457.1219   -1277.2088    249.65465    2077.5083      1521.98     133.6186    697.36521    -3503.889 
13808000    247.22345   -3960.8752   -3537.1427   -3960.8752            0    1083.6623    18.179328    21.412847    22.178738    8633.5433    264.57958    1445.5452    1540.8623    286.30204   -2170.5082    1521.8783   -3400.6973 
13809000    255.40749   -3981.6756   -3543.9159   -3981.6756            0    1826.8505     18.10155    21.321235    22.083849    8523.2041    1036.7763    2315.6312    2128.1441    466.00611   -865.21708    22.480785   -3316.8344 
13810000    241.40961   -3989.3225   -3575.5547   -3989.3225            0    1624.3717    18.108232    21.329105    22.092001     8532.646    898.33562    2766.3055     1208.474    505.62264   -25.201432    333.40154    -3373.418 
13811000    239.72324   -3956.7138   -3545.8364   -3956.7138            0   -1096.7265    18.181053    21.414879    22.180842    8636.0011   -669.83207   -2158.9741   -461.37333    729.12147    283.70489    691.95505   -3683.9661 
13812000    234.68854   -3930.5356   -3528.2875   -3930.5356            0    535.15945    18.239327    21.483518    22.251936    8719.3079     420.5852   -458.19112    1643.0843   -63.582898    126.58842    318.33486   -3460.2354 
13813000    262.82563   -3946.1775   -3495.7034   -3946.1775            0    1372.9468    18.184546    21.418994    22.185104    8640.9801    1168.1583    2693.1446    257.53743      1836.43   -154.78699    859.15851   -3322.6849 
13814000    249.99813   -3971.6498   -3543.1616   -3971.6498            0   -461.94076    18.225801    21.467586    22.235435    8699.9241   -611.40425     169.9926   -944.41065    299.53106   -193.14697   -453.13948   -3601.7724 
13815000    245.60831   -4005.0127   -3584.0485   -4005.0127            0   -1842.5631    18.216889    21.457089    22.224562     8687.168   -2605.9217   -1179.1177     -1742.65    210.33288    867.55455   -1051.3208   -3817.4891 
13816000    260.69124   -3955.6403   -3508.8245   -3955.6403            0    425.48158     18.12227     21.34564    22.109127    8552.5058    460.75285      513.801    301.89089   -14.623698   -673.80453   -966.74236   -3455.7544 
13817000    237.81413   -3986.3171   -3578.7118   -3986.3171            0    301.19074    18.158142    21.387893    22.152891    8603.3946   -19.995424    1462.3163   -538.74862   -355.38087   -748.76253    146.42762   -3540.9209 
13818000     246.3091   -3955.3304   -3533.1651   -3955.3304            0   -321.58622    18.194191    21.430354    22.196871    8654.7364   -1333.5281    176.11641    192.65301   -250.73721    523.19937    408.20399   -3573.7558 
13819000    226.61378   -3954.7485   -3566.3403   -3954.7485            0    187.56178    18.112581    21.334228    22.097307    8538.7958   -174.87668   -743.60181    1481.1638    149.38127    230.38306    1753.9594   -3542.9833 
13820000    238.66157   -3959.4976   -3550.4398   -3959.4976            0    181.26283     18.12865    21.353155     22.11691    8561.5414   -190.09802    1345.2147   -611.32818    513.44799    -1220.132   -1018.9345   -3527.8071 
13821000    242.79411   -3970.3685   -3554.2277   -3970.3685            0    1482.3256    17.963997    21.159216    21.916035    8330.3748    1346.0246    2134.5188    966.43329   -1018.6216    166.22798    356.28514     -3374.14 
13822000    262.84435   -3944.0948   -3493.5885   -3944.0948            0    1563.7975    18.135932    21.361732    22.125795    8571.8632    1262.0125    2924.1257    505.25435     192.2442    698.56188    1301.2062   -3298.0953 
13823000    238.79176   -3996.4097   -3587.1288   -3996.4097            0   -841.00608    18.135029    21.360669    22.124693    8570.5832   -142.05745    -1033.318   -1347.6428   -818.90584    798.09974    346.24946   -3692.2488 
13824000    237.52388   -3972.4285   -3565.3207   -3972.4285            0    1523.1918    18.110322    21.331568    22.094551    8535.6015   -129.52379     2769.734    1929.3653   -1006.6926    896.04378   -255.57627   -3375.7093 
13825000    242.87111   -3951.7388   -3535.4661   -3951.7388            0   -846.92843    18.212812    21.452287    22.219588    8681.3371    340.00796   -2145.4594    -735.3339    -406.8944    -253.8017    41.652888   -3642.6943 
13826000    237.63018   -3929.2085   -3521.9185   -3929.2085            0    1444.1074    18.087551    21.304745    22.066769    8503.4441    530.87526     1293.634     2507.813   -389.50171   -102.02765   -865.70828    -3342.829 
13827000    249.34046   -3971.1934   -3543.8323   -3971.1934            0    2042.9355    18.110559    21.331846     22.09484    8535.9362    1266.0794    1806.4466    3056.2804    102.37485    157.29448   -139.07417   -3289.5116 
13828000    233.70712   -3881.4162   -3480.8501   -3881.4162            0    1754.2875    18.102023    21.321792    22.084425    8523.8717    2636.0572    1450.1169    1176.6886    -304.5599   -92.188423   -1114.8192   -3262.7713 
13829000    249.46006   -3960.0755   -3532.5095   -3960.0755            0    1152.0285     18.18917     21.42444    22.190745    8647.5735    519.62955    2126.8521    809.60384    57.151622   -194.87691    817.70046   -3387.2203 
13830000    258.16306   -3952.8048   -3510.3222   -3952.8048            0   -900.37529    18.157485    21.387118    22.152089    8602.4595   -2037.3526   -341.39048   -322.38276   -203.66514    890.43267   -334.85108   -3623.2815 
13831000    246.65626     -3942.83   -3520.0697     -3942.83            0    1154.4737    18.151651    21.380247    22.144972    8594.1711   -408.13582    1516.2196    2355.3374    123.59288     -579.812   -261.56298   -3375.3712 
13832000    253.16864   -3990.0483   -3556.1259   -3990.0483            0    898.71533    18.070023      21.2841    22.045385     8478.747    58.032417    1560.9529    1077.1607    1178.3893    115.00616   -361.53981   -3444.9963 
13833000    244.88956    -3977.004   -3557.2717    -3977.004            0     1254.309    18.086154    21.303101    22.065066     8501.475    679.38153    1738.5242    1345.0213   -365.90703   -288.84103    638.19808   -3401.7558 
13834000    247.09063   -3909.3701   -3485.8652   -3909.3701            0    628.24962    18.172824    21.405186    22.170802    8624.2794    6.2360113    1578.7384    299.77446   -118.42882     890.9988    1226.2051   -3406.8463 
13835000    249.10127   -3968.7947   -3541.8437   -3968.7947            0    2084.5553    18.204447    21.442434    22.209383    8669.3807     1596.329    2724.1938     1933.143   -9.6685517    -560.8449    198.38453    -3278.285 
13836000    241.70977   -3975.1538   -3560.8715   -3975.1538            0    554.81766    18.355957    21.620893    22.394225    8887.6453    1063.8104     267.8482     332.7944   -889.70761   -842.06421    1030.3754   -3488.9576 
13837000     246.1776    -3987.961    -3566.021    -3987.961            0    1622.6941    18.232292    21.475231    22.243353    8709.2223    1037.4136    1683.5714    2147.0972   -244.46363    211.93211    295.13657   -3359.9144 
13838000    244.66339    -3946.008   -3526.6634    -3946.008            0    889.28198    18.226985     21.46898    22.236879    8701.6192    1219.1342     1311.289    137.42264    -309.3978   -310.54042    601.33482   -3413.8098 
13839000    234.81682   -3974.2805   -3571.8125   -3974.2805            0    35.339377    18.161774    21.392171    22.157322    8608.5574    -573.7664   -214.01113    893.79566    427.56661   -310.93387   -859.84377   -3567.3757 
13840000    246.97984   -3964.5137   -3541.1987   -3964.5137            0    2316.3912    18.110724    21.332041    22.095041    8536.1696    4767.7511    2327.4588   -146.03645    447.38666    400.07675    363.30926   -3252.8282 
13841000    240.96443   -3975.8127   -3562.8079   -3975.8127            0    1834.9077    18.071434    21.285762    22.047107    8480.7334    3229.6654    934.02411    1341.0336    469.92943    305.59177    958.84939   -3335.8614 
13842000    255.29749   -3951.2999   -3513.7288   -3951.2999            0    1909.9907    18.003449    21.205685    21.964166    8385.3795     2568.975    1963.5046    1197.4924     1304.733     -402.199    959.92963   -3280.1519 
13843000    241.64194   -3957.4921    -3543.326   -3957.4921            0    968.61965    18.076538    21.291774    22.053335    8487.9221   -259.75039    1457.0386    1708.5708    1195.1491   -1400.9632   -812.32257   -3423.4229 
13844000    241.83669   -3965.1921   -3550.6923   -3965.1921            0    936.90028    18.020497    21.225766    21.984965    8409.2238    1994.2771    1293.2538   -476.83014   -256.68655    425.20476     1260.079    -3435.791 
13845000    248.17563   -3976.3792   -3551.0147   -3976.3792            0    192.03353    18.070435    21.284585    22.045888    8479.3269   -16.489603    995.39758   -402.80739    1228.6517    289.47193    1401.1344   -3527.2674 
13846000    249.85838   -3945.8088   -3517.5601   -3945.8088            0   -484.04869    18.118414    21.341098    22.104423    8547.0474   -1438.7284   -118.86658    105.44888    160.91642    409.80572   -486.50708   -3577.8967 
13847000    256.11442   -3957.7826   -3518.8113   -3957.7826            0    405.04069    18.123316    21.346873    22.110403    8553.9871    744.19409    469.15324    1.7747396    565.29099    276.25318    457.14086    -3468.282 
13848000    235.84643   -3959.9115   -3555.6787   -3959.9115            0   -1102.5677    18.138972    21.365313    22.129504    8576.1748   -525.01812   -1913.4833    -869.2017    487.62288    -915.0735    709.22722   -3693.5821 
13849000    241.13262   -3954.3301    -3541.037   -3954.3301            0    1423.4407    18.059113    21.271249    22.032075    8463.3988    455.31481     1381.801    2433.2062     1373.258    280.99481    21.264613   -3365.3418 
13850000    242.63392   -3970.9621   -3555.0959   -3970.9621            0    1547.1919    18.090981    21.308786    22.070955    8508.2832    946.76234    3499.6196    195.19367     526.4107   -258.69602    416.08188   -3363.1132 
13851000    234.55021   -3985.2941   -3583.2831   -3985.2941            0    946.08126    18.185793    21.420462    22.186625    8642.7576    -522.7244    2310.5783    1050.3898    165.24884    46.141241   -434.34809   -3464.0336 
13852000    259.96463   -3964.8256   -3519.2551   -3964.8256            0   -2686.7827    18.379665    21.648817    22.423148    8922.1261   -3048.1911   -3457.8944   -1554.2626    -292.4483   -1314.4855   -355.25707   -3868.8594 
13853000    256.99169   -3953.5907   -3513.1157   -3953.5907            0    820.42765    18.214032    21.453724    22.221077    8683.0821    157.79781    1803.0553    500.42987    160.96902   -258.23518    581.87739   -3409.2218 
13854000    233.91041   -3927.3642   -3526.4497   -3927.3642            0   -125.88927    18.171084    21.403137     22.16868    8621.8029   -1907.6338    1154.4778     375.4882    55.701532    1252.3428   -1277.3621   -3542.2791 
13855000    262.24413   -3942.2902   -3492.8127   -3942.2902            0    957.11836    18.231689    21.474522    22.242618    8708.3588    1833.5607    693.50763    344.28675    637.58615    85.131982   -493.31931   -3371.2563 
13856000    238.71774   -3953.5899   -3544.4359   -3953.5899            0    1522.2274    18.201495    21.438957    22.205781    8665.1638    1947.2919    1485.1532     1134.237    1075.4558   -97.800308     10.77582   -3352.0682 
13857000    244.60408   -3969.0042   -3549.7612   -3969.0042            0    1107.4557    18.200607    21.437911    22.204698    8663.8951    1032.7962    1653.4201    636.15083   -1190.0011    1104.1375   -211.83637   -3409.8297 
13858000    239.11417   -3951.9641   -3542.1306   -3951.9641            0    898.38573    18.313447    21.570821    22.342362    8826.0396    984.24675    1376.6002    334.31027    532.14097    392.77451     137.1655   -3426.4915 
13859000    242.20704   -3946.7771   -3531.6425   -3946.7771            0    924.62561    18.310692    21.567577    22.339002    8822.0571    325.68129    1722.4829    725.71261    486.30733    -565.1712   -126.65496   -3412.6796 
13860000    240.95813    -3957.968    -3544.974    -3957.968            0    924.66236    18.291082    21.544479    22.315077    8793.7434    1297.0262   -488.74214     1965.703    1428.5033   -632.86214   -97.869612   -3426.3881 
13861000     247.0115   -3949.1991   -3525.8298   -3949.1991            0    1211.4315    18.256641    21.503912     22.27306    8744.1628    656.03192    2072.8615     905.4011   -394.93656   -763.52245   -691.05863   -3371.3425 
13862000    244.13767   -3973.1571   -3554.7134   -3973.1571            0    1268.7324    18.172688    21.405026    22.170637    8624.0865    402.52645    710.21372    2693.4571   -428.25815      425.447    -1368.304   -3395.1406 
13863000    243.25398   -3965.9303   -3549.0013   -3965.9303            0   -47.876119    18.207113    21.445574    22.212635    8673.1894   -56.428131    231.54397    -318.7442   -47.869861    221.62451   -289.27536   -3555.0571 
13864000    260.17421   -3960.7668   -3514.8371   -3960.7668            0    855.71316    18.261592    21.509743    22.279099     8751.278    174.04131    696.87428    1696.2239   -483.66193    857.84721     207.0005   -3405.6238 
13865000    244.56468   -3953.4165    -3534.241   -3953.4165            0   -78.308536    18.291926    21.545473    22.316107    8794.9611   -120.33887    -449.0801    334.49336    252.10253    633.84714    620.95476   -3544.2853 
13866000    226.37987   -3943.4308   -3555.4234   -3943.4308            0    280.86977    18.296571    21.550944    22.321774    8801.6624    334.66862    147.61374    360.32696   -295.77727   -749.18515   -1021.6638   -3519.3701 
13867000    226.75904    -3971.088   -3582.4308    -3971.088            0   -249.30913    18.316576    21.574507     22.34618    8830.5648    416.13357    -1303.051       138.99    36.912776   -149.30543    6.0374478    -3614.538 
13868000    242.99288   -3991.8489   -3575.3674   -3991.8489            0    566.91629    18.270365    21.520077    22.289803    8763.8972    1225.5078   -835.24203    1310.4831   -469.23543     258.8906    451.59821   -3502.9084 
13869000    262.58684   -3980.2921   -3530.2272   -3980.2921            0    318.26851     18.25004    21.496137    22.265006    8734.6813    1082.0305    476.49067   -603.71569    465.11405    676.59488   -63.676063   -3489.6841 
13870000     231.4517   -3939.2446   -3542.5443   -3939.2446            0   -341.12037    18.114171    21.336101    22.099247    8541.0448    174.85865   -775.72207   -422.49768   -26.122607   -170.59873    678.21491   -3585.0351 
13871000    245.56297   -3961.3349   -3540.4483   -3961.3349            0    1250.7514    18.105603    21.326009    22.088794    8528.9311    2322.4583    405.11746    1024.6784   -315.09381   -1563.9899    501.57652   -3384.8727 
13872000    249.30979   -3927.9344    -3500.626   -3927.9344            0    532.26131    18.158755    21.388615    22.153639    8604.2653    1194.2364    246.13749    156.41008     324.5389    1622.7507     189.8775   -3433.8355 
13873000    232.48411    -3967.897   -3569.4272    -3967.897            0    401.17575    18.141617    21.368428     22.13273    8579.9262    172.31168    1233.3986   -202.18308   -391.98067     276.9349   -984.48206   -3519.2283 
13874000    250.55185   -3942.3039   -3512.8666   -3942.3039            0    1074.3075    18.153565    21.382502    22.147307    8596.8899    2113.2054    936.51765    173.19934    385.38459   -938.45308   -304.32136   -3378.1734 
13875000    255.83989   -3939.0493   -3500.5485   -3939.0493            0    1207.9312    18.218262    21.458706    22.226237    8689.1325    489.69488    1777.9607    1356.1381    168.46488    -1225.009    499.72799   -3347.4769 
13876000    248.01747   -3954.7904   -3529.6969   -3954.7904            0    1185.8082    18.126988    21.351197    22.114883    8559.1872    1815.6984     1022.144    719.58208    636.66598   -183.68776    1596.6248   -3381.6761 
13877000    254.59461    -3963.598   -3527.2315    -3963.598            0    917.47342    18.182976    21.417144    22.183188    8638.7415    -55.48806    1193.0406    1614.8677   -591.16853     426.6032    281.12385   -3411.6417 
13878000    251.04511   -3974.9138   -3544.6311   -3974.9138            0    881.93631    18.146258    21.373895    22.138392    8586.5128   -1062.2062    2652.1562     1055.859    -889.6896   -274.11866    675.87108   -3434.1902 
13879000    242.89585   -3944.3584   -3528.0433   -3944.3584            0    508.99251    18.222357     21.46353    22.231233    8694.9933     426.0977    1002.9812    97.898623   -132.49932    281.73303   -602.51692   -3463.4992 
13880000    236.39684   -3996.0613   -3590.8852   -3996.0613            0    627.64882     18.19536     21.43173    22.198296    8656.4043    1385.8355    374.16434    122.94659    474.28301   -84.763222    799.89453   -3511.6478 
13881000     244.5655   -4005.5911   -3586.4142   -4005.5911            0    1244.5009    18.116758    21.339147    22.102402    8544.7036    1509.5608    694.71292     1529.229    607.79704   -530.55779   -350.60357   -3431.3298 
13882000    249.64342   -3954.6581   -3526.7778   -3954.6581            0    149.67648    18.174482    21.407139    22.172825    8626.6404   -149.35981    1061.2448   -462.85557   -926.88981   -478.91832     306.4075   -3507.9469 
13883000    240.94271     -3979.31   -3566.3424     -3979.31            0    96.455498    18.149129    21.377277    22.141895    8590.5891    27.075168    126.09303     136.1983   -278.33784   -1410.7511    619.20521    -3554.258 
13884000    238.50427   -4002.4025   -3593.6143   -4002.4025            0    -506.6484    18.160182    21.390295    22.155379    8606.2934    411.48546   -991.03128   -940.39939   -1111.0818   -531.36951    495.06523   -3657.2058 
13885000    232.89298   -3998.1449   -3598.9743   -3998.1449            0    446.79774     18.04693      21.2569    22.017213    8446.2826   -336.27589    1084.8708    591.79834    97.075031    20.950973    253.48584   -3543.9376 
13886000    229.17258   -3927.6549    -3534.861   -3927.6549            0    583.50225    18.125392    21.349317    22.112936    8556.9263    937.72507   -390.35448    1203.1361   -194.98012    489.59554   -325.34181   -3462.0434 
13887000     236.3424   -3972.2254   -3567.1426   -3972.2254            0   -340.21723    18.121755    21.345034    22.108499    8551.7772   -919.28842    552.30176   -653.66504   -889.19692   -80.927371    303.23812   -3609.5741 
13888000    250.33765   -3976.9542    -3547.884   -3976.9542            0    53.919424    18.087182    21.304312     22.06632    8502.9249   -661.26383    52.669672    770.35243    204.24842    944.90416   -5.6003829   -3541.1977 
13889000    221.57779   -3981.1695   -3601.3928   -3981.1695            0    917.25376    18.032003    21.239318    21.999002    8425.3419    613.47779     2620.905   -482.62147   -163.14255    537.92542   -396.17443   -3488.6852 
13890000    225.57965   -3956.6704   -3570.0346   -3956.6704            0    510.08985    18.165285    21.396306    22.161605    8613.5508     496.1607   -484.31478    1518.4236    557.90368   -22.710388   -31.713621   -3505.9573 
13891000    237.24343   -4002.6686   -3596.0415   -4002.6686            0    167.04861     18.03025    21.237252    21.996862    8422.8837   -1109.8756    559.11728    1051.9042    900.00322    284.28905   -1038.0973   -3575.5214 
13892000    241.75901   -3988.9112   -3574.5446   -3988.9112            0    799.46415    18.099201    21.318468    22.080983    8519.8863    1500.2227   -309.88952    1208.0593    419.63594    360.92616   -704.29838   -3475.2081 
13893000    243.03633   -4004.9566   -3588.4006   -4004.9566            0    303.21469    18.153167    21.382033    22.146821    8596.3241    821.47552   -54.133556     142.3021    421.05796    80.296892   -314.05014    -3550.387 
13894000    222.63443     -3962.12   -3580.5322     -3962.12            0    1211.4077     18.01881    21.223778    21.982906    8406.8619    807.72844    677.27141    2149.2233    893.10967    446.07538    301.76109    -3432.007 
13895000    259.62072   -3981.1064   -3536.1253   -3981.1064            0    556.19113     18.10247    21.322319    22.084972    8524.5043    507.80935    675.65924     485.1048    2.9521149   -1177.5853   -400.53904    -3466.979 
13896000    238.72091   -3986.9742   -3577.8148   -3986.9742            0    -483.3515    18.085471    21.302296    22.064233    8500.5119   -624.06132   -170.65094   -655.34222    1448.9966    41.351573    107.67764   -3637.7365 
13897000    234.51494   -3989.8154   -3587.8648   -3989.8154            0    639.73954    18.115772    21.337987      22.1012    8543.3096    227.84791   -96.894947    1788.2657    332.82031   -501.60539   -1262.1103   -3508.1562 
13898000    227.66093   -3986.0336   -3595.8306   -3986.0336            0   -468.60059    18.242328    21.487052    22.255597    8723.6121   -1650.7906   -183.83692    428.82573    309.93688    94.665451   -310.89784   -3655.4483 
13899000    255.63025   -3967.6218   -3529.4803   -3967.6218            0   -80.409787    18.162607    21.393152    22.158338    8609.7424   -1115.6531    282.92967    591.49403    427.59209    762.60338   -304.56252   -3539.5769 
13900000    230.94756   -3974.7637   -3578.9275   -3974.7637            0    159.66026    18.217055    21.457284    22.224764    8687.4054    190.72373    709.88302   -421.62597   -642.02603    289.94432   -977.53297    -3558.699 
13901000    250.84971   -3992.0618    -3562.114   -3992.0618            0    422.57496    18.114163    21.336091    22.099236    8541.0324    1512.8817   -537.06413    291.90728     274.8876   -41.593891    803.38334   -3509.4771 
13902000     234.5638   -3997.5418   -3595.5074   -3997.5418            0    985.17435      18.0863    21.303272    22.065244    8501.6806    1684.4318   -216.39204    1487.4833    1365.7717   -312.15574    605.18815   -3473.3573 
13903000    248.75773    -3984.406   -3558.0437    -3984.406            0   -904.07612    18.193341    21.429352    22.195833    8653.5232   -1162.4294   -811.12805   -738.67087    807.49036   -238.29913    467.46864   -3672.1406 
13904000     242.3736   -4003.6025   -3588.1825   -4003.6025            0    563.89235    18.180455    21.414174    22.180112    8635.1488    -72.02608    880.24716    883.45597   -478.33938    602.37505    213.92992   -3517.1688 
13905000    248.03738   -4007.8707   -3582.7431   -4007.8707            0     1047.266    18.173669    21.406182    22.171834    8625.4838    1524.0485    260.64538    1357.1042    13.622369    382.13692    261.96917   -3451.0035 
13906000    232.42356   -4002.7409   -3604.3749   -4002.7409            0    2136.1814    18.096731    21.315559    22.077969    8516.3984    2216.6494    1416.2482    2775.6467   -725.95507    158.01204   -1468.4069   -3339.0549 
13907000    241.65803   -4000.6325   -3586.4389   -4000.6325            0   -146.34359    18.147024    21.374797    22.139327    8587.6007    377.60826   -272.78722   -543.85182    1411.8297    759.21919    463.71704   -3604.7672 
13908000    239.28871   -3992.3753   -3582.2426   -3992.3753            0    342.15928     18.17099    21.403026    22.168565    8621.6687   -806.05691    347.78321    1484.7515    379.39406   -9.1152521   -176.69262   -3539.2202 
13909000    234.70443   -3989.8927   -3587.6173   -3989.8927            0     1186.256    18.276665    21.527497    22.297489    8772.9663    1910.9951     1084.609    563.16378   -548.54798   -1229.0377    242.82529   -3435.8421 
13910000    244.48654   -3976.5443   -3557.5028   -3976.5443            0    174.93273    18.295198    21.549326    22.320098    8799.6805   -75.023387    608.37206   -8.5504873    45.765613    112.97567    1148.9646   -3535.0529 
13911000    236.50607   -4015.2853    -3609.922   -4015.2853            0   -673.58107    18.270974    21.520793    22.290545    8764.7726   -602.76801    -1126.823   -291.15216     237.7373    197.89489    159.84532   -3696.0226 
13912000    234.50457   -3974.3038    -3572.371   -3974.3038            0    676.41362    18.234382    21.477694    22.245904    8712.2183     818.9942    46.443458    1163.8032    1647.2284   -496.30665   -527.59782   -3486.4267 
13913000    241.58783   -3980.4707   -3566.3974   -3980.4707            0    962.18293    18.175617    21.408476     22.17421     8628.257   -501.58788    2323.7145    1064.4222    434.72124    31.461943   -411.67333   -3445.3218 
13914000    245.42263   -3991.0788   -3570.4328   -3991.0788            0    1643.4143    18.223331    21.464676    22.232421    8696.3868    1398.3479    1726.5502    1805.3449   -228.89639    497.73972     65.60125    -3362.002 
13915000    240.16483   -3974.0208   -3562.3865   -3974.0208            0 -0.019109279    18.268859    21.518303    22.287965    8761.7298    65.987487    1268.4936   -1334.5384    1674.1339    361.83694   -517.68829   -3562.3889 
13916000    252.15436   -3977.5556   -3545.3716   -3977.5556            0   -994.25507    18.247836    21.493541    22.262318    8731.5175   -1662.3973    191.59721   -1511.9651    713.42975     970.3937   -766.82299   -3671.9803 
13917000    233.71474   -3982.9482   -3582.3691   -3982.9482            0    143.19915     18.22713    21.469151    22.237056     8701.827    164.07731   -804.77044    1070.2906   -130.88159    114.43677    325.71528   -3564.1961 
13918000    252.52517   -3969.1549   -3536.3354   -3969.1549            0   -512.13709    18.305446    21.561397    22.332601    8814.4768    -1044.643    392.59001   -884.35824   -920.76888    2500.9209   -573.04456   -3602.1707 
13919000    248.50655   -3952.4728   -3526.5411   -3952.4728            0   -936.69255    18.292268    21.545875    22.316524    8795.4533   -1232.8602   -1643.5726    66.355146    -396.0941     199.6385    634.60716   -3646.6932 
13920000     246.0019   -3973.6752   -3552.0364   -3973.6752            0     620.6913    18.244738    21.489892    22.258538    8727.0708    2013.4156    -559.7024     408.3607   -396.72008   -287.13382   -157.05271   -3473.0377 
13921000    231.77048   -3957.8638   -3560.6171   -3957.8638            0   -173.28204    18.211552    21.450802    22.218051    8679.5348    115.80278   -279.58754   -356.06137    483.90253    112.58717    271.60141   -3582.5515 
13922000    247.44899   -3990.2249   -3566.1058   -3990.2249            0    90.138951    18.178274    21.411605    22.177451    8632.0409    135.86199   -74.988142      209.543   -188.80916    217.48072    1106.3011   -3554.7583 
13923000    242.08691   -3980.8787     -3565.95   -3980.8787            0   -780.35543    18.215749    21.455746    22.223171    8685.5369   -117.14203   -1344.7182   -879.20609     683.1461    342.73027     204.3543   -3664.7974 
13924000    235.29269   -3963.6993   -3560.4157   -3963.6993            0    1062.4436    18.192895    21.428827    22.195289    8652.8864    1921.2643   -260.08969     1526.156   -595.29544    976.11419    670.40196   -3426.3423 
13925000    242.53571   -3956.9573   -3541.2594   -3956.9573            0     660.3626    18.202542     21.44019    22.207059    8666.6595    -288.2322    419.99926    1849.3207   -93.505372    537.50986   -839.73862   -3457.7933 
13926000    239.64288   -3986.2303   -3575.4906   -3986.2303            0    1203.4571    18.146507    21.374188    22.138696    8586.8663    3666.3046   -405.73755    349.80421   -592.26178    -66.61091    106.95164   -3424.7809 
13927000    251.24627   -3950.0446   -3519.4171   -3950.0446            0    -418.8751    18.210628    21.449714    22.216923    8678.2136   -317.82351   -219.60558    -719.1962   -612.20027    1086.2155    -647.5936   -3572.4311 
13928000    250.81172   -3963.3391   -3533.4564   -3963.3391            0    782.74812    18.141812    21.368658    22.132968    8580.2029    581.26141    1105.8502    661.13272   -758.28874    1180.3903   -851.76231   -3435.5084 
13929000    233.32139   -3951.6039    -3551.699   -3951.6039            0    1618.0952    18.151639    21.380233    22.144958    8594.1544    984.56711    1877.9621    1991.7564    423.84028   -1101.6653    355.05248   -3348.8919 
13930000    249.14752   -3997.5511   -3570.5208   -3997.5511            0   -20.794401    18.178674    21.412077     22.17794    8632.6115    83.876581   -221.81863    75.558847    195.02901    1470.4632   -253.72117   -3573.1388 
13931000     257.0411   -3979.3729   -3538.8133   -3979.3729            0    1014.2229    18.108917    21.329912    22.092836    8533.6145     1386.412    1197.9526    458.30423    589.77181   -1036.6269   -212.35433   -3412.5891 
13932000    251.80305   -3931.8365   -3500.2547   -3931.8365            0    1210.0699    18.086307     21.30328    22.065252    8501.6901     408.2275    910.44699    2311.5353    576.41253    590.49864   -378.67753   -3350.2201 
13933000    241.34124   -3967.9935   -3554.3428   -3967.9935            0     225.2107    18.175709    21.408585    22.174323    8628.3888   -1104.3643    1462.9271    317.06936    270.92944    619.22495    497.10333   -3526.0032 
13934000    237.70714   -3950.0543   -3542.6324   -3950.0543            0    1918.4791    18.080051    21.295912    22.057621    8492.8719    2002.8201    2765.7438    986.87352   -1490.4904   -588.33253   -504.11643   -3305.0099 
13935000     250.6869   -3934.8801   -3505.2113   -3934.8801            0    1374.6933    18.079838    21.295661    22.057361    8492.5717     1200.381     1786.782     1136.917    380.20654    1010.2857    541.57014   -3334.9481 
13936000    251.88638   -3935.1027    -3503.378   -3935.1027            0    134.68643    18.101889    21.321635    22.084263    8523.6833    -76.62865    326.34747    154.34047    58.129394    243.08274   -561.90678   -3486.6353 
13937000    238.64239   -3955.8035   -3546.7786   -3955.8035            0   -638.28853    18.177405    21.410582    22.176392    8630.8038    90.306573   -1399.7008   -605.47142    503.36814    -66.02309    110.10492   -3627.1209 
13938000    266.89899    -3956.316   -3498.8602    -3956.316            0    860.79327    18.130727    21.355601    22.119444    8564.4844    12.518428    901.73619    1668.1252   -923.13182     309.1411   -382.57298   -3391.3435 
13939000    236.63971   -3965.4381   -3559.8457   -3965.4381            0    1619.5834    18.031676    21.238932    21.998602    8424.8828    123.54033    2534.8754    2200.3346    1532.5896    1100.3086   -135.64253   -3360.8503 
13940000    250.66351   -3904.9999   -3475.3712   -3904.9999            0      -111.66    18.079249    21.294967    22.056642    8491.7412    -927.4211    1008.7138   -416.27269   -589.25531   -148.21131   -896.98208   -3489.1995 
13941000    245.80577   -3909.0566   -3487.7539   -3909.0566            0    1625.4768    18.000497    21.202208    21.960564    8381.2554    3117.8446    926.73505    831.85086   -446.99798    -128.1727   -153.45735   -3289.0686 
13942000    239.07951   -3917.7259   -3507.9518   -3917.7259            0    1649.4375    18.072128     21.28658    22.047954    8481.7113    1340.5411    1527.8445    2079.9269   -656.21427   -306.09635   -1651.4453   -3303.9212 
13943000    242.24774   -3936.2552   -3521.0509   -3936.2552            0    325.98977    18.118401    21.341083    22.104407    8547.0292    178.75712    413.05561    386.15659    427.33073    160.52581   -232.80647   -3480.4163 
13944000    250.28645   -3950.2059   -3521.2235   -3950.2059            0    1532.6443    18.078302    21.293852    22.055486    8490.4069    1491.2705    1128.6015     1978.061   -1185.6381   -340.99988    762.41528   -3331.4455 
13945000     249.3064   -3964.8792   -3537.5766   -3964.8792            0    395.53807    18.079215    21.294927      22.0566    8491.6929    707.64288   -705.27945    1184.2508    333.51718   -603.32981   -758.66118   -3488.5921 
13946000    248.66851   -3961.0784   -3534.8691   -3961.0784            0   -213.04913    18.128708    21.353224    22.116982    8561.6246    266.04392    193.26601   -1098.4573   -474.27658   -562.11514   -352.18897   -3561.4709 
13947000    248.04281   -3948.1828   -3523.0459   -3948.1828            0    147.93198    18.106639    21.327229    22.090057    8530.3942   -4.9971323    558.71089   -109.91783    771.63933    379.96501     746.3316   -3504.6421 
13948000    254.43546   -3965.8188   -3529.7251   -3965.8188            0    90.911094    18.149595    21.377826    22.142464    8591.2512    667.51229   -309.28921   -85.489798   -1871.5176   -1027.5282   -415.35727   -3518.3344 
13949000    260.45161   -3962.5884   -3516.1833   -3962.5884            0    375.89179    18.029284    21.236115    21.995684    8421.5304    1064.6014    1066.7168   -1003.6428   -1299.4964   -288.91059   -577.95163   -3470.0165 
13950000    248.89506   -3956.5912   -3529.9936   -3956.5912            0    1642.2203    18.014145    21.218284    21.977215    8400.3346    1877.3407    2726.3027    323.01741    426.90018   -1201.0484    337.75973   -3328.8047 
13951000    240.32144   -3930.8599   -3518.9571   -3930.8599            0    535.06419    18.039635    21.248307    22.008312    8436.0432    1876.7715    -610.5406    338.96169    33.800883    -257.5667    53.252597   -3453.1276 
13952000    260.28459   -3961.3061   -3515.1872   -3961.3061            0    586.66593    18.033715    21.241334     22.00109    8427.7414    1305.1074    188.16167    266.72875   -998.76804    326.82091    4.3199493   -3443.0801 
13953000    238.13511   -3959.1043   -3550.9489   -3959.1043            0    1394.4171    18.042294    21.251439    22.011556    8439.7741    2733.6875     1303.548    146.01582     177.2579    558.79241   -192.46396   -3379.3164 
13954000    236.91093   -3964.7952   -3558.7379   -3964.7952            0    1845.6195    17.994949    21.195673    21.953796    8373.5081    2249.0063     1696.945    1590.9073   -686.17015    658.37849    151.97571   -3333.3527 
13955000      234.677   -3963.7978   -3561.5694   -3963.7978            0    239.26531    18.013356    21.217354    21.976252    8399.2299   -1092.4382    859.50797     950.7262    104.07791   -240.66601    78.403218   -3532.2608 
13956000    229.65697   -3945.3662    -3551.742   -3945.3662            0   -1425.1059    17.953645    21.147022    21.903405    8315.9812    -1460.411   -1222.2686   -1592.6382    217.67191     108.1799   -851.32118   -3724.5789 
13957000    239.11664   -3941.3688   -3531.5311   -3941.3688            0    1800.7408    17.946148    21.138192    21.894258    8305.5675    1354.6197     2579.113    1468.4896    -642.5185   -372.90812    274.62334   -3313.4106 
13958000    251.78104   -3942.7582   -3511.2141   -3942.7582            0    2659.4156    17.866068    21.043868    21.796561    8194.8786    2272.5227    2274.5107    3431.2134   -350.70939   -308.72928    240.52318   -3193.3769 
13959000    230.33039   -3939.5236   -3544.7452   -3939.5236            0    1466.2964    18.012211    21.216006    21.974856    8397.6292    1772.5084    1626.1936    1000.1872    399.94871    1252.0867   -526.91175   -3365.1667 
13960000    239.94904   -3920.7142   -3509.4498   -3920.7142            0    917.25493    18.013472    21.217491    21.976394    8399.3928    2811.0271    1020.5102   -1079.7725    228.52146   -332.01176   -946.94351   -3397.0893 
13961000    238.08157   -3960.5462   -3552.4825   -3960.5462            0   -361.19682    18.024369    21.230326    21.989688     8414.645     228.3341    -272.8673   -1039.0573   -27.848766   -34.405855   -345.11103   -3596.8082 
13962000    247.99919   -3948.1486   -3523.0865   -3948.1486            0    1659.8532     17.98052    21.178678    21.936193    8353.3821    2932.6295    1874.9804    171.94971   -522.10166   -278.38427   -224.05367    -3320.874 
13963000     249.5765   -3941.6335   -3513.8679   -3941.6335            0    1010.2167    18.037182    21.245418     22.00532    8432.6036    1795.0352    1212.5268    23.088038   -164.87109    100.53011   -581.47188   -3389.6306 
13964000    242.09081    -3959.076   -3544.1406    -3959.076            0    742.12988    17.979735    21.177753    21.935235    8352.2882    1837.2525    886.36033   -497.22317   -903.74587   -1668.8148    838.30015   -3453.7421 
13965000    225.73005   -3965.9422   -3579.0486   -3965.9422            0    1394.6219    17.990058    21.189912    21.947828    8366.6818    1972.9615    932.33564    1278.5685    1198.6174   -1066.2891    407.15168   -3408.8776 
13966000    251.76866   -3968.8298    -3537.307   -3968.8298            0    754.36834    18.044909    21.254519    22.014747     8443.445    1311.2976    1148.0088   -196.20135   -38.644119    464.04929    216.58226   -3444.4148 
13967000    241.74078   -3962.7755   -3548.4401   -3962.7755            0    605.44681    18.067103    21.280661    22.041823    8474.6375    1893.0493   -561.74061    485.03179    176.54437     1217.178   -1582.7879   -3473.6105 
13968000     243.3553   -3936.3426   -3519.2399   -3936.3426            0    581.86468    18.068884    21.282758    22.043996    8477.1438   -322.31785     687.9492    1379.9627   -9.3131338    1906.6699   -793.32404   -3447.3038 
13969000    261.39372   -3949.8473   -3501.8274   -3949.8473            0     174.7689     18.01307    21.217017    21.975903    8398.8301    -761.5118    703.42673    582.39177   -685.93375   -188.12629    347.80057   -3480.4203 
13970000    236.93381   -3955.3456   -3549.2492   -3955.3456            0    984.43533    17.970659    21.167063    21.924162    8339.6462   -643.34832     1570.912    2025.7424   -566.50069     2.325679   -1713.7642   -3429.5171 
13971000    238.27633   -3923.3596   -3514.9621   -3923.3596            0    1312.8789    17.989204    21.188907    21.946787    8365.4915    1218.0014   -48.766423    2769.4017   -1539.1686   -170.48312   -250.53652   -3354.7881 
13972000    241.93345   -3956.0073   -3541.3417   -3956.0073            0   -600.01132     18.05403    21.265263    22.025875    8456.2556    524.78417   -406.37982   -1918.4383   -898.79485   -696.81723    542.55036   -3615.3386 
13973000    244.51424   -3968.9774   -3549.8884   -3968.9774            0    1087.1173    18.076797    21.292079     22.05365    8488.2863    1028.2275    2596.9014   -363.77682    137.07802    18.380941    354.17112   -3415.3109 
13974000    240.32607   -3942.4717    -3530.561   -3942.4717            0    1552.0404    17.985164    21.184147    21.941858    8359.8557   -61.763499    3536.9372    1180.9475    -857.5036   -684.13915   -385.94729   -3341.3363 
13975000    235.22428   -3940.2014    -3537.035   -3940.2014            0    552.71125    17.899903    21.083722     21.83784     8241.526    278.53962    684.26949    695.32463   -85.272712    60.233142   -139.85178   -3470.6024 
13976000     239.1713   -3952.4157   -3542.4843   -3952.4157            0   -91.121566    18.015183    21.219506    21.978482    8401.7866   -329.12418    97.300539   -41.541058    586.54406   -487.46042   -1794.2462   -3553.6496 
13977000    266.07382   -3932.4872   -3476.4458   -3932.4872            0    2422.2909    17.946622     21.13875    21.894837    8306.2256    3344.8267    2049.7334    1872.3125   -618.42578    -815.0676    562.17981   -3183.0148 
13978000    260.33711   -3961.8545   -3515.6456   -3961.8545            0    2795.0238     17.92937     21.11843     21.87379    8282.2951    4056.5829    1630.9694    2697.5193    1744.7543    462.60931    1542.1177   -3178.0381 
13979000    251.39089   -3956.6718   -3525.7965   -3956.6718            0    962.73824    18.039693    21.248376    22.008383    8436.1253   -297.70303    2417.2453    768.67251   -766.89555    -892.2315     554.3511   -3407.3486 
13980000    245.79163   -3904.6954    -3483.417   -3904.6954            0    176.09741    18.092352    21.310401    22.072628    8510.2184   -1071.3385    1375.3762    224.25445    383.28776   -474.37804    452.64986    -3461.561 
13981000    244.19923   -3924.9863   -3506.4372   -3924.9863            0    93.643528    18.139267    21.365661    22.129864    8576.5932    106.59585    754.29811   -579.96338    117.94241   -986.26996    48.544167   -3494.7242 
13982000    232.32996   -3923.7164   -3525.5109   -3923.7164            0    587.97473     18.01754    21.222283    21.981357    8405.0849    833.07614   -228.84519    1159.6933    369.92516    158.57058    242.53954   -3453.4372 
13983000    237.29922   -3952.3659   -3545.6431   -3952.3659            0    1170.9883    17.995492    21.196313    21.954458    8374.2665   -344.92162    961.70847    2896.1782    421.38051    145.21662    373.98415   -3402.6302 
13984000    258.45743   -3964.8627   -3521.8755   -3964.8627            0   -103.78296    18.073166    21.287803    22.049221    8483.1729   -403.24017    113.01857   -21.127273   -62.217703   -92.426252   -96.770552   -3534.7153 
13985000    236.16872   -3982.3022   -3577.5171   -3982.3022            0    997.82469    18.045928     21.25572     22.01599    8444.8759    15.205485    2193.7443     784.5243    409.22405   -281.15353   -1726.7284   -3454.6251 
13986000    240.82764   -3956.3549   -3543.5845   -3956.3549            0    665.28486    18.078996    21.294669    22.056333    8491.3847   -489.30942    949.83819    1535.3258    1937.0991   -159.98614   -319.97898   -3461.1969 
13987000    244.77133    -3965.173   -3545.6433    -3965.173            0    1500.3034    18.011861    21.215593    21.974428    8397.1388    2134.7445    1016.3533    1349.8124    533.97465    1246.4688    -754.1868   -3361.9107 
13988000    242.93862   -3949.4511   -3533.0626   -3949.4511            0   -1266.0221    18.230419    21.473026    22.241069     8706.539   -2170.9581   -1742.2302    115.12204    496.56829    1313.2121    1004.4967    -3693.817 
13989000    247.60012   -3958.3857   -3534.0076   -3958.3857            0   -1110.6502     18.18858    21.423744    22.190025    8646.7308   -2933.3815    -369.4004   -29.168836    47.086466    23.599881   -507.04651   -3674.0647 
13990000    238.06357   -3937.2392   -3529.2064   -3937.2392            0    2261.8625    18.078196    21.293727    22.055357    8490.2572    2360.2235    2501.4198    1923.9442   -47.140531    1302.1739    944.02119   -3249.1387 
13991000    235.74813   -3964.7677   -3560.7034   -3964.7677            0   -95.179292     18.14288    21.369917    22.134272    8581.7192    183.25787   -1163.0227    694.22696    962.21411    82.739117    811.46749   -3572.6156 
13992000    247.18045   -3959.4613   -3535.8025   -3959.4613            0   -169.20899     18.04945    21.259868    22.020287    8449.8211   -147.15408   -175.87749    -184.5954   -1291.6646    348.96547   -1422.4007   -3556.6544 
13993000     249.1805   -3939.1398    -3512.053   -3939.1398            0   -532.40957    18.088322    21.305654     22.06771    8504.5319    24.278191    848.35945   -2469.8663   -80.958166    444.28186    -170.9948   -3578.0876 
13994000     251.0957   -3963.0429   -3532.6735   -3963.0429            0    198.66461    18.044517    21.254058    22.014269    8442.8949   -823.87207     1301.126    118.73985   -126.62696    304.66365    -890.4547   -3508.2117 
13995000    242.82443    -3910.144   -3493.9512    -3910.144            0    1190.4918    18.051139    21.261857    22.022347     8452.193   -83.974034    1063.1646    2592.2847    265.33992    -129.2132    1516.0904   -3347.2034 
13996000     236.3128   -3941.2353   -3536.2032   -3941.2353            0    765.71679    18.005737    21.208379    21.966957    8388.5766    213.46245    554.68767    1529.0003   -692.76638    884.90776   -618.49069   -3442.5264 
13997000     241.1034   -3970.1246   -3556.8816   -3970.1246            0    135.05223    18.095683    21.314325    22.076692    8514.9198    254.58093    98.227347    52.348406   -661.45733    -912.8912   -937.12315   -3540.1106 
13998000    254.66766   -3942.4918   -3506.0002   -3942.4918            0   -895.05906    18.099728    21.319089    22.081626     8520.631   -27.243897   -2265.3954   -392.53783   -500.27162   -399.59846   -702.61683   -3617.2244 
13999000    241.98601   -3982.2099   -3567.4542   -3982.2099            0     965.7214    18.066365    21.279792    22.040923    8473.5998   -645.94873    1386.9493    2156.1636   -458.69742   -245.98362     -249.408   -3448.1115 
14000000    266.46254   -3951.4182   -3494.7105   -3951.4182            0    1057.6559    17.927627    21.116376    21.871663     8279.879   -196.80664    368.57148    3001.2027    465.44581   -918.92088   -481.85187   -3366.9948 
Loop time of 467.282 on 64 procs for 250000 steps with 864 atoms

Performance: 92.450 ns/day, 0.260 hours/ns, 535.009 timesteps/s
99.1% CPU use with 64 MPI tasks x 1 OpenMP threads

MPI task timing breakdown:
Section |  min time  |  avg time  |  max time  |%varavg| %total
---------------------------------------------------------------
Pair    | 19.387     | 21.93      | 24.218     |  25.7 |  4.69
Bond    | 0.25933    | 0.27854    | 0.29355    |   1.2 |  0.06
Kspace  | 220.21     | 228.8      | 240.51     |  31.6 | 48.96
Neigh   | 3.5974     | 4.3113     | 5.2349     |  21.5 |  0.92
Comm    | 89.322     | 99.574     | 108.78     |  50.8 | 21.31
Output  | 1.3246     | 1.3262     | 1.3317     |   0.1 |  0.28
Modify  | 98.818     | 101.77     | 107.56     |  16.6 | 21.78
Other   |            | 9.292      |            |       |  1.99

Nlocal:        13.5000 ave          20 max           8 min
Histogram: 4 5 6 9 10 14 8 2 3 3
Nghost:        1969.98 ave        2017 max        1931 min
Histogram: 3 4 7 10 12 14 7 6 0 1
Neighs:        3723.55 ave        5665 max        2022 min
Histogram: 3 4 8 12 9 10 7 7 2 2

Total # of neighbors = 238307
Ave neighs/atom = 275.81829
Ave special neighs/atom = 2.0000000
Neighbor list builds = 11101
Dangerous builds = 0

unfix		3
unfix		2
unfix		1

write_data	data.final.${pid}
write_data	data.final.0
System init for write_data ...
PPPM initialization ...
  extracting TIP4P info from pair style
  using 12-bit tables for long-range coulomb (../kspace.cpp:340)
  G vector (1/distance) = 0.37273468
  grid = 24 25 25
  stencil order = 5
  estimated absolute RMS force accuracy = 0.003162569
  estimated relative force accuracy = 9.5239825e-06
  using double precision FFTW3
  3d grid and FFT values/proc = 2940 384
Last active /omp style is kspace_style pppm/tip4p/omp
WARNING: Not all mixed pair coeffs generated from mixing. Use write_data with 'pair ij' option to store all pair coeffs. (../write_data.cpp:312)

write_restart   restart.lmp.${pid}
write_restart   restart.lmp.0
System init for write_restart ...
PPPM initialization ...
  extracting TIP4P info from pair style
  using 12-bit tables for long-range coulomb (../kspace.cpp:340)
  G vector (1/distance) = 0.37273468
  grid = 24 25 25
  stencil order = 5
  estimated absolute RMS force accuracy = 0.003162569
  estimated relative force accuracy = 9.5239825e-06
  using double precision FFTW3
  3d grid and FFT values/proc = 2940 384
Last active /omp style is kspace_style pppm/tip4p/omp
Total wall time: 0:07:49
