LAMMPS data file via write_data, version 30 Jul 2021, timestep = 42000000

972 atoms
2 atom types
648 bonds
1 bond types
324 angles
1 angle types

0.0077867830844677854 19.992214216877958 xlo xhi
0.04692399316841467 19.953077006812812 ylo yhi
0.004942787216918987 20.695055212771152 zlo zhi

Masses

1 1.008
2 15.999

Pair Coeffs # lj/cut/tip4p/long/omp

1 0 0
2 0.21084 3.1668

Bond Coeffs # harmonic/omp

1 450 0.9572

Angle Coeffs # harmonic/omp

1 55 104.52

Atoms # full

10 4 2 -1.1794 1.1141282363692766 4.016493559033637 3.8349465076386076 0 0 0
11 4 1 0.5897 0.9706992907020078 3.211961107854308 3.336460073738711 0 0 0
12 4 1 0.5897 2.0655944959931363 4.082353505382054 3.915704303525934 0 0 0
33 11 1 0.5897 1.6006627494087555 2.0772043899467745 1.4360394253186906 0 0 0
31 11 2 -1.1794 0.8602455276053506 1.9541243665079997 2.0300454164996173 0 0 0
18 6 1 0.5897 4.088447469675859 3.290439178360639 3.414079024002511 0 0 0
4 2 2 -1.1794 4.096723392499407 1.4117101980683264 3.3162289447789823 0 0 0
16 6 2 -1.1794 3.9061612157899823 4.189740212515762 3.6867876894218092 0 0 0
23 8 1 0.5897 2.620561356829586 0.9932755675443775 4.278578117386332 0 0 0
5 2 1 0.5897 4.249709144226212 0.783277078560542 2.610547256801376 0 0 0
17 6 1 0.5897 4.189960039947881 4.727052869829069 2.9471582426358363 0 0 0
236 79 1 0.5897 0.8171063672976431 0.23083254847483728 1.8835544239421087 0 1 0
32 11 1 0.5897 0.09505657817481916 2.2127640487993347 1.516432930378688 0 0 0
3 1 1 0.5897 3.659132739108413 2.5655238865203 0.3524132119711611 0 0 0
6 2 1 0.5897 4.777563519212543 1.2191260528572792 3.9608914771931847 0 0 0
37 13 2 -1.1794 9.385256405440083 2.627736271714543 0.3545918979494896 0 0 0
47 16 1 0.5897 7.616202109860538 3.4382231860592616 3.37936809948756 0 0 0
34 12 2 -1.1794 5.4301892784700785 2.52207173486617 0.4479258967375294 0 0 0
69 23 1 0.5897 6.6810765763250375 2.154201824717491 1.751088325666559 0 0 0
48 16 1 0.5897 7.113936287179695 4.227266597944143 4.56982712810229 0 0 0
67 23 2 -1.1794 7.46943072909518 2.03158207904599 2.2799141936212735 0 0 0
46 16 2 -1.1794 7.785966900745992 4.23104999522311 3.8882251660527114 0 0 0
68 23 1 0.5897 8.191763537108121 2.2226051571634375 1.6816165306633593 0 0 0
9 3 1 0.5897 4.996209340006017 4.3779112469495525 5.070637316619799 0 0 0
22 8 2 -1.1794 1.9615794587671571 0.8865696754994951 4.96456576795721 0 0 0
102 34 1 0.5897 0.14500377639824596 0.8970191899477213 5.150301753422097 1 0 0
53 18 1 0.5897 9.617062637951024 4.075927251424816 3.87429471927517 0 0 0
273 91 1 0.5897 7.410552579314651 0.1711180306749278 2.050030315000119 0 1 0
1 1 2 -1.1794 2.7274298385368376 2.593974469465187 0.13498518062427287 0 0 0
58 20 2 -1.1794 8.74862314197247 0.8186159770857684 5.0532499000213535 0 0 0
28 10 2 -1.1794 6.075500445867963 0.7551727414110939 5.103705241661929 0 0 0
29 10 1 0.5897 7.007328235485894 0.8633125005696848 4.913555095155447 0 0 0
325 109 2 -1.1794 2.7309587097057255 2.5675029003134306 7.055599150529016 0 0 0
326 109 1 0.5897 2.467091691479213 2.0333533881396972 6.306358621492178 0 0 0
327 109 1 0.5897 3.6661192109668534 2.3912936660922304 7.158439779792184 0 0 0
355 119 2 -1.1794 0.8652895652625683 1.9125400619011135 9.039625552184447 0 0 0
356 119 1 0.5897 1.5383081033168904 2.0946757738533233 8.383813407362714 0 0 0
27 9 1 0.5897 2.5984623514937453 4.285480330541832 6.652591495377713 0 0 0
329 110 1 0.5897 4.170035347399068 0.8458363733283795 9.470241048513076 0 0 0
342 114 1 0.5897 4.103136363596762 4.901278527956107 9.89423773181196 0 0 0
7 3 2 -1.1794 5.680193909888641 4.56923026402709 5.712339419939739 0 0 0
362 121 1 0.5897 9.190579308069212 3.6296005092202357 6.743729461890871 0 0 0
371 124 1 0.5897 7.828174571862665 3.306956838636661 10.232849381843865 0 0 0
561 187 1 0.5897 0.801743513792427 0.12052625311204654 8.852518423159156 0 1 0
335 112 1 0.5897 1.1175541915500535 3.2653899083874736 10.143960767302747 0 0 0
328 110 2 -1.1794 4.078720813575085 1.564751497482648 10.095659195517035 0 0 0
361 121 2 -1.1794 9.373868042024947 2.71759710447182 6.969548390238477 0 0 0
391 131 2 -1.1794 7.539143168654671 2.0337202428863534 8.969162394810054 0 0 0
59 20 1 0.5897 9.016466668425878 1.468010112752997 5.70352225836589 0 0 0
359 120 1 0.5897 6.0828475511156865 2.281444673103743 7.950881538030528 0 0 0
360 120 1 0.5897 5.6762648627438965 1.7213950169618033 6.604372757556884 0 0 0
8 3 1 0.5897 5.661755806434231 3.8235540525931437 6.312306792283353 0 0 0
358 120 2 -1.1794 5.433124167034877 2.380150679272539 7.254933830608996 0 0 0
393 131 1 0.5897 7.424607777280288 1.0835115479917614 8.987530208860543 0 0 0
392 131 1 0.5897 8.172756197373083 2.1855571249668757 8.267941301132565 0 0 0
24 8 1 0.5897 2.205370154118233 0.07358858227551934 5.407232961761122 0 0 0
357 119 1 0.5897 0.045408688770025546 2.175286633930609 8.62136033602797 0 0 0
341 114 1 0.5897 4.077491511184587 3.4210110422992424 10.211018771628531 0 0 0
649 217 2 -1.1794 2.7859576728717297 2.5550679393540072 13.79973570529 0 0 0
650 217 1 0.5897 2.511224796196424 1.95601928016293 13.105500447734128 0 0 0
651 217 1 0.5897 2.1746543398771703 2.387670415518153 14.51703891682556 0 0 0
348 116 1 0.5897 2.5924475693575824 0.8859704877525093 11.098250356452903 0 0 0
346 116 2 -1.1794 2.114987846525315 0.6260667933431752 11.886124848436504 0 0 0
350 117 1 0.5897 2.6102882951734534 4.418641988489865 13.451052258595496 0 0 0
347 116 1 0.5897 1.19469660062826 0.7744357741026345 11.668853530323341 0 0 0
683 228 1 0.5897 4.521659774968856 2.608694969611784 14.248568522519738 0 0 0
336 112 1 0.5897 2.155600061248512 4.191731845482759 10.740853696795433 0 0 0
330 110 1 0.5897 4.733130065210921 1.3810999132718722 10.769639180515926 0 0 0
332 111 1 0.5897 5.2571636750712925 4.6274638809532735 11.752360036019748 0 0 0
334 112 2 -1.1794 1.210177805093979 4.062479245022769 10.66588483220189 0 0 0
370 124 2 -1.1794 8.068800312999366 4.152376785680675 10.611916260902586 0 0 0
682 228 2 -1.1794 5.463360736773222 2.7759077129915264 14.211318944813161 0 0 0
685 229 2 -1.1794 9.16777843285175 2.8668425357656147 13.669263073787159 0 0 0
386 129 1 0.5897 9.06067022285189 4.587086476015412 13.649100776077798 0 0 0
331 111 2 -1.1794 5.960780181689489 4.803387891219015 12.37701434869039 0 0 0
372 124 1 0.5897 7.408588318532727 4.309384808938678 11.286968396738605 0 0 0
382 128 2 -1.1794 8.568115256817089 0.9148488391372431 11.85698868238562 0 0 0
684 228 1 0.5897 5.548363828564395 3.5457299285292554 13.64875677407039 0 0 0
354 118 1 0.5897 5.738662160940292 1.5567472106933322 12.865737041316661 0 0 0
384 128 1 0.5897 9.260234905270226 0.9856237050349497 11.199586033986272 0 0 0
353 118 1 0.5897 6.819446310699315 0.962533902955652 11.98784804690765 0 0 0
686 229 1 0.5897 8.734523520170223 2.6790599721572788 14.501907110442056 0 0 0
383 128 1 0.5897 8.785860964329528 1.582400992981051 12.507588624163892 0 0 0
352 118 2 -1.1794 5.878153941549644 0.9276621192576572 12.157845290345588 0 0 0
340 114 2 -1.1794 3.9434587353545236 4.28227790269976 10.606740333725892 0 0 0
377 126 1 0.5897 9.849228046821983 4.1477781638747855 10.44053442021525 0 0 0
680 227 1 0.5897 0.10678622277584537 2.2899521397745928 15.292042921206164 0 0 0
717 239 1 0.5897 6.822395474716882 2.461171599615513 15.321459594415748 0 0 0
653 218 1 0.5897 3.511497653386526 1.0375004200818272 17.689183516164658 0 0 0
652 218 2 -1.1794 4.34219101030945 1.2733626448370297 17.276266546519455 0 0 0
664 222 2 -1.1794 4.055165721221189 4.030272431613298 17.271552862353264 0 0 0
671 224 1 0.5897 2.246442182034766 1.543479378541368 19.338707292780434 0 0 0
666 222 1 0.5897 4.154974756465836 3.0941426542459305 17.098221580352252 0 0 0
670 224 2 -1.1794 2.0615940858808264 0.8968412340500944 18.657525449577612 0 0 0
665 222 1 0.5897 3.1200925576628844 4.144593968511293 17.441009138570095 0 0 0
681 227 1 0.5897 0.9967182506340461 2.6152269428444592 16.472786184797123 0 0 0
672 224 1 0.5897 1.1063265291242277 0.8723779956554896 18.6027599120283 0 0 0
658 220 2 -1.1794 1.3392269347346528 4.115603553549574 17.50687259550458 0 0 0
659 220 1 0.5897 0.7016771003880119 4.321292243735192 18.190576537728923 0 0 0
654 218 1 0.5897 4.446135205052426 0.6391972905558482 16.56680580273724 0 0 0
679 227 2 -1.1794 0.9049177526869613 2.007725186216665 15.738733912907032 0 0 0
702 234 1 0.5897 9.754884913880923 4.225002909357856 17.591169754855446 0 0 0
2 1 1 0.5897 2.5551113121979094 3.514629664707071 20.627497196600597 0 0 -1
660 220 1 0.5897 1.1319019837507158 4.721370864832749 16.795270524237043 0 0 0
656 219 1 0.5897 5.056450674132634 4.344922681833199 18.699365335935507 0 0 0
35 12 1 0.5897 5.669350427496259 1.8141766381582816 20.53970788086388 0 0 -1
38 13 1 0.5897 9.11065977454907 2.073288698035051 20.314306881591477 0 0 -1
694 232 2 -1.1794 8.002073802944004 4.219921175037959 17.7481418821429 0 0 0
677 226 1 0.5897 5.531062620219305 0.8197825100248384 18.538542108378913 0 0 0
695 232 1 0.5897 7.823225596243335 3.4456399861569427 17.214444056711788 0 0 0
708 236 1 0.5897 7.782839657132857 1.0033730890231902 18.829293034816278 0 0 0
715 239 2 -1.1794 7.578072225066147 2.2861960052033092 15.882299455267699 0 0 0
655 219 2 -1.1794 5.731073000551494 4.591402287414246 19.332102558689396 0 0 0
657 219 1 0.5897 6.557475503481001 4.425387515493521 18.87858792924483 0 0 0
706 236 2 -1.1794 8.73526875349186 1.0790269306735325 18.886766962465416 0 0 0
716 239 1 0.5897 7.616280629303563 1.3316000190170492 15.94262317952327 0 0 0
676 226 2 -1.1794 6.095767542470278 0.6257211645443879 19.286664545576254 0 0 0
696 232 1 0.5897 7.780243930317646 4.958669295293213 17.18124850057683 0 0 0
710 237 1 0.5897 9.171171986538731 4.45131219171696 20.579536287977806 0 0 0
707 236 1 0.5897 9.020358076993691 0.24397335258586342 19.257898056736796 0 0 0
884 295 1 0.5897 0.8219425757459209 0.21022614408968826 15.62290742997121 0 1 0
36 12 1 0.5897 5.52715541487897 3.319475111206831 20.61739097455676 0 0 -1
177 59 1 0.5897 8.146444740509311 8.986419234720298 1.4169186390011856 0 0 0
55 19 2 -1.1794 7.503319110207099 6.101129520503231 1.851863989833719 0 0 0
126 42 1 0.5897 4.22137467609462 9.768072264041578 3.4882979530349436 0 0 0
111 37 1 0.5897 3.6072766235772944 9.273873719855619 0.17056958556241336 0 0 0
13 5 2 -1.1794 4.786653411026395 5.854780151839545 1.6417322761569588 0 0 0
140 47 1 0.5897 1.0578432105978521 9.364839510777415 2.778698913305289 0 0 0
113 38 1 0.5897 4.803919759701228 7.715011496898583 4.019810631636971 0 0 0
15 5 1 0.5897 4.421813315505969 6.597428266630798 2.1230596725662307 0 0 0
19 7 2 -1.1794 0.6964735496445519 6.023340335856279 1.988469934812006 0 0 0
20 7 1 0.5897 0.7654433974057003 5.325918603035967 2.6405210237931622 0 0 0
110 37 1 0.5897 2.1661559373968418 9.181520488391635 0.6248363705510885 0 0 0
674 225 1 0.5897 1.881866857862903 5.638381386235706 0.6887897784252898 0 0 1
114 38 1 0.5897 3.300596134215026 7.717978154341047 3.841784969759918 0 0 0
14 5 1 0.5897 4.184489572064686 5.724335996826571 0.9091897156612367 0 0 0
139 47 2 -1.1794 1.0250510887100441 8.825881109776272 1.988278619934102 0 0 0
141 47 1 0.5897 0.9218207515734477 7.930983405593015 2.312077887789226 0 0 0
112 38 2 -1.1794 4.117586176847918 7.911891639045932 3.3823123085264624 0 0 0
142 48 2 -1.1794 5.492483804826364 9.21638929090135 0.35956750253203457 0 0 0
57 19 1 0.5897 7.637606624526836 5.527543142778362 2.606371264505812 0 0 0
166 56 2 -1.1794 8.783548887210928 7.55592927867171 4.919131346115263 0 0 0
143 48 1 0.5897 6.114495943905411 9.087070797188337 1.0755351751867481 0 0 0
711 237 1 0.5897 8.57279501510257 5.68820466113166 0.5251406672896238 0 0 1
175 59 2 -1.1794 7.521656740502469 8.865301616426738 2.1319051702774896 0 0 0
56 19 1 0.5897 6.565961467396285 6.040277939284517 1.667986878484824 0 0 0
176 59 1 0.5897 7.502480456802373 7.919168336449044 2.2761930484863906 0 0 0
132 44 1 0.5897 1.028631655324825 7.414042137583904 5.084699110240923 0 0 0
138 46 1 0.5897 6.979794149996314 7.389679493994858 5.101943573969918 0 0 0
130 44 2 -1.1794 1.9852721686015589 7.444995428184654 5.079546189891382 0 0 0
145 49 2 -1.1794 9.331047072770211 9.34791644499149 0.019867710754926708 0 0 0
673 225 2 -1.1794 2.5550784799096022 5.392871494030227 0.05417371689675309 0 0 1
437 146 1 0.5897 4.072336657371747 7.579553292574378 9.561220626371625 0 0 0
339 113 1 0.5897 3.8732068677988583 5.763634636841515 7.664684836023399 0 0 0
463 155 2 -1.1794 0.7541935780212142 8.54554897015706 8.976123522974476 0 0 0
468 156 1 0.5897 4.438401416620709 9.175221096249766 7.360891320395625 0 0 0
438 146 1 0.5897 3.962853137141039 8.971871955424023 10.145689287102226 0 0 0
26 9 1 0.5897 1.7409097686063435 5.412987214962158 7.186762195064845 0 0 0
131 44 1 0.5897 2.2535027670138543 6.653036326804761 5.545566772159228 0 0 0
343 115 2 -1.1794 0.6489222744973756 5.840918536917261 8.615018992563382 0 0 0
25 9 2 -1.1794 2.4493768475792645 5.227480156570901 6.570419416787728 0 0 0
464 155 1 0.5897 1.4606143224169499 8.803621514031539 8.384022372200048 0 0 0
337 113 2 -1.1794 4.315459422356449 6.036783098680126 8.46847173363732 0 0 0
344 115 1 0.5897 0.8564311933785695 5.3316376099370455 9.398523241488949 0 0 0
433 145 2 -1.1794 2.704869430664626 9.255191436406863 7.1445958088443975 0 0 0
345 115 1 0.5897 0.8117394537535826 6.749356136924759 8.869126846928287 0 0 0
435 145 1 0.5897 2.489695262859073 8.722663142678863 6.378813121222141 0 0 0
499 167 2 -1.1794 7.391614934870866 8.438709040412094 9.09576529190754 0 0 0
61 21 2 -1.1794 8.968929115908411 5.41381234597293 6.661293963723493 0 0 0
136 46 2 -1.1794 6.0444573412573925 7.276453649032085 5.270697361633507 0 0 0
501 167 1 0.5897 6.607350966723409 8.693238090808423 8.609616498378486 0 0 0
381 127 1 0.5897 7.443310559058887 5.191143505270175 9.342087402577715 0 0 0
379 127 2 -1.1794 7.119386957090549 5.715479350652926 8.609664211414534 0 0 0
137 46 1 0.5897 5.9510308202203905 6.34994558990572 5.492520149039268 0 0 0
338 113 1 0.5897 5.235776499530994 5.81827193417695 8.32208231582241 0 0 0
380 127 1 0.5897 7.294727864139812 6.620809357443832 8.866522124270993 0 0 0
467 156 1 0.5897 5.552743597748292 8.496340164638747 6.5932654138300215 0 0 0
500 167 1 0.5897 7.5356701353875755 9.156986723622905 9.711924478828763 0 0 0
466 156 2 -1.1794 5.392117198508889 9.121198162931563 7.300422356451319 0 0 0
470 157 1 0.5897 8.631512872058678 8.979847546180975 7.801944107098668 0 0 0
168 56 1 0.5897 8.87944105076077 8.225369724628141 5.596600928783265 0 0 0
62 21 1 0.5897 8.24065002746768 5.516851069101048 7.273832274981821 0 0 0
469 157 2 -1.1794 9.08255273599529 9.263208689439683 7.0066203253991945 0 0 0
443 148 1 0.5897 0.9697594237968676 9.843688360500801 10.207370868709871 0 0 0
167 56 1 0.5897 8.898910106487282 6.726624176176219 5.3831193419685395 0 0 0
63 21 1 0.5897 9.746742670015056 5.632905583295287 7.174329325747223 0 0 0
789 263 1 0.5897 1.2572609513192667 8.688952780428028 15.29215546767149 0 0 0
533 178 1 0.5897 0.18485183517228015 7.566563128001746 11.999641515993197 1 0 0
351 117 1 0.5897 3.4044373239937333 5.509506636067492 14.137620748018177 0 0 0
759 253 1 0.5897 2.3145664288770464 8.782018306054088 13.37472676930169 0 0 0
668 223 1 0.5897 1.1558880360540535 5.6813920046881625 14.72970355084245 0 0 0
455 152 1 0.5897 2.63839526026113 7.656345030446475 11.518792681023006 0 0 0
456 152 1 0.5897 2.125544790412827 6.702902085252707 12.577096814755889 0 0 0
454 152 2 -1.1794 1.9256581050283368 7.533811328670272 12.145854544961967 0 0 0
792 264 1 0.5897 4.473340768103992 9.154499160254977 14.386547124096523 0 0 0
349 117 2 -1.1794 2.6019923451439264 5.357333245438488 13.638505964401276 0 0 0
757 253 2 -1.1794 2.5239173031358497 9.238843457491654 14.18945807826235 0 0 0
333 111 1 0.5897 5.9415486409197875 5.752633219451198 12.499136297135879 0 0 0
705 235 1 0.5897 7.952571643827549 5.908472534228547 15.217509223533744 0 0 0
385 129 2 -1.1794 9.039895781157597 5.512855269434946 13.891734492932205 0 0 0
460 154 2 -1.1794 6.1270551666638315 7.604361787556208 12.058517022751321 0 0 0
793 265 2 -1.1794 9.213925217123649 9.234392848016792 13.968399944243643 0 0 0
462 154 1 0.5897 5.463254562527247 7.7670466960683315 11.388345443630817 0 0 0
492 164 1 0.5897 7.989883683073622 7.5241607500546435 11.692724729878206 0 0 0
490 164 2 -1.1794 8.920366978646257 7.453316336696858 11.905646587565334 0 0 0
491 164 1 0.5897 9.370136296107473 7.647122201510833 11.083207928092943 0 0 0
794 265 1 0.5897 9.12588211504554 8.676384173757267 13.1956228128098 0 0 0
461 154 1 0.5897 5.881340772966891 8.178388513881865 12.784070073483218 0 0 0
791 264 1 0.5897 5.910976956322952 9.16138927522944 14.860753819213201 0 0 0
790 264 2 -1.1794 5.370549055834592 9.287672011850459 14.080855428085618 0 0 0
387 129 1 0.5897 9.062406184077297 5.980386867124281 13.056737756525818 0 0 0
661 221 2 -1.1794 4.769522772518329 5.730178958516966 15.276965961867473 0 0 0
824 275 1 0.5897 8.06910409790841 8.916369280092594 15.23922823083702 0 0 0
436 146 2 -1.1794 3.982368645177483 8.046979070189971 10.391716893487226 0 0 0
667 223 2 -1.1794 0.6041775493323688 5.8431627553695575 15.494995412834813 0 0 0
704 235 1 0.5897 6.512409646143609 5.888278491385138 15.683598316728272 0 0 0
786 262 1 0.5897 6.9344158351303165 7.370663597214991 18.8734523393895 0 0 0
669 223 1 0.5897 0.6992792683674731 6.780267980469515 15.665689842071755 0 0 0
779 260 1 0.5897 2.395494792109244 8.147568129780186 19.402420041467217 0 0 0
675 225 1 0.5897 2.432642641037803 6.002545195577355 20.016535779194587 0 0 0
663 221 1 0.5897 4.511759462018811 6.536569875616725 15.723754137154714 0 0 0
787 263 2 -1.1794 0.6085881114425731 8.52577305443562 15.976862176236875 0 0 0
858 286 1 0.5897 0.3602116442507268 7.242671766354515 18.755506639741327 1 0 0
780 260 1 0.5897 2.7440731817936985 7.452803264081349 18.103241591704368 0 0 0
761 254 1 0.5897 4.093630869798896 8.765214319473815 16.922953287632055 0 0 0
778 260 2 -1.1794 2.1921369792500296 7.370971286165523 18.881006217542772 0 0 0
760 254 2 -1.1794 4.1827434015873965 7.8121527248434335 16.932201915728747 0 0 0
788 263 1 0.5897 0.8323841675448137 9.144728930192544 16.671931171420834 0 0 0
762 254 1 0.5897 4.760559024652903 7.632327154392837 17.67384604724676 0 0 0
823 275 2 -1.1794 7.38835731143784 8.81215387274464 15.904018669754553 0 0 0
825 275 1 0.5897 7.354302167521638 7.869471079184818 16.066942178978273 0 0 0
662 221 1 0.5897 4.548703078236214 5.032648632824557 15.894223122147855 0 0 0
785 262 1 0.5897 5.8176374904793 6.405589391514612 19.210109606310994 0 0 0
144 48 1 0.5897 5.78380736546676 8.612416699223035 20.366576646019848 0 0 -1
816 272 1 0.5897 8.876540185804373 8.199724987731484 19.362889586250486 0 0 0
703 235 2 -1.1794 7.4030824620887525 6.067125976496657 15.985062606693111 0 0 0
814 272 2 -1.1794 8.687288062990158 7.4737543043780335 18.768352438853157 0 0 0
784 262 2 -1.1794 5.9845171713909 7.319510225140373 18.979395913691874 0 0 0
815 272 1 0.5897 8.87677869660422 6.687933806891104 19.281100863148964 0 0 0
709 237 2 -1.1794 9.230326730533644 5.406747364227887 20.579125727390295 0 0 0
797 266 1 0.5897 9.968896303985467 7.692693641364833 17.57589616832704 0 0 0
109 37 2 -1.1794 2.7102095121840275 9.439415885438967 20.570805026027834 0 0 -1
120 40 1 0.5897 1.0526688995771147 11.438821553099245 3.1961023905414128 0 0 0
129 43 1 0.5897 0.8120397504260842 13.451976993443255 2.0514649605350295 0 0 0
118 40 2 -1.1794 1.3044734143485708 10.800133700171626 3.863175111060635 0 0 0
119 40 1 0.5897 2.2486536554213696 10.919415622097212 3.965301759905287 0 0 0
240 80 1 0.5897 2.680818908477056 14.184670553288656 4.293146242000268 0 0 0
127 43 2 -1.1794 0.6436694263502758 12.521985267484757 1.8994370931159013 0 0 0
123 41 1 0.5897 3.968425326115749 12.347964232038288 0.897197295977116 0 0 0
222 74 1 0.5897 4.322830163902209 14.11683926395358 2.508007742714137 0 0 0
124 42 2 -1.1794 4.110307952851308 10.70508097271014 3.6496320673107534 0 0 0
783 261 1 0.5897 1.7889046728037528 12.239149115374376 0.5654563849828741 0 0 1
220 74 2 -1.1794 4.167239758447263 14.59517613472189 3.3224345413611296 0 0 0
122 41 1 0.5897 4.444268138326538 11.807010307441058 2.2287293497221405 0 0 0
275 92 1 0.5897 7.833129052768303 14.061183800841434 4.9968712786963465 0 0 0
125 42 1 0.5897 4.682754078809763 10.889931341400981 4.394198145779127 0 0 0
121 41 2 -1.1794 4.647133556958178 12.463449272362483 1.5622092711551645 0 0 0
156 52 1 0.5897 8.939924505843933 10.927378198419962 3.9935628184622773 0 0 0
163 55 2 -1.1794 7.365668197286668 12.76312226180055 2.1323950600888213 0 0 0
165 55 1 0.5897 7.55829079296043 12.118837554874952 2.8136532798064926 0 0 0
285 95 1 0.5897 7.698390857294133 14.64360213848055 2.2041008053219864 0 0 0
164 55 1 0.5897 6.440151324563226 12.627999980349701 1.929124994775704 0 0 0
276 92 1 0.5897 9.232272230105409 14.116278630248084 4.421458086501402 0 0 0
154 52 2 -1.1794 7.995537117982821 10.777323950308292 4.035601373813289 0 0 0
819 273 1 0.5897 8.376442518097944 12.412711701358047 0.6034431047213344 0 0 1
246 82 1 0.5897 5.420614026099753 14.249321554000554 4.648212266306363 0 0 0
238 80 2 -1.1794 2.0136972508103037 14.081241672976962 4.971728669640519 0 0 0
155 52 1 0.5897 7.833176580712689 10.087885944415596 3.391676777290047 0 0 0
188 63 1 0.5897 0.025517010744177917 10.960536817872843 5.036717085452041 1 0 0
317 106 1 0.5897 0.17525903452655833 13.952420027588957 4.816599777660315 1 0 0
133 45 2 -1.1794 2.557103603597672 11.96157156387912 6.634187127934141 0 0 0
134 45 1 0.5897 1.8338779452900358 12.086231746464474 7.24869013336406 0 0 0
135 45 1 0.5897 3.331519729245 12.25928206123565 7.111527144257796 0 0 0
453 151 1 0.5897 0.8708726323041178 11.842699133289099 9.410822709443137 0 0 0
451 151 2 -1.1794 0.7416606146289998 12.410541911091432 8.651102398286511 0 0 0
450 150 1 0.5897 4.153000700263672 11.41112697591259 9.61859705599988 0 0 0
446 149 1 0.5897 4.428181075585629 13.40794201432074 8.922290362470182 0 0 0
573 191 1 0.5897 0.7501594592825618 14.223128977194605 9.24131549063201 0 0 0
445 149 2 -1.1794 4.589834358453294 12.685163364868838 8.315838905531136 0 0 0
239 80 1 0.5897 2.306796869372138 13.327294334290833 5.483564689641438 0 0 0
245 82 1 0.5897 5.840632326550486 13.178160114099137 5.632235229627188 0 0 0
480 160 1 0.5897 7.699337612364765 11.363693146443913 10.05469062674899 0 0 0
447 149 1 0.5897 5.53868260461443 12.561232525361348 8.337683778465605 0 0 0
244 82 2 -1.1794 6.023063538078874 14.081363595614622 5.372838349998305 0 0 0
489 163 1 0.5897 7.3245768671670195 13.545477111803457 9.197186468270958 0 0 0
488 163 1 0.5897 7.845682732199931 12.5168476599237 8.216160680434731 0 0 0
169 57 2 -1.1794 9.214797529445843 12.065020070136704 7.229043364901943 0 0 0
115 39 2 -1.1794 5.806129823724544 11.31503140326573 5.661713365528328 0 0 0
117 39 1 0.5897 5.692328065873806 10.608759146015217 6.297760302552624 0 0 0
487 163 2 -1.1794 7.235022933318426 12.626365307035062 8.945078311510372 0 0 0
171 57 1 0.5897 9.160507420627217 11.139729643803909 6.989801884685917 0 0 0
170 57 1 0.5897 9.032584681462488 12.534505127363232 6.414988620583839 0 0 0
448 150 2 -1.1794 3.9162716987865127 10.772665472477836 10.291382157363088 0 0 0
544 182 2 -1.1794 4.211274882186691 14.54328055237898 10.258294829724015 0 0 0
116 39 1 0.5897 6.597733537399328 11.077765917691682 5.178736833980219 0 0 0
434 145 1 0.5897 2.5660494503071174 10.157377032575154 6.8562621681092875 0 0 0
274 92 2 -1.1794 8.747264302013857 13.87436405165874 5.210445328054201 0 0 0
457 153 2 -1.1794 2.401973684709109 11.946956059626393 13.608629503498273 0 0 0
458 153 1 0.5897 1.7018100550577806 12.176557930432683 14.219591602965517 0 0 0
459 153 1 0.5897 3.2068960041712553 12.202452643227739 14.059198554947898 0 0 0
562 188 2 -1.1794 1.995747488632117 14.10435637740162 11.907136191367714 0 0 0
563 188 1 0.5897 2.105042098927474 13.27211026138662 12.367304724114026 0 0 0
449 150 1 0.5897 4.521631369405291 10.947629771672686 11.011912558078683 0 0 0
442 148 2 -1.1794 1.1425434607827332 10.6682499255395 10.661877196069346 0 0 0
444 148 1 0.5897 2.0965550159622763 10.71146785751584 10.72619878909092 0 0 0
769 257 2 -1.1794 4.487673977013858 12.58601172366973 15.33884171694866 0 0 0
545 182 1 0.5897 3.3999444596603743 14.39395035337541 10.743713587140045 0 0 0
795 265 1 0.5897 9.184492739103245 10.127217785260465 13.624385138904675 0 0 0
564 188 1 0.5897 2.2417092249255495 14.76871003446729 12.550913056093268 0 0 0
600 200 1 0.5897 8.905280984472485 14.884891423448256 12.524883242930779 0 0 0
642 214 1 0.5897 0.20550183868535626 14.229156693999087 11.995553568724121 1 0 0
546 182 1 0.5897 4.906247904156849 14.337275868950153 10.883432094486082 0 0 0
493 165 2 -1.1794 9.175417726867298 11.986466908377649 13.559416056311884 0 0 0
440 147 1 0.5897 6.579039020904455 11.068770993159974 11.77320224627451 0 0 0
598 200 2 -1.1794 8.7099492093859 14.132421160270232 11.96634794815115 0 0 0
770 257 1 0.5897 5.439784438112167 12.487856379107939 15.3380364121194 0 0 0
568 190 2 -1.1794 5.970154233906327 14.059844316202117 12.37065386863215 0 0 0
441 147 1 0.5897 5.688435320317536 10.632691470953711 12.917138266881317 0 0 0
478 160 2 -1.1794 7.885307621071216 10.620723323246 10.628919850157162 0 0 0
479 160 1 0.5897 8.830704315440826 10.659791538086385 10.773310850525734 0 0 0
569 190 1 0.5897 5.760780849661698 13.128447936910147 12.441412358912839 0 0 0
599 200 1 0.5897 8.929673173558882 13.371234708006448 12.503602172675652 0 0 0
439 147 2 -1.1794 5.779273884617099 11.305833918001248 12.24263893642605 0 0 0
570 190 1 0.5897 6.905592577413548 14.080859840273199 12.16899496995182 0 0 0
494 165 1 0.5897 8.438132264293426 12.125562469492857 14.153783033087802 0 0 0
758 253 1 0.5897 2.5132317895044953 10.16663171979728 13.953993364498762 0 0 0
495 165 1 0.5897 9.951094224398679 12.102325294140938 14.10813904143706 0 0 0
768 256 1 0.5897 1.1293818039392045 11.397452586154657 16.959373668208578 0 0 0
888 296 1 0.5897 2.257271573847851 13.453460101280909 19.216000868836364 0 0 0
766 256 2 -1.1794 1.3363084257655289 10.744852849343609 17.628412440027084 0 0 0
773 258 1 0.5897 3.1250022573963805 10.673740562251155 17.454554912427113 0 0 0
886 296 2 -1.1794 2.0058483907884055 14.271174246181253 18.786525031555307 0 0 0
774 258 1 0.5897 4.141634224949364 11.21072965480115 16.469664540066102 0 0 0
772 258 2 -1.1794 4.030741427158169 10.562869144468046 17.165579779875713 0 0 0
869 290 1 0.5897 3.3243377773062144 14.501487133511285 17.60016058804475 0 0 0
767 256 1 0.5897 0.6890319837256591 10.894114712041777 18.317601605371486 0 0 0
868 290 2 -1.1794 4.094297331409012 14.711442443759355 17.071690225702067 0 0 0
887 296 1 0.5897 2.2792114744622256 14.956518108146058 19.39635286034602 0 0 0
810 270 1 0.5897 9.786898937661588 10.722027549731287 17.42707276161284 0 0 0
965 322 1 0.5897 0.22239078851877922 14.216965459965124 18.831993429625776 1 0 0
771 257 1 0.5897 4.323745216042112 13.331433560247133 15.916597439305121 0 0 0
870 290 1 0.5897 4.837588086399452 14.466425754666943 17.622771318228544 0 0 0
804 268 1 0.5897 7.716121470116013 10.109755242703466 17.051671392814505 0 0 0
782 261 1 0.5897 2.499481415316701 11.188449789207828 20.429041901625308 0 0 0
781 261 2 -1.1794 2.459802703950298 12.132710573894466 20.581190910725404 0 0 0
812 271 1 0.5897 7.385112790272463 13.499969472908916 15.754762267654185 0 0 0
764 255 1 0.5897 5.045024180123667 11.049442089493079 18.64429891594763 0 0 0
818 273 1 0.5897 8.856259442686248 12.736915669849902 19.894742198832848 0 0 0
765 255 1 0.5897 5.6728252477638215 10.668149720948717 19.968114101797664 0 0 0
922 308 2 -1.1794 8.77753951392199 14.10462760104202 18.634714477501166 0 0 0
803 268 1 0.5897 7.262133296151931 10.98519598682866 18.20039456647558 0 0 0
893 298 1 0.5897 6.940599100685091 14.131701852245756 18.59840583173784 0 0 0
894 298 1 0.5897 5.967670790511893 13.100971968302108 19.130340654905446 0 0 0
802 268 2 -1.1794 7.939097924538108 10.909632170122826 17.52791565513409 0 0 0
924 308 1 0.5897 9.507063929684238 14.203277139297192 18.022935432362846 0 0 0
763 255 2 -1.1794 5.737540951963891 11.302925199639756 19.254537010070145 0 0 0
892 298 2 -1.1794 6.043487492739853 14.030961410728693 18.916519911191262 0 0 0
813 271 1 0.5897 7.523847709642789 12.086801061523937 16.280016037283886 0 0 0
777 259 1 0.5897 0.8567129833965818 13.517093009685508 15.916009059700846 0 0 0
923 308 1 0.5897 8.907172476761557 14.802184399176326 19.277313563441805 0 0 0
817 273 2 -1.1794 9.012048811369489 12.144235835203343 20.630114070739825 0 0 0
146 49 1 0.5897 9.22842223795523 10.295159083477387 20.617577951470125 0 0 -1
775 259 2 -1.1794 0.756929420003465 12.579859938808339 15.748710042356937 0 0 0
811 271 2 -1.1794 7.217470528020574 12.58640350809515 15.523161047240356 0 0 0
284 95 1 0.5897 7.842480705343306 16.087966296773942 2.6344974424469814 0 0 0
230 77 1 0.5897 4.079455185571496 19.00883641818534 0.7939806397082892 0 0 0
229 77 2 -1.1794 4.6022516581339055 19.229418687512982 1.5648765787284817 0 0 0
247 83 2 -1.1794 0.9738948178044924 15.277410604404363 2.120774011550168 0 0 0
248 83 1 0.5897 0.9882746094301557 15.863897576798417 2.877177905365308 0 0 0
890 297 1 0.5897 1.8582703194933994 18.90275017798735 0.3740206331563048 0 0 1
226 76 2 -1.1794 1.41706289162819 17.518821368277514 3.752858152643186 0 0 0
228 76 1 0.5897 0.8255717036859573 17.637355776305284 4.496038839292577 0 0 0
221 74 1 0.5897 4.248317694141142 15.517268176786807 3.0784647659999522 0 0 0
232 78 2 -1.1794 4.225461517503037 17.368273059718362 3.574367122209265 0 0 0
233 78 1 0.5897 4.381952665101156 17.960759551980914 2.838992678082166 0 0 0
227 76 1 0.5897 1.2056694103744612 18.24035264025575 3.160382713761118 0 0 0
235 79 2 -1.1794 0.7367146797573234 19.20173662691588 1.695952629803858 0 0 0
234 78 1 0.5897 3.2764049041998353 17.384193701242552 3.697599087449654 0 0 0