LAMMPS data file via write_data, version 30 Jul 2021, timestep = 17750000

972 atoms
2 atom types
648 bonds
1 bond types
324 angles
1 angle types

-0.077261297252047 20.077262297242402 xlo xhi
-0.09154207824773941 20.09154307823985 ylo yhi
-0.2704958294614972 20.970493829464232 zlo zhi

Masses

1 1.008
2 15.999

Pair Coeffs # lj/cut/tip4p/long/omp

1 0 0
2 0.21084 3.1668

Bond Coeffs # harmonic/omp

1 450 0.9572

Angle Coeffs # harmonic/omp

1 55 104.52

Atoms # full

31 11 2 -1.1794 0.8973522588514437 1.9783564884994411 2.017564812524978 0 0 0
6 2 1 0.5897 4.899686463629231 1.0698076418762432 3.922165838825576 0 0 0
33 11 1 0.5897 1.6986273500506657 2.1370350374183085 1.5185537685481736 0 0 0
16 6 2 -1.1794 3.984786047345211 4.063535374869494 3.4807081047385293 0 0 0
23 8 1 0.5897 2.21725472328953 0.9963509293851214 4.1740767006324155 0 0 0
4 2 2 -1.1794 4.165729641510275 1.2883362800565605 3.3479088456590564 0 0 0
10 4 2 -1.1794 1.1446134284466034 4.250102426841419 3.698335848592136 0 0 0
11 4 1 0.5897 1.0787830673770797 3.416169576592572 3.2331708682890934 0 0 0
5 2 1 0.5897 4.260738180711717 0.6968783878432596 2.601404512651916 0 0 0
18 6 1 0.5897 4.012093208623021 3.10678528376912 3.4756169638953205 0 0 0
12 4 1 0.5897 2.038448520345958 4.26411618898384 4.040541061357836 0 0 0
236 79 1 0.5897 0.7048177268549107 0.16018620075204248 1.9474338930228283 0 1 0
2 1 1 0.5897 2.734291336211411 3.61842620281513 -0.08179746556517187 0 0 0
17 6 1 0.5897 4.179998885387148 4.313988214117963 2.577737890368958 0 0 0
1 1 2 -1.1794 2.888154647404275 2.7111594082026365 0.1815332746991437 0 0 0
3 1 1 0.5897 3.820161472493446 2.678644808271887 0.39728339508049815 0 0 0
32 11 1 0.5897 0.1904794198524235 2.2270193263300326 1.421980686637471 0 0 0
22 8 2 -1.1794 1.770010642127428 1.0129913683922556 5.020181909551477 0 0 0
102 34 1 0.5897 -0.0344918328775734 0.8236752452674928 4.950729031283633 1 0 0
355 119 2 -1.1794 0.7079009477184349 2.0529245621748182 9.154229678635959 0 0 0
330 110 1 0.5897 3.820741179688544 0.25501507305444204 9.811141865920172 0 0 0
356 119 1 0.5897 1.4397508492560307 2.3247517711703054 8.600398980274798 0 0 0
325 109 2 -1.1794 2.8425489326033433 2.397867333221231 7.358776204273289 0 0 0
326 109 1 0.5897 2.494726139100507 2.104450203540367 6.516680830153311 0 0 0
327 109 1 0.5897 3.780338386689215 2.2126902556396786 7.308759392263213 0 0 0
342 114 1 0.5897 4.284572538427525 3.919125658882221 10.03670156638292 0 0 0
27 9 1 0.5897 2.6501253685121755 4.02432771859886 6.970994212368865 0 0 0
24 8 1 0.5897 1.987117469672043 0.17228323500388804 5.422963843690063 0 0 0
561 187 1 0.5897 0.9775093927964909 0.2857904150909331 8.88090715366518 0 1 0
357 119 1 0.5897 -0.06965333689028581 2.2093903007416014 8.618365540551322 0 0 0
350 117 1 0.5897 2.5128067911295258 4.395444877338169 13.90753745459222 0 0 0
651 217 1 0.5897 1.8987656568523033 2.359948231738577 15.025093344890848 0 0 0
650 217 1 0.5897 2.4150514398477445 1.8529126270144536 13.695379712824131 0 0 0
683 228 1 0.5897 4.501637665460901 2.5651418655456766 14.684626968880554 0 0 0
346 116 2 -1.1794 1.9686562622367325 0.9155633817936086 12.354464356696264 0 0 0
649 217 2 -1.1794 2.585431363447232 2.5056930732528544 14.374357596167002 0 0 0
348 116 1 0.5897 2.4416919337633174 0.9409740124031636 11.522734459395782 0 0 0
340 114 2 -1.1794 3.8550548305602206 3.6728872752484216 10.855897492270937 0 0 0
347 116 1 0.5897 1.05061950070359 0.80910300357954 12.105273138671844 0 0 0
334 112 2 -1.1794 1.0113391804675598 4.120721295970709 10.938770330825575 0 0 0
335 112 1 0.5897 0.722489112360411 3.317620816127798 10.505463162471123 0 0 0
336 112 1 0.5897 1.9628098151967506 4.121014008131529 10.834122615992586 0 0 0
341 114 1 0.5897 3.702387511867218 2.7316015299176164 10.773307129125854 0 0 0
329 110 1 0.5897 4.521777816899356 0.7372413201109692 11.063274802803079 0 0 0
328 110 2 -1.1794 3.897127964424711 1.0119224600111947 10.392022727482543 0 0 0
672 224 1 0.5897 1.205016403059306 1.0605270873615822 19.286778836194557 0 0 0
653 218 1 0.5897 3.6405857783070807 1.154215122886552 18.222739266717 0 0 0
665 222 1 0.5897 2.7002224608281664 4.402528800919199 17.86625471487779 0 0 0
659 220 1 0.5897 0.2677941465545493 4.4296494669064295 18.303576891090955 0 0 0
658 220 2 -1.1794 0.9112497874510169 4.276090432565763 17.611766776457195 0 0 0
666 222 1 0.5897 3.782870970208044 3.352749353001311 17.998915204488213 0 0 0
664 222 2 -1.1794 3.6510267301143817 4.292213446153735 17.871863339947502 0 0 0
884 295 1 0.5897 0.47913416381647445 0.04845946381544822 15.997714292653766 0 1 0
652 218 2 -1.1794 4.3124426781743175 1.5875892651296404 17.696438145208013 0 0 0
670 224 2 -1.1794 2.1586347168420423 1.0582210471188096 19.36949836989244 0 0 0
671 224 1 0.5897 2.3388209363707952 1.6662131332286585 20.086454493834864 0 0 0
681 227 1 0.5897 0.49240044204623024 2.622137756402516 16.731570386729928 0 0 0
654 218 1 0.5897 4.479281182711182 0.9819854353882622 16.97422969424015 0 0 0
679 227 2 -1.1794 0.34524872831485387 1.9039596755341204 16.11616294523448 0 0 0
660 220 1 0.5897 0.717970634203427 4.942163637095455 16.952102166757584 0 0 0
673 225 2 -1.1794 2.324262094123023 5.361536266072337 -0.14354528225137936 0 0 1
140 47 1 0.5897 1.0028773294346711 9.333818431415677 2.460253228501832 0 0 0
111 37 1 0.5897 3.636440574494937 9.304993560403886 -0.01900816253774973 0 0 0
139 47 2 -1.1794 0.9407721403151448 8.752341074950849 1.702491828464196 0 0 0
126 42 1 0.5897 4.1226109943681655 9.638599172054267 3.075770583656705 0 0 0
114 38 1 0.5897 3.0890818264570514 7.710806086870287 4.00714122663902 0 0 0
19 7 2 -1.1794 0.36970327170874845 6.033426800884448 1.79058059393414 0 0 0
15 5 1 0.5897 4.270739138446013 6.463146414150912 1.887876054790354 0 0 0
110 37 1 0.5897 2.214355013844384 9.125807156494584 0.46824593099262346 0 0 0
20 7 1 0.5897 0.6805454031988334 5.394594029654259 2.4320200453367007 0 0 0
112 38 2 -1.1794 3.7970077053826254 7.626447955009683 3.3684773942983406 0 0 0
14 5 1 0.5897 4.021613386766183 5.729272651424096 0.5874348528612688 0 0 0
141 47 1 0.5897 0.855112658365422 7.876356586030067 2.078600869021832 0 0 0
13 5 2 -1.1794 4.684014775038271 5.865473513936683 1.2648426319402297 0 0 0
113 38 1 0.5897 4.577804507779247 7.45927028524446 3.896336333846384 0 0 0
674 225 1 0.5897 1.7282526362564536 5.834984080426828 0.43680667447169197 0 0 1
463 155 2 -1.1794 0.7902604237738988 8.584975139876597 8.904569518721674 0 0 0
433 145 2 -1.1794 2.8063090866299927 9.539665255459006 7.251964318401784 0 0 0
437 146 1 0.5897 4.008230202585378 7.1767118783643316 9.714655861489241 0 0 0
345 115 1 0.5897 0.6596664780378442 6.607994546975658 9.197664081157889 0 0 0
26 9 1 0.5897 1.934260097008718 5.232124786311592 7.53713111231206 0 0 0
339 113 1 0.5897 4.334928005072829 5.530518914275995 7.6173899391991755 0 0 0
435 145 1 0.5897 2.550267977686236 8.949823970073512 6.542942663801644 0 0 0
438 146 1 0.5897 4.217992496255277 8.635730357478005 10.0595442231604 0 0 0
464 155 1 0.5897 1.525625026913324 8.913440667975774 8.387343390492127 0 0 0
344 115 1 0.5897 0.6965375511940292 5.157772905465144 9.63030992932739 0 0 0
343 115 2 -1.1794 0.6440173917864301 5.714899125029388 8.853765033625681 0 0 0
25 9 2 -1.1794 2.509623311305767 4.959387824777789 6.822440340292204 0 0 0
337 113 2 -1.1794 4.63325610856769 5.5770079502418834 8.525704477484908 0 0 0
468 156 1 0.5897 4.614620464850502 9.061430815588412 7.200520049260688 0 0 0
131 44 1 0.5897 2.2656832697016496 6.802573122506828 5.930373317194758 0 0 0
465 155 1 0.5897 0.022711866435616707 8.73480796026976 8.35262812015272 0 0 0
130 44 2 -1.1794 2.0366595318565026 7.563218988264488 5.396400077213477 0 0 0
132 44 1 0.5897 1.0985106930366109 7.467498478596436 5.2322091484407975 0 0 0
533 178 1 0.5897 0.2715289055365776 7.57888422319009 12.220076968751544 1 0 0
668 223 1 0.5897 1.1936129926165702 5.92496437510257 14.940057912977535 0 0 0
454 152 2 -1.1794 2.0395683076537554 7.483606757863759 12.418734214043647 0 0 0
455 152 1 0.5897 2.5887381584023466 7.774766123951 11.690827994008625 0 0 0
456 152 1 0.5897 2.4489647824805054 6.672044535600697 12.718513412615055 0 0 0
759 253 1 0.5897 2.6265912252632555 8.798100564408003 13.625069770105881 0 0 0
792 264 1 0.5897 4.780265718316235 9.020611596644555 14.54636872478757 0 0 0
349 117 2 -1.1794 2.638941610877023 5.325699845402699 14.094245170857826 0 0 0
757 253 2 -1.1794 2.8674804343307008 9.41597724266108 14.315273854481852 0 0 0
351 117 1 0.5897 3.2262197871313716 5.341331552671468 14.84994300816 0 0 0
667 223 2 -1.1794 0.4459373385557719 6.100722077489219 15.51128895419742 0 0 0
436 146 2 -1.1794 4.133848301374576 7.768718858506884 10.456213247381664 0 0 0
760 254 2 -1.1794 4.277332459622569 8.356681666327148 17.322880829481058 0 0 0
780 260 1 0.5897 2.83960921614857 7.599877526424371 18.249591503075045 0 0 0
778 260 2 -1.1794 2.215946276226553 7.380776891748105 18.94187078919726 0 0 0
858 286 1 0.5897 0.15469701442981906 7.939650787081153 18.843084733556218 1 0 0
779 260 1 0.5897 2.3679234022313205 8.03980619147082 19.619166868450115 0 0 0
788 263 1 0.5897 0.5325123908140587 9.46339359025786 16.815139457560306 0 0 0
761 254 1 0.5897 4.0635560121316585 9.281445496751696 17.199425121061225 0 0 0
787 263 2 -1.1794 0.6346086561317118 8.787210134042692 16.145429626739542 0 0 0
109 37 2 -1.1794 2.7245474430379195 9.392248732190543 20.944443595179607 0 0 -1
675 225 1 0.5897 2.209447948185686 5.778503954659202 20.243573044560556 0 0 0
663 221 1 0.5897 4.634964569187224 6.70189083010853 16.127974140825295 0 0 0
669 223 1 0.5897 0.6126835765255808 6.975353895278806 15.8625258856939 0 0 0
662 221 1 0.5897 4.394968271215702 5.267395055878556 16.54780452333153 0 0 0
661 221 2 -1.1794 4.67456829229747 5.801882469034187 15.80462426958991 0 0 0
789 263 1 0.5897 1.4224025362504553 9.042078274188578 15.665185880230169 0 0 0
123 41 1 0.5897 4.485929460722563 11.430497114088267 1.7504166907489633 0 0 0
220 74 2 -1.1794 4.494922440494251 14.402866018953926 3.0139906272353585 0 0 0
120 40 1 0.5897 1.0676143776248779 11.415382800483865 3.1702171376608574 0 0 0
118 40 2 -1.1794 1.3101614826539048 10.652432369314853 3.694841122919568 0 0 0
119 40 1 0.5897 2.258994928959311 10.58125638735616 3.5905317713458365 0 0 0
222 74 1 0.5897 4.486044623024511 13.925797299866307 2.184226202495026 0 0 0
125 42 1 0.5897 4.5862648616390995 10.727475051339956 4.019745318643637 0 0 0
127 43 2 -1.1794 0.7561711461359792 12.718445622498324 1.976512480677934 0 0 0
129 43 1 0.5897 0.9067174456494871 13.646895877950788 2.1538695020024132 0 0 0
783 261 1 0.5897 1.5620597522840567 12.40069118131592 0.40880811401976347 0 0 1
124 42 2 -1.1794 4.084621383318239 10.584481921842212 3.2171834480276575 0 0 0
240 80 1 0.5897 2.8011021639172013 14.004197001674369 3.8158297625250928 0 0 0
122 41 1 0.5897 3.6970831006060445 12.139627658879768 0.670306911298742 0 0 0
121 41 2 -1.1794 4.5661840125171675 12.098156603967107 1.0692795340309376 0 0 0
238 80 2 -1.1794 2.106777566029958 14.096477665847456 4.4682081188970395 0 0 0
317 106 1 0.5897 0.34802643022972546 13.873516675049746 4.531537116256088 1 0 0
782 261 1 0.5897 2.278226512397254 11.23177531733652 -0.23345471891600056 0 0 1
781 261 2 -1.1794 2.2254346990604974 12.187371115279852 -0.24743042753261335 0 0 1
133 45 2 -1.1794 2.464787192757918 12.028950332422147 6.4111594820485145 0 0 0
134 45 1 0.5897 1.6903092078808706 12.097135898623923 6.969520077448584 0 0 0
135 45 1 0.5897 3.2032412404795334 12.073354453137792 7.018565860553977 0 0 0
446 149 1 0.5897 4.14439471402407 12.995347641144471 8.856560137132728 0 0 0
453 151 1 0.5897 0.8217424927322855 12.189514707167483 8.901291715848846 0 0 0
450 150 1 0.5897 4.159430872697095 11.108758022132912 9.569827380135994 0 0 0
434 145 1 0.5897 2.6172201528451144 10.415557970205281 6.915516384338614 0 0 0
451 151 2 -1.1794 0.5147411342155237 12.837356070948927 8.267092395788632 0 0 0
572 191 1 0.5897 0.39154686528923455 14.861567279910401 9.144287367120624 0 0 0
445 149 2 -1.1794 4.324349143500153 12.236260545836899 8.302016327241098 0 0 0
448 150 2 -1.1794 3.9222406859737027 10.581683870763055 10.332761264263656 0 0 0
544 182 2 -1.1794 4.210664185666246 14.375690392959973 10.04868824181213 0 0 0
443 148 1 0.5897 0.8623946614310898 10.094096638214298 9.771995916637193 0 0 0
442 148 2 -1.1794 1.0784167284620398 10.944619025451113 10.1542268479395 0 0 0
545 182 1 0.5897 3.313383371390682 14.211066567280174 10.338553504061817 0 0 0
188 63 1 0.5897 0.06474302125006054 10.873022779009045 5.068219917044409 1 0 0
239 80 1 0.5897 2.256956871806682 13.377426252740747 5.081870572482234 0 0 0
563 188 1 0.5897 1.9050500969770823 13.299757728966819 12.100997034338857 0 0 0
562 188 2 -1.1794 1.8942622348523035 14.169980279230154 11.702562349628673 0 0 0
546 182 1 0.5897 4.754658000360983 14.114375561485828 10.791645212023889 0 0 0
449 150 1 0.5897 4.5032965800384375 10.890575782601589 11.027855475430217 0 0 0
457 153 2 -1.1794 2.124720072495571 11.958689268076592 13.590812046265428 0 0 0
458 153 1 0.5897 1.2485061536374942 11.987346036584523 13.975085642498337 0 0 0
459 153 1 0.5897 2.6998832139387736 12.291778184212722 14.279582263440995 0 0 0
758 253 1 0.5897 2.5283231091911396 10.258236419183246 14.012403752971167 0 0 0
564 188 1 0.5897 2.0343761592768623 14.770737442500266 12.434435638046368 0 0 0
642 214 1 0.5897 0.18249718509135648 14.360081205065141 11.831008547626835 1 0 0
512 171 1 0.5897 0.11964105956016624 11.283802820893285 11.726120832365973 1 0 0
770 257 1 0.5897 4.91713864093119 12.50841534648589 14.940105318827655 0 0 0
769 257 2 -1.1794 4.040339299617421 12.596543217940766 15.313856716292948 0 0 0
444 148 1 0.5897 1.9995576618723785 10.868854429640365 10.40322924013276 0 0 0
766 256 2 -1.1794 0.7554101530787705 10.904873742868874 17.84515301419364 0 0 0
767 256 1 0.5897 0.14903914939755541 11.158192993647985 18.541109294924638 0 0 0
768 256 1 0.5897 0.5096662638740996 11.45438015489999 17.100956994702905 0 0 0
886 296 2 -1.1794 1.8929767786706566 14.405281400394891 18.9709041127713 0 0 0
869 290 1 0.5897 3.292137419513334 14.655873419124434 17.75212685214167 0 0 0
870 290 1 0.5897 4.743000707880934 14.279150246198352 17.96409433988967 0 0 0
774 258 1 0.5897 3.652409766804378 11.590029664057003 17.02269042688392 0 0 0
888 296 1 0.5897 2.2482270001536366 13.645042208288546 19.431319389509085 0 0 0
965 322 1 0.5897 0.1285484304220654 14.58934752546505 18.850597318967743 1 0 0
773 258 1 0.5897 2.5813744917050183 10.891929726229483 17.833447449699257 0 0 0
772 258 2 -1.1794 3.5240954868379766 11.055552280686644 17.806294796839545 0 0 0
868 290 2 -1.1794 4.135247934858 14.607528399364984 17.301521977002317 0 0 0
765 255 1 0.5897 4.843798897004173 10.942655114180296 18.9199767983674 0 0 0
771 257 1 0.5897 4.104021543061266 13.350519589989094 15.900057104626365 0 0 0
777 259 1 0.5897 0.5817170654912343 13.355245960464115 16.053022805529018 0 0 0
775 259 2 -1.1794 0.24418041026665133 12.50032770175354 15.785924025028164 0 0 0
227 76 1 0.5897 1.1352763842561595 18.241740069192282 2.9610383534190183 0 0 0
234 78 1 0.5897 3.039971109139965 17.239432754346844 3.4007861908798103 0 0 0
230 77 1 0.5897 4.20970337022668 19.29437118957673 0.7032713807687588 0 0 0
228 76 1 0.5897 0.6388839566191439 17.657138890269195 4.266263780441 0 0 0
226 76 2 -1.1794 1.2916917092957567 17.52720254390338 3.578390560058195 0 0 0
248 83 1 0.5897 0.9963728003942582 16.033686178910422 2.4883401095235227 0 0 0
232 78 2 -1.1794 3.9799115923525257 17.148218635430794 3.2444675007525605 0 0 0
890 297 1 0.5897 1.8055773008513194 19.288903284490615 0.3957697729506683 0 0 1
249 83 1 0.5897 1.4121011343001524 15.587292155292648 1.1028290226828414 0 0 0
221 74 1 0.5897 4.399004881744186 15.321685014796323 2.763549814588851 0 0 0
235 79 2 -1.1794 0.6186954127964839 19.401716618457797 1.798448275685753 0 0 0
233 78 1 0.5897 4.16504133539726 17.75939198974907 2.5314846939112186 0 0 0
229 77 2 -1.1794 4.612790474386126 19.281017934487586 1.5713396357952858 0 0 0
247 83 2 -1.1794 0.8216991049139356 15.367634027776054 1.8234989591014106 0 0 0
219 73 1 0.5897 3.3824140214932688 16.249000307094306 0.17638609627406276 0 0 0
889 297 2 -1.1794 2.512260734796786 19.06428665104101 -0.20951540758435247 0 0 1
224 75 1 0.5897 4.745707664561984 18.041123082645534 4.600058497755983 0 0 0
217 73 2 -1.1794 2.46734308988039 16.444301815377976 -0.025410019748491663 0 0 0
218 73 1 0.5897 2.4480236815858234 17.391876933887325 -0.15904881256061287 0 0 0
241 81 2 -1.1794 2.586667422474839 19.094647516056014 6.489668592796075 0 0 0
553 185 2 -1.1794 4.583439819204184 18.979937677383155 8.669510347920264 0 0 0
243 81 1 0.5897 1.9699604648950553 19.353756852757876 7.1743219301372845 0 0 0
543 181 1 0.5897 1.9998096066712612 15.424673479190183 5.8102070922723446 0 0 0
541 181 2 -1.1794 2.2168347708765186 16.17421713392259 6.364511257822045 0 0 0
555 185 1 0.5897 4.155147606625045 19.308532907853937 7.879070618600693 0 0 0
542 181 1 0.5897 1.7394541144285578 16.0165433226313 7.179040923765188 0 0 0
559 187 2 -1.1794 0.8873154803920446 19.606917640701745 8.474645986328268 0 0 0
242 81 1 0.5897 2.493932847850629 18.143836954338155 6.43049465821613 0 0 0
573 191 1 0.5897 0.6219960507981289 16.332861491136335 9.416029470028462 0 0 0
558 186 1 0.5897 4.135953920744677 17.52799923468025 10.094155584151425 0 0 0
571 191 2 -1.1794 0.43019835513734694 15.71427721726666 8.711235116373764 0 0 0
576 192 1 0.5897 4.0143203532456155 15.78337939986681 6.882333827005424 0 0 0
551 184 1 0.5897 1.036757232664117 18.422543675872397 9.673736674195133 0 0 0
560 187 1 0.5897 -0.046895365083936595 19.408264500513056 8.538121162144407 0 0 0
556 186 2 -1.1794 3.685084773639535 16.93099898164509 10.691213835203955 0 0 0
567 189 1 0.5897 2.4218102050932524 19.61012878462791 13.265347362186429 0 0 0
885 295 1 0.5897 1.2360626685324663 19.242814101520977 15.136793729046701 0 0 0
565 189 2 -1.1794 2.63183823174676 19.045566024541138 14.009202735241702 0 0 0
566 189 1 0.5897 2.522738335364001 18.155877650234288 13.673505917529758 0 0 0
866 289 1 0.5897 3.5928002098267555 15.847180450875163 13.995747888226912 0 0 0
865 289 2 -1.1794 2.657683303231827 15.98570456541359 13.845406986107195 0 0 0
867 289 1 0.5897 2.2386728338438853 15.6943241542688 14.655163442479735 0 0 0
879 293 1 0.5897 4.1617069666915265 19.262252636221866 15.216751442556047 0 0 0
552 184 1 0.5897 1.9246681546708402 17.582965191692963 10.5673468096401 0 0 0
550 184 2 -1.1794 1.0069953008665165 17.792971302808546 10.394101899889295 0 0 0
896 299 1 0.5897 0.13998454311980013 15.556314795721812 15.49462703963837 0 0 0
557 186 1 0.5897 3.914733833847578 16.057100312851112 10.375468510040712 0 0 0
897 299 1 0.5897 0.8964868654959832 15.861901575407673 16.76983762467095 0 0 0
876 292 1 0.5897 0.8738119592913096 18.122239511983253 17.31292712668622 0 0 0
874 292 2 -1.1794 0.9569341643907248 17.404229967354325 17.940355016475436 0 0 0
882 294 1 0.5897 4.079063676209656 16.57482320221824 17.698832892608557 0 0 0
880 294 2 -1.1794 3.8836170350529318 17.471026016727038 17.972271320008964 0 0 0
881 294 1 0.5897 2.962643777853154 17.447239505049758 18.23204732569728 0 0 0
875 292 1 0.5897 0.2547508749727796 17.55577867692937 18.572959260674608 0 0 0
891 297 1 0.5897 2.3491098434152398 19.606983654757585 20.26009468108 0 0 0
878 293 1 0.5897 4.144872731784083 18.784442957864435 16.653141199679574 0 0 0
887 296 1 0.5897 1.935640919704349 15.115259202314958 19.611430801058418 0 0 0
883 295 2 -1.1794 0.607781594045261 19.293582285280785 15.857129837917237 0 0 0
877 293 2 -1.1794 4.501248777221069 19.469349555235567 16.087397824530612 0 0 0
895 299 2 -1.1794 0.8810822600346556 15.262039285674435 16.02413633786587 0 0 0
68 23 1 0.5897 8.385724797787404 1.9509457679044329 1.3960019863995587 0 0 0
69 23 1 0.5897 6.88844602037948 2.1582758533462 1.480239485376378 0 0 0
67 23 2 -1.1794 7.639202636982089 1.8472820771761815 1.9860756414579588 0 0 0
48 16 1 0.5897 7.180820449543693 3.8585204112392395 4.38514212004114 0 0 0
47 16 1 0.5897 7.8768870817350845 3.0498070237705126 3.311251550762682 0 0 0
34 12 2 -1.1794 5.6152097021994445 2.6102420045868824 0.2505936055754465 0 0 0
59 20 1 0.5897 9.669587519147505 0.5836114442087655 3.888729832990263 0 0 0
46 16 2 -1.1794 7.9360715550619005 3.872276603126248 3.7972356521921586 0 0 0
28 10 2 -1.1794 6.191354270351656 0.6532585495614344 4.998469637683712 0 0 0
53 18 1 0.5897 9.834859417313476 4.133920523618612 3.7292291055165667 0 0 0
37 13 2 -1.1794 9.369477312073606 2.427134551923761 -0.07995898993967121 0 0 0
273 91 1 0.5897 7.516438269891667 0.1578997400946059 1.4663127725367489 0 1 0
36 12 1 0.5897 5.694490732598462 3.4709901763078963 -0.16046055981011625 0 0 0
58 20 2 -1.1794 8.98251762226109 0.5904848008762508 4.555147361653616 0 0 0
29 10 1 0.5897 7.081352014191846 0.61032246511304 4.648916939916891 0 0 0
710 237 1 0.5897 9.42909794025272 4.336306536411765 -0.19997743171746102 0 0 1
60 20 1 0.5897 9.07160359886141 1.4421005689358448 4.982898429130952 0 0 0
9 3 1 0.5897 5.041496901279752 4.37835063497173 4.862715577074146 0 0 0
391 131 2 -1.1794 7.892337303563904 2.1257683779581993 8.792529218874686 0 0 0
360 120 1 0.5897 6.17311802095968 2.3639126258590033 7.5868776815337045 0 0 0
8 3 1 0.5897 5.380820356299186 3.768580271974384 6.206150562273636 0 0 0
392 131 1 0.5897 8.343889913586732 2.3812594122643143 7.98814645856376 0 0 0
361 121 2 -1.1794 9.132841141703448 2.5891463059824718 6.460111406577309 0 0 0
359 120 1 0.5897 5.691275124994451 1.5177622463823912 6.427735723685174 0 0 0
393 131 1 0.5897 8.022866709701155 1.1793440596616231 8.850745693038569 0 0 0
7 3 2 -1.1794 5.6622821611046925 4.443362541753004 5.588398946734385 0 0 0
362 121 1 0.5897 8.976115285243967 3.5237643440269926 6.325769814412617 0 0 0
358 120 2 -1.1794 5.394129313358818 2.164689969207337 7.067551306919067 0 0 0
371 124 1 0.5897 7.662501947036782 3.5012586654899254 10.090044279540727 0 0 0
377 126 1 0.5897 9.665741912618277 3.6464803301909403 10.223732316219861 0 0 0
382 128 2 -1.1794 8.304383848101427 1.2235327432112868 12.05059768570545 0 0 0
686 229 1 0.5897 8.910265751110838 2.39025252076438 14.801621028096514 0 0 0
353 118 1 0.5897 6.477028924164042 0.9992118387263949 12.47984972249055 0 0 0
372 124 1 0.5897 7.355700626360797 4.231117724712418 11.38035909973071 0 0 0
384 128 1 0.5897 8.985851733280466 1.1461753121913953 11.382884014217156 0 0 0
332 111 1 0.5897 5.157041770365285 4.082892125536856 11.983761184442903 0 0 0
684 228 1 0.5897 5.67787657456437 3.2993391476480083 14.07697810512487 0 0 0
682 228 2 -1.1794 5.458416368395418 2.5936480351624014 14.685242865406753 0 0 0
354 118 1 0.5897 5.3480666147244795 1.075144113296407 13.485610384536317 0 0 0
383 128 1 0.5897 8.590980782806593 1.950902435738504 12.602833204523423 0 0 0
352 118 2 -1.1794 5.662823079338636 0.5671382889617665 12.737916766217909 0 0 0
685 229 2 -1.1794 9.331375522217167 2.848602808725283 14.0744665340651 0 0 0
370 124 2 -1.1794 7.964542376520855 4.222702067414193 10.641820360869572 0 0 0
386 129 1 0.5897 9.31320114159588 4.6517039231700705 13.997610835098634 0 0 0
331 111 2 -1.1794 5.841132480807973 4.339553955254041 12.602058024112388 0 0 0
677 226 1 0.5897 5.4985947808131606 0.7639289616368921 18.841136142174733 0 0 0
708 236 1 0.5897 7.818325393914018 0.6774873931398083 19.05420672989019 0 0 0
715 239 2 -1.1794 7.741137819886786 1.8665454291239072 16.13964416626819 0 0 0
694 232 2 -1.1794 8.091538620849473 3.8030162691594582 18.183264007132593 0 0 0
676 226 2 -1.1794 6.062107419998318 0.5779767888713733 19.592193407871314 0 0 0
655 219 2 -1.1794 5.897129650771554 4.754095944829503 19.735746505818604 0 0 0
657 219 1 0.5897 6.595013053699134 4.300653284577913 19.26293103895562 0 0 0
706 236 2 -1.1794 8.768963969710281 0.6625027454308081 18.943353862187173 0 0 0
35 12 1 0.5897 5.869830878520034 1.9926169434314565 20.806103296020808 0 0 -1
695 232 1 0.5897 8.063207973007572 2.9996700409865076 17.663694746010385 0 0 0
38 13 1 0.5897 9.18228894551666 1.9948775759640163 20.327792268686743 0 0 -1
702 234 1 0.5897 9.871829270313713 3.8568891745575846 17.66455300550495 0 0 0
716 239 1 0.5897 7.5373443733081125 0.9523766719954576 16.33690417442638 0 0 0
696 232 1 0.5897 7.676581531514345 4.462849824361942 17.627735057928028 0 0 0
656 219 1 0.5897 5.125785985842168 4.655600424892568 19.17758018284281 0 0 0
717 239 1 0.5897 6.969763093454061 2.1892102254827006 15.673725124706136 0 0 0
707 236 1 0.5897 9.06849422840422 -0.02917666847604039 19.533292894061276 0 0 0
55 19 2 -1.1794 7.480895012766116 5.8535735154197965 1.719175890777285 0 0 0
711 237 1 0.5897 8.781826682132738 5.568208261889813 0.39593284183629507 0 0 1
177 59 1 0.5897 8.37344116290494 8.920907503450472 1.4961072038162326 0 0 0
175 59 2 -1.1794 7.679161959628341 8.597202345940099 2.070018352272315 0 0 0
143 48 1 0.5897 6.012040789679968 8.589142515618466 0.8225486094624317 0 0 0
176 59 1 0.5897 7.870850384186968 7.665512972694915 2.1765992730692285 0 0 0
142 48 2 -1.1794 5.432576466326301 9.078298481420594 0.23847324973195938 0 0 0
56 19 1 0.5897 6.558786321656776 5.80775532243765 1.4665274918142943 0 0 0
57 19 1 0.5897 7.550178001686104 5.2770992561590795 2.4801303215179766 0 0 0
709 237 2 -1.1794 9.439915533525776 5.292460636643032 -0.24207661968676442 0 0 1
145 49 2 -1.1794 9.392334467672784 9.311592736004172 0.032562718150055625 0 0 0
138 46 1 0.5897 7.016077733156807 7.240560561745956 4.827667271580178 0 0 0
501 167 1 0.5897 6.819676943499855 8.917966788590286 8.638571020615199 0 0 0
471 157 1 0.5897 8.611318539929291 9.255695506960942 7.775892377369917 0 0 0
380 127 1 0.5897 7.639969026979738 6.858330271868148 8.79434245287847 0 0 0
466 156 2 -1.1794 5.570036641926124 9.03608937118996 7.147758396276508 0 0 0
499 167 2 -1.1794 7.637420996102951 8.720146114540826 9.095062265027767 0 0 0
62 21 1 0.5897 8.432366299908704 5.603812648166126 7.333552243423177 0 0 0
379 127 2 -1.1794 7.315949179332262 5.970253927201676 8.644401760626767 0 0 0
381 127 1 0.5897 7.462378657440644 5.5179433826456155 9.475146892105283 0 0 0
467 156 1 0.5897 5.756909586687453 8.349362198419787 6.507719360072481 0 0 0
469 157 2 -1.1794 9.148702417973157 9.393081565172313 6.995820526881868 0 0 0
500 167 1 0.5897 7.7383772566895335 9.432592602086336 9.72621417170821 0 0 0
338 113 1 0.5897 5.574145225837667 5.740752437679744 8.461206248449923 0 0 0
168 56 1 0.5897 9.155830595923115 8.178041958043377 5.702770885305543 0 0 0
61 21 2 -1.1794 9.160356103006727 5.352966280406655 6.7649330639753655 0 0 0
137 46 1 0.5897 5.982144224452034 6.230263046685919 5.277153375266386 0 0 0
167 56 1 0.5897 9.275916990772274 6.671753068002823 5.611411682798947 0 0 0
136 46 2 -1.1794 6.095037933829372 7.159016246271721 5.075167240433962 0 0 0
63 21 1 0.5897 9.911912543210327 5.283750825236353 7.353655546271489 0 0 0
166 56 2 -1.1794 9.158440454894567 7.455631265109934 5.074861074566995 0 0 0
790 264 2 -1.1794 5.667595705390309 9.033430797280257 14.1875922169727 0 0 0
460 154 2 -1.1794 6.31916266163073 7.247507961038898 12.199580993184423 0 0 0
462 154 1 0.5897 5.967655907801657 7.843015781635805 12.861369956624802 0 0 0
387 129 1 0.5897 9.321141376989187 6.026644553289171 13.364246171841389 0 0 0
794 265 1 0.5897 9.587456060250316 8.728596187766296 13.331157728323898 0 0 0
793 265 2 -1.1794 9.413028451091861 9.26825598281115 14.102194382533488 0 0 0
490 164 2 -1.1794 9.160622521035938 7.222851683922622 12.111909564831535 0 0 0
385 129 2 -1.1794 9.286935994236973 5.5841000751524 14.212280376443902 0 0 0
492 164 1 0.5897 8.21525617666563 7.1115963528021755 12.011162536350886 0 0 0
491 164 1 0.5897 9.480507963941308 7.374780588149285 11.222643695662327 0 0 0
791 264 1 0.5897 6.20864186854889 8.638411352378988 14.871280542073578 0 0 0
333 111 1 0.5897 5.862069824612986 5.295252971721742 12.553666751812248 0 0 0
461 154 1 0.5897 5.74088511660014 7.358988534023527 11.445032477821035 0 0 0
705 235 1 0.5897 7.906349705867174 5.824926583081008 15.416950565128634 0 0 0
825 275 1 0.5897 8.173124809660518 8.573336559154948 15.471003776524942 0 0 0
815 272 1 0.5897 9.242642389229102 6.64900143393759 19.575837585895137 0 0 0
785 262 1 0.5897 6.2846267738144235 6.563660536737225 19.67272665676044 0 0 0
816 272 1 0.5897 9.365200803969037 8.13596272691655 19.831793667603918 0 0 0
784 262 2 -1.1794 6.302248233726951 7.479272848437092 19.394360549014344 0 0 0
703 235 2 -1.1794 7.471497611182633 5.858806105099729 16.268984946048057 0 0 0
786 262 1 0.5897 7.20250260897153 7.624314103823409 19.103254900768377 0 0 0
814 272 2 -1.1794 9.153169226444895 7.500585699683016 19.148105652819936 0 0 0
824 275 1 0.5897 7.526189615040772 7.677292960782167 16.505553602957143 0 0 0
823 275 2 -1.1794 7.444982113333319 8.53626496926932 16.09121260421155 0 0 0
704 235 1 0.5897 6.537116174311936 5.8658601064962275 16.061430676068923 0 0 0
144 48 1 0.5897 5.703863745312355 8.818143616775078 20.599171093661866 0 0 -1
762 254 1 0.5897 5.019014351367223 8.360488657618165 17.927950521808235 0 0 0
164 55 1 0.5897 6.344406767134848 12.61605870936748 1.3390740042513973 0 0 0
154 52 2 -1.1794 8.154977788277336 11.10388695936807 3.5723891339968716 0 0 0
819 273 1 0.5897 8.394585776932603 12.279077924150775 0.3053941033561368 0 0 1
165 55 1 0.5897 7.511247785801394 12.365820189317745 2.270592560609885 0 0 0
246 82 1 0.5897 5.597979266228795 14.034525043058604 4.399696907349178 0 0 0
163 55 2 -1.1794 7.237638039038649 12.903790142036467 1.527686673076333 0 0 0
156 52 1 0.5897 9.108443432155303 11.058232280788742 3.6433838726459484 0 0 0
285 95 1 0.5897 7.600892433273599 14.804871948091805 1.9328886823919542 0 0 0
155 52 1 0.5897 7.896822162157844 10.240821106117888 3.2489446486910474 0 0 0
116 39 1 0.5897 6.63532966496368 11.017490843893578 4.902374507852606 0 0 0
275 92 1 0.5897 7.906388104715025 14.05419373287853 4.730057267342253 0 0 0