LAMMPS data file via write_data, version 30 Jul 2021, timestep = 2250000

864 atoms
2 atom types
576 bonds
1 bond types
288 angles
1 angle types

0.5167511314240585 17.69082126857773 xlo xhi
1.7001958456161432 21.928981954388238 ylo yhi
0.6304351733475624 21.58276062664845 zlo zhi

Masses

1 1.00794
2 15.9994

Pair Coeffs # lj/cut/tip4p/long/omp

1 0 0
2 0.21084 3.1668

Bond Coeffs # harmonic/omp

1 450 0.9572

Angle Coeffs # harmonic/omp

1 55 104.52

Atoms # full

132 1 1 0.5897 1.7713042214563062 1.9878742165986942 4.110338986607673 -4 1 1
753 1 1 0.5897 1.5279026350002167 2.972125881292172 1.6048693815129362 2 2 1
130 1 2 -1.1794 1.0814850766417976 2.0843284687224437 4.766872116898438 -4 1 1
463 1 2 -1.1794 4.089323778450903 4.576264289602381 2.6829496207040164 7 4 -1
464 1 1 0.5897 3.626832866222966 5.293116547244214 3.117019995454667 7 4 -1
740 1 1 0.5897 3.1880386642955427 2.906206132127279 2.678304111476855 -1 -1 3
485 1 1 0.5897 1.7606463451472516 5.2083289133737605 5.3922743531390935 0 2 0
751 1 2 -1.1794 0.8732023107556572 3.3664048639141457 1.02858937403965 2 2 1
131 1 1 0.5897 1.013296360347832 3.0288311840239768 4.906335043935511 -4 1 1
739 1 2 -1.1794 2.6504440577743567 2.114401952410385 2.6933199704068067 -1 -1 3
484 1 2 -1.1794 0.8605158360656928 4.8899700248430396 5.324438987955231 0 2 0
465 1 1 0.5897 4.653380092756311 4.2079897001331155 3.362955820634105 7 4 -1
506 1 1 0.5897 2.4440413515120722 2.7770159770897536 8.529340090937055 4 2 -4
552 1 1 0.5897 4.213272724028672 4.838745019191332 6.729323117848257 -1 6 -4
215 1 1 0.5897 1.0234533919331228 6.679638356596213 10.31966740849549 0 1 2
505 1 2 -1.1794 2.9383993709807363 3.3564792898013582 9.109012229279292 4 2 -4
551 1 1 0.5897 3.348325568007609 4.45757387421124 7.911845962411834 -1 6 -4
435 1 1 0.5897 4.333859338054069 2.2603077332736983 9.49477663037989 0 3 -1
507 1 1 0.5897 2.5904768087953327 3.176109969587126 9.982291148570738 4 2 -4
550 1 2 -1.1794 3.501761687872507 5.161865696898667 7.282070876082199 -1 6 -4
38 1 1 0.5897 1.705000943589992 1.7311049126889912 6.352452219468105 0 3 -2
616 1 2 -1.1794 1.758942023128315 5.586035676645306 15.77070778276272 -1 3 0
95 1 1 0.5897 4.3958281522791065 5.342454981070067 14.166104547054765 -3 0 -1
670 1 2 -1.1794 4.3482687606453485 4.716008879757611 11.572271953637827 5 2 2
29 1 1 0.5897 2.544420873678256 5.348457228208931 11.412312931025054 -6 2 5
617 1 1 0.5897 1.599060489700212 4.876719882497859 15.148214643895681 -1 3 0
735 1 1 0.5897 2.2790028605299906 2.986021487678655 15.061350754778985 1 0 -3
733 1 2 -1.1794 1.4482098624452764 3.16700338064506 14.621756335018366 1 0 -3
671 1 1 0.5897 4.49180754124161 3.847482456267501 11.948101108452644 5 2 2
30 1 1 0.5897 1.114727309465517 5.005192654619668 11.77289668068068 -6 2 5
28 1 2 -1.1794 1.7151949064790035 5.744769587195519 11.679759105443928 -6 2 5
513 1 1 0.5897 0.9765749665107989 2.6614528127592796 11.657559065313572 -1 2 -5
482 1 1 0.5897 3.7802513695956064 1.783223545058712 15.911895538100636 1 3 0
734 1 1 0.5897 0.7797081143246931 2.902866657319419 15.253843031686653 1 0 -3
618 1 1 0.5897 0.9001062058870868 5.769194961331837 16.151571703569168 -1 3 0
481 1 2 -1.1794 3.8282468729467443 2.737970866528838 15.960285971586677 1 3 0
483 1 1 0.5897 4.531658650725196 2.973852851068875 15.355509411650575 1 3 0
511 1 2 -1.1794 1.7057638502675705 2.1208009141880275 11.353936759341941 -1 2 -5
479 1 1 0.5897 4.289956634514969 6.641962138593576 11.672866121325198 -3 3 -4
591 1 1 0.5897 2.953844129098782 2.5170078342065394 12.819278290609805 2 5 2
589 1 2 -1.1794 3.8257213550298625 2.340316923961402 13.172578439239802 2 5 2
567 1 1 0.5897 3.030739023536226 2.5219923906787165 18.31562495726498 0 6 -7
682 1 2 -1.1794 1.7156226998863129 4.9683176687528565 19.8813135373111 3 2 -6
566 1 1 0.5897 4.136541952630735 3.508046482788541 18.0045278151876 0 6 -7
684 1 1 0.5897 2.4519239537419875 4.432343635515952 19.58672057911125 3 2 -6
683 1 1 0.5897 1.6024346051274412 4.734923431119174 20.80273779512146 3 2 -6
565 1 2 -1.1794 3.5577495889599415 3.2172939990726106 18.70932659415252 0 6 -7
379 1 2 -1.1794 4.294964696627581 5.666682356192029 17.257176443435526 7 4 0
686 1 1 0.5897 4.319503611961354 3.980678454242412 20.25855319520295 8 -7 -3
380 1 1 0.5897 3.3401576036006944 5.678123131737253 17.1908240696253 7 4 0
381 1 1 0.5897 4.595344185264244 5.488659447443229 16.36596071889035 7 4 0
752 1 1 0.5897 0.602244949183597 2.6535727625183334 21.402436382563643 2 2 0
687 1 1 0.5897 4.628068316744329 4.66443900853721 21.573479728958496 8 -7 -3
675 1 1 0.5897 4.383300988949756 11.549430533807113 4.744649582912347 -3 -1 -2
520 1 2 -1.1794 3.1297668211631735 8.945954113869144 2.8016754360634106 -4 -1 -1
774 1 1 0.5897 0.9618384331286954 8.364043506919502 4.930134169324415 0 -3 4
724 1 2 -1.1794 1.4355223595745987 10.724929205030437 1.459895802046924 2 -5 4
521 1 1 0.5897 3.13968451492348 8.337393506064734 2.0629230522186406 -4 -1 -1
673 1 2 -1.1794 3.501352340862195 11.391595616048004 5.0814558817025 -3 -1 -2
772 1 2 -1.1794 1.1362736316628343 9.07167207147728 5.550631764409988 0 -3 4
674 1 1 0.5897 3.040702576007865 10.966561204835614 4.358039487226744 -3 -1 -2
726 1 1 0.5897 2.1030360951910123 10.253426236149545 1.9581977215956703 2 -5 4
522 1 1 0.5897 4.053795505824953 9.098007817393148 2.9997574469631982 -4 -1 -1
443 1 1 0.5897 3.7443956241608034 6.8584599121241885 4.971134835602262 7 4 0
444 1 1 0.5897 2.9909939713998344 7.630335674767126 3.9088770054577258 7 4 0
725 1 1 0.5897 1.150016690746958 11.426480137410566 2.0451583289332795 2 -5 4
442 1 2 -1.1794 2.938703563923481 6.845653781600622 4.454518265112105 7 4 0
264 1 1 0.5897 0.7156859831593203 11.175024355515355 5.825903547051527 5 -3 5
304 1 2 -1.1794 4.537926272738623 7.466184072376516 0.6694021029212394 4 -3 -5
33 1 1 0.5897 2.8423379718986124 7.024332316125028 7.311757107964518 4 7 0
91 1 2 -1.1794 1.7264411157135289 11.507572008708303 9.330725006222545 2 -5 1
230 1 1 0.5897 3.5474171407325454 10.554780968985504 6.702635333000485 3 4 2
773 1 1 0.5897 1.6161588802702418 8.651936634626914 6.26459215076139 0 -3 4
229 1 2 -1.1794 3.711952523758549 10.313041513717925 7.614050164559166 3 4 2
392 1 1 0.5897 4.079435531738873 10.70532028351815 10.963823149681934 4 -4 0
231 1 1 0.5897 3.473389238695083 9.38739605270828 7.663625757956633 3 4 2
32 1 1 0.5897 1.8704719655899116 7.6771979492951665 8.271482421720101 4 7 0
93 1 1 0.5897 2.1374588836854578 11.107851234738693 8.56425201903586 2 -5 1
31 1 2 -1.1794 2.46972910286809 7.872879262757264 7.551212514016061 4 7 0
92 1 1 0.5897 2.2730490551121787 11.232756492116849 10.066854995079286 2 -5 1
214 1 2 -1.1794 0.7258456062086265 7.120919259715989 9.52411955569955 0 1 2
827 1 1 0.5897 3.9518288421930463 10.407061589784997 15.851075978814793 1 1 2
273 1 1 0.5897 2.1882070972575436 10.035708795732228 12.469251544296487 -3 3 2
437 1 1 0.5897 3.552029720724129 7.968809938499386 14.790726033623468 -1 4 0
438 1 1 0.5897 2.355984140173262 7.044488303760983 14.707794896197587 -1 4 0
272 1 1 0.5897 1.5105220011719278 9.039245364802138 13.385545462249585 -3 3 2
436 1 2 -1.1794 2.74987068656413 7.811760286101988 14.292669642745237 -1 4 0
480 1 1 0.5897 3.7020431121445188 7.6778359259624 12.607273125551117 -3 3 -4
271 1 2 -1.1794 1.3299606566252402 9.677102331182182 12.695095740597848 -3 3 2
155 1 1 0.5897 3.999278784627606 11.263049922602367 13.458743705913617 4 3 -5
154 1 2 -1.1794 4.4716706243534565 11.007872996878637 14.25115444817036 4 3 -5
478 1 2 -1.1794 4.228845711653179 7.5868067644385 11.81330610131271 -3 3 -4
391 1 2 -1.1794 3.4263096178519525 11.068979906173228 11.561622720207758 4 -4 0
323 1 1 0.5897 0.9959944940354168 11.424357120995795 15.829629716992232 7 0 -3
609 1 1 0.5897 1.9171955373777274 8.618162907059636 17.748234104229127 5 2 2
828 1 1 0.5897 4.3274043450805575 9.25259610688396 16.755472392924958 1 1 2
607 1 2 -1.1794 1.0160029896955516 8.295623872647935 17.75235736238659 5 2 2
289 1 2 -1.1794 2.469188799870432 10.443682229724601 19.987519384173403 -7 -5 -7
608 1 1 0.5897 0.7209798806786849 8.396184994130644 16.847346310839107 5 2 2
291 1 1 0.5897 2.0947673090581542 10.571757093713268 20.859068058981165 -7 -5 -7
290 1 1 0.5897 1.720598053519001 10.501602526793858 19.393853315451814 -7 -5 -7
147 1 1 0.5897 1.655215114782552 7.079758959627797 20.686048229882196 1 1 -4
395 1 1 0.5897 4.160068491463578 10.22413265428667 20.638030483692987 4 1 5
145 1 2 -1.1794 1.5698793606534562 7.746091461036929 21.367903961704272 1 1 -4
146 1 1 0.5897 1.2539900268841389 8.522794622125955 20.906242241579093 1 1 -4
325 1 2 -1.1794 3.8399659457733035 7.814835573081187 18.953055760017016 0 0 -3
826 1 2 -1.1794 3.640090819656874 9.900634994776391 16.60110626539863 1 1 2
324 1 1 0.5897 1.9715718530034694 10.713990570551342 16.743663106160383 7 0 -3
326 1 1 0.5897 3.8021043742491663 7.456352366838978 19.839780928486128 0 0 -3
162 1 1 0.5897 3.735971019130273 11.614924913579134 19.58418782245588 2 7 1
322 1 2 -1.1794 1.2170374076881991 11.302883466242038 16.752994945814635 7 0 -3
327 1 1 0.5897 3.9935294150130582 7.053984238433431 18.392927594034887 0 0 -3
306 1 1 0.5897 4.703851905285322 8.389384346948496 21.431007856512487 4 -3 -6
219 1 1 0.5897 1.4878761739071265 13.360710489598963 3.2830707557235588 3 -1 -2
556 1 2 -1.1794 3.25091026266071 13.445135388826118 2.78589195760657 3 1 1
602 1 1 0.5897 4.5508964526510685 12.507183932454213 2.052867130757867 4 3 -2
557 1 1 0.5897 2.851036898569045 13.689580760565999 1.951265759975683 3 1 1
558 1 1 0.5897 3.5467317612033136 14.274115354002756 3.162113087179023 3 1 1
492 1 1 0.5897 2.7188681429148964 13.108147120837662 5.333171884088365 1 4 4
41 1 1 0.5897 1.1878464292469773 16.70518698639443 1.5547308496051877 0 0 5
217 1 2 -1.1794 0.6412018982313219 12.921650763481162 3.2020965035431934 3 -1 -2
183 1 1 0.5897 2.041741117268752 15.676554210860836 5.221679444416948 -2 3 -2
181 1 2 -1.1794 2.3393976973121484 16.26039819736038 4.524014110645467 -2 3 -2
124 1 2 -1.1794 3.9028252509380286 13.651543657440754 8.214226982151509 0 0 1
172 1 2 -1.1794 2.5593508744614892 15.619184644165886 9.505948263853194 3 2 -2
171 1 1 0.5897 0.9424372169708901 13.146142836430881 8.892342901225932 -4 4 -2
126 1 1 0.5897 4.405783553426334 12.97919569272485 8.67383193073839 0 0 1
491 1 1 0.5897 2.865392572383934 13.649825647696844 6.739202534798592 1 4 4
173 1 1 0.5897 2.4529160521667936 15.990695487463823 10.381651918026895 3 2 -2
125 1 1 0.5897 3.487876617436594 14.159396787794359 8.911427259170722 0 0 1
174 1 1 0.5897 1.779457923918206 15.079218309127784 9.377919289509048 3 2 -2
711 1 1 0.5897 4.566710982854919 15.820240612549664 9.338666591683817 -5 -3 -1
490 1 2 -1.1794 2.3319586986020893 13.73085985818055 5.9485823552675665 1 4 4
263 1 1 0.5897 0.9867631037112161 12.645378288247521 6.0635411793472045 5 -3 5
431 1 1 0.5897 4.560751386296854 14.757874573927529 6.570701105222143 -5 -1 -1
177 1 1 0.5897 1.0214878920791821 13.191096656485836 12.879009941588654 -2 -4 6
249 1 1 0.5897 4.551536804273703 14.391815886178279 11.992477493666268 -3 2 -3
247 1 2 -1.1794 4.099852744277436 13.697391807353434 11.512949996089748 -3 2 -3
176 1 1 0.5897 0.5348698712498317 13.59406506660827 11.503293224850765 -2 -4 6
248 1 1 0.5897 3.17149905834087 13.846759472086188 11.69203760598169 -3 2 -3
393 1 1 0.5897 3.4947356032766517 12.016466818663588 11.444251880758408 4 -4 0
175 1 2 -1.1794 1.301632850086427 13.628777553697258 12.075180911642912 -2 -4 6
747 1 1 0.5897 1.3095375702624625 14.839172747060282 15.763087742654662 2 4 -8
615 1 1 0.5897 4.689515616502234 12.713220965610162 15.247839959386273 -6 1 4
570 1 1 0.5897 1.7044273965668022 16.55987080540862 12.492507375715308 1 -1 -1
613 1 2 -1.1794 4.597827403556635 13.632020043437823 15.500061304683287 -6 1 4
568 1 2 -1.1794 2.618340612068619 16.715809829343836 12.254540773871089 1 -1 -1
160 1 2 -1.1794 4.277723189551937 12.394637098049563 19.462693663311597 2 7 1
193 1 2 -1.1794 1.8593351537206828 15.987387420547126 19.29446638493161 3 -4 0
806 1 1 0.5897 3.0226705855235405 13.220031780988245 20.72229303533642 1 -2 -3
807 1 1 0.5897 1.510896983271444 13.271244277382085 20.78317756080284 1 -2 -3
161 1 1 0.5897 3.8115857005915035 12.910605828126112 18.80491083829626 2 7 1
195 1 1 0.5897 2.351518606632821 15.59975654450082 20.018132813813125 3 -4 0
194 1 1 0.5897 2.1086109838246463 15.46863627034558 18.529638867979635 3 -4 0
814 1 2 -1.1794 4.576709655417316 15.555167954190967 20.67231809393389 -2 8 -4
805 1 2 -1.1794 2.297542868495442 13.602776364642798 21.216143489374097 1 -2 -3
82 1 2 -1.1794 2.3835271203478436 13.73495414276453 17.385911385928928 -2 -1 -7
816 1 1 0.5897 4.10075136901357 15.81697957196748 21.4604207610399 -2 8 -4
223 1 2 -1.1794 4.7480124156205195 16.069937386468304 17.91113406609793 2 -1 -7
225 1 1 0.5897 4.655961086619131 16.11439312513179 18.862839784920688 2 -1 -7
83 1 1 0.5897 3.1204590855155385 13.682874726871837 16.777304799018474 -2 -1 -7
84 1 1 0.5897 1.9291213057040268 12.89862132771744 17.28468592774214 -2 -1 -7
385 1 2 -1.1794 3.6518596224276667 19.98178448503439 3.7932622846610244 -5 0 2
102 1 1 0.5897 2.27964883047886 20.07004110990108 1.2099509542299902 6 -5 -1
488 1 1 0.5897 0.7641891125572379 19.056934136142353 5.5698151792404476 2 -6 3
468 1 1 0.5897 3.062777875212328 18.065569586107472 1.6861807913845834 6 -3 6
489 1 1 0.5897 0.7795780276779822 19.000062520794412 4.057060211182506 2 -6 3
741 1 1 0.5897 3.2818816277383824 21.625243678611817 2.7393285979902835 -1 -2 3
487 1 2 -1.1794 1.2474347823635683 18.686762917998504 4.831141497955456 2 -6 3
100 1 2 -1.1794 3.0396454885548927 19.847240506061816 0.6723896402730132 6 -5 -1
387 1 1 0.5897 3.1107649795593626 19.359584353004678 4.279375908675103 -5 0 2
386 1 1 0.5897 4.253891834758718 19.433965383059316 3.2896090558256295 -5 0 2
182 1 1 0.5897 1.8052244692310706 17.04807348729609 4.626039968674494 -1 3 -2
282 1 1 0.5897 4.204043498766396 20.661396309482967 5.586659398868879 -4 -1 3
353 1 1 0.5897 3.4758256811085992 17.25933075588396 5.74105206678386 5 3 0
466 1 2 -1.1794 3.020237116291969 17.10932830261884 1.6851055255528924 6 -3 6
467 1 1 0.5897 2.8808269638384423 16.874271432451426 2.6024517036249457 6 -3 6
352 1 2 -1.1794 3.9767244182589305 17.83976996436009 6.314103017961775 5 3 0
39 1 1 0.5897 2.024408531651144 20.837597372055146 7.316925019148566 0 2 -2
604 1 2 -1.1794 2.509847588939947 19.25159684391543 8.196351125562227 -5 1 0
605 1 1 0.5897 3.009563806584154 19.34420925719464 9.007480006106746 -5 1 0
853 1 2 -1.1794 3.207973112577794 19.519287001135467 10.877489290805054 -3 0 1
606 1 1 0.5897 3.0699905794393088 18.722494022245048 7.628473175542194 -5 1 0
638 1 1 0.5897 1.0717122235180108 18.585502335240612 8.793268409052196 -5 0 2
281 1 1 0.5897 3.5799984259439093 21.473281957455338 6.701641714860979 -4 -1 3
854 1 1 0.5897 3.821725660283375 20.24877850813643 10.963249181688571 -3 0 1
37 1 2 -1.1794 1.914242775783424 21.787270831228955 7.270387429893542 0 2 -2
280 1 2 -1.1794 4.4219488414469055 21.265419730577747 6.296525050266441 -4 -1 3
137 1 1 0.5897 1.4716441916318492 19.869533686093988 11.247218798801342 5 -7 2
580 1 2 -1.1794 3.0825302455858004 20.390471713590014 14.902628877068109 -3 -1 0
587 1 1 0.5897 3.4446383529033624 17.729711077717287 15.222910299561063 -1 2 5
512 1 1 0.5897 1.3502158038268166 21.461351505480177 11.325134742630063 -1 1 -5
582 1 1 0.5897 3.579856317387116 19.64421074344686 14.568034684984934 -3 -1 0
586 1 2 -1.1794 3.9575693344873346 17.638655455920016 14.419918460379037 -1 2 5
581 1 1 0.5897 2.1850405410680955 20.23115523583156 14.610498985393107 -3 -1 0
569 1 1 0.5897 3.049641615226057 16.925316450669577 13.082969807737507 1 -1 -1
136 1 2 -1.1794 0.5581331325021699 19.928870081176083 11.526819903376225 5 -7 2
855 1 1 0.5897 3.6141469306304255 18.804937259987717 11.368359330769085 -3 0 1
590 1 1 0.5897 3.691722430074552 21.8559803787091 13.796837028255268 2 4 2
588 1 1 0.5897 4.596216364350048 16.95417381169402 14.619428689474441 -1 2 5
138 1 1 0.5897 0.56943516318184 19.653944505324684 12.443603654308818 5 -7 2
697 1 2 -1.1794 1.823366467000281 21.068485220849123 18.234446457627676 -3 2 -4
415 1 2 -1.1794 2.854544708728606 17.779257458189356 16.998753410313377 -1 -2 -2
699 1 1 0.5897 2.561914251452957 20.624790511644054 17.81740970228865 -3 2 -4
678 1 1 0.5897 1.6448573031634532 18.009025893858713 19.621072390411506 3 -1 -4
416 1 1 0.5897 3.317532430596143 17.021975401204834 17.357026731012517 -1 -2 -2
676 1 2 -1.1794 1.257707817255493 18.86793728513385 19.790254290416804 3 -1 -4
698 1 1 0.5897 1.4030035761284214 20.389928525034485 18.762693832458126 -3 2 -4
265 1 2 -1.1794 4.446041560769311 19.922903128485164 17.523021198073074 -2 -2 -1
101 1 1 0.5897 2.670433328559017 19.415566691943987 20.854301994706937 6 -5 -2
417 1 1 0.5897 3.2820115813635704 18.534765228256415 17.402089768581263 -1 -2 -2
515 1 1 0.5897 4.309730292545462 21.150355724632078 21.29314890001406 -4 -5 -1
266 1 1 0.5897 4.809174333492134 19.900930150578002 18.40837484798442 -2 -2 -1
584 1 1 0.5897 0.8783176184771444 17.933667165786265 16.89617084811931 2 -5 1
61 1 2 -1.1794 7.753909972729032 4.817891065819219 5.148127775529216 -2 0 4
526 1 2 -1.1794 7.634266132236858 4.227494131764885 1.8383110215738974 -1 -4 1
233 1 1 0.5897 6.5375980120272565 6.0846100682790425 4.890082159997224 -3 1 0
528 1 1 0.5897 7.289728936754246 5.116513295008065 1.9227361329173922 -1 -4 1
238 1 2 -1.1794 5.080707855739352 3.5657714354759906 5.265682279142729 -6 -4 -2
63 1 1 0.5897 8.290899969163448 4.207050475261017 4.643440648052798 -2 0 4
240 1 1 0.5897 6.017898076606941 3.7438225006106083 5.187130036626706 -6 -4 -2
232 1 2 -1.1794 5.85397064828832 6.717135073117978 5.110876137862544 -3 1 0
527 1 1 0.5897 6.925509849166098 3.6648118789973907 2.150198568002698 -1 -4 1
388 1 2 -1.1794 6.542038033444897 1.7434092652772557 2.8341960994904305 3 6 5
239 1 1 0.5897 5.030205361456502 2.6323940655311295 5.4717357844343955 -6 -4 -2
62 1 1 0.5897 8.009187874931303 4.666508564556827 6.058136712816431 -2 0 4
345 1 1 0.5897 5.607993506165565 5.645325428523517 8.956874213541717 -4 1 -2
153 1 1 0.5897 6.267599229325102 2.2991353355488595 10.745198777452941 1 0 0
209 1 1 0.5897 8.832783910533845 4.95058138920194 7.790437756945593 1 -2 2
593 1 1 0.5897 8.688459210491246 2.1464574015593647 10.066150446921085 -2 1 -2
344 1 1 0.5897 6.790114059338035 5.205738720023017 9.794231496323386 -4 1 -2
208 1 2 -1.1794 8.39781921527046 4.119810610039078 7.598573024731485 1 -2 2
210 1 1 0.5897 7.584991539436197 4.15238994912224 8.102988176940377 1 -2 2
343 1 2 -1.1794 6.146187503656026 4.881520905884792 9.164596950200934 -4 1 -2
672 1 1 0.5897 5.011078902221265 4.793074855627958 10.886006504215844 5 2 2
96 1 1 0.5897 5.739894644201974 5.793609025049459 14.696881752201335 -4 0 -1
764 1 1 0.5897 7.592810411902314 2.7858889871516848 15.707994853589724 -5 1 -4
789 1 1 0.5897 6.496838456698626 4.011703274004267 14.001179264713242 3 -1 5
151 1 2 -1.1794 7.092252414652999 2.5778794425085363 11.14323799127074 1 0 0
787 1 2 -1.1794 7.1685531679955865 3.332198097192928 13.944110578356414 3 -1 5
788 1 1 0.5897 7.105922293418403 3.007682350091947 13.04580646571253 3 -1 5
129 1 1 0.5897 7.715484654398087 6.30240145458792 14.42881400316776 0 1 -5
94 1 2 -1.1794 5.187425571582949 5.01853191271641 14.595802736027856 -4 0 -1
738 1 1 0.5897 9.092682595476193 5.580110068175847 16.193657305983518 1 -1 -1
128 1 1 0.5897 7.138151128466051 6.468222062334139 13.039222704504514 0 1 -5
736 1 2 -1.1794 8.136265590455555 5.602795381051733 16.224540093735875 1 -1 -1
207 1 1 0.5897 9.05444972995597 3.5449458899932766 13.860933515079815 -5 4 -4
808 1 2 -1.1794 7.516860346125609 6.12571635399533 11.212665260008718 4 0 -2
810 1 1 0.5897 8.202220210549067 5.4590812182096435 11.258179983825938 4 0 -2
152 1 1 0.5897 7.5034756620552825 1.765172457972291 11.437496972481629 1 0 -1
357 1 1 0.5897 6.018302738385708 5.241095650353847 18.19393355513501 1 -1 4
356 1 1 0.5897 6.323354359520028 4.4427019597337845 19.443458886117305 1 -1 4
765 1 1 0.5897 7.608572809477169 2.7246518225140157 17.220538931936403 -5 1 -4
534 1 1 0.5897 7.735413661023929 6.092554117837167 19.802720805209447 -8 -1 -3
88 1 2 -1.1794 8.474634707051262 2.9763667282395794 20.440935932309742 7 -1 4
89 1 1 0.5897 8.030919050529286 3.5225407064610827 21.08978726359266 7 -1 4
794 1 1 0.5897 7.289383467597002 1.906973070021703 19.734173220619788 -5 3 4
355 1 2 -1.1794 6.743655662444 4.875848955297162 18.70054657142007 1 -1 4
737 1 1 0.5897 7.921401346058124 5.423744841983908 17.139948555429164 1 -1 -1
685 1 2 -1.1794 5.046339398540027 4.236639717507154 20.826335488004013 8 -7 -3
90 1 1 0.5897 8.81155714079447 3.5970573076916104 19.794852587073862 7 -1 4
763 1 2 -1.1794 7.854824879006748 2.2279182346749056 16.440274594649363 -5 1 -4
516 1 1 0.5897 4.8797635630994325 2.316276483355385 21.146040674055456 -4 -4 -1
234 1 1 0.5897 6.14735434756734 7.5364753766877515 4.712388344110598 -3 1 0
188 1 1 0.5897 7.257600877050028 7.146768034995119 0.7492347968997146 -2 3 1
496 1 2 -1.1794 5.899373679812214 9.031721213521436 3.1334082844838274 -2 0 3
189 1 1 0.5897 7.809928143855033 7.172163974020391 2.1585355128005466 -2 3 1
849 1 1 0.5897 8.056575099863792 10.951266485197959 1.9029695656239876 4 -1 5
497 1 1 0.5897 6.276402995219823 8.282375814882275 2.672377541289664 -2 0 3
498 1 1 0.5897 6.32351322808633 9.794038110532249 2.7394894883734646 -2 0 2
848 1 1 0.5897 8.81953002539298 11.148399485179965 3.1955893851894612 4 -1 5
187 1 2 -1.1794 7.06041330696775 6.871678512698387 1.6445849537415276 -2 3 1
305 1 1 0.5897 5.3836512629096855 7.125599520914387 0.9608763725082745 4 -3 -5
847 1 2 -1.1794 8.168184986239584 11.563511631275418 2.630219667585772 4 -1 5
120 1 1 0.5897 8.626364681115353 9.306290974077609 5.343702373891027 3 -3 -2
523 1 2 -1.1794 7.653421155654124 9.719416899901702 0.7592445416516005 1 0 3
118 1 2 -1.1794 7.977394770655782 8.812866555925558 5.845261918224539 3 -3 -2
222 1 1 0.5897 7.286396642046311 8.917820599965133 10.55077163324344 3 -5 3
221 1 1 0.5897 8.554695737168998 8.832259737889242 9.728645266279177 3 -5 3
119 1 1 0.5897 7.358375990609368 9.47472631403095 6.153411741794015 3 -3 -2
783 1 1 0.5897 5.511928772570964 10.45968879884222 7.349132915273095 -3 -2 0
777 1 1 0.5897 5.616139476654608 8.847597093531107 9.406582285534661 4 -3 2
341 1 1 0.5897 5.733641848894713 11.020683409270118 9.674261939872755 2 4 2
220 1 2 -1.1794 8.211521506595016 8.679195554179838 10.60900391808105 3 -5 3
823 1 2 -1.1794 6.067617895667308 7.437384981053714 7.776519394515369 -1 2 3
775 1 2 -1.1794 5.726769125666625 9.293325691874365 10.246390967859918 4 -3 2
781 1 2 -1.1794 6.389545549759874 10.765745170124081 7.12037960662346 -3 -2 0
529 1 2 -1.1794 8.81881593720576 6.942085489662444 7.698476643061908 -4 -1 -5
776 1 1 0.5897 5.277222042307059 8.731294783466044 10.877438991911262 4 -3 2
824 1 1 0.5897 5.765748867237917 7.175293699052439 6.906823371471725 -1 2 3
782 1 1 0.5897 6.270259920469432 11.245886874255842 6.3009789325527095 -3 -2 0
530 1 1 0.5897 8.674643867090106 7.5152084209366885 6.945526445546346 -4 -1 -5
809 1 1 0.5897 7.954503918184551 6.895410099108704 10.84901189997404 4 0 -2
825 1 1 0.5897 7.019702044063485 7.491253532369809 7.693933093411397 -1 2 3
857 1 1 0.5897 8.951024150883867 9.967807527047963 7.675997010533312 -1 0 -2
168 1 1 0.5897 7.466270817713164 9.8210230543824 14.173384955638866 -1 -1 2
541 1 2 -1.1794 5.386808994114716 7.932381627731457 15.744384622306665 -4 0 1
166 1 2 -1.1794 6.88659680003645 9.546174415809555 13.463015962251875 -1 -1 2
156 1 1 0.5897 5.229150377414868 10.517670925508284 13.931606514855481 4 3 -5
632 1 1 0.5897 6.999949656749398 11.155097075995132 12.432816831928346 3 5 5
543 1 1 0.5897 5.978660158071241 7.87539437089053 14.994281093612505 -4 0 1
167 1 1 0.5897 7.126612463209107 8.634669129593215 13.296468732072922 -1 -1 2
142 1 2 -1.1794 7.776802099835714 10.639287612338604 15.927663647687158 1 3 2
127 1 2 -1.1794 7.170807499447612 6.885445025128893 13.900068446576121 0 1 -5
144 1 1 0.5897 8.701608291270212 10.715630868859678 16.162379590384422 1 3 2
143 1 1 0.5897 7.308954542083233 10.755510489388383 16.754581929240317 1 3 2
595 1 2 -1.1794 6.540998887875638 8.278872242429163 18.345408666653157 3 -3 0
394 1 2 -1.1794 5.081393423998671 10.091989352609223 20.86138191791332 4 1 5
525 1 1 0.5897 8.336328543472852 9.601442561735489 21.051334660357888 1 0 2
542 1 1 0.5897 5.959347481795928 7.85903130182635 16.507932269243163 -4 0 1
533 1 1 0.5897 7.699416637902217 7.57134211280172 19.480754031178336 -8 -1 -3
517 1 2 -1.1794 6.63976079669931 10.92697257524988 18.40084928967042 -2 -1 -5
597 1 1 0.5897 6.744222614461121 9.16970285527734 18.630559386886347 3 -3 0
596 1 1 0.5897 5.613466562998859 8.16611412365865 18.553160081862103 4 -3 0
524 1 1 0.5897 6.863407018200826 9.914420198944596 21.207519729647416 1 0 2
518 1 1 0.5897 7.074776427679129 11.613213643390766 18.9068503366559 -2 -1 -5
255 1 1 0.5897 8.614263340804817 8.504416764513522 16.945736871732457 2 6 -7
519 1 1 0.5897 5.732761929955074 11.22322340246462 18.324879457934415 -2 -1 -5
532 1 2 -1.1794 8.14681412619936 6.926690283255814 20.02889322630663 -8 -1 -3
396 1 1 0.5897 5.285405979431881 10.802953675677403 21.468923747258444 4 1 4
279 1 1 0.5897 6.642371021716407 12.472178949198243 4.158185655745195 0 0 1
370 1 2 -1.1794 7.696800903469866 14.308834895140087 3.0593270199283613 4 6 -1
278 1 1 0.5897 5.788450798945963 13.297589617612017 5.097023363116556 0 0 1
756 1 1 0.5897 5.255759841212344 15.670187203061749 4.343312660560031 -4 -3 -3
277 1 2 -1.1794 6.080108611106379 12.401411963780033 4.929640335401389 0 0 1
755 1 1 0.5897 5.984868184621117 15.114728395311175 3.138467764085654 -4 -3 -3
603 1 1 0.5897 5.8750119515254 12.637736819212458 1.3307068513321236 4 3 -1
754 1 2 -1.1794 5.1457471784730915 15.486349220986822 3.4104198534256693 -4 -3 -3
371 1 1 0.5897 8.197882422901483 13.49617670592439 3.128386913425572 4 6 -1
372 1 1 0.5897 8.356845814392798 15.001282163556494 3.091879245217811 4 6 -1
840 1 1 0.5897 7.309094228032117 13.915171465999052 1.1923008944109141 -2 -3 -1
601 1 2 -1.1794 5.292498041071656 11.993477605999354 1.7329506558947303 4 3 -1
786 1 1 0.5897 6.476479113877248 13.247038416578087 8.306758469957646 5 5 4
785 1 1 0.5897 7.597738186427879 14.26103649928792 8.226858520070461 5 5 4
202 1 2 -1.1794 8.049291417028048 15.457527517853881 9.819578079277248 -7 2 2
204 1 1 0.5897 7.1315934794921 15.709669686299353 9.71734060800536 -7 2 2
784 1 2 -1.1794 7.1100574202267675 13.62865169292841 7.699183212363749 5 5 4
203 1 1 0.5897 8.143976009968862 15.269751203645015 10.75337106985817 -7 2 2
346 1 2 -1.1794 8.948589288569 12.12226054788133 9.913337722384577 -4 3 -3
342 1 1 0.5897 5.9473639360823904 12.217273468534907 10.576640966288155 2 4 2
320 1 1 0.5897 8.399216576590636 12.221398803887984 6.937871846250272 1 -3 2
348 1 1 0.5897 8.207398673041864 12.619014991179775 9.566794596154303 -4 3 -3
432 1 1 0.5897 6.0631863141099345 14.578640601371509 6.619357443213456 -5 -1 -1
340 1 2 -1.1794 5.686917149682226 11.976628319037559 9.68756622805778 2 4 2
709 1 2 -1.1794 5.481165737339707 16.067889790384196 9.202188535155901 -5 -3 -1
430 1 2 -1.1794 5.364299603183628 14.971541248474939 6.096508565228839 -5 -1 -1
710 1 1 0.5897 5.472092742753971 16.58511649498687 8.396843566243142 -5 -3 -1
633 1 1 0.5897 7.9483218596714655 11.90255085054079 11.519746900502087 3 5 5
614 1 1 0.5897 5.170680075633976 13.730419546606207 16.260555384582702 -6 1 3
509 1 1 0.5897 7.751845611060422 12.317925506985365 15.053354669384877 3 -3 4
631 1 2 -1.1794 7.175283384450278 12.023765229093298 12.071058520862499 3 5 5
707 1 1 0.5897 8.8426755661668 15.96277484821496 12.449733081260533 -1 -1 -7
508 1 2 -1.1794 8.055606184553186 12.962642559263655 14.414398486725755 3 -3 4
706 1 2 -1.1794 8.437106982500904 15.107024008777822 12.310493578309611 -1 -1 -7
452 1 1 0.5897 6.496170987355701 15.13200310974727 13.155090070415485 0 -1 3
510 1 1 0.5897 7.652873115521655 12.691225168621052 13.589582394392336 3 -3 4
26 1 1 0.5897 8.568036669007995 14.577875865820413 15.174252489563074 -1 6 5
451 1 2 -1.1794 5.559234607703442 15.30189116785676 13.252451224429418 0 -1 3
453 1 1 0.5897 5.270377885410663 14.678822086953831 13.919181789495221 0 -1 3
25 1 2 -1.1794 8.625789009334076 15.252658940591967 15.850682918597958 -1 6 5
191 1 1 0.5897 5.310285541643727 16.780095266067487 12.102647423683804 2 4 -5
10 1 2 -1.1794 6.514353770462784 14.056853391581615 17.416691036834244 -3 1 5
198 1 1 0.5897 7.813938889827853 13.461814966546637 18.648031097616062 0 -3 -1
839 1 1 0.5897 7.280122837494775 13.428661794139625 20.711358930638475 -2 -3 -2
12 1 1 0.5897 5.984002099734802 14.82805200024989 17.617105901426626 -3 1 5
815 1 1 0.5897 5.077628339585371 14.784497760470076 20.939396892268228 -2 8 -4
224 1 1 0.5897 5.280391795959494 16.83280366005352 17.685641864533828 2 -1 -7
838 1 2 -1.1794 6.735931936190268 13.842098942526826 21.38151736202017 -2 -3 -2
11 1 1 0.5897 7.168697745816206 14.371122327612595 16.79278629085875 -3 1 5
196 1 2 -1.1794 8.265994479895657 13.015688378936778 19.364137867989108 0 -3 -1
85 1 2 -1.1794 7.597179232872002 16.69746543352729 20.461428448371514 0 7 0
87 1 1 0.5897 7.1544838232800165 15.950212901494288 20.86371952700894 0 7 0
197 1 1 0.5897 8.91531367973498 13.649126425006779 19.66965313019562 0 -3 -1
624 1 1 0.5897 8.79202207232933 16.75353009295098 19.128360899028586 4 0 2
45 1 1 0.5897 6.581055702996165 18.359961331177878 3.6568444665946513 3 4 0
56 1 1 0.5897 6.942464176610354 21.27879921410543 4.548510904347953 -3 1 2
389 1 1 0.5897 7.420736178948996 21.620921084171947 2.69039231769887 3 5 4
544 1 2 -1.1794 9.029922120099704 20.926207428755887 2.438732103806216 -4 3 5
43 1 2 -1.1794 5.784206341583365 18.252818221708342 3.137459962912231 3 4 0
44 1 1 0.5897 5.678755425806649 17.305267235002926 3.0524415998147925 3 4 0