LAMMPS (30 Jul 2021)
  using 1 OpenMP thread(s) per MPI task
package omp 0
using multi-threaded neighbor list subroutines
echo both

include		in.partitions
variable        pid world 0
include		in.temp
variable        temperature equal 256.20
variable	tempDamp equal 100.0
include		in.pressure
variable        pressure equal 6500.0
variable        pressureDamp equal 1000.0 # This is 1 ps
include		in.seed
variable        seed world 745823

units		real
atom_style	full
read_restart	restart.lmp.${pid}
read_restart	restart.lmp.0
Reading restart file ...
  restart file = 30 Jul 2021, LAMMPS = 30 Jul 2021
  restoring atom style full from restart
  orthogonal box = (0.57996072 1.7746484 0.70755072) to (17.627612 21.854529 21.505645)
  4 by 4 by 4 MPI processor grid
  restoring pair style lj/cut/tip4p/long/omp from restart
  restoring bond style harmonic/omp from restart
  restoring angle style harmonic/omp from restart
  864 atoms
  576 bonds
  288 angles
Finding 1-2 1-3 1-4 neighbors ...
  special bond factors lj:    0        0        0       
  special bond factors coul:  0        0        0       
     2 = max # of 1-2 neighbors
     1 = max # of 1-3 neighbors
     1 = max # of 1-4 neighbors
     2 = max # of special neighbors
  special bonds CPU = 1.566 seconds
  read_restart CPU = 1.836 seconds
include 	in.setup
variable	out_freq equal 1000
variable	out_freq2 equal 10000
variable	out_freq3 equal 1000

timestep	2.0

neigh_modify    delay 7 every 1

include		in.tip4p
# This is TIP4P/Ice

# create groups ###
group ox type 2
288 atoms in group ox
group hy type 1
576 atoms in group hy

# set charges - beside manually ###
set group ox charge -1.1794
Setting atom values ...
  288 settings made for charge
set group hy charge 0.5897
Setting atom values ...
  576 settings made for charge

# ### TIP3P Potential Parameters ###
pair_style lj/cut/tip4p/long/omp 2 1 1 1 0.1577 8.5
pair_coeff 1 1*2 0.000 0.000
pair_coeff 2 2 0.21084 3.1668
bond_style  harmonic
bond_coeff  1 450 0.9572
angle_style harmonic
angle_coeff 1 55 104.52
kspace_style pppm/tip4p/omp 1.0e-5
pair_modify tail yes

thermo          ${out_freq}
thermo          1000
thermo_style    custom step temp pe etotal epair emol press lx ly lz vol pxx pyy pzz pxy pxz pyz enthalpy

restart 	${out_freq3} restart.lmp.${pid} restart2.lmp.${pid}
restart 	1000 restart.lmp.${pid} restart2.lmp.${pid}
restart 	1000 restart.lmp.0 restart2.lmp.${pid}
restart 	1000 restart.lmp.0 restart2.lmp.0


include         in.dump
dump            myDump all atom ${out_freq2} dump.water.${pid}
dump            myDump all atom 10000 dump.water.${pid}
dump            myDump all atom 10000 dump.water.0
dump            myDump2 all dcd ${out_freq2} dump.dcd
dump            myDump2 all dcd 10000 dump.dcd
dump_modify     myDump append yes
dump_modify     myDump2 append yes


variable natoms 	equal  "count(all)"                        # NUMBER ATOMS
variable H      	equal  "enthalpy/v_natoms"                 # ENTHALPY-per-atom
variable Vol      	equal  "vol/v_natoms"                 # volume-per-atom
fix AVG all 		ave/time ${out_freq} 1 ${out_freq} v_Vol v_H file vol_enthalpy.dat
fix AVG all 		ave/time 1000 1 ${out_freq} v_Vol v_H file vol_enthalpy.dat
fix AVG all 		ave/time 1000 1 1000 v_Vol v_H file vol_enthalpy.dat


timer           timeout 23:50:00 every 1000
New timer settings: style=normal  mode=nosync  timeout=23:50:00

fix 		1 all shake 1e-6 200 0 b 1 a 1
       0 = # of size 2 clusters
       0 = # of size 3 clusters
       0 = # of size 4 clusters
     288 = # of frozen angles
  find clusters CPU = 0.179 seconds
fix             2 all nph iso ${pressure} ${pressure} ${pressureDamp}
fix             2 all nph iso 6500 ${pressure} ${pressureDamp}
fix             2 all nph iso 6500 6500 ${pressureDamp}
fix             2 all nph iso 6500 6500 1000
fix             3 all temp/csvr ${temperature} ${temperature} ${tempDamp} ${seed}
fix             3 all temp/csvr 256.2 ${temperature} ${tempDamp} ${seed}
fix             3 all temp/csvr 256.2 256.2 ${tempDamp} ${seed}
fix             3 all temp/csvr 256.2 256.2 100 ${seed}
fix             3 all temp/csvr 256.2 256.2 100 745823

run             250000
PPPM initialization ...
  extracting TIP4P info from pair style
  using 12-bit tables for long-range coulomb (../kspace.cpp:340)
  G vector (1/distance) = 0.37390899
  grid = 24 24 24
  stencil order = 5
  estimated absolute RMS force accuracy = 0.0032014686
  estimated relative force accuracy = 9.6411276e-06
  using double precision FFTW3
  3d grid and FFT values/proc = 2535 216
Last active /omp style is kspace_style pppm/tip4p/omp
Neighbor list info ...
  update every 1 steps, delay 7 steps, check yes
  max neighbors/atom: 2000, page size: 100000
  master list distance cutoff = 10.8154
  ghost atom cutoff = 10.8154
  binsize = 5.4077, bins = 4 4 4
  1 neighbor lists, perpetual/occasional/extra = 1 0 0
  (1) pair lj/cut/tip4p/long/omp, perpetual
      attributes: half, newton on, omp
      pair build: half/bin/newton/omp
      stencil: half/bin/3d
      bin: standard
Per MPI rank memory allocation (min/avg/max) = 9.236 | 9.238 | 9.242 Mbytes
Step Temp PotEng TotEng E_pair E_mol Press Lx Ly Lz Volume Pxx Pyy Pzz Pxy Pxz Pyz Enthalpy 
 2000000    271.36995   -3864.8079   -3399.6891   -3864.8079            0    8319.8444    17.047651    20.079881    20.798094    7119.4956    8306.2793    9555.0286    7098.2253    -8.748716     623.7475   -1484.5943   -2535.8352 
 2001000    262.47645   -3854.9824   -3405.1067   -3854.9824            0    7292.4902    17.071643     20.10814    20.827364    7149.5964    7594.7172    6457.8591    7824.8943    784.37003    796.86885    63.418892   -2644.7222 
 2002000    249.81855   -3862.6639   -3434.4834   -3862.6639            0    6177.7974    17.146039    20.195769    20.918128    7243.4759    4757.9565    6177.2292    7598.2065    773.89813   -669.26357   -141.10793   -2781.8691 
 2003000     265.0161   -3888.0768   -3433.8483   -3888.0768            0    5532.5393    17.119774    20.164832    20.886084    7210.2387    4138.2329    7183.3277    5276.0572    501.00113    744.89864   -518.15021     -2852.08 
 2004000    235.45723   -3867.0518   -3463.4862   -3867.0518            0    5364.4193    17.219779    20.282625     21.00809    7337.3346    6296.3112    4591.0273    5205.9195   -1523.3542   -493.99843    481.99943   -2889.4531 
 2005000     259.1091   -3852.2561    -3408.152   -3852.2561            0    5555.0168    17.149473    20.199814    20.922317    7247.8293    4863.9476    5761.4536    6039.6492    531.94679    241.94085   -1623.4866   -2820.9747 
 2006000    254.70517   -3872.0324   -3435.4765   -3872.0324            0    4863.4815    17.164263    20.217235    20.940361    7266.5972    4193.8257    2977.3738    7419.2451    211.46274     489.6329     1702.616   -2920.0648 
 2007000    263.55509   -3898.8118   -3447.0874   -3898.8118            0    8032.6678    17.128157    20.174706    20.896311    7220.8356    9017.7625    5135.4979    9944.7428    1714.6234   -1282.1112    500.51071   -2601.1793 
 2008000    273.15095   -3903.4551   -3435.2838   -3903.4551            0    6330.0194    17.097958    20.139136    20.859469    7182.7098    8951.2458    4779.0344     5259.778    1718.0819   -241.31857    384.78448   -2772.1987 
 2009000    269.48061   -3891.2114   -3429.3309   -3891.2114            0    6127.3293    17.110762    20.154218     20.87509    7198.8588    6788.2365    4481.6797    7112.0717    479.56046   -769.77672   -1492.6982    -2786.035 
 2010000    252.76736   -3876.8992   -3443.6646   -3876.8992            0    5400.9271    17.106829    20.149585    20.870292     7193.896    5813.2835    4659.3651    5730.1326      400.938    667.57456   -743.75722   -2877.0232 
 2011000    258.96727   -3896.7067   -3452.8456   -3896.7067            0    5549.5134    17.179008    20.234603     20.95835    7285.3408    5216.3006    4724.3378     6707.902   -408.86044    686.79242   -269.29365   -2863.2141 
 2012000    268.61644     -3869.65   -3409.2506     -3869.65            0     6187.976    17.110282    20.153652    20.874504    7198.2526    6570.5083    3672.8756     8320.544   -690.64751    1506.9699    933.26328   -2759.6423 
 2013000    260.74798    -3867.905   -3420.9919    -3867.905            0     6795.072    17.177576    20.232915    20.956602    7283.5183    7540.8291    6824.9653    6019.4217   -384.69735    1392.0477     68.68713   -2699.2014 
 2014000    251.65341   -3893.1301   -3461.8047   -3893.1301            0    6146.7211    17.080786     20.11891    20.838519    7161.0903    5390.7914    6386.0974    6663.2744   -494.08682   -553.76422   -64.184695   -2819.8587 
 2015000    270.93036   -3913.1683   -3448.8029   -3913.1683            0    7282.0683     17.19555    20.254087    20.978531    7306.4062    8444.1984    5777.5538    7624.4526    2244.9368   -265.77376    446.89851   -2672.8516 
 2016000    262.37773   -3877.7029   -3427.9964   -3877.7029            0    6359.8996    17.191244    20.249014    20.973277     7300.918    4919.4049    5470.6933    8689.6006    877.05868   -459.47959    1619.6661   -2750.8172 
 2017000    266.15965   -3869.6478   -3413.4593   -3869.6478            0    8771.4796     17.06779    20.103603    20.822664    7144.7574    7890.9885    9401.0929    9022.3575   -54.152389   -197.94638    1753.5795   -2499.4803 
 2018000    239.18028   -3862.0048   -3452.0579   -3862.0048            0    6031.2598    17.110416     20.15381    20.874667    7198.4216     5426.122    5783.1387    6884.5187   -672.61329   -1802.2021   -1016.6515   -2818.8867 
 2019000    249.15097   -3831.1563   -3404.1201   -3831.1563            0    9161.0683    17.046209    20.078182    20.796335    7117.6889    7955.3973     9692.794    9835.0136    392.57898   -701.04037   -345.53086   -2453.1628 
 2020000    253.63345    -3880.376   -3445.6569    -3880.376            0    4780.1267    17.094242    20.134759    20.854935    7178.0276    2830.1854    3422.3033    8087.8912   -575.32426    416.71638    510.97536   -2945.2533 
 2021000    256.45519   -3897.5291   -3457.9737   -3897.5291            0    8405.7974     17.01031    20.035898    20.752538    7072.8144    7609.5824    8566.0298    9041.7799   -279.91472   -292.48488    -527.1155   -2590.9179 
 2022000    266.25358    -3865.098   -3408.7484    -3865.098            0    5552.3897    17.085296    20.124222    20.844022    7166.7647    5743.5378    5116.6087    5797.0227   -2074.8706    325.24332    1744.4912   -2828.4132 
 2023000    228.46221   -3833.0889   -3441.5125   -3833.0889            0    7068.7076    17.081563    20.119825    20.839467     7162.068    6816.3888    8283.9341    6105.7998   -6.2740721    576.78114   -762.57929    -2703.176 
 2024000    256.73838   -3801.0693   -3361.0285   -3801.0693            0    8805.3385    17.117999    20.162741    20.883919    7207.9965    9727.1368    9079.7484    7609.1304   -70.351361   -891.02579   -1715.7889   -2435.4004 
 2025000    252.12856   -3885.8536   -3453.7139   -3885.8536            0    5474.8439    17.184686    20.241291    20.965277    7292.5668    5039.1783    5537.0342    5848.3192    184.51862   -386.15385    216.14251    -2871.439 
 2026000    257.07587   -3840.2903    -3399.671   -3840.2903            0    8655.2407    17.170529    20.224615    20.948005    7274.5577    8870.4177    8231.9942    8863.3101    399.49369    395.94415     -840.179   -2481.4196 
 2027000    260.78896   -3874.3963   -3427.4129   -3874.3963            0    4849.9553    17.212012    20.273477    20.998615    7327.4108    4976.2509    4506.4719    5067.1431    471.06645   -167.50972    146.33922   -2909.1333 
 2028000    258.93006   -3920.0034   -3476.2062   -3920.0034            0    5658.8597    17.244307    20.311516    21.038015    7368.7335    4626.1275    6465.1423    5885.3092    59.542813    1248.6338   -1590.5592   -2868.0744 
 2029000    259.11759   -3920.6537   -3476.5351   -3920.6537            0    6559.3927      17.1498    20.200199    20.922716    7248.2436    5689.2553    7554.0118     6434.911   -825.85864    -109.8412   -757.98549   -2783.1535 
 2030000    273.96594   -3891.2176   -3421.6494   -3891.2176            0    7484.6164    17.042063    20.073299    20.791277    7112.4972    8590.1704    8220.2234    5643.4554     1258.542    140.32961   -907.74355   -2645.2815 
 2031000    267.28541   -3874.8235   -3416.7055   -3874.8235            0    5891.5338    17.146122    20.195867    20.918229    7243.5813    5586.6056    6464.3291    5623.6666    -540.1589    996.58186   -1625.7768   -2794.3226 
 2032000    256.41619   -3879.7553   -3440.2667   -3879.7553            0     6152.196    17.127101    20.173463    20.895023    7219.5006    5877.8591    5880.4873    6698.2417     51.47595    2095.0926    1074.2446   -2792.5081 
 2033000    257.57006   -3874.8944   -3433.4281   -3874.8944            0    6046.9395    17.130095     20.17699    20.898676    7223.2881    5969.8692    5521.8058    6649.1436    1117.4222    34.528556    1022.2444   -2796.4178 
 2034000     243.1944   -3877.9515   -3461.1247   -3877.9515            0    5641.7496    17.146687    20.196532    20.918918    7244.2969    6116.8678    5821.4162    4986.9648    -1442.107   -322.22779    742.55716   -2865.0702 
 2035000    244.55355   -3892.7646   -3473.6081   -3892.7646            0    8379.6194     17.05403    20.087394    20.805876    7127.4902    10262.709    7384.4971    7491.6521   -305.78347    -124.5414   -814.21602   -2602.5707 
 2036000    269.12416   -3907.5589   -3446.2893   -3907.5589            0    7167.4364     17.00478    20.029384    20.745792    7065.9185    7175.6567    7240.4397    7086.2129    1012.3337   -1429.0667   -651.22873   -2707.6909 
 2037000    262.35336   -3857.2168   -3407.5522   -3857.2168            0    8505.3393    17.083937    20.122622    20.842364    7165.0545    9134.2492    6627.6511    9754.1174    1818.1406   -833.95688   -245.97255    -2518.787 
 2038000    262.60381   -3864.9109    -3414.817   -3864.9109            0    7261.1007    17.133001    20.180412    20.902222    7226.9647    6410.8744    6618.5196    8753.9081   -437.49178    1046.9889   -1432.0535   -2649.5125 
 2039000     256.0002   -3871.6235   -3432.8479   -3871.6235            0    6421.6692    17.171482    20.225737    20.949168    7275.7691    5163.4308    7747.8762    6353.7007    1118.0559   -1083.3015   -549.97198   -2751.4469 
 2040000    252.52884    -3894.481   -3461.6552    -3894.481            0    7468.3764    17.146799    20.196664    20.919054    7244.4385    8892.5999    8135.5656    5376.9639    635.98496    365.35214    -1609.932    -2672.601 
 2041000    250.32968   -3884.4238   -3455.3673   -3884.4238            0    8270.9396    17.149717    20.200102    20.922615    7248.1387     7726.767    9301.5766    7784.4751   -1268.2407   -455.11145   -396.16255   -2581.0738 
 2042000    254.66267   -3889.8389   -3453.3559   -3889.8389            0    6375.8998    17.181862    20.237964    20.961832    7288.9719    5499.2088    5132.3501    8496.1403    439.68086    210.61225    574.86398   -2775.5838 
 2043000    268.04848    -3904.523   -3445.0971    -3904.523            0    6465.4834    17.163233    20.216022    20.939105    7265.2892    5772.7235    6266.0215    7357.7052    125.15182    249.00277    1838.7142   -2760.0352 
 2044000     259.7322   -3906.8845   -3461.7124   -3906.8845            0    6261.7859    17.124025    20.169839     20.89127    7215.6111    7159.7359    7043.6138    4582.0081    194.83323    951.51485   -30.801668   -2802.7704 
 2045000    249.57312   -3926.5235   -3498.7637   -3926.5235            0    7131.5326    17.144443    20.193889     20.91618    7241.4532    7167.4905    7712.7345    6514.3729   -161.69734    1436.0963   -707.09382   -2745.6085 
 2046000    268.59774   -3877.5429   -3417.1755   -3877.5429            0    6869.4977    17.128929    20.175616    20.897253    7221.8127    7042.9075    7442.2859    6123.2997   -1346.0376     982.6531    70.711719   -2693.6613 
 2047000    241.73033   -3870.1258   -3455.8082   -3870.1258            0    6952.0811    17.173925    20.228615    20.952148    7278.8752    6142.9516    6983.4627    7729.8289    2079.3117   -177.51053    732.75521   -2717.8106 
 2048000     255.8991   -3867.1134   -3428.5111   -3867.1134            0     4887.416    17.292267    20.368006    21.096525     7430.386    5314.0583    4079.1215    5269.0682    618.84463    20.146968   -462.64412   -2898.8884 
 2049000    255.42466    -3845.706   -3407.9169    -3845.706            0    4908.1064    17.199667    20.258936    20.983553     7311.655    3686.9294     4606.582    6430.8079   -1599.7247    -446.2069     1006.695   -2884.5508 
 2050000    261.45236   -3883.6523   -3435.5319   -3883.6523            0     8139.979    17.111563    20.155161    20.876067    7199.8695    8868.2735    7210.5284    8341.1353    538.65104    974.54401    1212.3509   -2580.8121 
 2051000    267.81354   -3895.3708   -3436.3475   -3895.3708            0    5078.6769    17.150183     20.20065    20.923183    7248.7289      3523.32    6157.2552    5555.4556     1000.013    180.20608   -436.85763   -2899.4538 
 2052000    249.31531   -3887.0999    -3459.782   -3887.0999            0    7456.3801    17.086131    20.125206     20.84504     7167.815    6579.7445     7982.901    7806.4948    791.99552    9.8569445    62.109772   -2680.3276 
 2053000    254.05633   -3906.1693   -3470.7254   -3906.1693            0    6033.3607    17.126835     20.17315    20.894699    7219.1646    7187.3735    5420.8361    5491.8724   -903.23862   -69.435175    434.72403   -2835.5084 
 2054000    271.20093   -3905.4891     -3440.66   -3905.4891            0    4876.4678    17.146664    20.196506     20.91889    7244.2682    4185.7558     6347.794    4095.8536    474.17481     453.3247   -1262.5769   -2925.4601 
 2055000    259.27377   -3885.0809   -3440.6945   -3885.0809            0    5577.9735     17.11858    20.163426    20.884628    7208.7309    6091.2168    6486.1205     4156.583    584.04256    784.89303    1194.1633   -2854.2713 
 2056000    268.37133   -3880.7592   -3420.7799   -3880.7592            0    5007.5022    17.112603    20.156386    20.877336    7201.1827    4611.3976    4958.3316    5452.7774   -19.602753   -357.93467    146.54762   -2894.8827 
 2057000    259.08818   -3888.0479   -3443.9796   -3888.0479            0    5370.6944    17.127099     20.17346    20.895021    7219.4983    4631.4858    4955.7694    6524.8281    151.73777   -57.080723    1168.6001   -2878.5047 
 2058000     255.8422   -3887.4514   -3448.9466   -3887.4514            0    4302.2468    17.142566    20.191678     20.91389    7239.0749    2398.8856    5012.7796    5495.0752     -864.292   -746.57947     257.6665   -2994.7391 
 2059000    250.03452   -3864.5954   -3436.0448   -3864.5954            0    6931.6559    17.100261    20.141849    20.862278    7185.6127    7619.2505    6251.7134    6924.0037    1429.7405   -811.24304   -162.21089   -2709.6433 
 2060000    241.82438   -3900.5176   -3486.0389   -3900.5176            0    5817.9412    17.160404    20.212689    20.935653    7261.6967    5158.3435    5280.6892     7014.791    1478.7157    26.024542   -263.37389   -2869.8933 
 2061000    253.85653   -3896.7377   -3461.6363   -3896.7377            0    5361.4913    17.172556    20.227003    20.950478    7277.1348    5666.0925    5751.3894    4666.9921    125.77836    891.70203    291.19431   -2892.6236 
 2062000    257.56206   -3890.7762   -3449.3236   -3890.7762            0    5960.0242    17.226636    20.290702    21.016456    7346.1035    5005.7049    6495.0983    6379.2693   -51.725756    207.96481   -279.90166   -2810.7941 
 2063000    270.78448    -3866.332   -3402.2167    -3866.332            0    5600.8514    17.158884    20.210898    20.933798    7259.7669    5563.2004    6680.6265    4558.7273    491.17878   -23.423582      192.129   -2809.2195 
 2064000    262.95159   -3890.4104   -3439.7204   -3890.4104            0     6272.986    17.151817    20.202575    20.925177    7250.8014    8113.1484    4053.2792    6652.5304    307.77822   -2317.5161    1687.6706   -2776.3803 
 2065000    242.82866   -3910.7488   -3494.5487   -3910.7488            0    7325.3065    17.069912    20.106101    20.825252    7147.4217    7732.9257    6137.7352    8105.2587   -459.04354    609.34583    471.07844   -2730.9748 
 2066000     262.3811   -3872.2879   -3422.5756   -3872.2879            0    6578.4106    17.121221    20.166537     20.88785    7212.0675    6488.2228    8657.6404    4589.3685   -1031.1742   -447.53536    179.86486   -2730.6544 
 2067000    245.94258   -3902.4183   -3480.8812   -3902.4183            0    8984.2642    17.070181    20.106419    20.825581    7147.7604    8121.3982    7767.5192    11063.875    54.153925    1119.1245    732.64905   -2544.3367 
 2068000    263.56381   -3890.0813    -3438.342   -3890.0813            0    6552.4905     17.17666    20.231837    20.955485    7282.3537    6463.2671    6180.8702    7013.3344   -841.86092   -384.61312   -860.91055   -2742.4304 
 2069000    242.94555   -3906.5209   -3490.1206   -3906.5209            0    6474.3435     17.15262     20.20352    20.926156     7251.819    5567.9259    6992.2781    6862.8266   -552.55075   -518.24883   -123.19351   -2805.3918 
 2070000    255.00729   -3902.0774   -3465.0036   -3902.0774            0    4681.0461    17.279819    20.353344    21.081339    7414.3514    3304.2688    5344.4943    5394.3754    861.81538    218.70935    859.12048   -2958.8388 
 2071000    254.47286   -3895.2758    -3459.118   -3895.2758            0    5674.5117    17.188075    20.245282    20.969411    7296.8818    6259.2817     4980.952    5783.3014    244.17642   -1540.9207    269.47016   -2855.2505 
 2072000    263.97428   -3832.7499    -3380.307   -3832.7499            0    6258.1743    17.188837    20.246179    20.970341     7297.852    6089.1276    5526.7444    7158.6509    970.19166    594.45465    312.23889    -2714.239 
 2073000    244.67563   -3898.8079   -3479.4423   -3898.8079            0     6546.061    17.127684     20.17415    20.895735    7220.2383    8904.3992    4864.9489    5868.8349    614.07814     1007.115   -790.04225   -2790.1436 
 2074000    257.34895   -3908.7464   -3467.6591   -3908.7464            0    6737.3143    17.157283    20.209014    20.931846     7257.736    7230.5302    5226.0213    7755.3913    292.07134    1815.9257   -653.78196   -2754.5371 
 2075000    260.82901   -3908.9975   -3461.9455   -3908.9975            0    6259.8918    17.176685    20.231866    20.955516    7282.3856    5926.5021    7813.7286    5039.4447     1238.105    324.61109   -1343.2554   -2797.1066 
 2076000     240.0041   -3857.0169   -3445.6581   -3857.0169            0    6790.3224     17.17984    20.235582    20.959365    7286.3986    7612.4301    7209.4329    5549.1042    478.24525   -1136.9558    405.64142   -2724.0869 
 2077000    254.25639   -3903.4735   -3467.6868   -3903.4735            0    6525.1549    17.151663    20.202394    20.924989     7250.606    5437.9289     7534.585    6602.9507    1014.2552   -376.43583    -2134.993   -2777.6996 
 2078000    266.90181   -3840.0986   -3382.6381   -3840.0986            0     7217.903    17.114724    20.158884    20.879924    7203.8607    4854.2913    7828.4626    8970.9552    -377.0142   -96.782511   -4.5883196   -2624.3185 
 2079000    247.62395   -3894.0582   -3469.6392   -3894.0582            0    5071.2172    17.197555    20.256448    20.980977    7308.9618    3691.9686    5552.5818    5969.1012    374.63131    572.25511   -875.13972   -2929.0794 
 2080000    275.57263   -3884.0977   -3411.7756   -3884.0977            0    5792.6342    17.189619      20.2471    20.971295    7298.8481    7456.2193    3958.5724    5963.1108   -456.54018    -477.6246    1125.8571   -2795.1716 
 2081000    256.65852   -3883.3432   -3443.4392   -3883.3432            0    6354.7033    17.140187    20.188876    20.910988    7236.0616    5358.6078    5573.3699    8132.1321    634.17744    32.861387   -999.95834    -2772.824 
 2082000    253.65004   -3895.6137   -3460.8662   -3895.6137            0    7397.7287    17.084594    20.123395    20.843164    7165.8804    8816.6979    7729.9417    5646.5466   -1187.2543   -1347.0523    268.97915   -2687.7517 
 2083000    250.66866   -3892.5374   -3462.8999   -3892.5374            0    5050.0946    17.152182    20.203005    20.925622    7251.2645    4462.6206    7694.3662     2993.297    29.899681   -88.256958    1010.2474    -2928.841 
 2084000    271.24927   -3882.7398   -3417.8279   -3882.7398            0    5858.8607    17.155855    20.207332    20.930103    7255.9239    7385.6494     4185.673    6005.2597   -242.19379   -1631.8777   -441.96534    -2797.842 
 2085000    262.86084    -3912.672   -3462.1375    -3912.672            0    7756.5903    17.148049    20.198137     20.92058    7246.0239    5546.2441     8576.985     9146.542   -734.53022    198.68631    819.30123   -2642.4534 
 2086000    254.11726   -3893.3932    -3457.845   -3893.3932            0    5423.8793    17.208167    20.268947    20.993923    7322.5004    4400.3935     8319.996    3551.2485    1190.7107    252.44889   -592.87215   -2878.6226 
 2087000    265.22821   -3934.4826   -3479.8905   -3934.4826            0    5853.2358    17.145718     20.19539    20.917735    7243.0683    5592.7452    5632.3093     6334.653   -118.77999    46.207506    698.86285   -2861.5973 
 2088000    269.79784   -3873.0089   -3410.5847   -3873.0089            0    7273.5857    17.104247    20.146544    20.867142    7190.6389    7119.2011    7627.4249    7074.1309   -240.48322   -263.91307   -834.29277   -2647.8176 
 2089000    241.12203   -3898.9064   -3485.6315   -3898.9064            0    8137.9684    17.122309    20.167818    20.889177    7213.4428    8160.7655    8872.6815    7380.4581    635.62985     662.8658    -406.3478   -2629.5119 
 2090000    257.56488   -3887.8055   -3446.3481   -3887.8055            0    8236.7107    17.105118    20.147569    20.868204    7191.7367     7410.854    7814.0434    9485.2346    1020.5273    263.57828    -390.5659   -2582.4481 
 2091000     242.4248   -3899.4646   -3483.9568   -3899.4646            0    5161.3724    17.213706    20.275472    21.000681    7329.5739    5384.1012    5961.3358    4138.6804    486.61068   -586.06511    495.02103   -2932.2354 
 2092000    268.85569   -3905.3876   -3444.5782   -3905.3876            0    8855.0082    17.108665    20.151747    20.872531    7196.2116     9429.388    9611.6344    7524.0023   -2150.5451   -933.40483   -538.40407   -2515.2507 
 2093000    251.56244   -3914.8536   -3483.6842   -3914.8536            0    7990.8451    17.093608    20.134012    20.854161    7177.2285    7297.3068     8017.212    8658.0166    2648.2746   -837.32373     559.5587   -2647.2624 
 2094000    261.01751   -3907.5516   -3460.1765   -3907.5516            0    7001.3989    17.158184    20.210074    20.932944    7258.8787    7351.5801    5563.4984    8089.1183    268.42021    807.89183    994.03457   -2718.9853 
 2095000    260.12455   -3919.6113   -3473.7668   -3919.6113            0     6724.171    17.081308    20.119524    20.839156    7161.7467    7359.9183    4858.4527     7954.142   -422.82617    113.07783    51.084601   -2771.4491 
 2096000    265.55117   -3895.1432   -3439.9976   -3895.1432            0     4120.073    17.191285    20.249064    20.973328    7300.9714    3608.5829    5633.8041     3117.832    1096.9915   -540.91857   -108.55959   -3001.3038 
 2097000    250.52548   -3885.2975   -3455.9054   -3885.2975            0    5946.6809    17.141107     20.18996    20.912111    7237.2269     6077.191    6636.5738     5126.278   -742.52542    572.56893   -146.66613   -2828.2479 
 2098000    240.65139   -3901.5623    -3489.094   -3901.5623            0    7385.5399    17.026801    20.055323    20.772658    7093.4058    5057.7134    8534.2809    8564.6253   -1037.3287   -192.06534    -158.8455   -2725.0596 
 2099000     264.2976   -3916.8009   -3463.8038   -3916.8009            0    6364.1334    17.106375    20.149051    20.869738    7193.3234    4698.1538    7500.4804     6893.766   -1586.2453    1042.3103   -447.96145   -2796.1601 
 2100000    257.81646   -3912.8729   -3470.9843   -3912.8729            0    8635.0203    17.045118    20.076898    20.795004    7116.3226    6132.6925    10907.765    8864.6034    363.49895     775.5219   -1168.5289   -2574.8051 
 2101000    256.04468   -3913.7163   -3474.8645   -3913.7163            0    8417.0824    17.072726    20.109416    20.828686    7150.9577    7168.9229    10463.769    7618.5552   -730.71048    136.65948   -2145.9289   -2597.0521 
 2102000    263.18827   -3883.7115   -3432.6158   -3883.7115            0     4911.798    17.128205    20.174763     20.89637    7220.8972    5218.9569    6480.4039    3036.0332    726.98426     103.8359   -1124.5545   -2915.3574 
 2103000    258.83718   -3905.1529   -3461.5148   -3905.1529            0     5043.303    17.212365    20.273893    20.999045    7327.8614    4607.7321    4695.4069    5826.7699   -970.37618    1495.7626    221.13446   -2922.5404 
 2104000    267.13017   -3894.2875   -3436.4355   -3894.2875            0    6147.5184    17.079718    20.117652    20.837216    7159.7469     6389.648    6040.4109    6012.4962   -214.46177    -2118.846   -1018.1906   -2794.5266 
 2105000    258.20067   -3856.5883   -3414.0412   -3856.5883            0    4422.0343    17.166211    20.219529    20.942737    7269.0712    4470.7835    4307.8746    4487.4446   -746.34624   -2096.0762   -412.15167   -2945.2528 
 2106000    249.43365   -3893.6324   -3466.1117   -3893.6324            0    6254.5524    17.146671    20.196513    20.918899    7244.2767    6395.6047    5762.0945    6605.9581   -116.38387    36.216636   -416.85146    -2805.316 
 2107000     251.6596   -3890.9089    -3459.573   -3890.9089            0    7236.8031    17.163886    20.216791    20.939901    7266.1187    6012.1245    7378.2653    8320.0194    962.06186   -359.34019    1642.1051    -2692.697 
 2108000    256.31513   -3876.3089   -3436.9935   -3876.3089            0     6786.387    17.205186    20.265437    20.990287    7318.6961    7753.6915    6411.4424    6194.0271    -852.6456   -574.99934   -395.95602   -2712.6439 
 2109000    263.40009   -3908.1474   -3456.6887   -3908.1474            0    5149.4671    17.119261    20.164228    20.885458    7209.5908    6677.8648    2534.4092    6236.1273   -1683.0713   -910.62592    812.14866   -2915.2506 
 2110000    257.81938   -3883.8098   -3441.9162   -3883.8098            0    6036.4865    17.141019    20.189856    20.912003    7237.1157    5835.5595    6649.3601    5624.5399    1182.2384   -983.01268   -300.36339   -2804.7897 
 2111000    265.59138   -3885.6804   -3430.4659   -3885.6804            0    6132.6351    17.094138    20.134637    20.854809    7177.8973    5558.0023    5764.9528    7074.9501   -311.61695   -140.50227    1511.0349   -2788.4878 
 2112000    260.65677   -3881.0566   -3434.2998   -3881.0566            0    5365.5176    17.119353    20.164336     20.88557     7209.707     6056.329     5956.852    4083.3718   -1147.3014   -215.29832    701.35903   -2870.1361 
 2113000    252.53472   -3899.1781   -3466.3422   -3899.1781            0    6643.5704    17.139065    20.187555     20.90962    7234.6411    5335.5311    6680.4377    7914.7423   -565.17201   -606.28162   -655.33261   -2765.3803 
 2114000    266.97761   -3864.2228   -3406.6323   -3864.2228            0    5642.7337    17.147587    20.197593    20.920017    7245.4383    5669.2355    6344.9021    4914.0635    256.65284   -1364.9157   -54.998421     -2810.38 
 2115000    253.73124   -3856.8927    -3422.006   -3856.8927            0    6354.1587    17.161677    20.214188    20.937205    7263.3126    6250.5951    6250.9481    6560.9331   -633.48586    802.00382    23.973328   -2748.9229 
 2116000    252.67682   -3899.8653   -3466.7859   -3899.8653            0    6468.3229    17.161186     20.21361    20.936607    7262.6895    6726.3128    6769.7011    5908.9548   -908.46696    1345.6214    783.30957   -2781.6684 
 2117000    249.99793   -3885.3103   -3456.8224   -3885.3103            0    7447.1635    17.042096    20.073338    20.791317    7112.5381    9002.4049    5784.9284    7554.1573     906.2225   -418.74481   -1080.2324    -2684.335 
 2118000    249.47731   -3892.7664   -3465.1708   -3892.7664            0    8192.2192    17.088142    20.127574    20.847493    7170.3462    9182.2312    8857.4108    6537.0157    1155.1341   -837.41664   -612.39157   -2608.4929 
 2119000    264.33939   -3875.5192   -3422.4505   -3875.5192            0    7276.6499    17.117451    20.162096     20.88325    7207.3044    7379.3818    7380.0193    7070.5484   -1151.3966    1638.4613   -903.74885   -2657.5935 
 2120000    247.38231    -3866.992   -3442.9872    -3866.992            0    3669.2901    17.234993    20.300545    21.026651    7356.7993    3426.8143    2378.1463    5202.9098   -1561.2936   -1042.0228   -502.41632    -3049.304 
 2121000      261.957   -3863.3676   -3414.3823   -3863.3676            0    6851.0347    17.121876    20.167308    20.888648    7212.8948     7671.981    6346.5455    6534.5776    623.26198    355.73253    1487.9589   -2693.7037 
 2122000    265.24075   -3859.5506   -3404.9371   -3859.5506            0    6061.9818    17.113415    20.157342    20.878326    7202.2074    6523.5853    4925.4192    6736.9409    1191.2279    615.84821    17.420602   -2768.2059 
 2123000    252.42093   -3920.5639    -3487.923   -3920.5639            0    6301.3271    17.132513    20.179837    20.901625    7226.3464    5931.7555    5576.9825    7395.2434    1030.5342   -773.75247    2202.4664   -2823.8334 
 2124000    260.52111   -3878.7069   -3432.1826   -3878.7069            0    6732.7262    17.114567    20.158699    20.879731    7203.6618    7984.6246    7202.6491     5010.905    470.58539   -422.59792    588.27291   -2724.8558 
 2125000    263.21962   -3866.7893   -3415.6399   -3866.7893            0    4984.0448    17.102419     20.14439    20.864911    7188.3329    6176.4143    4897.5208    3878.1995   -921.00076   -658.75937    375.97551   -2893.1402 
 2126000    258.67092   -3920.1242   -3476.7711   -3920.1242            0    6182.4606    17.157523    20.209296    20.932138    7258.0401    5727.5698    4824.9752    7994.8368    1418.0581   -1592.8161    881.11499   -2822.3511 
 2127000     268.4433   -3919.0613   -3458.9587   -3919.0613            0    5880.3511    17.150552    20.201084    20.923633    7249.1963    4668.4697    7182.0746    5790.5089    1131.1467   -585.55674   -1335.7957   -2837.2757 
 2128000    252.96776   -3859.5407   -3425.9626   -3859.5407            0    10497.819     16.98494    20.006016    20.721587    7041.2157    9585.6155    9850.5254    12057.317    1163.4281    883.53211    -45.66591    -2347.953 
 2129000    259.50105    -3841.003    -3396.227    -3841.003            0    5195.4919    17.121194    20.166505    20.887817    7212.0339    4721.8011    4941.7593    5922.9154   -305.06674    1004.0052   -1582.7288   -2849.7646 
 2130000    246.68292   -3886.7414   -3463.9353   -3886.7414            0    6966.8997     17.12957    20.176371    20.898035    7222.6234    8155.0046     4591.625    8154.0696   -2523.4145   -133.94359     546.0462     -2730.08 
 2131000    247.41234   -3913.8542   -3489.7979   -3913.8542            0    8622.7704    17.085767    20.124777    20.844596    7167.3572    8108.9311    9147.0627    8612.3173    -1110.744      202.502    1248.9595   -2588.4722 
 2132000    265.05755   -3878.9062   -3424.6066   -3878.9062            0    6175.7325    17.159461    20.211578    20.934502    7260.4994    6511.1656    5195.8076    6820.2244   -913.50381   -1526.1134   -1348.4505   -2770.6772 
 2133000    233.39172    -3851.009   -3450.9835    -3851.009            0    5354.4507    17.154845    20.206141     20.92887    7254.6416    5723.2461     2780.062    7560.0439    194.72583    111.72391    932.17595   -2884.4746 
 2134000    252.10075   -3907.9172   -3475.8251   -3907.9172            0    7275.8284    17.072042    20.108611    20.827852    7150.0984    9505.9609    4300.6343    8020.8901   -474.46704    160.43626   -124.91261   -2717.1247 
 2135000    248.25981   -3912.9599   -3487.4511   -3912.9599            0     8346.755    17.003959    20.028418    20.744791     7064.896    8170.2235    8411.5333    8458.5082   -1281.5459    464.55253    184.93951   -2627.4494 
 2136000     250.5182   -3857.5616   -3428.1819   -3857.5616            0    8609.3499    17.022207    20.049911    20.767052    7087.6647    9046.3921    9433.1626    7348.4951   -1373.8189   -1615.9127    131.13096   -2538.2651 
 2137000    252.91708   -3901.7921   -3468.3009   -3901.7921            0    7252.4168    17.134753    20.182476    20.904359    7229.1822    6410.2503    7035.3445    8311.6556   -1546.5385   -1809.2624    2024.0726   -2703.6771 
 2138000    270.70984   -3899.2082   -3435.2208   -3899.2082            0    6935.1078    17.059696    20.094069    20.812789    7134.5972    8504.4491    6473.7196    5827.1546    271.20372   -571.05096   -1088.5224   -2713.6174 
 2139000    246.90586   -3917.4488   -3494.2606   -3917.4488            0     5436.771    17.107015    20.149804    20.870518      7194.13     5259.966    6815.6894    4234.6575    1085.7605    989.24041   -187.97931     -2923.84 
 2140000    262.38584   -3882.1485   -3432.4281   -3882.1485            0    6134.8187    17.127061    20.173415    20.894974    7219.4498    7329.5321    5753.2042    5321.7198    1282.7403    569.76966   -72.766155   -2786.5037 
 2141000    252.45675   -3895.6059   -3462.9036   -3895.6059            0    5633.7359    17.119942    20.165031     20.88629    7210.4519     4897.074    7511.6387     4492.495     822.8494    1442.0632   -731.98621   -2870.4766 
 2142000    246.95021   -3888.1137   -3464.8495   -3888.1137            0    5782.8986    17.111952    20.155619    20.876542    7200.3607     4570.282    6581.9488     6196.465    1782.8249    1087.5249   -1418.3545    -2857.588 
 2143000    243.33625   -3872.1104   -3455.0404   -3872.1104            0    7063.1797    17.113561    20.157514    20.878504    7202.3919    7995.5789    7538.1566    5655.8035    212.82884     -1035.46   -37.586263   -2713.1275 
 2144000    253.03206   -3875.0344   -3441.3461   -3875.0344            0    6239.7995    17.092636    20.132867    20.852975    7176.0042    7713.5883    6553.6301      4452.18    76.264217   -1412.1306    146.99589   -2788.3221 
 2145000    277.93646   -3888.1291   -3411.7555   -3888.1291            0    7717.7329    17.100541    20.142179     20.86262    7185.9658    7406.5606    6910.0796    8836.5585   -647.98865   -103.78534   -937.06249   -2602.9375 
 2146000    248.62686   -3878.2862   -3452.1483   -3878.2862            0    6794.0562    17.128208    20.174767    20.896374     7220.901    7541.6992    4991.6682    7848.8012   -623.15043   -1489.0486    1444.8281   -2736.6701 
 2147000    244.29865   -3876.1979   -3457.4784   -3876.1979            0    5677.0482    17.109767    20.153045    20.873875    7197.6025    5098.9506    5104.7943    6827.3997    539.68452    88.510258     1862.774   -2861.5606 
 2148000    238.05239   -3879.0767    -3471.063   -3879.0767            0    7790.8846    17.094439    20.134992    20.855176    7178.2765    7580.4571    7629.3571    8162.8395    443.83147   -1149.5808    938.44186   -2655.4525 
 2149000    263.33601   -3860.7826   -3409.4337   -3860.7826            0     5686.899    17.193334    20.251476    20.975827    7303.5814    5404.9001    6018.7204    5637.0764   -248.81135    133.65106    -284.4977   -2803.6923 
 2150000    251.56167   -3878.1773   -3447.0092   -3878.1773            0    6545.4416    17.125761    20.171884    20.893388    7217.8059    6944.5317    6582.8599    6108.9332   -57.120889    176.23857    894.76052   -2758.0079 
 2151000    259.10564   -3885.9859   -3441.8877   -3885.9859            0    7092.2448    17.150949    20.201553    20.924118    7249.7007    7008.6812    6967.5208    7300.5324     1003.805     513.3035    286.34359   -2692.0286 
 2152000     247.6595   -3931.2739    -3506.794   -3931.2739            0    4607.2718    17.184615    20.241207    20.965191    7292.4765    4165.8542     4449.894    5206.0671    189.42127    678.59528   -707.20195   -3016.7955 
 2153000    279.68984   -3946.3552   -3466.9764   -3946.3552            0    5249.3545    17.175635    20.230629    20.954235    7281.0496    5936.1026    5729.0166    4082.9442    970.52808    522.12089     1296.178   -2909.5651 
 2154000    236.62208   -3893.9717   -3488.4096   -3893.9717            0    7180.3036    17.134977     20.18274    20.904632    7229.4657    7185.8113    7699.7434    6655.3561    230.88745    625.11904   -229.82695    -2731.359 
 2155000    258.43191   -3924.2189   -3481.2755   -3924.2189            0    5880.3245    17.154854    20.206153    20.928882     7254.654    4750.1462    7582.2415    5308.5857    1140.1414   -1245.3383   -79.969878   -2859.1272 
 2156000    241.77961   -3941.4208   -3527.0189   -3941.4208            0    3791.5981    17.165946    20.219217    20.942414    7268.7349    5144.7376    3129.6705    3100.3863    562.52556    -853.4379   -155.67226   -3125.0828 
 2157000    248.46292   -3916.8145   -3490.9576   -3916.8145            0     6415.109    17.127055    20.173409    20.894968    7219.4432    5529.7819    7277.1626    6438.3826    336.71023   -1690.4923    787.19876   -2815.5225 
 2158000    255.85646   -3905.9269   -3467.3977   -3905.9269            0    8455.4733     17.04996    20.082601    20.800911     7122.389    9344.6754    8301.6721    7720.0723    759.83762    -581.8386    1194.6494   -2589.1045 
 2159000     254.5212   -3905.6273   -3469.3867   -3905.6273            0    8067.1011     17.06023    20.094697    20.813441    7135.2671    8119.1627    7279.6686    8802.4721    500.14172    1399.2479    1197.2083   -2629.9197 
 2160000    256.42248   -3853.1442   -3413.6449   -3853.1442            0    7607.8756    17.081819    20.120127    20.839779    7162.3896    6202.8155    9228.8581    7391.9534    775.83427    1299.4413   -116.51146   -2618.9558 
 2161000    250.06346   -3891.8302     -3463.23   -3891.8302            0    6783.2887    17.172984    20.227507       20.951    7277.6789    6181.8567    8484.0025    5684.0068    1605.8171     1599.919   -929.28369   -2743.2688 
 2162000    243.27946   -3891.0127     -3474.04   -3891.0127            0    6056.9952    17.200899    20.260387    20.985056    7313.2261    5209.5036    5797.0225    7164.4595    153.52429   -91.468548   -239.52317   -2828.0258 
 2163000     251.7877    -3869.891   -3438.3355    -3869.891            0    6210.2843    17.204989    20.265204    20.990046    7318.4441    6620.2613    5389.7415      6620.85   -937.33798    231.72975    1246.7498   -2775.4995 
 2164000     249.0875   -3894.5262   -3467.5987   -3894.5262            0    6027.7241    17.120351    20.165512    20.886788    7210.9683    7158.2142     5675.752    5249.2062    420.03371   -1172.2774    69.616932   -2833.6957 
 2165000    257.93825   -3908.3566   -3466.2593   -3908.3566            0    7806.5132     17.05291    20.086076     20.80451    7126.0865    7685.8867    7410.6817    8322.9711   -441.73732     492.3647    206.93623   -2654.9544 
 2166000    252.50142   -3878.7609   -3445.9822   -3878.7609            0    8250.9882    17.180317    20.236144    20.959947    7287.0056    7584.5005    9094.0637    8074.4004   -1647.6792   -212.89076   -2304.9399   -2569.1207 
 2167000     254.7474   -3911.5892   -3474.9609   -3911.5892            0    6666.1306    17.069828    20.106003    20.825151    7147.3173    6536.0106    5535.1523    7927.2289    -1437.793    194.52417    999.32014   -2780.1082 
 2168000     270.8499   -3869.3825    -3405.155   -3869.3825            0    8577.0184    17.072457    20.109099    20.828357    7150.6193    11003.057    8138.1544    6589.8435   -20.569577    503.33527   -1016.1491   -2510.7054 
 2169000    260.54578   -3863.4615    -3416.895   -3863.4615            0    6197.1366    17.180143    20.235939    20.959734     7286.784    7225.2377    4595.2944    6770.8778    319.16261    2156.1748   -368.03902   -2758.3236 
 2170000    255.45783     -3881.87   -3444.0241     -3881.87            0    5815.1123    17.227701    20.291956    21.017755    7347.4659    5585.5844    5234.6421    6625.1105   -324.10434    692.47018    669.86485   -2820.9042 
 2171000    251.06041   -3887.1019   -3456.7929   -3887.1019            0    5165.7215    17.202034    20.261724    20.986441    7314.6743     6470.224    6139.1468    2887.7936   -142.11217    56.457522   -685.37239   -2905.7291 
 2172000    256.69705   -3911.1943   -3471.2243   -3911.1943            0    6717.8457    17.136279    20.184273     20.90622    7231.1129    7094.9999    6043.5052    7015.0319   -1556.4857     690.6718    -664.2693   -2762.7713 
 2173000    256.55948   -3909.3584   -3469.6242   -3909.3584            0    7117.8236     17.16664    20.220035    20.943261    7269.6165    7942.1995    5560.9242    7850.3471   -76.517286   -143.12001   -1214.8065   -2714.9932 
 2174000    249.83618   -3872.0247    -3443.814   -3872.0247            0    6603.1881    17.084328    20.123082     20.84284    7165.5462    7638.5183    5580.8738    6590.1722   -405.65019    757.77855    282.01843   -2753.7667 
 2175000    266.16884   -3884.1525   -3427.9482   -3884.1525            0    7203.7714    17.058351    20.092485    20.811149    7132.9101    8244.8855    7672.5268     5693.902    330.18494    557.87827    169.85611   -2678.5674 
 2176000    247.28212   -3884.9572   -3461.1241   -3884.9572            0    6372.3666    17.115279    20.159537      20.8806    7204.5608    4628.4602    7159.5486     7329.091   -1041.5703    947.14033   -65.975472   -2791.5723 
 2177000    262.69531   -3883.8318    -3433.581   -3883.8318            0    5988.9694    17.187934    20.245116     20.96924    7296.7026    4680.8482    7330.1746    5955.8855   -398.10173   -209.33108   -714.49091   -2796.2653 
 2178000    265.93856   -3862.7955   -3406.9859   -3862.7955            0    9276.3572    17.046777    20.078851    20.797028    7118.4002    11424.153    9655.7042    6749.2148    228.53984    1012.0122    863.66094   -2443.9649 
 2179000    261.39006   -3888.1266    -3440.113   -3888.1266            0    5719.5526    17.095035    20.135693    20.855902    7179.0264    5265.2536    5143.7933    6749.6109     502.6395    305.80855    675.87207   -2841.2831 
 2180000    249.80436   -3888.0719   -3459.9158   -3888.0719            0    4726.9492    17.208777    20.269667    20.994668      7323.28    4247.9608    5191.9803    4740.9064     726.1656    1256.8303    9.1078567   -2955.0657 
 2181000    265.44548   -3894.3202   -3439.3557   -3894.3202            0    6118.5705    17.157089    20.208784    20.931608     7257.489    5504.2881    6650.2813    6201.1422    234.05302   -194.52575   -571.31408   -2791.7476 
 2182000    264.94724   -3886.4511   -3432.3406   -3886.4511            0     5605.458    17.177452    20.232769    20.956451    7283.3607    5237.7546    6114.3532    5464.2663     1522.574    937.62252    769.65359   -2836.9269 
 2183000    248.49663   -3902.3121   -3476.3974   -3902.3121            0    6352.4481    17.107032    20.149824    20.870539    7194.1512    6191.0428    5688.1959    7178.1056   -1206.2142    661.19636     1765.383   -2809.9029 
 2184000    254.05645   -3911.4552   -3476.0111   -3911.4552            0    7153.7859    17.142291    20.191354    20.913555    7238.7265    8266.1642    6451.2307    6743.9628   -540.91854    112.51672    288.99588   -2720.7902 
 2185000    256.23513   -3885.4337   -3446.2555   -3885.4337            0      7721.33    17.189224    20.246636    20.970814    7298.3458    8189.8828    8793.4865    6180.6207    194.49716    322.31126    823.71742   -2624.4057 
 2186000    262.07361   -3894.5652     -3445.38   -3894.5652            0    5973.2611    17.192558    20.250563    20.974881    7302.5931     4922.536    6970.4518    6026.7955   -175.79218   -74.496581      -1457.3   -2809.2227 
 2187000    244.99142   -3905.6629    -3485.756   -3905.6629            0    6326.9438    17.172148    20.226522    20.949981    7276.6164     7488.524    5058.4177    6433.8896   -248.94199    835.95562    637.97865   -2814.3282 
 2188000    265.91577   -3884.6643   -3428.8938   -3884.6643            0    8861.0044    17.077364    20.114879    20.834344    7156.7868    7646.0737    9724.7136    9212.2259     1630.313    896.42117    102.29734   -2504.0318 
 2189000    244.90957   -3914.8194   -3495.0528   -3914.8194            0    6037.8815    17.116092    20.160496    20.881593    7205.5884    8024.2068    4655.4355    5434.0023   -1212.9375   -705.07262   -432.70994   -2860.5553 
 2190000    269.42644   -3869.8895   -3408.1018   -3869.8895            0    6416.7843    17.129327    20.176085    20.897739    7222.3163    6219.4053    5537.2651    7493.6826   -28.547479   -453.75217   -365.29034   -2732.2214 
 2191000    268.60694   -3911.8367   -3451.4536   -3911.8367            0    5572.7897    17.159259    20.211341    20.934256    7260.2438    6114.4274    4842.8475    5761.0941     1586.538   -653.75066    -835.4519   -2861.3887 
 2192000    253.56626   -3874.6204   -3440.0165   -3874.6204            0    7275.4668    17.100572    20.142216    20.862658    7186.0054    7394.9101     8292.698    6138.7922    544.97825    -3.016107    1385.1851   -2677.5439 
 2193000    261.39633   -3877.4889   -3429.4646   -3877.4889            0    7894.4984    17.128219     20.17478    20.896387    7220.9149    9010.9017    7828.0151    6844.5783   -479.62573   -470.40648    413.51781   -2598.0978 
 2194000    263.69448   -3882.1077   -3430.1444   -3882.1077            0    6873.5912    17.135119    20.182907    20.904805    7229.6447    7466.6468    8287.0875    4867.0392     416.6038    522.81248   -155.14362   -2705.4139 
 2195000      248.411   -3903.9536   -3478.1856   -3903.9536            0    6513.7324     17.13092    20.177961    20.899683    7224.3315    8679.2516    5258.1039    5603.8419    1646.6999    1269.1891    178.81717   -2791.9023 
 2196000    249.27241   -3890.1268   -3462.8824   -3890.1268            0      5803.56    17.131234    20.178331    20.900066    7224.7291    4421.4067    6815.7084     6173.565   -328.23592    13.971419    114.39473   -2851.3888 
 2197000    259.07538   -3886.6437   -3442.5973   -3886.6437            0    6342.1837    17.037878    20.068369    20.786171    7107.2579    7407.2145    6703.4984     4915.838    477.80354    904.16866    756.25649   -2785.2169 
 2198000    265.40568   -3912.6705   -3457.7743   -3912.6705            0    5776.3809    17.091425    20.131441    20.851498    7174.4796    5200.0803    6072.8526    6056.2098   -1115.5945    801.30433   -1747.6084   -2853.3776 
 2199000    264.67172   -3888.5464   -3434.9081   -3888.5464            0    4968.6234     17.18274    20.238998    20.962903    7290.0895    4294.2913    5934.6392    4676.9396   -299.00644    1892.0281    1877.9505   -2906.6517 
 2200000     250.5119   -3878.3074   -3448.9386   -3878.3074            0    5360.7075    17.152473    20.203347    20.925976    7251.6325     5543.467    5087.4992    5451.1565    321.28166   -1223.7934    402.39601   -2882.0029 
 2201000    258.43036    -3895.781   -3452.8402    -3895.781            0    6617.9702    17.131709    20.178891    20.900645      7225.33    5976.1774    6860.8338    7016.8994    895.55123    183.06563   -1467.8531   -2755.4781 
 2202000      259.017   -3898.7091   -3454.7628   -3898.7091            0    5668.4115    17.216422    20.278671    21.003994    7333.0436    4025.0302    8919.1706    4061.0337    1179.9345    -328.9729    868.13507    -2848.555 
 2203000    251.74529   -3923.9016   -3492.4188   -3923.9016            0    5440.7971    17.232898    20.298078    21.024095    7354.1171    5875.7804    5478.1649    4968.4461    1120.0732    1464.3828    1202.8982    -2908.881 
 2204000     251.0466   -3908.4678   -3478.1825   -3908.4678            0    6060.0358    17.161586    20.214081    20.937094    7263.1969    6380.0705      7019.24    4780.7969   -2055.1181   -609.57991    1541.9953   -2836.2654 
 2205000    243.71872   -3893.7852   -3476.0596   -3893.7852            0    7319.3398    17.079244    20.117093    20.836638    7159.1508    7123.1837    6677.2341    8157.6015   -2531.9928     481.3388    543.09896   -2711.8556 
 2206000    255.29731   -3922.5234   -3484.9525   -3922.5234            0    2608.1262    17.216681    20.278976    21.004311    7333.3753    3434.9825     528.1438    3861.2524    137.18189    298.20827   -85.771955    -3206.014 
 2207000    249.22038   -3899.6319   -3472.4766   -3899.6319            0    4955.7364    17.175428    20.230385    20.953982    7280.7861    6109.7345    4185.8408    4571.6339    1067.7986    -246.5282    269.70615   -2946.2627 
 2208000     268.9461   -3908.2967   -3447.3323   -3908.2967            0    4501.6935    17.197425    20.256295    20.980818    7308.7959    2867.7198     4491.607    6145.7538    1260.6361    284.47734    -120.0928    -2967.491 
 2209000    247.65629   -3879.2453   -3454.7709   -3879.2453            0    5129.1362    17.173226    20.227791    20.951295    7277.9859    5589.5863    3637.8722      6159.95   -87.670474    -413.7684   -272.30775   -2910.3544 
 2210000    250.95967    -3856.977   -3426.8407    -3856.977            0    6574.1282    17.133618    20.181139    20.902974    7227.7456    5117.5897    6598.6273    8006.1677   -236.79542   -366.78789    613.53821   -2733.8668 
 2211000    251.54215   -3901.6236   -3470.4889   -3901.6236            0    5621.1882    17.130832    20.177858    20.899576    7224.2205     6932.819    4319.8395    5610.9061   -375.93158   -120.65665   -243.62425   -2878.2527 
 2212000     272.8679   -3937.9187   -3470.2325   -3937.9187            0     6345.665    17.121034    20.166316    20.887621    7211.8311    6450.7561    5553.0403    7033.1986    936.99831     742.6722    5.6910596   -2802.8135 
 2213000    262.94683   -3889.2616   -3438.5797   -3889.2616            0    5511.6687     17.11299    20.156842    20.877808    7201.6712    4362.6217    6492.0783    5680.3061     393.7827   -10.391533    68.502527   -2859.6947 
 2214000    250.15312   -3873.6699    -3444.916   -3873.6699            0    4007.8906    17.072289    20.108901    20.828152     7150.408    4852.8474    3720.6881    3450.1365    375.40168     28.98051   -58.601806   -3026.9677 
 2215000    252.92445   -3930.0162   -3496.5124   -3930.0162            0    8306.1287    16.984892     20.00596    20.721529    7041.1563    6958.1233    9342.6541    8617.6087    922.98804    346.59857    50.675648   -2643.5723 
 2216000    245.29539   -3898.3775   -3477.9496   -3898.3775            0    7265.3589    17.083352    20.121932     20.84165    7164.3184    8437.0068    5241.4049     8117.665    658.94309   -1099.8285    742.52091   -2718.8341 
 2217000    257.74885   -3939.0115   -3497.2388   -3939.0115            0    6186.1614    17.163052    20.215808    20.938883    7265.0585    5002.9308    5752.3423     7803.211    538.02638   -117.41981   -511.05405   -2841.7938 
 2218000    262.96699   -3916.5185   -3465.8021   -3916.5185            0    4619.4376    17.230839    20.295652    21.021583     7351.481     5882.316    3649.2919    4326.7047   -193.63743   -1085.3062   -105.91498   -2970.5346 
 2219000    256.79153   -3879.8372   -3439.7053   -3879.8372            0    5698.9928    17.216325    20.278556    21.003876    7332.9195    7259.2977     5363.728    4473.9528    1729.0285   -203.12231     875.1364   -2830.2372 
 2220000    245.84598   -3917.5994   -3496.2278   -3917.5994            0    8139.8956     17.15782    20.209646    20.932501    7258.4175    8108.7045    8268.7081    8042.2741    1436.5654    345.22808   -1323.1643   -2634.5664 
 2221000    259.93665   -3910.1214   -3464.5989   -3910.1214            0    7288.3375     17.17969    20.235405    20.959181    7286.2076    7464.8739    7363.5587    7036.5798    547.48172    1318.4666   -1302.1867   -2690.1265 
 2222000    232.62146   -3884.0702    -3485.365   -3884.0702            0    6374.4487    17.207031     20.26761    20.992538    7321.0511    5098.9693    7343.5236    6680.8531    1329.1127     87.63272   -784.46141    -2804.765 
 2223000    253.61083   -3901.1802   -3466.4999   -3901.1802            0    6261.0158    17.147025    20.196931    20.919331     7244.726    6255.0973    5810.4648    6717.4854    709.95916    1410.5812   -450.46644   -2804.9804 
 2224000    251.33352   -3885.6028   -3454.8257   -3885.6028            0    6514.4532    17.217071    20.279435    21.004786    7333.8732    6653.5711    5760.9309    7128.8578    55.887338   -834.22081    -1210.763   -2758.0592 
 2225000    267.76554   -3944.4713   -3485.5304   -3944.4713            0    7173.4491    17.099435    20.140875     20.86127     7184.571    9168.4864    5813.8698    6537.9911   -1441.1443   -158.04565   -130.51762   -2733.8992 
 2226000    261.67809   -3942.3487   -3493.8414   -3942.3487            0    7382.1575     17.20466    20.264817    20.989645    7318.0243    9109.4641    7679.0148    5357.9934   -1860.1927    -103.0076    772.78231   -2705.9742 
 2227000    276.74398   -3894.4426   -3420.1129   -3894.4426            0    5473.5767    17.191089    20.248832    20.973088    7300.7205    5527.8719    5726.9611    5165.8971    439.51687    1189.2495    360.18705   -2837.3219 
 2228000    256.81015    -3890.016   -3449.8522    -3890.016            0    6508.7533    17.138336    20.186696     20.90873    7233.7181    6642.1665    6939.5883     5944.505   -1109.5326   -701.96393   -671.34657   -2763.2024 
 2229000    267.21666   -3909.3319   -3451.3316   -3909.3319            0    5669.7468    17.120336    20.165495     20.88677    7210.9494    5445.4958    5919.1883    5644.5562    112.08861    1074.3228    440.81781   -2855.0767 
 2230000    267.57886   -3893.2195   -3434.5985   -3893.2195            0    7165.9641    17.183005    20.239311    20.963226    7290.4269    5621.7135    6875.6583    9000.5205   -1081.1903    126.62677   -660.83409   -2672.6889 
 2231000    262.95435   -3923.9003   -3473.2055   -3923.9003            0    5011.3872    17.195328    20.253825     20.97826    7306.1231    5385.8419    6272.6352    3375.6845    1028.3987   -1580.1259     2301.127   -2939.2306 
 2232000    254.32098   -3897.4658   -3461.5684   -3897.4658            0    6541.1009    17.108556    20.151619    20.872398    7196.0745    7897.6005     4825.248    6900.4542   -1593.3627     687.5682     497.5962   -2775.0971 
 2233000    248.40962    -3893.598   -3467.8324    -3893.598            0    6521.2297    17.162744    20.215446    20.938508    7264.6682    5416.3757    6022.9923    8124.3213    -93.61334    1467.4206    1822.3616   -2776.9229 
 2234000    263.93065     -3880.16   -3427.7919     -3880.16            0    7157.7806    17.070261    20.106512    20.825678    7147.8603    6645.4582    6378.9257    8448.9579   -869.51016    475.83697    874.21359   -2681.6347 
 2235000    260.66843    -3904.245   -3457.4682    -3904.245            0    6265.4051     17.16344    20.216266    20.939357    7265.5523    5707.0224     6191.019     6898.174    67.481852   -376.89232   -1305.5937   -2793.5819 
 2236000    249.73619   -3890.2406   -3462.2013   -3890.2406            0    6389.7861    17.211106    20.272409    20.997509     7326.253    6449.2112    6732.5717    5987.5755    226.85998   -544.89407    165.08586   -2779.4789 
 2237000    260.00801   -3907.5108   -3461.8659   -3907.5108            0    5407.4396    17.213872    20.275667    21.000884    7329.7861    5437.3976    5060.4756    5724.4454    534.57089   -115.61209   -1180.2895   -2883.8247 
 2238000    255.35056   -3865.5004   -3427.8383   -3865.5004            0    5721.8365    17.203002    20.262864    20.987622    7315.9093    6316.4328    6287.7224    4561.3542    1459.5621    568.26736   -190.87808   -2817.3468 
 2239000    254.25273   -3896.8635   -3461.0831   -3896.8635            0    6238.1969    17.126622    20.172899    20.894439    7218.8955    5583.9394    6148.4652     6982.186    1039.6744   -504.58031    1353.3728   -2804.3245 
 2240000    251.79964   -3879.5702   -3447.9942   -3879.5702            0    6588.4054    17.219667    20.282493    21.007953    7337.1909     7502.263    6299.1873    5963.7659   -553.18891     205.8084   -711.53558   -2742.9992 
 2241000    249.67521   -3899.4999   -3471.5652   -3899.4999            0    5249.3995    17.157913    20.209755    20.932613    7258.5344    7121.7196    5316.1885    3310.2902    239.82685   -899.61016   -91.873776   -2915.8728 
 2242000    259.88794   -3880.7654   -3435.3263   -3880.7654            0    4418.7437     17.17021    20.224239    20.947616     7274.152    4845.1156    3080.6113    5330.5042   -636.98026   -230.38434   -2957.8516   -2966.5593 
 2243000    260.55344    -3870.114   -3423.5344    -3870.114            0     6320.121    17.127602    20.174053    20.895634    7220.1341    7757.6982    5870.6599    5332.0049    516.07009    531.10994   -1014.5735   -2758.0367 
 2244000    252.21577   -3871.9921   -3439.7029   -3871.9921            0    5645.9663    17.175433    20.230391    20.953988    7280.7925    5171.2102    6808.8586    4957.8303    1052.5307   -731.40891   -258.24109   -2840.1979 
 2245000    264.65074   -3875.0763    -3421.474   -3875.0763            0    6684.8498    17.153058    20.204037    20.926691    7252.3753    7705.0708     8069.511    4279.9678    1462.5303   -2060.3848   -604.93101   -2714.4277 
 2246000    258.50397   -3900.1806   -3457.1136   -3900.1806            0    5974.2792    17.117347    20.161974    20.883123    7207.1729    5768.6858     5564.852    6589.2998    1497.3964   -1015.2349   -70.762896   -2829.1618 
 2247000    242.12065   -3856.7554   -3441.7689   -3856.7554            0    6350.5456     17.11368    20.157654    20.878649    7202.5418    7007.2855    7029.7286    5014.6226    1361.5436   -1041.6092    300.52864   -2774.6969 
 2248000    257.91765   -3867.6087   -3425.5467   -3867.6087            0    6932.0393    17.217827    20.280326    21.005709    7334.8397    5890.3425    7188.8601    7716.9153    182.35297    139.66566   -695.41024   -2684.0187 
 2249000    244.37567    -3898.076   -3479.2244    -3898.076            0    7443.7834    17.127486    20.173917    20.895493    7219.9882    8159.2925    7810.1571    6361.9006    574.88035    917.83392    491.05967   -2695.4229 
 2250000     275.9964   -3857.0006   -3383.9522   -3857.0006            0     4691.521     17.17407    20.228786    20.952325    7279.0598    6090.8531    3119.4238     4864.286    887.63533   -595.52871   -763.63865   -2885.9115 
Loop time of 576.604 on 64 procs for 250000 steps with 864 atoms

Performance: 74.921 ns/day, 0.320 hours/ns, 433.573 timesteps/s
99.0% CPU use with 64 MPI tasks x 1 OpenMP threads

MPI task timing breakdown:
Section |  min time  |  avg time  |  max time  |%varavg| %total
---------------------------------------------------------------
Pair    | 21.023     | 26.108     | 30.833     |  48.2 |  4.53
Bond    | 0.28674    | 0.29692    | 0.31446    |   1.2 |  0.05
Kspace  | 248.58     | 259.42     | 274.89     |  43.0 | 44.99
Neigh   | 6.1221     | 6.8867     | 8.5218     |  26.6 |  1.19
Comm    | 121.87     | 138.43     | 150.07     |  64.6 | 24.01
Output  | 1.9615     | 1.9638     | 1.9894     |   0.3 |  0.34
Modify  | 133.46     | 137.91     | 141.47     |  20.0 | 23.92
Other   |            | 5.591      |            |       |  0.97

Nlocal:        13.5000 ave          20 max           9 min
Histogram: 6 5 11 11 11 10 5 2 1 2
Nghost:        2183.69 ave        2233 max        2146 min
Histogram: 4 12 8 6 5 12 6 7 3 1
Neighs:        4239.62 ave        6472 max        2549 min
Histogram: 4 4 13 7 13 9 7 5 1 1

Total # of neighbors = 271336
Ave neighs/atom = 314.04630
Ave special neighs/atom = 2.0000000
Neighbor list builds = 13600
Dangerous builds = 1

unfix		3
unfix		2
unfix		1

write_data	data.final.${pid}
write_data	data.final.0
System init for write_data ...
PPPM initialization ...
  extracting TIP4P info from pair style
  using 12-bit tables for long-range coulomb (../kspace.cpp:340)
  G vector (1/distance) = 0.37485972
  grid = 24 24 25
  stencil order = 5
  estimated absolute RMS force accuracy = 0.0030062016
  estimated relative force accuracy = 9.0530869e-06
  using double precision FFTW3
  3d grid and FFT values/proc = 2730 288
Last active /omp style is kspace_style pppm/tip4p/omp
WARNING: Not all mixed pair coeffs generated from mixing. Use write_data with 'pair ij' option to store all pair coeffs. (../write_data.cpp:312)

write_restart   restart.lmp.${pid}
write_restart   restart.lmp.0
System init for write_restart ...
PPPM initialization ...
  extracting TIP4P info from pair style
  using 12-bit tables for long-range coulomb (../kspace.cpp:340)
  G vector (1/distance) = 0.37485972
  grid = 24 24 25
  stencil order = 5
  estimated absolute RMS force accuracy = 0.0030062016
  estimated relative force accuracy = 9.0530869e-06
  using double precision FFTW3
  3d grid and FFT values/proc = 2730 288
Last active /omp style is kspace_style pppm/tip4p/omp
Total wall time: 0:09:39
