LAMMPS data file via write_data, version 30 Jul 2021, timestep = 14000000

1920 atoms
2 atom types
1280 bonds
1 bond types
640 angles
1 angle types

-0.042339407294802456 24.77234040729399 xlo xhi
-0.06617310517531294 24.796174105167836 ylo yhi
-0.035714392551120966 22.84571439255896 zlo zhi

Masses

1 1.008
2 15.999

Pair Coeffs # lj/cut/tip4p/long/omp

1 0 0
2 0.21084 3.1668

Bond Coeffs # harmonic/omp

1 450 0.9572

Angle Coeffs # harmonic/omp

1 55 104.52

Atoms # full

1 1 2 -1.1794 4.422868072109123 1.6656610509658605 4.187241877989765 0 0 0
2 1 1 0.5897 4.548506549172956 2.4360610043605084 4.7411687188521014 0 0 0
3 1 1 0.5897 5.1057546098222915 1.7357496429188095 3.520167120860272 0 0 0
4 2 2 -1.1794 2.828253916748013 1.419834916819386 1.7414598683763678 0 0 0
5 2 1 0.5897 3.1401633948717174 1.5165426432902096 2.6412285606535626 0 0 0
6 2 1 0.5897 1.8772822589406986 1.3479372077294363 1.8235342529822438 0 0 0
10 4 2 -1.1794 3.0446213600724095 4.551930098233497 3.3619119471677723 0 0 0
11 4 1 0.5897 2.56467888744892 5.222312421414547 3.8481389539132453 0 0 0
12 4 1 0.5897 2.508981899335163 4.388916972552235 2.585543383561211 0 0 0
13 5 2 -1.1794 1.2892258429847623 2.8307386910952066 4.952261982116959 0 0 0
14 5 1 0.5897 2.082417541915249 3.172092752206447 4.539266488925032 0 0 0
15 5 1 0.5897 1.3308650324871898 1.8855884461502124 4.807145262385866 0 0 0
22 8 2 -1.1794 1.2635667211464583 4.231606691782282 1.2845530355364012 0 0 0
24 8 1 0.5897 1.2558919419056829 4.961879400057342 0.6658529878834868 0 0 0
23 8 1 0.5897 0.5483176944607127 4.42336651575428 1.8910846234794965 0 0 0
20 7 1 0.5897 3.8442456749504266 2.749709602785583 1.0404097444774996 0 0 0
9 3 1 0.5897 4.979709461678073 4.841051466781441 3.5275011621892003 0 0 0
21 7 1 0.5897 5.352557944561313 2.7059129445738375 1.1629870662133301 0 0 0
19 7 2 -1.1794 4.635775151137869 3.2434079118494235 0.8260537064385414 0 0 0
27 9 1 0.5897 4.514375090494693 5.064800332236982 0.8226190934020553 0 0 0
25 9 2 -1.1794 4.512576133620021 6.01511680907141 0.7086469643576905 0 0 0
98 33 1 0.5897 0.1252200366496627 5.2476083906078745 3.816551067988911 1 0 0
386 129 1 0.5897 5.03726860701334 0.3763878396426596 -0.030117289326672864 0 1 0
7 3 2 -1.1794 5.926323575408321 4.699076141615266 3.5239215608799994 0 0 0
16 6 2 -1.1794 0.006681391968710898 1.2735608953646627 1.790580291326672 0 0 0
28 10 2 -1.1794 1.36555246390418 0.09384535824851739 4.794253572876605 0 0 0
47 16 1 0.5897 6.087958402594222 0.8855720812908019 1.734383534825198 0 0 0
150 50 1 0.5897 1.3425778760868925 5.909826803652911 5.563253579212413 0 0 0
387 129 1 0.5897 4.026235686916931 0.22448191623157515 1.08641170161109 0 1 0
867 289 1 0.5897 4.655433101977439 0.45852325535733673 5.459296551003538 0 1 0
1470 490 1 0.5897 1.463899769271026 -0.039679926929615306 0.08152786004892221 0 0 1
270 90 1 0.5897 0.755821033842597 12.058331147920024 4.426545421723008 0 0 0
148 50 2 -1.1794 1.316491770733323 6.2472915342937885 4.667909309580236 0 0 0
26 9 1 0.5897 5.339685040465406 6.304554833214872 1.0938060226340451 0 0 0
121 41 2 -1.1794 4.4832796060762785 7.928917999815937 4.14469676497232 0 0 0
122 41 1 0.5897 3.721877586819141 7.766333855785274 3.5878563902021146 0 0 0
123 41 1 0.5897 5.209199548534349 8.043121524126276 3.5313158599980228 0 0 0
124 42 2 -1.1794 2.7179519702907755 7.588625596023844 2.1091312273171585 0 0 0
125 42 1 0.5897 3.1978679132193104 6.896409615992088 1.6545091976795945 0 0 0
126 42 1 0.5897 3.1038132430234397 8.401763156343447 1.7834638089179766 0 0 0
129 43 1 0.5897 5.02515737458159 11.081520019699928 3.2562994962778813 0 0 0
130 44 2 -1.1794 3.0738828973514822 10.975830513441116 3.2708568900184134 0 0 0
132 44 1 0.5897 2.9717822653977013 10.231671854046224 3.864107783852765 0 0 0
133 45 2 -1.1794 1.5551634975250601 9.052163084391836 4.77754089066922 0 0 0
135 45 1 0.5897 0.8096033058108791 9.43725995012688 4.317044598520466 0 0 0
137 46 1 0.5897 0.8360198015775535 7.89248440030426 1.6886032989776074 0 0 0
139 47 2 -1.1794 4.674699775679232 9.450368788743281 0.6500202111974784 0 0 0
142 48 2 -1.1794 1.2206414021287664 10.660687896082628 1.1324547679036845 0 0 0
143 48 1 0.5897 1.8325010394381074 10.894315729390492 1.8305021724099926 0 0 0
144 48 1 0.5897 1.2539934548133573 11.400786182744032 0.5264094452949596 0 0 0
149 50 1 0.5897 1.1332088471690978 7.18128092760876 4.768765259079783 0 0 0
131 44 1 0.5897 2.69436751031633 11.715115156702876 3.7458047442119913 0 0 0
140 47 1 0.5897 4.559099539501263 10.400448514697528 0.6408050900671229 0 0 0
134 45 1 0.5897 1.5670193429166928 9.49387626302699 5.62662501536376 0 0 0
145 49 2 -1.1794 4.346488861061521 12.204123713810677 0.6505430994198561 0 0 0
621 207 1 0.5897 4.371758879816153 9.110768282321912 5.554140570131769 0 0 0
507 169 1 0.5897 4.1848962911827865 6.750818390708335 5.553723861645252 0 0 0
218 73 1 0.5897 -0.003159926832432061 10.79949272673105 2.546844587690206 1 0 0
127 43 2 -1.1794 5.962929529538136 10.93676289826666 3.3822935621172183 0 0 0
168 56 1 0.5897 6.066842004382682 8.371309629263878 1.5054115352435384 0 0 0
579 193 1 0.5897 0.07725842954967949 5.286849071715842 9.611254008222991 1 0 0
1347 449 1 0.5897 4.599974738004135 0.04745539335471291 11.354643028046867 0 1 0
578 193 1 0.5897 0.28935635221689043 3.7937308087026174 9.74227847137514 1 0 0
496 166 2 -1.1794 0.06659983384989754 1.5475869450918511 7.6965448418730995 0 0 0
508 170 2 -1.1794 1.6863146917929996 0.021816212782260216 10.751227259623002 0 0 0
527 176 1 0.5897 6.083021131498189 0.9647770530075463 7.285098959735201 0 0 0
487 163 2 -1.1794 6.0855371720239955 4.8252697509059495 9.245169916067951 0 0 0
494 165 1 0.5897 1.5692769238470667 1.8353199052861437 10.753098895282116 0 0 0
504 168 1 0.5897 1.4886023499358099 3.9206603785749117 6.316714237428877 0 0 0
501 167 1 0.5897 4.440012970649766 4.270210098470926 6.194049991768436 0 0 0
499 167 2 -1.1794 4.575546592884619 3.3266111228118094 6.279821763926366 0 0 0
483 161 1 0.5897 5.0706791071918484 1.9576486873610444 10.649179446229473 0 0 0
492 164 1 0.5897 2.7651206127351844 3.8208261062660007 9.679346910483849 0 0 0
493 165 2 -1.1794 1.3835995017465654 2.749223080216918 10.537671360092784 0 0 0
491 164 1 0.5897 2.9045750132088664 4.6059107905023815 8.392501221398296 0 0 0
485 162 1 0.5897 3.5409591099733877 1.5298802140671461 8.538916664904788 0 0 0
481 161 2 -1.1794 4.779021025548794 1.3393610448638062 9.979233517877669 0 0 0
482 161 1 0.5897 5.390917437969637 1.4650525023504215 9.25396173545194 0 0 0
502 168 2 -1.1794 1.6544224950840862 4.621041149367859 6.947688863583193 0 0 0
500 167 1 0.5897 3.8393323538165163 3.025892949962941 6.812533153472691 0 0 0
490 164 2 -1.1794 3.298525613515252 4.494538881447078 9.257734862227975 0 0 0
503 168 1 0.5897 0.9264631936203764 4.563809901436085 7.566593518390672 0 0 0
498 166 1 0.5897 1.0203675793356377 1.4689201527076161 7.676739116738641 0 0 0
484 162 2 -1.1794 2.996098343879393 1.4091013357918305 7.761248972529131 0 0 0
489 163 1 0.5897 5.144585742495695 4.723518374071091 9.388373734853076 0 0 0
486 162 1 0.5897 3.528659268430412 0.8699976957960596 7.176489127531579 0 0 0
629 210 1 0.5897 2.050692098165468 6.033559407224764 10.268314983014282 0 0 0
495 165 1 0.5897 1.3644492618858315 3.196102522824103 11.3839178305089 0 0 0
865 289 2 -1.1794 4.8141714389633545 0.07060567405763149 6.319834612174569 0 1 0
528 176 1 0.5897 5.80330021862022 2.4486327165012924 7.392280635371533 0 0 0
615 205 1 0.5897 0.5985915742483227 9.384720965641183 10.247994658795418 0 0 0
698 233 1 0.5897 0.23923586653835827 11.68795046809208 9.754336628341207 1 0 0
607 203 2 -1.1794 5.961635886855013 10.843911666212257 9.313995829925817 0 0 0
646 216 2 -1.1794 6.1374059964330945 7.864457046613693 7.73260558282671 0 0 0
619 207 2 -1.1794 4.310054987136666 9.566044888164505 6.393846685483115 0 0 0
505 169 2 -1.1794 4.308859958499396 6.217133131019269 6.338577350076605 0 0 0
506 169 1 0.5897 3.743820833698192 6.622599243316716 6.996251034117688 0 0 0
648 216 1 0.5897 5.755361386986518 7.1980780648690965 7.161514344012395 0 0 0
614 205 1 0.5897 2.0997204979010875 9.534307427934296 10.120827539785646 0 0 0
1101 367 1 0.5897 4.651679704125562 9.099797841793478 11.280163652606772 0 0 0
602 201 1 0.5897 4.5392401213845694 7.004161923058523 10.51467825637298 0 0 0
612 204 1 0.5897 3.0075292728972705 11.600603939015505 9.649087534722227 0 0 0
647 216 1 0.5897 5.610979821749326 7.826622568013953 8.531153417168914 0 0 0
620 207 1 0.5897 4.999297453625455 9.17450612160191 6.930370641290466 0 0 0
604 202 2 -1.1794 2.6209785180389944 7.923184129600464 8.072557839075383 0 0 0
699 233 1 0.5897 0.3657398149947553 10.855642467484206 8.496153513637893 1 0 0
628 210 2 -1.1794 1.2147165253787202 6.294205361322708 10.654897429087116 0 0 0
606 202 1 0.5897 1.672847649094782 7.800250647421663 8.025842981410852 0 0 0
611 204 1 0.5897 4.134398663987104 10.677207193409686 9.237641412272529 0 0 0
624 208 1 0.5897 1.6480070649366256 11.398374158748426 6.568706493648826 0 0 0
613 205 2 -1.1794 1.4235178577010152 9.104442453151417 10.644444147304524 0 0 0
626 209 1 0.5897 4.327766767811801 11.397242002658164 6.639174846937775 0 0 0
603 201 1 0.5897 3.738577412035143 7.821537730460408 9.52340109520503 0 0 0
601 201 2 -1.1794 4.59931917958182 7.766086435980804 9.938483689526423 0 0 0
622 208 2 -1.1794 1.5234367459360003 10.574645468969672 7.039967063340776 0 0 0
605 202 1 0.5897 2.798994243933826 8.64695713208931 7.472050531759805 0 0 0
623 208 1 0.5897 2.181309521890081 10.593915497302525 7.734998925700742 0 0 0
630 210 1 0.5897 1.2966939758019465 7.238228446970839 10.789805870578679 0 0 0
610 204 2 -1.1794 3.1813356015993532 10.720515367234794 9.315399016172915 0 0 0
625 209 2 -1.1794 4.287354636918594 12.343859992052705 6.503611775934983 0 0 0
961 321 2 -1.1794 4.521225995564155 1.639762500962892 15.623336997817999 0 0 0
962 321 1 0.5897 5.334971079436188 1.7237127490892645 15.126321282490732 0 0 0
963 321 1 0.5897 4.678110472145902 0.9067765592943621 16.218539490420497 0 0 0
964 322 2 -1.1794 2.7591724034581904 1.4934653293632432 13.407314985425717 0 0 0
965 322 1 0.5897 3.2191569663152735 1.5210298914973026 14.246291126630748 0 0 0
966 322 1 0.5897 1.8465415942313455 1.3218918034568274 13.639501675150038 0 0 0
970 324 2 -1.1794 3.373970499661542 4.489185535341435 14.725060049665867 0 0 0
971 324 1 0.5897 4.3104513968356395 4.526461793191973 14.919649582763048 0 0 0
972 324 1 0.5897 3.047332916882077 3.762633846301793 15.255702764224761 0 0 0
973 325 2 -1.1794 1.7478747302096878 2.8144128420167513 16.301881101192343 0 0 0
975 325 1 0.5897 1.0113606361126715 3.2251937236769943 15.849090749533831 0 0 0
982 328 2 -1.1794 1.428582327258734 4.4309792762815565 12.640150164337252 0 0 0
983 328 1 0.5897 1.2661161160135315 5.196602957111075 12.089184513343275 0 0 0
984 328 1 0.5897 2.2175015100993942 4.653897404892897 13.134265601972277 0 0 0
980 327 1 0.5897 3.8563738619500194 3.035132347779032 12.47323362957677 0 0 0
981 327 1 0.5897 5.310889765875655 2.7915205174366244 12.815242866517343 0 0 0
979 327 2 -1.1794 4.746139808204857 3.2390902779093804 12.185208214584165 0 0 0
990 330 1 0.5897 1.702495682257443 0.9851824187469806 16.322906726946744 0 0 0
986 329 1 0.5897 5.072357573009002 4.947459354143563 12.084264917572737 0 0 0
1109 370 1 0.5897 0.5194411280657412 5.825889323580674 15.854471334152338 0 0 0
985 329 2 -1.1794 4.954235973083987 5.887413561923202 11.947770341590509 0 0 0
1110 370 1 0.5897 2.0232776589469625 5.6583251173151154 15.80615357537502 0 0 0
988 330 2 -1.1794 1.5767832740293581 0.038597328519948945 16.25758052693781 0 0 0
976 326 2 -1.1794 -0.027837149907250103 1.3002959982151632 13.638206489718689 0 0 0
1058 353 1 0.5897 0.1608959578526668 4.313293611753431 14.017066564720407 1 0 0
1460 487 1 0.5897 4.33055374933955 2.8991789811733555 17.067693161416514 0 0 0
1346 449 1 0.5897 3.853682108679095 0.2908025728027697 12.649134195354323 0 1 0
987 329 1 0.5897 4.392717163612461 6.166231878395326 12.671083356843484 0 0 0
1108 370 2 -1.1794 1.3326435538791974 6.181786167672343 16.212612376443168 0 0 0
1081 361 2 -1.1794 4.7588541720953765 7.634218772409834 15.762006378756361 0 0 0
1082 361 1 0.5897 4.689210308370105 8.49701676988191 16.170473243562036 0 0 0
1083 361 1 0.5897 4.5174127353372295 7.020261621142639 16.455498293509017 0 0 0
1084 362 2 -1.1794 3.093624785334254 7.41621974565548 13.525408400643162 0 0 0
1085 362 1 0.5897 3.5107567292284325 7.429054256446919 14.386845268391731 0 0 0
1086 362 1 0.5897 3.513198615539385 8.129850181768376 13.044947311592342 0 0 0
1089 363 1 0.5897 5.00662678021339 10.725286849238433 14.983748413986767 0 0 0
1090 364 2 -1.1794 3.2080853304426187 10.570016891864467 14.811088936661433 0 0 0
1091 364 1 0.5897 3.1138101972379006 11.426206593992218 15.228424799702982 0 0 0
1092 364 1 0.5897 2.7826373157904944 9.96084591625539 15.414480607642826 0 0 0
1095 365 1 0.5897 1.1032499040274522 9.383118516535001 16.1245931580337 0 0 0
1097 366 1 0.5897 1.3394577886508414 7.521279943794869 13.429882774927949 0 0 0
1099 367 2 -1.1794 4.51500381090001 9.283997223511609 12.209468118273605 0 0 0
1102 368 2 -1.1794 1.5626749627321614 10.863377773241151 12.75053696571292 0 0 0
1104 368 1 0.5897 2.2224086451055047 10.691992101697778 13.422554604461704 0 0 0
1093 365 2 -1.1794 1.871275596552636 8.946808420025002 16.493352474261986 0 0 0
1103 368 1 0.5897 1.5477011094483222 10.0667223956195 12.22021023853756 0 0 0
1100 367 1 0.5897 5.272814731894247 8.894220748955945 12.645373835576828 0 0 0
1094 365 1 0.5897 1.7419849127777651 8.020606648635628 16.28954047017503 0 0 0
1107 369 1 0.5897 4.293569506023198 11.114372164093398 12.171606844100403 0 0 0
1127 376 1 0.5897 5.951075571646246 7.6563947579274885 14.231812102273015 0 0 0
1178 393 1 0.5897 0.6012154675899363 11.255153181625953 15.540777666657617 1 0 0
1179 393 1 0.5897 0.4351941126898307 10.745610531736961 14.124927794896195 1 0 0
1128 376 1 0.5897 5.98178490457796 7.114013727367758 12.818763864857022 0 0 0
1087 363 2 -1.1794 5.963630324012163 10.7064044581052 14.97756674233753 0 0 0
1096 366 2 -1.1794 0.4135617269378953 7.658284190124865 13.22940255841496 0 0 0
1105 369 2 -1.1794 4.472524469126353 12.005474210519726 12.471647869870601 0 0 0
1177 393 2 -1.1794 0.027195230596881004 10.722339472775769 14.990502627171114 1 0 0
1098 366 1 0.5897 -0.03705848450132265 7.504934932476545 14.059853069843793 0 0 0
1228 410 2 -1.1794 1.7378124391471423 12.264663326726268 16.389723006700915 0 0 0
750 250 1 0.5897 1.5486166745561063 12.333924478860592 11.420611225183409 0 0 0
1538 513 1 0.5897 0.0607740034861024 3.927187657845089 21.020122424924704 1 0 0
1456 486 2 -1.1794 0.33786115136565 1.5272149439180946 18.938204297613584 0 0 0
974 325 1 0.5897 1.6359154964871288 3.0651621942882534 17.218832651453564 0 0 0
1455 485 1 0.5897 1.41139187628882 3.18150143763181 22.845572496130902 0 0 0
1468 490 2 -1.1794 1.216212461368776 0.07631335293608141 22.045668432359978 0 0 0
1826 609 1 0.5897 3.93775606047022 0.028104597398681458 18.094137742717006 0 1 0
1539 513 1 0.5897 0.14903890908329576 5.438249585238277 21.04129833396153 1 0 0
1488 496 1 0.5897 6.0427355346721034 1.1735400116241312 18.392945794035967 0 0 0
1454 485 1 0.5897 2.0201655309417834 3.301223782336826 21.464654041170814 0 0 0
1464 488 1 0.5897 0.8030320713756159 4.635781160400736 19.084837053010812 0 0 0
1443 481 1 0.5897 4.84845576207812 2.3945956957803665 22.06506646650847 0 0 0
1450 484 2 -1.1794 3.239459532248268 4.5490120915682555 20.735498693064134 0 0 0
1469 490 1 0.5897 0.9973387000912421 1.005152413506488 21.97181480425278 0 0 0
1442 481 1 0.5897 4.13301020865883 1.6792206553708557 20.938930247595618 0 0 0
1453 485 2 -1.1794 1.3882662409680493 2.7915452264025196 21.971731573518955 0 0 0
1444 482 2 -1.1794 3.0167202309696783 1.385085420832276 19.42941662951765 0 0 0
1463 488 1 0.5897 1.484278423878586 5.0872805616176935 17.8105125599223 0 0 0
1452 484 1 0.5897 2.897169940395105 4.490128271907129 19.84353666403868 0 0 0
1441 481 2 -1.1794 4.997373069351766 1.795858184452119 21.33328367539735 0 0 0
1451 484 1 0.5897 4.189460959302515 4.59033695141873 20.625755362639836 0 0 0
1445 482 1 0.5897 2.0879439965175557 1.4655799814519967 19.21228847845032 0 0 0
1446 482 1 0.5897 3.463502067759207 1.9229476819552134 18.775745622426776 0 0 0
1461 487 1 0.5897 5.218043518591879 3.092463564749052 18.27884434404747 0 0 0
1459 487 2 -1.1794 4.3706894886916 3.346312918451977 17.913065759843416 0 0 0
1462 488 2 -1.1794 1.5432972307504134 4.437873355792009 18.511188546580176 0 0 0
1466 489 1 0.5897 4.316987162942328 5.147807376637597 17.795367361573238 0 0 0
1465 489 2 -1.1794 4.2853457190495945 6.104017905694261 17.822785782307037 0 0 0
1590 530 1 0.5897 2.3545048557021837 5.744650739227259 22.06622115190914 0 0 0
1447 483 2 -1.1794 5.933487387331974 4.8027622255699125 20.593372451804896 0 0 0
1588 530 2 -1.1794 1.5027637931475715 6.115433017590266 22.297052893859018 0 0 0
1449 483 1 0.5897 6.050718337355909 3.9736837505866855 21.057063312416826 0 0 0
1487 496 1 0.5897 5.928735801455113 1.5172197700435779 19.862891803894854 0 0 0
1710 570 1 0.5897 2.2134502882170297 12.325836748019999 21.751438353424106 0 0 0
1585 529 2 -1.1794 4.847618746962788 12.29511217318989 17.670354585571662 0 0 0
1608 536 1 0.5897 5.887986363355744 7.646608975030726 19.87126084926835 0 0 0
1567 523 2 -1.1794 5.983836015432349 10.389780753642956 20.564772181992087 0 0 0
141 47 1 0.5897 4.549986969507273 9.184606898952294 22.620388427050074 0 0 -1
1571 524 1 0.5897 2.8928631626154417 10.74442256645445 19.980192088076056 0 0 0
1584 528 1 0.5897 1.5158527062637255 9.911479123489492 18.026205303800946 0 0 0
1573 525 2 -1.1794 1.665701332702837 8.74930575722205 21.9555832830543 0 0 0
1572 524 1 0.5897 4.24092088223926 10.7579597248133 20.669025589118814 0 0 0
1581 527 1 0.5897 5.501206762621367 8.921263734553976 18.015672685760304 0 0 0
1564 522 2 -1.1794 2.924649731532886 7.7356453435180965 19.41380979296974 0 0 0
1582 528 2 -1.1794 1.5673472997665114 10.697286936315226 18.570254763637188 0 0 0
1562 521 1 0.5897 4.7231473944082 7.003695120273421 22.007960189835874 0 0 0
1565 522 1 0.5897 1.9843619499189926 7.563415118817714 19.364360876326618 0 0 0
1709 570 1 0.5897 0.7546002498742088 12.010833742654091 21.497563796392743 0 0 0
1570 524 2 -1.1794 3.3078247909782226 10.899704991058083 20.828672451819475 0 0 0
1580 527 1 0.5897 4.036384460632008 9.262689615767385 18.187856878698785 0 0 0
1563 521 1 0.5897 3.927017482418647 7.451984748529841 20.80086905869401 0 0 0
1576 526 2 -1.1794 0.09838078851692214 7.4920960837698685 19.189411544638393 0 0 0
1561 521 2 -1.1794 4.70270376765665 7.667475727146853 21.31866026104389 0 0 0
1583 528 1 0.5897 0.8358660992087146 10.61401862229572 19.182004705381342 0 0 0
1587 529 1 0.5897 4.985990063694121 11.358114340254897 17.808143283729358 0 0 0
1589 530 1 0.5897 1.5856264454204123 7.048252946973604 22.099365031855534 0 0 0
1467 489 1 0.5897 5.1758019909118875 6.367004565994513 18.055512216424408 0 0 0
1579 527 2 -1.1794 4.8267130701503085 9.532792938733596 17.72024891130219 0 0 0
1566 522 1 0.5897 3.325068167802286 7.0288577308481575 18.907575364938968 0 0 0
1575 525 1 0.5897 2.372714395135196 9.085031839564325 21.404537406537653 0 0 0
1230 410 1 0.5897 1.6767703119548176 11.864517083132053 17.257109652276817 0 0 0
1574 525 1 0.5897 1.6488881300620342 9.338384138714341 22.70982223795448 0 0 0
241 81 2 -1.1794 4.5937595566554625 13.746722150350472 4.248667424446875 0 0 0
242 81 1 0.5897 4.500185147078137 13.202175576999748 5.030264744107115 0 0 0
243 81 1 0.5897 3.7803373134275287 13.61087890981114 3.76273017080398 0 0 0
244 82 2 -1.1794 2.8017953934747775 13.822630472255035 2.185989248027511 0 0 0
245 82 1 0.5897 1.863205521690548 13.928217533004874 2.0305945755998884 0 0 0
246 82 1 0.5897 3.208343277081757 14.535318734948712 1.693088161716968 0 0 0
250 84 2 -1.1794 3.3591992388909593 17.40534587616188 3.7039482853523213 0 0 0
251 84 1 0.5897 2.948770387808447 17.469022454535907 2.841555499718823 0 0 0
252 84 1 0.5897 4.280538032606983 17.2237736468795 3.5184426784390084 0 0 0
253 85 2 -1.1794 1.5646514411637091 15.37430934730241 4.665565750120842 0 0 0
255 85 1 0.5897 2.2283404711625585 15.839713474737755 4.156524872083844 0 0 0
259 87 2 -1.1794 4.42717065169041 15.940805329727151 0.7897582056330551 0 0 0
262 88 2 -1.1794 1.446905811241743 17.278665315099964 1.6082035787106386 0 0 0
263 88 1 0.5897 1.4485694087973628 16.551264338436138 0.9860861724454986 0 0 0
264 88 1 0.5897 1.4760007400369046 18.062981955572372 1.0603495016388746 0 0 0
269 90 1 0.5897 1.3445520281047796 13.380688531136405 4.869725916788236 0 0 0
254 85 1 0.5897 0.7448702607440797 15.822818508910402 4.458161187511915 0 0 0
260 87 1 0.5897 4.351392480921492 16.89161600978508 0.7102693125299802 0 0 0
147 49 1 0.5897 5.1687261107536315 12.52402381352242 1.0217904445784092 0 0 0
339 113 1 0.5897 -0.03829416418856299 17.95220082157169 4.328820562393017 1 0 0
247 83 2 -1.1794 6.1263805042252875 16.98513423302883 3.529494146211958 0 0 0
288 96 1 0.5897 5.705932297885732 14.651865628455303 1.4177713156211285 0 0 0
256 86 2 -1.1794 0.020389354929344558 14.073496540394295 2.110157368447125 0 0 0
146 49 1 0.5897 3.6660690825843694 12.625235393519977 1.175817711971377 0 0 0
268 90 2 -1.1794 1.4206484953332479 12.435868267434387 5.002468407885207 0 0 0
287 96 1 0.5897 5.901396884204331 14.065305088323989 2.799639354543597 0 0 0
265 89 2 -1.1794 4.50660221082551 18.683359373018227 0.7189901582042949 0 0 0
389 130 1 0.5897 2.1522392514591124 18.615170765274662 4.56996086600616 0 0 0
30 10 1 0.5897 1.4103224526411904 24.53673434777792 5.653465087319567 0 -1 0
29 10 1 0.5897 2.209029145006384 24.759280208939664 4.386808670756982 0 -1 0
376 126 2 -1.1794 0.2511908062197661 19.975113278017513 2.118424018891802 0 0 0
408 136 1 0.5897 5.999425974045785 20.325557713416973 2.991460623088518 0 0 0
388 130 2 -1.1794 1.5013837709563334 18.882141203970075 5.21907118095421 0 0 0
267 89 1 0.5897 3.944182855314588 19.25113942841758 1.2457714812608793 0 0 0
361 121 2 -1.1794 4.831072988668657 20.473004514547146 4.35679223312305 0 0 0
362 121 1 0.5897 4.097814263676123 20.552771674972835 3.7467033493121495 0 0 0
364 122 2 -1.1794 3.051294496728518 20.45646712411868 2.190430808419212 0 0 0
365 122 1 0.5897 3.3651043052585377 21.15343115690673 1.6143003097303614 0 0 0
370 124 2 -1.1794 3.283695812593543 23.30437434806793 3.3705619270827802 0 0 0
371 124 1 0.5897 4.221379220376632 23.320477915342575 3.562236939242546 0 0 0
372 124 1 0.5897 2.9235741052084037 22.667138262173133 3.9873346324232255 0 0 0
373 125 2 -1.1794 1.691355302887566 21.648297140691174 4.903991001025607 0 0 0
382 128 2 -1.1794 1.4133117318528097 23.28108350883326 1.3620159674750758 0 0 0
383 128 1 0.5897 2.2219398244260717 23.30216897942356 1.8737950234608034 0 0 0
375 125 1 0.5897 0.9304160806747315 22.00334156284557 4.444495230925773 0 0 0
366 122 1 0.5897 2.097497407220992 20.500181005825745 2.1225296270037752 0 0 0
384 128 1 0.5897 1.6406860395248648 22.787175378176336 0.5742706643667326 0 0 0
381 127 1 0.5897 5.235319716839067 21.740440472177067 0.8798726571813377 0 0 0
379 127 2 -1.1794 4.503184157138033 22.13158007142423 0.40321379837133625 0 0 0
380 127 1 0.5897 4.6171474390620535 23.074666270444403 0.5202451346126383 0 0 0
390 130 1 0.5897 1.419014008979591 19.828398047408925 5.1011369057505584 0 0 0
363 121 1 0.5897 4.756450388723531 19.585339666282234 4.706926007239566 0 0 0
861 287 1 0.5897 4.591128202371931 21.716042448495557 5.649615256840095 0 0 0
385 129 2 -1.1794 4.877812592945633 24.767701093409407 0.7877412058270991 0 0 0
458 153 1 0.5897 0.31822074027114106 23.84477352423559 4.0139829895893975 1 0 0
459 153 1 0.5897 0.21253289597136465 23.031809033969868 2.7413117202488793 1 0 0
367 123 2 -1.1794 6.055634525601204 23.413391008381332 3.778318695898698 0 0 0
407 136 1 0.5897 6.016880814718504 19.605007899464518 1.6601860545378646 0 0 0
748 250 2 -1.1794 1.4802463591302437 12.740254495093973 10.556656782901113 0 0 0
740 247 1 0.5897 4.88966088425321 15.217947532639645 5.6963843032407135 0 0 0
729 243 1 0.5897 6.123940853994095 17.611410181602007 9.94523707746224 0 0 0
727 243 2 -1.1794 5.903343560677344 17.041695356930493 9.208394804863364 0 0 0
749 250 1 0.5897 1.558510328006724 13.679003074447762 10.726149451032667 0 0 0
737 246 1 0.5897 0.9356293117589503 14.16677382859097 7.854553258280426 0 0 0
732 244 1 0.5897 2.660965272376133 16.530191318120732 9.588777301923406 0 0 0
725 242 1 0.5897 3.2133921191891703 14.973040378142166 7.701966585514036 0 0 0
726 242 1 0.5897 3.268520185700719 13.483616913608467 7.437119435537023 0 0 0
730 244 2 -1.1794 3.1568357215373686 17.05660818831388 8.961731145296579 0 0 0
728 243 1 0.5897 4.947775636706808 17.07062779120502 9.160338848962663 0 0 0
733 245 2 -1.1794 1.6389487438628314 15.456279467164014 10.70172903080261 0 0 0
724 242 2 -1.1794 2.754008536517003 14.153906357558904 7.886741481632756 0 0 0
742 248 2 -1.1794 1.3098052037050438 16.83009996414237 6.969550863856991 0 0 0
721 241 2 -1.1794 4.426645882301217 13.615493648333453 10.19183950810656 0 0 0
743 248 1 0.5897 1.3269626891276405 17.57477865452848 6.368468243818098 0 0 0
722 241 1 0.5897 3.6600505869239126 13.974898131798426 9.745318850168568 0 0 0
731 244 1 0.5897 2.5789623242599333 17.13289327097635 8.202472868797273 0 0 0
735 245 1 0.5897 0.8796113616161783 15.77976326040187 10.21697187985715 0 0 0
741 247 1 0.5897 4.826480635629305 16.60504391157515 6.299349857391108 0 0 0
744 248 1 0.5897 1.4591109069284882 16.067368123111528 6.410901153553301 0 0 0
739 247 2 -1.1794 4.973973435968057 15.687021771816255 6.526475908727528 0 0 0
723 241 1 0.5897 5.04519259944853 13.42088795802154 9.487730771196732 0 0 0
869 290 1 0.5897 0.8962952035036259 18.30617305331126 10.23064701202378 0 0 0
870 290 1 0.5897 2.3756658730372964 18.560356711784333 10.033702851996821 0 0 0
745 249 2 -1.1794 4.624552923530686 18.513392917955166 6.204654455055691 0 0 0
818 273 1 0.5897 0.24890886941786616 16.92105846377725 8.31847832169207 1 0 0
736 246 2 -1.1794 0.02194301074332712 13.951711451850429 7.667024930250636 0 0 0
627 209 1 0.5897 4.983656289969539 12.695636043823592 7.058263563547389 0 0 0
766 256 2 -1.1794 6.111043941155222 13.786385966658692 7.985588098164733 0 0 0
768 256 1 0.5897 5.764596196778094 14.551243839021657 7.526122982520411 0 0 0
862 288 2 -1.1794 1.3439686066476755 23.212179412093825 7.088085454599313 0 0 0
868 290 2 -1.1794 1.6452635589765654 18.757308267340548 10.620179484074054 0 0 0
854 285 1 0.5897 1.5111824026831417 20.53909863109409 10.586705337560375 0 0 0
374 125 1 0.5897 1.642257670545122 22.030169319980775 5.780325048556925 0 0 0
857 286 1 0.5897 0.0016947359582673016 20.77679099480382 7.480648190510771 0 0 0
887 296 1 0.5897 5.934855503706178 21.04663804305674 7.215937104391198 0 0 0
888 296 1 0.5897 5.907975303816243 20.14823703652526 8.434092713024244 0 0 0
853 285 2 -1.1794 1.4972784379837836 21.482328101500944 10.748631494717943 0 0 0
846 282 1 0.5897 2.081912607842492 20.275769780284918 7.783976355881646 0 0 0
860 287 1 0.5897 4.003217524926284 21.78888662633347 7.042787828797047 0 0 0
859 287 2 -1.1794 4.6659744701196715 22.187860038763716 6.479059467974931 0 0 0
847 283 2 -1.1794 6.003671678313665 23.31153380479454 9.438002244196477 0 0 0
747 249 1 0.5897 3.8078828951609505 18.91647109248044 6.499268366980131 0 0 0
866 289 1 0.5897 4.808319016238644 23.98890652975013 6.16223233726748 0 0 0
856 286 2 -1.1794 0.397014709525697 20.072893978172036 7.994853978541933 0 0 0
855 285 1 0.5897 0.8051440651569203 21.813828708251773 10.176546759475041 0 0 0
746 249 1 0.5897 5.30775638606453 18.96641909197415 6.698826782650366 0 0 0
842 281 1 0.5897 4.83259023532546 20.789933780708797 10.55681378623472 0 0 0
863 288 1 0.5897 2.0901971761371945 23.249271463454505 7.686424747540913 0 0 0
843 281 1 0.5897 4.538124644277198 19.30635275591906 10.494850059311814 0 0 0
841 281 2 -1.1794 4.766004566428781 20.05637098439143 9.94558898701476 0 0 0
845 282 1 0.5897 3.393255356299743 20.299883473003387 8.540100037167084 0 0 0
844 282 2 -1.1794 3.030322861524156 20.262544761052865 7.655164400476896 0 0 0
850 284 2 -1.1794 3.2312234142610596 23.050231106614824 9.225292611682974 0 0 0
851 284 1 0.5897 4.165003985123577 23.09082060363609 9.431838804020634 0 0 0
852 284 1 0.5897 2.907016240462286 22.301648369887666 9.72595088986956 0 0 0
864 288 1 0.5897 0.5769534798957713 23.283018036384103 7.65633781189398 0 0 0
939 313 1 0.5897 0.13548164992872003 23.93710074986351 9.853452325868297 1 0 0
510 170 1 0.5897 2.4261346006249087 24.468068175504243 10.308796250453522 0 -1 0
1201 401 2 -1.1794 4.6472693303628185 14.047543825108969 15.730543923072107 0 0 0
1204 402 2 -1.1794 2.74231659990328 13.872492785410259 13.74114944117426 0 0 0
1205 402 1 0.5897 3.234958619563881 14.111668634544081 14.526209476912976 0 0 0
1206 402 1 0.5897 3.2145912607708134 13.121948942837207 13.380886393799832 0 0 0
1210 404 2 -1.1794 3.218203591882707 16.85342596646157 15.03728613297086 0 0 0
1211 404 1 0.5897 2.9261944553619 17.60955937339237 15.54634187543349 0 0 0
1212 404 1 0.5897 4.166394083708234 16.829079796097883 15.166094396438927 0 0 0
1213 405 2 -1.1794 1.4576062281667685 15.164050025883315 16.547974804112886 0 0 0
1214 405 1 0.5897 0.6478740612830574 15.639887365842815 16.36325488227683 0 0 0
1215 405 1 0.5897 2.147117435947828 15.70522478918626 16.16338160790652 0 0 0
1218 406 1 0.5897 0.9455157852081754 13.823409168489947 13.73259382753201 0 0 0
1222 408 2 -1.1794 1.4057675314890046 16.952120207239535 12.905101674668451 0 0 0
1223 408 1 0.5897 1.6706744145646808 17.684714269113915 12.348970295328002 0 0 0
1224 408 1 0.5897 2.1030010603473186 16.8814027311738 13.557103238865691 0 0 0
1229 410 1 0.5897 1.7089767211879878 13.206545295189171 16.55742842990651 0 0 0