#include		in.partitions
include		in.temp
variable        temperature equal 268.97
variable	tempDamp equal 100.0
include		in.pressure
variable        pressure equal 7882.1
variable        pressureDamp equal 1000.0 # This is 1 ps
include		in.seed
variable        seed equal 745823

units		real
atom_style	full

read_restart	restart.lmp.${pid}
read_restart	restart.lmp.1
Reading restart file ...
  restart file = 30 Jul 2021, LAMMPS = 30 Jul 2021
  restoring atom style full from restart
  orthogonal box = (0.011181126 0.057754762 0.10220965) to (19.988820 19.942246 20.597788)
  4 by 2 by 4 MPI processor grid
  restoring pair style lj/cut/tip4p/long/omp from restart
  restoring bond style harmonic/omp from restart
  restoring angle style harmonic/omp from restart
  972 atoms
  648 bonds
  324 angles
Finding 1-2 1-3 1-4 neighbors ...
  special bond factors lj:    0        0        0       
  special bond factors coul:  0        0        0       
     2 = max # of 1-2 neighbors
     1 = max # of 1-3 neighbors
     1 = max # of 1-4 neighbors
     2 = max # of special neighbors
  special bonds CPU = 0.002 seconds
  read_restart CPU = 0.008 seconds
include 	in.setup
variable	out_freq equal 1000
variable	out_freq2 equal 10000
variable	out_freq3 equal 1000

timestep	2.0

neigh_modify    delay 7 every 1

include		in.tip4p
# This is TIP4P/Ice

# create groups ###
group ox type 2
324 atoms in group ox
group hy type 1
648 atoms in group hy

# set charges - beside manually ###
set group ox charge -1.1794
Setting atom values ...
  324 settings made for charge
set group hy charge 0.5897
Setting atom values ...
  648 settings made for charge

# ### TIP3P Potential Parameters ###
pair_style lj/cut/tip4p/long/omp 2 1 1 1 0.1577 8.5
pair_coeff 1 1*2 0.000 0.000
pair_coeff 2 2 0.21084 3.1668
bond_style  harmonic
bond_coeff  1 450 0.9572
angle_style harmonic
angle_coeff 1 55 104.52
kspace_style pppm/tip4p/omp 1.0e-5
pair_modify tail yes

thermo          ${out_freq}
thermo          1000
thermo_style    custom step temp pe etotal epair emol press lx ly lz vol pxx pyy pzz pxy pxz pyz enthalpy

restart 	${out_freq3} restart.lmp.${pid} restart2.lmp.${pid}
restart 	1000 restart.lmp.${pid} restart2.lmp.${pid}
restart 	1000 restart.lmp.1 restart2.lmp.${pid}
restart 	1000 restart.lmp.1 restart2.lmp.1


include         in.dump
dump            myDump all atom ${out_freq2} dump.water.${pid}
dump            myDump all atom 10000 dump.water.${pid}
dump            myDump all atom 10000 dump.water.1
dump            myDump2 all dcd ${out_freq2} dump.dcd
dump            myDump2 all dcd 10000 dump.dcd
dump_modify     myDump append yes
dump_modify     myDump2 append yes


variable natoms 	equal  "count(all)"                        # NUMBER ATOMS
variable H      	equal  "enthalpy/v_natoms"                 # ENTHALPY-per-atom
variable Vol      	equal  "vol/v_natoms"                 # volume-per-atom
fix AVG all 		ave/time ${out_freq} 1 ${out_freq} v_Vol v_H file vol_enthalpy.dat
fix AVG all 		ave/time 1000 1 ${out_freq} v_Vol v_H file vol_enthalpy.dat
fix AVG all 		ave/time 1000 1 1000 v_Vol v_H file vol_enthalpy.dat


timer           timeout 02:55:00 every 1000
New timer settings: style=normal  mode=nosync  timeout=02:55:00

fix 		1 all shake 1e-6 200 0 b 1 a 1
       0 = # of size 2 clusters
       0 = # of size 3 clusters
       0 = # of size 4 clusters
     324 = # of frozen angles
  find clusters CPU = 0.001 seconds
fix             2 all nph aniso ${pressure} ${pressure} ${pressureDamp}
fix             2 all nph aniso 7882.1 ${pressure} ${pressureDamp}
fix             2 all nph aniso 7882.1 7882.1 ${pressureDamp}
fix             2 all nph aniso 7882.1 7882.1 1000
fix             3 all temp/csvr ${temperature} ${temperature} ${tempDamp} ${seed}
fix             3 all temp/csvr 268.97 ${temperature} ${tempDamp} ${seed}
fix             3 all temp/csvr 268.97 268.97 ${tempDamp} ${seed}
fix             3 all temp/csvr 268.97 268.97 100 ${seed}
fix             3 all temp/csvr 268.97 268.97 100 745823


run             250000
PPPM initialization ...
  extracting TIP4P info from pair style
  using 12-bit tables for long-range coulomb (../kspace.cpp:340)
  G vector (1/distance) = 0.37182869
  grid = 24 24 24
  stencil order = 5
  estimated absolute RMS force accuracy = 0.0035531851
  estimated relative force accuracy = 1.0700311e-05
  using double precision FFTW3
  3d grid and FFT values/proc = 3211 432
Last active /omp style is kspace_style pppm/tip4p/omp
Neighbor list info ...
  update every 1 steps, delay 7 steps, check yes
  max neighbors/atom: 2000, page size: 100000
  master list distance cutoff = 10.8154
  ghost atom cutoff = 10.8154
  binsize = 5.4077, bins = 4 4 4
  1 neighbor lists, perpetual/occasional/extra = 1 0 0
  (1) pair lj/cut/tip4p/long/omp, perpetual
      attributes: half, newton on, omp
      pair build: half/bin/newton/omp
      stencil: half/bin/3d
      bin: standard
Per MPI rank memory allocation (min/avg/max) = 10.18 | 10.19 | 10.19 Mbytes
Step Temp PotEng TotEng E_pair E_mol Press Lx Ly Lz Volume Pxx Pyy Pzz Pxy Pxz Pyz Enthalpy 
 1500000    270.02748   -4636.2222   -4115.4515   -4636.2222            0    8037.8299    19.977639    19.884491    20.495579      8141.77    6895.7606    8999.8149    8217.9143    598.73457   -218.09674   -320.98488   -3161.0447 
 1501000    269.82864   -4689.5891   -4169.2019   -4689.5891            0    4874.9539    20.017537    19.813297     20.79714    8248.4246    4832.6086    5396.9932    4395.2599   -38.073144    1845.7661   -562.85836   -3582.7702 
 1502000    271.34854   -4672.1766   -4148.8581   -4672.1766            0    6067.0434    19.882051    19.803373    20.735101    8164.0662    6738.5689    5057.3615    6405.1999     19.37063    625.92789   -413.95274   -3426.4884 
 1503000    267.69944   -4668.4843   -4152.2035   -4668.4843            0    7045.6564    19.900422    19.726589    20.837142    8179.9835    5934.3198     7141.447    8061.2023    18.936896   -368.70549    992.19671   -3311.6801 
 1504000     264.1884   -4699.8991   -4190.3895   -4699.8991            0    6042.9805    20.082173    20.004843    20.350795    8175.7429    5734.8853    6107.4014    6286.6546    132.78288   -931.04876    66.178594   -3469.8558 
 1505000    255.55851   -4644.9871    -4152.121   -4644.9871            0    7633.4866    20.081524    19.790317    20.545767    8165.2931    5649.4818    9876.9006    7374.0776    460.87801    786.10575   -1447.3852   -3243.1069 
 1506000    277.62867   -4657.0607   -4121.6304   -4657.0607            0    8663.2807    19.786324    19.758873    20.693934    8090.4064    10375.813    8988.3993      6625.63   -66.268738   -137.95443    2228.0254   -3099.4475 
 1507000    273.65032   -4667.7197   -4139.9621   -4667.7197            0    8213.7751    19.770937    19.813649    20.702234    8109.7775    10459.023    7218.9954    6963.3075   -90.316165    310.81923   -1369.8478    -3168.496 
 1508000    258.87982   -4632.2219   -4132.9504   -4632.2219            0    8581.3827    20.014103    19.794624    20.391494    8078.5317    8882.7342    7385.8884    9475.5256    435.33592     698.3783     78.75459   -3121.9168 
 1509000    279.89091   -4654.1302    -4114.337   -4654.1302            0    8687.4605    19.700921    19.754721    20.933007    8146.8372     9379.774    9184.6483    7497.9591     -672.616    707.99387    1564.4515   -3082.1515 
 1510000    269.96858   -4646.1588   -4125.5017   -4646.1588            0    8794.8919    19.822456    19.803612    20.705948    8128.2488    9333.3169    9059.2909     7992.068   -412.99674    484.63343     196.1285   -3082.9361 
 1511000    268.74291   -4673.1494   -4154.8561   -4673.1494            0    8382.7495    20.026831    19.866866    20.348015    8095.8723    8080.3411     7715.195    9352.7123   -28.013956    782.05469    16.684219   -3165.1049 
 1512000    279.88244    -4653.143   -4113.3661    -4653.143            0     6328.289     19.88215    20.059495    20.630458    8227.9605    6516.9593    6461.0876    6006.8203    609.96631   -75.970247    -84.61539   -3353.9945 
 1513000    279.23692   -4636.1083   -4097.5764   -4636.1083            0    7168.9868    19.888355    19.567254    21.039982    8187.9298    7792.1995    8536.1002    5178.6608   -185.46101   -587.81191    2040.4624   -3241.5094 
 1514000    274.60178   -4698.7784   -4169.1858   -4698.7784            0     6712.463    19.802034    19.961622    20.672079    8171.2743    7873.4612    5170.7475    7093.1802   -243.16049    91.763466    19.894614   -3369.2639 
 1515000    269.62726   -4679.9755   -4159.9767   -4679.9755            0    7394.0968    20.215605    20.012299    20.222098     8181.067    5575.6828    8795.0768     7811.531    567.28574    1124.0717    299.68478   -3277.7687 
 1516000    249.17434   -4628.7515   -4148.1978   -4628.7515            0    8237.1872     19.93972    19.991908    20.413021    8137.3048     8951.214    8816.5091    6943.8386    36.947356    1023.3792   -762.27405   -3170.6559 
 1517000    275.15052   -4680.9999    -4150.349   -4680.9999            0    7881.2725    19.993421    19.913168    20.394528    8119.7212    9430.3605    6847.2353    7366.2217   -58.850983    412.73293   -1241.1219    -3217.066 
 1518000    260.89616   -4677.6052    -4174.445   -4677.6052            0    9718.6724    19.959209    19.798076    20.532614    8113.5431    9113.0155    10620.228     9422.774    21.649679   -899.06982    529.64838   -3024.4568 
 1519000    262.85775   -4654.9883    -4148.045   -4654.9883            0    8521.8384    19.965962    19.926491    20.397382    8115.1306    10263.342     7216.642    8085.5317   -1741.2129    268.63742   -368.75593   -3139.4781 
 1520000    269.20209   -4677.0322   -4157.8533   -4677.0322            0     7791.461    19.931775    19.984828    20.486991    8160.6464    10321.855    6073.3454    6979.1826   -264.30514    1296.7888   -1753.9353   -3230.5553 
 1521000     267.3204   -4689.4471   -4173.8972   -4689.4471            0    9188.8769    19.866626    19.817537    20.620832    8118.5782    9749.6477    9209.4876    8607.4953   -575.03225   -113.36278   -39.051013   -3085.9238 
 1522000    272.46613   -4677.3908    -4151.917   -4677.3908            0    6187.5651     19.81294    20.028719    20.740924     8230.575    6585.4535    5452.1234    6525.1185    278.57165   -546.96134   -73.980367   -3409.1957 
 1523000    260.17333   -4676.9287   -4175.1625   -4676.9287            0    7192.0874    20.001104     19.81575    20.532502    8137.7879    6250.3852    9916.9363    5408.9406   -322.64485    487.43913   -1049.1603   -3321.5963 
 1524000    286.26235   -4646.8185   -4094.7375   -4646.8185            0    8017.9293    19.651676    20.102318    20.556094    8120.5667    8894.8898    7171.6346    7987.2635    75.434222   -553.27288   -53.057885   -3145.1731 
 1525000    287.19624   -4670.5714   -4116.6893   -4670.5714            0    9236.5057     20.11897    19.777168    20.407204    8119.9502    6010.1752    13001.283    8698.0593   -351.55691   -845.73813    166.07026   -3022.8917 
 1526000    284.94673   -4672.4367    -4122.893   -4672.4367            0    8044.8346    19.977983    20.060105     20.40104    8175.9296    7295.4257    7611.4696    9227.6086   -823.45317   -633.01099   -116.48464   -3163.6467 
 1527000    279.31433   -4651.8124   -4113.1313   -4651.8124            0    8235.0688    20.111382    19.928272    20.374761    8165.9006    8903.0642    7423.6691    8378.4732   -161.27978    1161.9208   -1243.0421   -3132.4063 
 1528000    262.82031   -4676.7157   -4169.8446   -4676.7157            0    8881.3568    19.934674    19.718605    20.677303    8127.9161    7808.8508    10195.403    8639.8169    247.66191    -309.2448    1159.2799   -3117.0724 
 1529000    278.70603   -4683.4055   -4145.8975   -4683.4055            0    7927.8322    19.857307    19.786963    20.674797    8123.4544    8335.3099    6753.8027    8694.3841   -380.30208    747.40147    1476.2744   -3206.6694 
 1530000    277.13038   -4659.3706   -4124.9014   -4659.3706            0    7890.8055    19.756319    20.173479    20.466954    8157.1797    8392.3257    6859.6186    8420.4722    450.78988   -781.98754   -1033.2584   -3186.1788 
 1531000    276.88793   -4658.6097   -4124.6081   -4658.6097            0    7448.1469    20.020151    20.016783    20.536342    8229.7131    6700.1604     8295.594    7348.6862    1701.8046    6.4246598   -202.89172   -3230.6672 
 1532000    279.58357   -4675.1729   -4135.9725   -4675.1729            0    9005.2797    19.966488    20.080327    20.328812    8150.5039     6764.862    10235.975    10015.002    -672.5614   -776.81233    16.865479   -3065.5442 
 1533000    269.72828    -4664.657   -4144.4633    -4664.657            0    7780.2398    20.023558    19.857816    20.370008    8099.6071    7434.5482     8440.244    7465.9271    3.4575662     1201.208   -419.51727   -3225.4267 
 1534000    269.21989   -4689.4316   -4170.2184   -4689.4316            0    8364.4219    19.873414    19.863052    20.674273    8161.1002    10318.899    7290.9985    7483.3679   -34.232194    1239.6732    429.22351   -3174.6742 
 1535000    254.04112    -4683.084   -4193.1443    -4683.084            0    7730.4618    19.849244    19.697244    20.756999    8115.4762    8430.0159    7933.0528    6828.3166   -892.47078     -356.577    245.77693   -3278.1986 
 1536000    270.40674   -4695.5227   -4174.0206   -4695.5227            0    10151.774    19.862204    19.808764    20.413634    8031.6568    9536.3906    9849.2439    11069.687    709.29674   -612.20264   -829.52205    -2984.908 
 1537000    259.18815   -4647.2661   -4147.3999   -4647.2661            0    8645.4736    19.698966    19.911137    20.662554    8104.4489    9186.9926    9400.2066    7349.2215    839.53944   -216.05048   -511.72888   -3125.5475 
 1538000    268.78804   -4651.4802   -4133.0998   -4651.4802            0    7771.8714    20.090413    19.758081    20.553719     8158.758     7477.272     7934.393    7903.9493    29.637043    519.59765    737.77105   -3208.3473 
 1539000    259.93408   -4671.7744   -4170.4696   -4671.7744            0    8155.1054    19.826006     20.05192    20.467455    8136.8263    8130.0983     7241.625    9093.5929    297.72946   -1130.2264   -574.16694   -3202.7256 
 1540000    279.90641   -4691.4295   -4151.6064   -4691.4295            0    7649.3019    19.998563    19.932472    20.376245     8122.395     5944.608    9141.9629    7861.3348   -501.53054   -1492.2359   -1449.9472   -3245.4946 
 1541000     279.3062   -4685.6778   -4147.0123   -4685.6778            0    5932.0016     19.91681    19.813317    20.756554    8190.9117    4952.9401    8448.3729    4394.6918   -185.23502    67.305046    1439.7847   -3438.3988 
 1542000    266.71634   -4676.2606   -4161.8758   -4676.2606            0    8178.7154     19.69171     19.99881     20.69112    8148.3859    10001.003     7999.137    6536.0063   -129.08848    843.32336    444.39251   -3189.9511 
 1543000     274.2184    -4667.053   -4138.1998    -4667.053            0    9537.5424    20.166014    19.703836     20.41635    8112.3925    9143.7991    9682.7272     9786.101   -367.87101     1461.521    695.29527   -3009.8043 
 1544000    274.22293   -4708.8064   -4179.9444   -4708.8064            0    7700.5304    19.708243    19.867928    20.647124    8084.6284    8187.7156    7134.2167    7779.6588    1728.9421    616.72577    1166.6537   -3272.0055 
 1545000    269.08193    -4709.888   -4190.9408    -4709.888            0    7179.1288    20.029969    19.754767    20.596481    8149.7676    7609.2364    7739.7616    6188.3883     1574.511    226.79995   -800.97948   -3337.6583 
 1546000    260.69319   -4676.7391   -4173.9703   -4676.7391            0    6908.7442    19.886264    19.776159     20.81949    8187.7625    7041.8336    6939.0488    6745.3502   -79.591325    639.61867    986.95353   -3348.9964 
 1547000    266.35518   -4674.2917   -4160.6033   -4674.2917            0    8826.8523     19.92898     19.82923    20.604804    8142.5308    7728.1469    9861.9038    8890.5063   -469.50761   -719.86556    -891.8722   -3112.4105 
 1548000    258.55929   -4677.8636   -4179.2103   -4677.8636            0     8919.569    20.153078    19.824762    20.373424    8139.7935    7515.8367    9825.9226    9416.9477   -292.34929    106.39741    409.39307   -3120.3635 
 1549000    271.66165   -4663.7155   -4139.7931   -4663.7155            0    9052.9657    19.977251      20.1988    20.191798    8147.7236    8202.0633    8027.1097    10929.724    130.30146    1134.0415    759.01184   -3064.0637 
 1550000      271.873   -4693.4368   -4169.1068   -4693.4368            0    7998.7702    19.899331    19.906267    20.551744    8140.9856    9236.8246    6054.4744    8705.0117    455.57675   -1108.6027    538.43219   -3219.4294 
 1551000    280.74277   -4614.9213   -4073.4853   -4614.9213            0    7679.8863    20.031756    19.708609    20.641671    8149.2914    7051.8076    8357.7674     7630.084   -689.41563   -394.50936     3.663373   -3160.7381 
 1552000    262.82268   -4688.6524   -4181.7767   -4688.6524            0    6958.4457    19.829359    20.007014    20.579694    8164.5053    6337.1279     6947.803    7590.4062   -189.86812    1735.3372   -253.12236   -3353.2281 
 1553000     270.1124   -4698.7531   -4177.8186   -4698.7531            0    9745.7752    19.864563    19.751431    20.493322    8040.6277    10072.165     9988.633    9176.5276    181.84947   -1173.0494   -294.62564    -3034.987 
 1554000    262.75364   -4633.0876   -4126.3451   -4633.0876            0    9266.6312    20.024202     19.93636    20.378576    8135.3252     8106.944    9973.0004    9719.9493    494.89793    1362.3903   -276.22388   -3026.9022 
 1555000    279.18362   -4681.2925   -4142.8634   -4681.2925            0    8052.8941    19.968483    20.238369       20.193    8160.5874    8169.9787    6802.2469    9186.4567    640.92163    898.89671    445.74865   -3184.4579 
 1556000    283.86911   -4659.5433   -4112.0779   -4659.5433            0    7968.1757    19.992549    19.797258    20.677715    8184.1907    7764.6894    7328.3296    8811.5081   -92.864072   -252.00536   -380.02369   -3161.0121 
 1557000    259.98331   -4694.5619   -4193.1623   -4694.5619            0    7771.7484    19.670593     20.11446    20.711573    8194.8104    8784.5937    6673.1786    7857.4729   -257.66501    -704.7051    522.69442    -3264.338 
 1558000    263.09597   -4648.3712   -4140.9685   -4648.3712            0     7668.266    20.177828    19.368551    20.755789    8111.6797    6338.9872    9524.5618     7141.249    -282.4144     1151.755   -531.54337   -3233.8086 
 1559000    263.49195   -4665.5799   -4157.4135   -4665.5799            0    8428.3639    19.926154    19.901863    20.523759    8139.0576    9598.8975    8829.0255    6857.1688    291.90676   -708.75231   -1068.7914   -3156.9684 
 1560000    262.01403   -4661.8537   -4156.5376   -4661.8537            0    7265.1566    20.070728    19.698363    20.645607    8162.4572    6390.3908    8720.8716    6684.2072    211.93548    1192.8036   -825.83361   -3291.6856 
 1561000    274.66319   -4670.9253   -4141.2142   -4670.9253            0    7563.4198    19.812184    20.022074    20.580212    8163.7791    7433.9109     8022.735    7233.6134    1070.1486    23.935538    626.75802   -3240.7109 
 1562000    281.08051   -4652.1873   -4110.0998   -4652.1873            0     10378.23    19.922739    19.884117    20.606205    8163.0672    11341.081    11015.964    8777.6463     203.1764   -322.26515    506.04194   -2874.5719 
 1563000     268.0966   -4640.5324   -4123.4856   -4640.5324            0    7858.0607    19.816546    19.916023    20.657006    8152.6339    7598.1102    8284.5429    7691.5292    396.29589   -774.19982    -2144.592   -3189.1794 
 1564000     262.9607   -4651.5491   -4144.4073   -4651.5491            0    9091.8435    19.759251    19.779498    20.679341    8082.0666     10384.69    8424.5367    8466.3037   -548.53755    -674.6221   -372.59184    -3072.764 
 1565000    271.00648   -4674.6268    -4151.968   -4674.6268            0    8750.2309    19.719485    19.912097    20.621251    8097.0641    9668.3534    7041.0218    9541.3174   -367.89856    1358.9916    116.04742   -3118.6762 
 1566000    270.44965   -4636.6603   -4115.0754   -4636.6603            0    6401.1224    20.156596    19.798479    20.632887    8233.9651    6752.3184    5173.0397    7278.0091   -254.08104    143.18715    530.40568   -3346.4035 
 1567000    264.18171   -4668.0892   -4158.5925   -4668.0892            0    7208.4358    19.912149    19.905065      20.4956    8123.4848    7031.6537    7072.4955    7521.1584   -1701.8962    2228.3213   -679.36844   -3304.5897 
 1568000    269.36748   -4659.8808    -4140.383   -4659.8808            0    8357.7068     19.77696    19.889042    20.539706    8079.1863    8134.3925    9901.7808    7036.9472   -173.64447   -425.74567   -83.653086   -3155.6224 
 1569000    247.26502   -4667.7071   -4190.8357   -4667.7071            0    7952.1848     20.13386    19.644205     20.57379    8137.2155       5665.4    10174.304    8016.8505    59.696217   -103.78756   -1558.5495   -3247.1265 
 1570000    264.49788   -4655.9958   -4145.8894   -4655.9958            0    6925.5333    19.791799    19.943797    20.781101    8202.7918    6755.4749    6289.0633    7732.0617   -1054.0278    1830.1064    359.91242   -3317.3927 
 1571000    272.72456   -4653.0411   -4127.0689   -4653.0411            0    9680.0252     19.83282    19.587245      20.7062     8043.744    11785.957     9290.087    7964.0314    256.43176   -1162.2122    191.66911   -2991.5075 
 1572000    279.08707   -4633.5061   -4095.2632   -4633.5061            0    6779.8449    20.046738    19.966098    20.595528    8243.4658    5470.1585    6720.9443    8148.4319    129.00692    1533.8786   -322.76594   -3280.1734 
 1573000    261.19719   -4694.0794   -4190.3387   -4694.0794            0    9522.8065     19.98938    20.092765    20.140922    8089.4383    8247.8095    9433.4907    10887.119   -438.04623   -849.61761    48.030516   -3066.8745 
 1574000    261.06654   -4684.8398    -4181.351   -4684.8398            0    8104.9648    19.924542    19.851502    20.616261    8154.3925    7796.3514    8058.4117    8460.1312   -174.12262    2387.0754    242.41406   -3217.4807 
 1575000    265.19198    -4686.857    -4175.412    -4686.857            0    5860.3377    19.992415     19.98089    20.655833     8251.308    6906.3292    5274.8306    5399.8534    308.45836   -929.22089   -227.84239   -3470.1973 
 1576000    263.51924   -4668.0862   -4159.8671   -4668.0862            0    7067.4636    19.912075    19.939891    20.605723     8181.391    5864.0747    7677.0559    7661.2603    0.9638807    2320.2564    92.019844   -3316.5972 
 1577000    243.75799   -4658.7617    -4188.654   -4658.7617            0    8609.0608    19.634067    19.952005      20.6412    8085.9631    8813.8595    8039.6909    8973.6321   -495.21046    860.90894    709.56743   -3173.4264 
 1578000    269.29526   -4638.8633   -4119.5048   -4638.8633            0     8077.596    20.010575    19.705466    20.761853    8186.7662    7732.0933    8735.4027     7765.292     39.45536   -680.88867   -1667.8313   -3155.0755 
 1579000    257.49181   -4670.2265   -4173.6318   -4670.2265            0    7277.1874    19.812884    20.200822    20.393048    8162.0432    7673.6543    5723.3629    8434.5449   -1303.0591    409.95514    77.365087   -3307.3916 
 1580000    272.42399   -4653.6889   -4128.2963   -4653.6889            0    7801.7737    20.003975    19.919978     20.51106    8173.2213    9298.5942    7084.0468      7022.68    1157.9127    725.61504    -700.8545   -3198.3401 
 1581000    266.65362    -4661.521    -4147.257    -4661.521            0    6578.0685    20.048292    19.931594    20.649347    8251.3639      8610.59    3761.8252    7361.7903   -39.749764    1001.7193    -165.6999   -3355.6675 
 1582000    259.22816   -4674.2336   -4174.2903   -4674.2336            0     9474.914    19.822064    20.013957    20.369695    8081.0233    10667.319    8529.4862    9227.9363   -352.48832   -227.77279   -1131.6878   -3057.6391 
 1583000    275.54744    -4671.926   -4140.5096    -4671.926            0    6344.6175    20.059555    20.072168    20.474597    8243.8658    5430.7304    5364.4202     8238.702    430.42223    675.15964   -898.90672   -3377.7069 
 1584000    270.12692   -4626.7826   -4105.8201   -4626.7826            0    7918.2394    19.893631    19.745788    20.682451    8124.3857    7552.1446    9755.0719    6447.5017    533.61499   -241.51795   -807.18703   -3167.6209 
 1585000    258.60585   -4672.8896   -4174.1465   -4672.8896            0    7471.0863    19.910574    19.696375    20.869845    8184.4466    7121.1922    8971.7045    6320.3622   -334.36819    705.24868   -503.72344   -3282.3845 
 1586000    267.34518   -4684.1698   -4168.5721   -4684.1698            0    5779.0955    19.914642    19.943912    20.564826    8167.8524    5184.2122    6992.3305    5160.7438    92.974537   -57.054728    379.85168   -3480.1677 
 1587000    274.19989   -4687.6664   -4158.8489   -4687.6664            0    8533.6964    20.061078    19.583475    20.723016    8141.3606    5550.1704    12622.862    7428.0564    113.41375   -1796.5524    757.08146   -3145.6142 
 1588000    272.77143   -4676.3966   -4150.3339   -4676.3966            0    7548.5256    19.796435    20.129684     20.43311    8142.5124    8985.0299    4689.6165    8970.9305   -187.61844    -211.4885   -445.93164   -3253.9451 
 1589000    256.28842   -4694.4982   -4200.2245   -4694.4982            0    8607.7075    20.203877    19.841204    20.171363    8086.0789    9185.5768    8003.7399    8633.8059   -383.67731   -1040.1739   -375.94837   -3185.1419 
 1590000     268.4436   -4685.2817   -4167.5656   -4685.2817            0    6998.8226    19.941679    19.826325     20.57834    8136.0626    7170.2004    6680.8805    7145.3871   -372.77168   -716.17228    -682.6087   -3337.1124 
 1591000    272.10187    -4675.138   -4150.3666    -4675.138            0    9420.8709    19.748387      19.8144    20.644369    8078.1918    10982.151    9519.7665    7760.6957    242.87267    795.32742    1051.3456   -3040.4737 
 1592000    268.47448   -4682.2306    -4164.455   -4682.2306            0    8951.1957    19.721573    19.986976    20.721757      8167.99    11042.946    6590.7522    9219.8887   -209.56184   -1919.1979    -391.7638   -3098.1728 
 1593000    276.75874   -4670.2135    -4136.461   -4670.2135            0    6293.6037    20.003506     19.80809    20.731607    8214.5106    5811.5627    7484.8923    5584.3562    267.38713   -375.84071   -854.80173    -3382.486 
 1594000    270.61747   -4684.1812   -4162.2726   -4684.1812            0    4390.0481    19.856439    20.057992    20.603024    8205.7788    5132.7564    3040.7239    4996.6641   -730.51408    662.24154    1050.5023    -3636.903 
 1595000    253.39309   -4675.9869    -4187.297   -4675.9869            0    7989.1457    19.833242    20.051761    20.425014     8122.853    10416.628    6461.6564    7089.1526   -1430.5294    1349.2167    554.50303    -3240.875 
 1596000    278.64901   -4673.9081   -4136.5101   -4673.9081            0    8542.2147    19.897591    19.893785     20.42977    8086.8872    9175.0636    8682.6952    7768.8854   -643.68558   -67.113565   -366.04719   -3129.0502 
 1597000    268.51009   -4666.1453    -4148.301   -4666.1453            0    9426.0524    19.591912     19.98706     20.66205    8090.9427    9264.3989    11024.598    7989.1605    733.47829   -633.16144   -1025.6735   -3036.0447 
 1598000    265.23388   -4657.8001   -4146.2742   -4657.8001            0    10006.017      20.1375     19.46826    20.538471    8051.9452     10463.23    10030.863    9523.9592   -774.09669    -1063.244   -119.78879    -2971.274 
 1599000    260.35025   -4656.1168   -4154.0094   -4656.1168            0    9487.3163    19.705529    19.877989    20.576583    8059.9771    10162.036    8877.3318    9422.5813    396.38152   -780.88555    111.45085   -3038.8086 
 1600000     267.7775   -4667.3077   -4150.8763   -4667.3077            0    6386.6975    19.780503    19.834684    21.054822    8260.6496    8699.4634    6356.4317    4104.1975    514.55469    2591.8297   -930.56609   -3381.4511 
 1601000     272.2396   -4715.8847   -4190.8477   -4715.8847            0    9440.9836    19.777925    19.826601    20.558408    8061.5483     10804.85    9508.9915    8009.1096   -523.85359    679.51971     1076.749   -3080.8768 
 1602000    259.47283   -4658.1169   -4157.7018   -4658.1169            0    6152.6898    20.060438    20.079902    20.523428    8267.0755    7549.4657    4613.8923    6294.7114     1293.123   -882.55685    48.587382   -3415.8916 
 1603000    271.38734   -4661.4025   -4138.0092   -4661.4025            0    7713.1265    20.010127    19.739404    20.663585    8161.8679    5851.0769    9228.1974    8060.1051   -274.28715    981.06661   -462.85003   -3219.8967 
 1604000    273.05915   -4649.1425   -4122.5249   -4649.1425            0    10598.752    19.871902     19.91098    20.444863    8089.3994    9871.3697    11401.271    10523.614   -142.71758   -357.62352    371.30188   -2872.1309 
 1605000    284.53672   -4663.0625   -4114.3095   -4663.0625            0    7995.8177    19.828989    19.925915    20.734621    8192.4714    9787.8468    6864.1472     7335.459   -1284.3671   -496.58307    537.01845   -3158.9789 
 1606000    273.64465   -4693.0164   -4165.2696   -4693.0164            0    8662.0217    19.851651    19.532992    20.860646    8088.9685    11196.603    6737.7283    8051.7341   -33.212141   -684.71574    -337.3928   -3143.4169 
 1607000    278.03352   -4678.3578   -4142.1468   -4678.3578            0    7947.7913    19.915573    19.973887     20.40961    8118.7677    8648.8449     6163.026    9031.5031    159.06232    1662.3851   -268.32869   -3201.0973 
 1608000    261.44873    -4633.813   -4129.5872    -4633.813            0    8521.8979    19.966428    20.066823    20.414937    8179.5052    7192.5657    9314.0337    9059.0942    108.98116   -244.97611   -1171.4251   -3113.0126 
 1609000     266.2522   -4660.2263   -4146.7366   -4660.2263            0    9486.0832    19.742496    19.768528    20.640078    8055.4113    10789.462    9054.1652     8614.622   -5.6019485   -279.00096   -752.51895   -3032.3124 
 1610000    290.64386   -4678.2758   -4117.7447   -4678.2758            0     8546.386    19.920778    19.735543    20.681026    8130.6912    6914.9334    10028.284    8695.9409     224.5597    1400.1144    1489.0434   -3104.3331 
 1611000    272.39938   -4646.3072   -4120.9621   -4646.3072            0    7250.3952    19.914874    19.938344    20.573278    8169.0235    7140.6392    6649.8622    7960.6843   -438.21343   -1030.4151    1077.7268    -3257.173 
 1612000    271.03596   -4656.2338   -4133.5182   -4656.2338            0    7867.2441    20.245339    19.690651    20.588297    8207.3992    7865.6916    7789.5085    7946.5321    35.103452    716.93982   -243.83481   -3191.8366 
 1613000    262.71735   -4691.4691   -4184.7966   -4691.4691            0    8130.9035    19.953863    19.846791    20.614715    8163.8426    6730.4979    8104.5875    9557.6252     774.3671   -403.64226   -347.22927   -3216.7209 
 1614000    272.10435   -4656.1493   -4131.3732   -4656.1493            0    8644.8861    19.980222     19.94436    20.316049    8095.7979    7713.6684    9174.2667    9046.7231   -777.79433    887.14204     429.4039   -3110.6809 
 1615000     273.4525   -4681.1848   -4153.8086   -4681.1848            0    8577.2248    19.790818    20.005914    20.608371    8159.5427    9308.2616     8305.508    8117.9048    333.62796    251.70625    -1190.029   -3133.1312 
 1616000    255.13603   -4673.6116   -4181.5603   -4673.6116            0    7460.1699     19.79856    19.802589    20.698122    8114.9622    8052.3313    7194.0426    7134.1358   -457.50869   -2413.9732    293.07202   -3298.6611 
 1617000    262.77757   -4698.1142   -4191.3256   -4698.1142            0    6844.8358    19.982275    19.799419     20.69139    8186.2889    6919.6028    6708.8585    6906.0461    -72.95671    42.150794    1888.5266     -3374.13 
 1618000    261.10607   -4683.9009   -4180.3359   -4683.9009            0    5842.5854    20.155033    19.904783    20.437321    8199.0765    5152.6957    5970.3482    6404.7124   -523.94945   -1028.7146    164.68338   -3481.7081 
 1619000    257.24572   -4681.9764   -4185.8564   -4681.9764            0    6224.5548    20.114959    19.995368    20.271047    8153.1368    6820.7731    3775.0066    8077.8846   -183.35067    663.92597    -1508.395   -3445.7248 
 1620000    263.91368   -4655.7647    -4146.785   -4655.7647            0    7065.7716    19.998158    20.138528    20.350269    8195.7342    7669.0803    6401.9306    7126.3037    46.882823    1558.1186    436.02679   -3302.2389 
 1621000     258.0889   -4679.2296   -4181.4834   -4679.2296            0    7921.8294    20.023403    19.806111    20.494038    8127.6433    7595.4768    8168.4464    8001.5651    244.84416    1011.5484    152.31385   -3242.4825 
 1622000    262.42641   -4644.6772   -4138.5658   -4644.6772            0    6267.1451    20.152296    19.980122    20.429731    8225.9358    4994.7133    6433.0861     7373.636   -481.57409   -432.98316   -99.753038   -3386.7163 
 1623000    271.92794   -4666.4743   -4142.0384   -4666.4743            0    6926.7302    19.745489    19.930327    20.765342    8171.8691     6223.617    8832.2854    5724.2883    363.84412    382.16812   -541.60145   -3316.5223 
 1624000    278.55944    -4679.671   -4142.4456    -4679.671            0    9197.5483    19.898551     19.85106    20.537194    8112.3419    8798.0791     9894.631    8899.9348    211.58577    705.18902    1269.5117    -3054.282 
 1625000    283.53126   -4656.8993   -4110.0854   -4656.8993            0    8870.0798    19.902848    20.014863    20.348833    8106.0141    9627.5024    7116.6581     9866.079   -292.92721     -300.075    253.72936   -3061.4832 
 1626000    259.55274   -4685.3185   -4184.7492   -4685.3185            0    8695.0487    19.819435    20.051625    20.425301    8117.2575    9177.7412    7816.9925    9090.4124   -660.00867    210.93217   -807.92382   -3155.4131 
 1627000    270.53492   -4683.1412   -4161.3918   -4683.1412            0    6260.8666    19.874137    19.992045    20.603262    8186.1836    6486.6017    5672.0512    6623.9469    250.44202    1300.1952    1660.5447   -3413.9252 
 1628000    276.59109   -4691.9058   -4158.4766   -4691.9058            0    7445.6889    20.006956    19.603857    20.615866    8085.8214    6692.1655    9690.9822     5953.919   -896.21246    530.47806   -662.78854   -3280.4556 
 1629000    275.38127    -4644.398   -4113.3021    -4644.398            0    6317.7121    19.842325    19.960956    20.629518    8170.7698    8132.3025    5564.3434    5256.4904   0.10791296     223.0356    211.16188    -3360.469 
 1630000    264.32205   -4706.8806   -4197.1133   -4706.8806            0    7653.0939    19.974987    19.879489    20.536459    8154.8748    7140.0559    7681.7745    8137.4514   -418.53847    409.51727   -75.566117   -3286.9271 
 1631000    248.53851   -4678.4449   -4199.1175   -4678.4449            0    7494.5767    19.770609    20.028297    20.663835    8182.2929    7846.3062    6853.7055    7783.7183   -388.68257    -73.56229    219.87061   -3304.7871 
 1632000    274.52739     -4649.02   -4119.5708     -4649.02            0    9065.1468    20.100044    19.793683    20.414176    8121.8597    7893.2622    8873.9794    10428.199    524.00107   -470.00643   -1003.3078   -3045.8133 
 1633000    274.71457   -4646.5219   -4116.7118   -4646.5219            0    8081.4712    19.792325    20.059006    20.511008    8143.1648    8743.7284    8093.2318    7407.4532    688.21122   -747.35493   -1286.7927   -3156.9586 
 1634000    264.96733   -4692.1064   -4181.0946   -4692.1064            0    7605.4755    19.942136    19.818213    20.553123    8122.9536     7447.735    8797.3451    6571.3465   -160.70927   -1011.0465   -1669.2135   -3280.1124 
 1635000    271.12476   -4679.8361   -4156.9492   -4679.8361            0    7975.4194    19.806492     19.87501    20.580878    8101.7495    9370.2583    6855.9534    7700.0467    666.72621    515.00293    78.102792   -3214.6079 
 1636000     279.2519   -4681.3977    -4142.837   -4681.3977            0    8135.1558    19.880782    19.897891    20.533893    8122.9131    9098.2515    7922.0529    7385.1629     192.7197   -6.7008709    -272.2203    -3179.111 
 1637000    268.21823   -4690.8163   -4173.5349   -4690.8163            0    7128.3711    19.762646    20.011292    20.746764    8204.8487    8545.5715    5754.2897    7085.2522   -239.51794    1731.6826    342.18533   -3320.5589 
 1638000    270.87379   -4684.1828   -4161.7799   -4684.1828            0    6767.4429     19.94599    19.776849     20.63143     8138.456    7031.4342    7520.5982    5750.2964   -827.48302   -448.34068   -382.75556   -3358.5451 
 1639000    262.59833   -4701.4989   -4195.0559   -4701.4989            0    9765.4233    19.885259    19.933775    20.407508    8089.2969    10261.169    9274.1988    9760.9022   -796.35949    570.39772    710.03013   -3042.9889 
 1640000    285.86806   -4690.1449   -4138.8244   -4690.1449            0    8425.8041    20.171974    19.713537    20.489484    8147.8677    7045.9292    9460.8699    8770.6131   -126.98828    1449.8812   -53.343615   -3137.6004 
 1641000    261.81797    -4669.071    -4164.133    -4669.071            0    5812.4849     19.77716    20.009886    20.775279    8221.5822    7404.0645    4343.4493    5689.9409    442.30839    840.80208   -233.84642   -3467.1966 
 1642000     260.4392   -4660.5842   -4158.3053   -4660.5842            0    7565.3614    19.843625    19.799468    20.881616    8204.2457    7980.3731    8347.4253    6368.2859   -153.59022    1510.5447   -528.44252   -3253.1059 
 1643000    256.60891    -4658.659   -4163.7672    -4658.659            0    7140.6528    19.862233    19.795385    20.734998     8152.598     8230.563    6793.1153    6398.2802    89.710378    543.43565   -210.50744    -3314.763 
 1644000    268.98727   -4661.7191   -4142.9545   -4661.7191            0     11022.55    19.680156    19.830522     20.61851    8046.7398    10945.291    11477.801    10644.559   -265.08642   -582.25534    890.05631   -2849.4202 
 1645000    266.45415   -4668.5952   -4154.7159   -4668.5952            0    6840.2546    19.970082    19.763525    20.635192    8144.2814    7279.1023    5990.9972    7250.6643   -229.79978   -44.167695    318.73856   -3342.2579 
 1646000    254.23443    -4665.955   -4175.6426    -4665.955            0    8821.3875    19.826122     20.10826    20.402157    8133.7035    10222.592    6864.9324     9376.638    901.89776    668.09231     1816.856   -3129.2344 
 1647000    267.10794   -4712.2042   -4197.0641   -4712.2042            0    5611.8032    19.881085    19.748432    20.800991    8166.8901    3734.6943    7913.8847    5186.8305    914.98984    473.49598 -0.096582113   -3528.6662 
 1648000    259.54075    -4667.982   -4167.4359    -4667.982            0    7727.0792    20.041021    19.556479    20.746332     8131.147     8939.243    7734.8314    6507.1632    88.731449    1689.4617     -119.795   -3251.1245 
 1649000    272.30334    -4666.609   -4141.4491    -4666.609            0    7220.8386    19.760655    20.010649      20.6372    8160.4343    5832.1858     9306.276     6524.054    15.541151    846.66899   -172.33677   -3282.0858 
 1650000    258.26619   -4653.9312   -4155.8431   -4653.9312            0    8711.1445    20.071522     19.81182    20.393226    8109.4351    9400.9102    8413.0814    8319.4418    1283.7836    377.12068   -702.61876   -3125.5953 
 1651000    278.20218   -4645.2424   -4108.7061   -4645.2424            0    8960.2176    19.806402    19.940729    20.536805    8111.0952      9096.34    9038.4177    8745.8951   -915.97287   -1179.4505    110.28253    -3048.784 
 1652000    294.16912   -4701.6083   -4134.2784   -4701.6083            0    7587.7807    20.156679    19.889929    20.408369    8182.0196    7429.1752    7899.6972    7434.4696   -1168.5688    1062.6074   -1143.1479   -3228.8561 
 1653000    273.22029   -4689.4293    -4162.501   -4689.4293            0    8486.2581    19.743543    19.917588     20.60968    8104.6276    7860.7929    9165.8104    8432.1712    191.36948   -241.20448   -472.93956    -3159.445 
 1654000    274.30921   -4675.6845   -4146.6561   -4675.6845            0    7539.8593    19.848289    19.827491    20.634518    8120.5451    8339.0874    7318.4451    6962.0453   -141.34785   -829.34892    794.24839    -3253.712 
 1655000    261.22492   -4654.1873   -4150.3931   -4654.1873            0    9547.8318      20.0513    19.764321    20.478937    8115.8098    8353.2355      10831.2    9459.0604    498.63658   -78.188681    329.72832   -3020.3045 
 1656000    265.25942   -4681.5042   -4169.9291   -4681.5042            0    7471.8735    19.839748    19.861103    20.657128    8139.7196    7767.2014    8151.6032    6496.8159    541.36191    1512.5555    72.332283   -3282.9471 
 1657000    282.91445    -4694.645   -4149.0207    -4694.645            0    7510.7753    20.047782    19.987593    20.280204    8126.4176    6779.3989    8241.7201    7511.2069   -586.70266    844.96461   -602.66824   -3258.8777 
 1658000    268.78358   -4696.9222   -4178.5504   -4696.9222            0    9634.6009    19.897387    19.855666    20.344084    8037.4568    9202.9813    9935.2902    9765.5312    169.30782    265.73917    487.74714   -3049.2012 
 1659000    257.35577   -4677.5677   -4181.2355   -4677.5677            0    7334.6473     20.08508    19.783478    20.630559     8197.609    6805.4308     8908.989    6289.5221   -173.63876    265.28199   -321.32025   -3304.3511 
 1660000    265.79656   -4662.9148   -4150.3037   -4662.9148            0    7235.0124    19.770486    19.812009    20.800074    8147.2443    7294.2993    7180.2953    7230.4427   -493.87161    671.51308    902.16896   -3290.6454 
 1661000    261.14886   -4676.9368   -4173.2892   -4676.9368            0    8262.8039    20.060942    19.797559    20.407515    8105.0012    8138.0743     8370.924    8279.4133    160.26877   -1574.9363   -596.27485      -3196.6 
 1662000    271.06392   -4672.9603   -4150.1908   -4672.9603            0    7373.4261    20.000406    19.993277    20.543032    8214.6173    7141.0529    8218.9998    6760.2257    142.31868    595.52526   -47.445415   -3266.8413 
 1663000     283.0397   -4688.6257   -4142.7599   -4688.6257            0    8913.4108    20.001994    20.093936    20.219478    8126.5881    7591.0183    9022.8707    10126.343     263.8404    979.33964    -1008.803   -3086.3607 
 1664000    264.43627   -4691.3637   -4181.3761   -4691.3637            0    6001.2021    19.965707    20.190827    20.391169    8220.1725    5306.7269    5799.8683    6897.0111   -139.56055   -298.44149   -315.83093   -3461.9353 
 1665000    272.91233   -4686.9564    -4160.622   -4686.9564            0    6969.5466    20.007101    19.689254    20.716568    8160.7715    6804.4474    7278.1435    6826.0488   -233.53564   -546.81344    1197.9208   -3331.1311 
 1666000    273.68421   -4669.4325   -4141.6095   -4669.4325            0    7520.3758    19.805318    20.038562    20.629456    8187.2138    6334.5164    7295.7561    8930.8547    318.59337    516.29944   -194.47868   -3243.6607 
 1667000    267.40722   -4677.5571   -4161.8398   -4677.5571            0    6591.0747    19.529559    20.075955      20.8609    8179.0276    9039.4158    5745.5013     4988.307    110.01704    1044.6973    1622.9657   -3375.6384 
 1668000    279.01096   -4649.5982   -4111.5021   -4649.5982            0    7910.2401    20.172853    19.385184    20.811894    8138.5841    7133.4625    10055.716    6541.5415    402.57473    15.536677    531.97086   -3172.6128 
 1669000    271.59666   -4646.0735   -4122.2764   -4646.0735            0    7238.5344    19.856385    19.935392    20.726646    8204.5356    6870.6016    8449.5568    6395.4447     825.8885   -560.12239   -1845.3182   -3256.1515 
 1670000    263.63377   -4652.8463   -4144.4064   -4652.8463            0    5580.0516    20.010364    19.809006     20.69889    8204.7381    6617.0999    5969.4846    4153.5702    498.46987    764.17616   -1475.0689   -3476.7103 
 1671000    270.93143   -4647.0403   -4124.5263   -4647.0403            0    7922.1249    19.954128     19.99793    20.328639    8111.9659    8454.1678    6926.1296    8386.0772    308.15207   -728.53846   -643.08966   -3187.3016 
 1672000    260.32315   -4671.6226   -4169.5675   -4671.6226            0    7624.1664    19.901139    20.035332     20.53308    8187.0713    6152.5156    7952.2512    8767.7323   -507.02975   -242.32069    1390.6466   -3259.2418 
 1673000    256.66737   -4688.2481   -4193.2435   -4688.2481            0    6496.7272    20.085292    19.890184    20.544463    8207.5164    7998.6044    4995.7392    6495.8382   -75.317185   -57.206247   -318.30009   -3415.5969 
 1674000    258.24903   -4654.7348   -4156.6798   -4654.7348            0    6993.9479     19.91739    19.943862    20.589885    8178.9131    5939.2161     7504.178    7538.4496   -121.81003   -600.04331    -990.4257   -3322.4343 
 1675000    258.26758   -4666.6025   -4168.5118   -4666.6025            0    6430.1182    19.960865    19.632894    20.868009     8177.955    3985.6975    8843.3418    6461.3152    543.75804    66.681763   -709.84371   -3401.6103 
 1676000    258.89735   -4686.2229   -4186.9176   -4686.2229            0    7518.4331     19.94079    19.929864    20.461381    8131.7058    7965.6791    7305.0155    7284.6047   -380.04759   -167.41103   -641.41401   -3295.2872 
 1677000    272.98108   -4665.8272   -4139.3602   -4665.8272            0     8824.266    19.919064    19.743521    20.492423    8059.1057    8791.9347    9711.3331    7969.5302    589.65491    653.18748    988.04976   -3102.2108 
 1678000    272.32208   -4679.0585   -4153.8624   -4679.0585            0    6030.0551    19.961618    19.791977     20.81943    8225.3378    6843.6849    7822.8348    3423.6457    553.72014     858.5664    918.46267   -3430.5084 
 1679000     266.8953   -4629.3902   -4114.6602   -4629.3902            0    7262.8404    19.803775    20.062667    20.459752    8128.9979    7411.1818    7287.0231    7090.3163   -591.58614     856.4559   -198.43954    -3253.628 
 1680000    276.97101   -4666.1906   -4132.0288   -4666.1906            0    6804.9741    20.115998     19.83592    20.458207    8163.2205    6332.4582    5970.5622    8111.9019   -193.86961   -405.17959   -868.15369   -3321.8816 
 1681000    259.82634   -4673.1595   -4172.0625   -4673.1595            0    7123.0866    20.039694     19.84383    20.700351    8231.7902    8212.8186    5960.2079    7196.2332    502.87606   -775.03338    269.56322   -3316.9202 
 1682000    266.69026   -4673.7703   -4159.4357   -4673.7703            0    6927.4817    20.032799    19.880146     20.61771    8211.1056    10025.394    4261.4753    6495.5758   -394.84606   -1700.6235   -1275.1401   -3329.8659 
 1683000    253.12389   -4666.1874   -4178.0167   -4666.1874            0    6956.3118    19.963671    19.945934    20.553116    8184.1287    6307.9799    7204.4348    7356.5206    69.135489   -97.367766    -176.1643   -3347.7313 
 1684000    267.71775   -4688.7298   -4172.4136   -4688.7298            0    7622.4929    19.861389    20.110359    20.373076    8137.4072    5591.8602    9708.2027    7567.4157    -561.1322      -1507.9   -829.65046   -3267.8086 
 1685000    279.44328   -4670.1937   -4131.2638   -4670.1937            0    8906.4611    20.049995    19.845013    20.455009     8138.893     9734.845    8029.8873    8954.6508   -88.099268   -1110.5314   -93.407909     -3074.09 
 1686000    270.99033   -4647.7519   -4125.1243   -4647.7519            0    8608.3674    19.796234    19.739828    20.845653    8145.9449    7387.6611    9836.0965    8601.3445   -352.04351   -444.69858   -1786.4951   -3102.4481 
 1687000    261.19168   -4664.9096   -4161.1795   -4664.9096            0    8563.4979    19.868504    19.701795    20.714539    8108.6072    7022.4289     10615.41    8052.6551   -976.18866    335.25853    214.98892   -3148.4969 
 1688000    276.12272   -4667.1244   -4134.5985   -4667.1244            0    7397.1914     19.84029    19.846948    20.603177    8112.8965    6267.8093    8603.5033    7320.2617    248.58553   -104.97726   -748.69455   -3259.3756 
 1689000    265.57214   -4695.7382   -4183.5599   -4695.7382            0    7511.3585    19.927279    19.871526    20.500604    8117.9408      7169.94    7132.4618    8231.6736    131.22511    694.62097    1346.4081   -3294.2764 
 1690000    280.97757   -4652.4785   -4110.5896   -4652.4785            0    7751.3931    19.930652    19.919341    20.497751     8137.719    6688.6014    8098.1259    8467.4521   -43.273536    160.78438   -1519.0212   -3190.6521 
 1691000    267.86856   -4655.1891    -4138.582   -4655.1891            0    8206.0216    20.055372    19.660648    20.535993     8097.375     7466.041    7393.1482    9758.8755    692.52344    114.16256   -945.66945   -3169.5173 
 1692000    286.00597   -4685.3637   -4133.7772   -4685.3637            0    7533.6918    19.757187    19.940553    20.587333    8110.7754    9414.8467    5334.9156    7851.3131   -23.979972    1111.1168   -992.04474   -3242.6368 
 1693000    279.09393   -4684.3685   -4146.1124   -4684.3685            0    7354.6078    20.045321    19.887846    20.478721    8164.0113    8057.8898    6803.0728    7202.8608    548.93416    1059.9859   -173.10129   -3270.4453 
 1694000    283.71241   -4673.5316   -4126.3683   -4673.5316            0    7837.3044     19.92827    20.089264    20.361328    8151.5411    6586.7519    7721.1621    9203.9994   -866.69505    169.39533     1288.719    -3194.655 
 1695000     262.9491    -4659.497   -4152.3776    -4659.497            0    7891.5894    20.119454    19.640201    20.593945    8137.6997    4550.2371    10044.912    9079.6193    581.44044   -258.92493   -21.278593   -3215.8037 
 1696000    257.22035   -4661.0768   -4165.0057   -4661.0768            0    8335.2323    19.838462    20.024321    20.598077    8182.6218    9789.5452    9053.9398     6162.212    582.68382    414.42754    1690.9818   -3170.3196 
 1697000     259.2194   -4662.9577   -4163.0313   -4662.9577            0    6293.2489    19.793475    19.914772    20.690957    8156.0142    6813.6181    5768.4599    6297.6688   -296.92188    664.24692    287.69845   -3414.4676 
 1698000    264.61894   -4652.3371   -4141.9972   -4652.3371            0    8157.0721    19.697246    19.979548    20.589364    8102.7811    9704.3697    6752.8362    8014.0104    597.39565   -241.13682    531.04381   -3178.0699 
 1699000    273.48869   -4648.5037   -4121.0578   -4648.5037            0    7309.1817    20.080936    19.730311    20.548546    8141.3982    6547.6653    8567.7493    6812.1305    437.30204   -30.163684    882.78303   -3253.2099 
 1700000    254.94055   -4664.2989   -4172.6247   -4664.2989            0    7526.6893    19.835576    19.958737    20.715031    8200.9368    7437.6746    8029.4902    7112.9031   -1103.9189   -880.62787    145.64564   -3272.4157 
 1701000    260.21175   -4668.1201   -4166.2799   -4668.1201            0    7446.1987    19.950095    20.152571    20.409816    8205.6791    7048.9354    6890.2787     8399.382   -592.77779   -359.97177   -772.85273   -3275.1828 
 1702000    275.02688   -4671.3455    -4140.933   -4671.3455            0    7110.4327    19.990157    19.870463    20.526796    8153.5238    8577.2417    5520.3026    7233.7538    398.68443   -315.59847   -1624.3632   -3295.4259 
 1703000    259.46588   -4683.0989   -4182.6972   -4683.0989            0      7223.89    19.908375    19.783842    20.644773    8131.2358    7308.7084    6956.7447    7406.2169    256.50818    330.89489    -247.7638   -3326.0469 
 1704000    265.47255    -4694.141   -4182.1549    -4694.141            0    8227.6999    19.930058    19.911313    20.537742    8150.0665    7338.3341    9139.2152    8205.5503    355.81539    345.02518    678.92648   -3204.2075 
 1705000     263.2564   -4705.2818   -4197.5697   -4705.2818            0    6706.1954     20.11673    19.766667    20.693008    8228.3826    7159.6282    6042.1594    6916.7986   -182.90024    1699.3716   -538.47144   -3392.8094 
 1706000     259.0254   -4690.6228   -4191.0705   -4690.6228            0    6990.6085    19.782859    19.894885     20.81484     8192.257     7306.045    7819.2449    5846.5355   -394.82842    826.01177    309.95136   -3355.8629 
 1707000    259.39662   -4651.6045   -4151.3363   -4651.6045            0    9084.4788    19.839092     19.94051    20.425998    8080.5579    9231.6093    7979.3098    10042.517   -55.880501    808.71603    336.45395   -3080.7609 
 1708000    273.82172   -4667.2971   -4139.2089   -4667.2971            0    7907.1342       19.739    20.081619    20.535913    8140.2525    7804.6136    6571.2785    9345.5106    259.98019    1815.0187    935.65516   -3200.4958 
 1709000    269.33488   -4684.4905   -4165.0555   -4684.4905            0    7452.6625    20.100699    19.713048    20.583156    8155.9936    7612.7449    7559.1286    7186.1141   -489.02366    882.56896    -1201.013   -3278.5852 
 1710000    268.29758   -4645.8544     -4128.42   -4645.8544            0    7864.8593    20.024414    20.010367    20.481998     8207.052     6956.935     7702.399     8935.244    918.09362     1143.544   -141.89185   -3187.0637 
 1711000    277.22376   -4694.1611   -4159.5117   -4694.1611            0    7681.9841    19.953148     20.01408    20.564978    8212.4984    8087.0679    7929.3466    7029.5378   -846.13482    1996.4727   -678.59689   -3239.4339 
 1712000    275.49487   -4694.3639   -4163.0489   -4694.3639            0    6963.8367    19.962344    20.117488    20.476261    8223.1071    5543.6423    7875.2003    7472.6674   -192.39119   -107.41848    1172.2936   -3327.9067 
 1713000    282.23334   -4671.6275   -4127.3167   -4671.6275            0    9008.5259    19.989078    19.894129    20.478567    8143.6154    8353.2551    9873.3914    8798.9311   -476.99476   -766.41623    1472.7409   -3057.4077 
 1714000    278.39739   -4678.7251   -4141.8124   -4678.7251            0    7793.0692    20.052997    19.783955    20.592929    8169.7835    6711.8684    8484.0944    8183.2448     84.14825   -322.50831    229.48978   -3213.2844 
 1715000    262.74833   -4708.2704   -4201.5382   -4708.2704            0    7941.8413     19.83345    19.920823    20.508048     8102.702    9138.3712    6223.0629    8464.0899    212.87485   -243.83601    111.74429    -3263.054 
 1716000     267.9737    -4681.234   -4164.4242    -4681.234            0    7985.8088    19.855951    19.691412    20.702626    8094.5551    7195.7447    8835.3299    7926.3517   -302.10434    1040.1577    330.83321   -3221.6932 
 1717000    252.63277   -4681.2314   -4194.0079   -4681.2314            0    8453.5824    19.901662    19.879837     20.46645    8097.3832    9050.4221    8448.5305    7861.7945    929.32491   -898.67384    1561.0573   -3195.7072 
 1718000    275.64953   -4648.2306   -4116.6173   -4648.2306            0    10004.603    19.756208    19.992384    20.316393    8024.4407    9365.6791    10789.961    9858.1678   -33.033653     449.9136   -262.66044   -2945.7963 
 1719000    268.03775   -4660.3183   -4143.3849   -4660.3183            0    6812.6831      19.9939    19.878433    20.577499    8178.4735    6916.4927    7086.2597    6435.2969   -336.21783    232.02578    1425.9516   -3330.8046 
 1720000    260.70147   -4686.5433   -4183.7586   -4686.5433            0     9942.122    19.797498    20.162492    20.332368     8116.008    10772.088    8726.3034    10327.974   -352.13102    1800.4988     439.7306   -3006.9727 
 1721000    266.65803   -4668.4647   -4154.1923   -4668.4647            0    6843.6833     20.05058    19.771354    20.548277    8145.8943    7333.4784    5491.6079    7705.9635     -1236.01     194.6155   -830.75286   -3341.1661 
 1722000    265.74527   -4688.3317   -4175.8196   -4688.3317            0    8520.5063    19.794965    19.964499    20.450854    8082.1073    9212.6903    6987.1643    9361.6643    1311.1517     -62.4923   -84.954449    -3171.514 
 1723000    272.37066   -4685.2514   -4159.9617   -4685.2514            0    8658.1054    19.598959    19.819515    20.740598    8056.5164    8400.5101    9980.0756    7593.7305    890.50289    542.75774   -703.12553   -3142.6687 
 1724000    271.84912   -4669.6098   -4145.3259   -4669.6098            0    9745.5353    19.998371    19.810633    20.489073    8117.3688    10382.921    10432.321    8421.3635   -287.56741     8.163557    42.973124   -2991.6153 
 1725000     271.8968   -4698.3272   -4173.9513   -4698.3272            0    9816.4671    19.915571    19.883855    20.384747    8072.3254    8237.6232    11569.252    9642.5255   -46.629014    1847.9934    224.77196   -3018.2922 
 1726000    265.16189   -4653.9727   -4142.5857   -4653.9727            0    8476.1644    19.578489    19.982182    20.635606    8073.0812    9927.3881    8389.7606    7111.3445    840.29893   -1520.4685    25.052425   -3144.6224 
 1727000    292.26396   -4641.3376    -4077.682   -4641.3376            0    9030.5159    20.169633    19.679467    20.423679    8106.7226     8417.699    8493.4248    10180.424   -635.32288    22.948151    953.49944   -3010.0201 
 1728000    277.73291   -4661.1042   -4125.4729   -4661.1042            0    7532.8427    19.584108    19.991751    20.820068    8151.4854    8160.1538    7472.3917    6965.9826   -316.40123     1006.514    430.45388   -3229.9606 
 1729000    282.54797   -4694.5833   -4149.6658   -4694.5833            0    6610.4466    20.139232     19.80909    20.609467    8221.9376    4155.2286    7541.3699    8134.7412   -156.93149   -871.47168     1360.549   -3357.0168 
 1730000    276.13119   -4656.9127   -4124.3704   -4656.9127            0    8898.8026    19.750658    20.031846    20.672113    8178.7591    10035.312    7519.6628    9141.4335   -13.660143    1169.1099    -671.0075   -3062.9318 
 1731000    274.33147   -4654.6348   -4125.5635   -4654.6348            0    7200.1252    19.716814    20.028935    20.588226    8130.4304    6261.2231    7115.4644    8223.6881   -23.235611    446.69058   -511.64433    -3271.816 
 1732000    279.15401   -4678.4532   -4140.0812   -4678.4532            0    10029.074    19.657565    19.794248    20.681623    8047.3587    9665.7797    9105.5122     11315.93    124.80035    32.720372    -387.7399   -2963.0443 
 1733000    269.87387   -4687.9412   -4167.4667   -4687.9412            0    8280.2449    19.992983    19.972103     20.43808    8160.9649     7974.101     7487.539    9379.0945    937.41892   -530.95829   -295.84259   -3181.9578 
 1734000    277.13999   -4662.6472   -4128.1594   -4662.6472            0    9355.0037    19.623435    20.074508    20.626702    8125.4935      10125.3    8929.8765    9009.8349    136.98116   -1034.9794    103.49889   -3019.5728 
 1735000    250.89817   -4660.0423    -4176.164   -4660.0423            0    8172.8853    19.919715    19.714649    20.695486    8127.3283    8747.4796    7625.2401    8145.9362   -328.53207    215.68236   -501.39206   -3207.4422 
 1736000    266.56184   -4688.2987   -4174.2117   -4688.2987            0     7236.702    20.085338    19.625737    20.587431    8115.3504    5059.1632    7322.9964    9327.9466    287.76009   -835.63929    -771.5398   -3317.7187 
 1737000    261.32302   -4661.5681   -4157.5847   -4661.5681            0     5734.337    20.011156    19.852831    20.725397    8233.7463     5012.562      6143.71     6046.739    723.02985   -273.60738    1281.8186   -3469.0012 
 1738000     278.9847   -4676.1216   -4138.0761   -4676.1216            0    5089.0476    19.960358    19.919073    20.575853     8180.791     4819.558    5569.4689    4878.1158   -213.43687    640.39325    118.65411   -3530.9097 
 1739000    267.82964   -4675.3747   -4158.8427   -4675.3747            0    8054.6614    19.873624    19.885894    20.496986     8100.507    7308.8967      8472.23    8382.8575   -151.58745    569.38477   -268.39463   -3207.2845 
 1740000     273.6454    -4667.089   -4139.3408    -4667.089            0    8307.1879    20.023446    19.958322    20.354512    8134.3632     9471.472    6303.7361    9146.3557   -783.70118    55.397871   -358.52456   -3153.8479 
 1741000    266.87042    -4697.805   -4183.1229    -4697.805            0    6655.7075    19.974673    19.821611    20.630639    8168.2931    4168.3957    10000.738    5797.9884    926.87742    577.57287   -99.999617    -3390.254 
 1742000    260.22163   -4653.9245   -4152.0652   -4653.9245            0    7941.6104    19.887308    19.623546    20.814169    8122.9275    8369.5014    8631.7492    6823.5806    320.29035    608.81161   -133.94831   -3211.2657 
 1743000    272.94806   -4662.4539   -4136.0506   -4662.4539            0    7418.5029    19.760102    19.867566    20.901951     8205.795    7667.8563    8387.2416    6200.4109   -65.136723    791.68962   -548.49068   -3248.2554 
 1744000    266.26041   -4642.4004   -4128.8948   -4642.4004            0    9830.6409    19.850196    19.776599    20.496361    8046.2435     10884.72    8437.5113    10169.691   -109.32481   -736.51076   -748.69231   -2975.3064 
 1745000    290.09503   -4665.0125   -4105.5398   -4665.0125            0    6966.3845    20.144004    19.850155    20.424898    8167.1326    6771.2364    6934.5666    7193.3507   -70.553868    1677.5556   -879.50456    -3275.779 
 1746000    282.20988   -4679.1915   -4134.9261   -4679.1915            0    8529.0117    19.962323    20.001759    20.400757     8145.646    9460.8905    7138.9531    8987.1914   -99.268417   -778.08772    69.527563   -3121.7145 
 1747000    262.75667   -4658.4964   -4151.7481   -4658.4964            0    8754.6316    19.894543    19.948796    20.518309    8143.1459    8032.0256     10047.58    8184.2889   -555.77324   -990.76279    255.30761    -3112.053 
 1748000    280.16897   -4643.1098   -4102.7804   -4643.1098            0    9776.0095     19.69608    19.672241    20.661492     8005.626    10588.749    9719.8088    9019.4709   -122.42693    786.16411    -180.4854   -2961.3937 
 1749000    265.48355   -4680.5783   -4168.5709   -4680.5783            0    7574.6491    19.972833    19.741264    20.652751    8143.1522    6963.8264    8310.4921    7449.6288    163.77634   -189.36973   -274.06761   -3269.0092 
 1750000    268.72955   -4610.0841   -4091.8166   -4610.0841            0    8551.6649    20.103838    19.661538    20.607637    8145.6298    7128.7615    9563.6154    8962.6179   -707.63662   -919.84958    1328.4859   -3075.9159 
Loop time of 352.528 on 64 procs for 250000 steps with 972 atoms

Performance: 122.543 ns/day, 0.196 hours/ns, 709.163 timesteps/s
193.9% CPU use with 32 MPI tasks x 2 OpenMP threads

MPI task timing breakdown:
Section |  min time  |  avg time  |  max time  |%varavg| %total
---------------------------------------------------------------
Pair    | 27.723     | 36.391     | 44.606     |  65.9 | 10.32
Bond    | 1.0161     | 1.1876     | 1.4336     |   8.1 |  0.34
Kspace  | 153.87     | 161.01     | 168.95     |  31.7 | 45.67
Neigh   | 2.7507     | 2.8623     | 3.0123     |   3.8 |  0.81
Comm    | 64.643     | 66.956     | 68.758     |  13.3 | 18.99
Output  | 0.83755    | 0.83791    | 0.83953    |   0.0 |  0.24
Modify  | 69.382     | 70.571     | 71.851     |   7.2 | 20.02
Other   |            | 12.71      |            |       |  3.61

Nlocal:        30.3750 ave          36 max          23 min
Histogram: 1 0 1 8 2 4 8 2 2 4
Nghost:        2638.19 ave        2674 max        2604 min
Histogram: 2 2 3 4 5 5 5 2 3 1
Neighs:        9636.12 ave       12082 max        7364 min
Histogram: 2 2 4 5 3 4 6 3 0 3

Total # of neighbors = 308356
Ave neighs/atom = 317.23868
Ave special neighs/atom = 2.0000000
Neighbor list builds = 8834
Dangerous builds = 0

unfix		3
unfix		2
unfix		1

write_data	data.final.${pid}
write_data	data.final.1
System init for write_data ...
PPPM initialization ...
  extracting TIP4P info from pair style
  using 12-bit tables for long-range coulomb (../kspace.cpp:340)
  G vector (1/distance) = 0.37176276
  grid = 24 24 24
  stencil order = 5
  estimated absolute RMS force accuracy = 0.0035649695
  estimated relative force accuracy = 1.07358e-05
  using double precision FFTW3
  3d grid and FFT values/proc = 3211 432
Last active /omp style is kspace_style pppm/tip4p/omp
WARNING: Not all mixed pair coeffs generated from mixing. Use write_data with 'pair ij' option to store all pair coeffs. (../write_data.cpp:312)

write_restart   restart.lmp.${pid}
write_restart   restart.lmp.1
System init for write_restart ...
PPPM initialization ...
  extracting TIP4P info from pair style
  using 12-bit tables for long-range coulomb (../kspace.cpp:340)
  G vector (1/distance) = 0.37176276
  grid = 24 24 24
  stencil order = 5
  estimated absolute RMS force accuracy = 0.0035649695
  estimated relative force accuracy = 1.07358e-05
  using double precision FFTW3
  3d grid and FFT values/proc = 3211 432
Last active /omp style is kspace_style pppm/tip4p/omp
Total wall time: 0:05:52
