LAMMPS (30 Jul 2021)
Processor partition = 0
  using 2 OpenMP thread(s) per MPI task
using multi-threaded neighbor list subroutines
variable        pid world 0 1
variable        phase world IceV IceIII

shell cd ${phase}
shell cd IceV
include Restart.lmp
echo both
log log.lammps
#include		in.partitions
include		in.temp
variable        temperature equal 51.47
variable	tempDamp equal 100.0
include		in.pressure
variable        pressure equal 6787.3
variable        pressureDamp equal 1000.0 # This is 1 ps
include		in.seed
variable        seed equal 745823

units		real
atom_style	full
read_restart    restart.lmp.${pid}
read_restart    restart.lmp.0
Reading restart file ...
  restart file = 30 Jul 2021, LAMMPS = 30 Jul 2021
  restoring atom style full from restart
  triclinic box = (-3.1028295 -0.055272173 0.045121596) to (14.712828 22.635271 19.184876) with tilt (-0.044917461 -6.7436220 0.11584306)
  2 by 4 by 4 MPI processor grid
  restoring pair style lj/cut/tip4p/long/omp from restart
  restoring bond style harmonic/omp from restart
  restoring angle style harmonic/omp from restart
  1008 atoms
  672 bonds
  336 angles
Finding 1-2 1-3 1-4 neighbors ...
  special bond factors lj:    0        0        0       
  special bond factors coul:  0        0        0       
     2 = max # of 1-2 neighbors
     1 = max # of 1-3 neighbors
     1 = max # of 1-4 neighbors
     2 = max # of special neighbors
  special bonds CPU = 0.002 seconds
  read_restart CPU = 0.008 seconds

include 	in.setup
variable	out_freq equal 1000
variable	out_freq2 equal 10000
variable	out_freq3 equal 1000

timestep	2.0

neigh_modify    delay 7 every 1

include		in.tip4p
# This is TIP4P/Ice

# create groups ###
group ox type 2
336 atoms in group ox
group hy type 1
672 atoms in group hy

# set charges - beside manually ###
set group ox charge -1.1794
Setting atom values ...
  336 settings made for charge
set group hy charge 0.5897
Setting atom values ...
  672 settings made for charge

# ### TIP3P Potential Parameters ###
pair_style lj/cut/tip4p/long/omp 2 1 1 1 0.1577 8.5
pair_coeff 1 1*2 0.000 0.000
pair_coeff 2 2 0.21084 3.1668
bond_style  harmonic
bond_coeff  1 450 0.9572
angle_style harmonic
angle_coeff 1 55 104.52
kspace_style pppm/tip4p/omp 1.0e-5
pair_modify tail yes

thermo          ${out_freq}
thermo          1000
thermo_style    custom step temp pe etotal epair emol press lx ly lz vol pxx pyy pzz pxy pxz pyz enthalpy

restart 	${out_freq3} restart.lmp.${pid} restart2.lmp.${pid}
restart 	1000 restart.lmp.${pid} restart2.lmp.${pid}
restart 	1000 restart.lmp.0 restart2.lmp.${pid}
restart 	1000 restart.lmp.0 restart2.lmp.0


include         in.dump
dump            myDump all atom ${out_freq2} dump.water.${pid}
dump            myDump all atom 10000 dump.water.${pid}
dump            myDump all atom 10000 dump.water.0
dump            myDump2 all dcd ${out_freq2} dump.dcd
dump            myDump2 all dcd 10000 dump.dcd
dump_modify     myDump append yes
dump_modify     myDump2 append yes


variable natoms 	equal  "count(all)"                        # NUMBER ATOMS
variable H      	equal  "enthalpy/v_natoms"                 # ENTHALPY-per-atom
variable Vol      	equal  "vol/v_natoms"                 # volume-per-atom
fix AVG all 		ave/time ${out_freq} 1 ${out_freq} v_Vol v_H file vol_enthalpy.dat
fix AVG all 		ave/time 1000 1 ${out_freq} v_Vol v_H file vol_enthalpy.dat
fix AVG all 		ave/time 1000 1 1000 v_Vol v_H file vol_enthalpy.dat



fix 		1 all shake 1e-6 200 0 b 1 a 1
Finding SHAKE clusters ...
       0 = # of size 2 clusters
       0 = # of size 3 clusters
       0 = # of size 4 clusters
     336 = # of frozen angles
  find clusters CPU = 0.000 seconds
fix             2 all nph tri ${pressure} ${pressure} ${pressureDamp}
fix             2 all nph tri 6787.3 ${pressure} ${pressureDamp}
fix             2 all nph tri 6787.3 6787.3 ${pressureDamp}
fix             2 all nph tri 6787.3 6787.3 1000
fix             3 all temp/csvr ${temperature} ${temperature} ${tempDamp} ${seed}
fix             3 all temp/csvr 51.47 ${temperature} ${tempDamp} ${seed}
fix             3 all temp/csvr 51.47 51.47 ${tempDamp} ${seed}
fix             3 all temp/csvr 51.47 51.47 100 ${seed}
fix             3 all temp/csvr 51.47 51.47 100 745823


run             250000
PPPM initialization ...
  extracting TIP4P info from pair style
  using 12-bit tables for long-range coulomb (../kspace.cpp:340)
  G vector (1/distance) = 0.3796012
  grid = 24 27 32
  stencil order = 5
  estimated absolute RMS force accuracy = 0.0024346182
  estimated relative force accuracy = 7.3317803e-06
  using double precision FFTW3
  3d grid and FFT values/proc = 5355 672
Last active /omp style is kspace_style pppm/tip4p/omp
Neighbor list info ...
  update every 1 steps, delay 7 steps, check yes
  max neighbors/atom: 2000, page size: 100000
  master list distance cutoff = 10.8154
  ghost atom cutoff = 10.8154
  binsize = 5.4077, bins = 5 5 4
  1 neighbor lists, perpetual/occasional/extra = 1 0 0
  (1) pair lj/cut/tip4p/long/omp, perpetual
      attributes: half, newton on, omp
      pair build: half/bin/newton/tri/omp
      stencil: half/bin/3d/tri
      bin: standard
Setting up Verlet run ...
  Unit style    : real
  Current step  : 42250000
  Time step     : 2
Per MPI rank memory allocation (min/avg/max) = 10.31 | 10.32 | 10.33 Mbytes
Step Temp PotEng TotEng E_pair E_mol Press Lx Ly Lz Volume Pxx Pyy Pzz Pxy Pxz Pyz Enthalpy 
42250000    53.311769   -5282.8686   -5176.2385   -5282.8686            0    6042.2596    17.815658    22.690543    19.139755    7737.1877    6221.0328    6236.8178    5668.9283   -414.37334    543.91501    1175.3726   -4494.4363 
42251000    52.102133   -5287.8421   -5183.6314   -5287.8421            0    5861.9469     17.82302    22.700175    19.109684    7731.5043    5495.0171    5589.9874    6500.8363    291.30577    -178.7093   -60.497301   -4522.6614 
42252000    51.165648   -5282.9224   -5180.5848   -5282.9224            0    6387.9052    17.874514    22.588075    19.112583    7716.7219    6286.1886    6288.4499    6589.0771    430.01059   -9.4475192   -50.919526   -4461.6869 
42253000    50.401832   -5283.8616   -5183.0517   -5283.8616            0    6634.2793     17.89144      22.5588    19.090124     7704.954    7195.4178    6475.7287    6231.6913    482.64806   -173.73709    -255.2263   -4437.5654 
42254000    49.956257    -5285.244   -5185.3253    -5285.244            0    7524.0576    17.751639    22.704719    19.057027    7680.8578    7552.3527     7671.807     7348.013    423.96617    665.63241    505.71672   -4342.4997 
42255000    52.486955   -5283.4979   -5178.5175   -5283.4979            0     7273.052    17.807183    22.674407    19.061249     7696.309    6890.5401    6891.2205    8037.3953    205.24922   -456.40757   -943.36405     -4362.17 
42256000     53.92136   -5283.3237   -5175.4744   -5283.3237            0    6635.5095    17.749028    22.748395    19.088567    7707.2359    7104.8453    6508.4687    6293.2144      220.559   -358.78034   -139.30006    -4429.629 
42257000    50.269074   -5284.2875   -5183.7432   -5284.2875            0    6204.9054    17.781864    22.763108    19.098982    7730.7043    5793.2875     6189.262    6632.1668   -49.860695    448.01881    171.57911   -4484.1749 
42258000    51.750496   -5280.7946   -5177.2872   -5280.7946            0     6829.466    17.845163     22.63458    19.069534    7702.5236    6328.7128    6646.2763    7513.4088   -143.33605   -704.01952    253.00743     -4410.11 
42259000    54.898311   -5284.4476   -5174.6442   -5284.4476            0    6309.5495    17.764553    22.714236    19.141498    7723.7522    7440.3313    6000.3111    5488.0063    8.6285391    159.61046    1126.4025   -4463.9176 
42260000    52.414995    -5283.896   -5179.0596    -5283.896            0    6168.5168    17.883553    22.632399    19.102635    7731.7476    5678.5834    6577.8031     6249.164   -223.88889   -341.98533   -32.121114      -4483.5 
42261000    51.683597   -5284.6526    -5181.279   -5284.6526            0    6466.7487    17.856227    22.652592    19.060448    7709.7575    6931.9851    6473.0395    5995.2216   -83.181767   -635.33548   -174.48003   -4454.1649 
42262000     54.53845   -5281.3527    -5172.269   -5281.3527            0    6733.4826    17.779572    22.655115    19.152963    7714.7799    7205.6979    6555.9583    6438.7916    584.77017   -59.814608    289.63249   -4414.6704 
42263000     53.64542   -5280.8418   -5173.5443   -5280.8418            0    6904.7157     17.84983    22.626511    19.095401    7712.2386    6677.4408    7047.9083     6988.798   -431.03555   -55.300065   -693.02136   -4396.9358 
42264000    51.404294   -5285.9888   -5183.1738   -5285.9888            0    6257.9021    17.818762    22.737237    19.091231    7734.8009    5920.9383    6167.9788    6684.7892   -80.886919   -256.29618   -419.86814   -4477.2566 
42265000    51.095154   -5281.5267   -5179.3301   -5281.5267            0     6345.958    17.750181    22.746465    19.093869    7709.2235    6135.1473    6287.9688    6614.7578    62.335261    1.0359468    393.28922   -4465.8469 
42266000    51.104435   -5279.2737   -5177.0585   -5279.2737            0    6987.7527     17.82536    22.694507    19.016962    7693.0792    6967.5345    7153.0469    6842.6766   -668.87394    136.69916     17.19583   -4393.0629 
42267000    52.313918   -5282.1509   -5177.5166   -5282.1509            0    7235.2395    17.714461    22.765582    19.082051    7695.4093    7650.4036    7106.8625    6948.4523    244.22105    219.08629    310.03133   -4365.5082 
42268000    49.868031   -5282.3211   -5182.5789   -5282.3211            0    6935.3306    17.702639    22.835553    19.050005     7700.956    6711.6687    6344.8209    7749.5023    401.20477     46.72836   -316.99589   -4403.6681 
42269000    50.076942   -5279.2493   -5179.0892   -5279.2493            0    7083.1452    17.760496    22.729449    19.045502     7688.408    6894.2186    6987.5368    7367.6801    106.09793    208.62136   -341.28897   -4384.8735 
42270000    51.017318   -5281.7596   -5179.7187   -5281.7596            0    7499.1912    17.811444    22.641047    19.091119    7698.8706     8418.744    7349.1025    6729.7272    76.372055     325.9077   -485.81654   -4337.7085 
42271000    51.460111   -5282.4929   -5179.5664   -5282.4929            0    7571.8346    17.839099    22.660918    18.991024    7677.1285    6399.1429    7992.9152    8323.4456    74.062315    243.01788   -283.02094   -4331.8007 
42272000    53.079464   -5282.4768   -5176.3113   -5282.4768            0    7399.1083    17.771807     22.69495    19.076513    7694.1354    8118.5693    6541.6292    7537.1265   -101.34277    -355.1736   -247.44471   -4346.0495 
42273000    51.524517   -5288.7057   -5185.6503   -5288.7057            0    6707.3509     17.81476    22.610257    19.146478    7712.1307    6905.1691    6497.0059    6719.8776    114.31971   -46.823962   -582.52531    -4431.251 
42274000    52.415619   -5275.1209   -5170.2832   -5275.1209            0    6522.3599    17.856002    22.637859     19.09837    7719.9742    6403.7349    6538.9813    6624.3636   -25.292316    163.06502   -12.888295   -4435.9443 
42275000     53.96181   -5282.1181   -5174.1878   -5282.1181            0    6824.9377     17.82913    22.729741    19.038826     7715.513    6708.3742    6349.0916    7417.3472   -299.20179   -176.75694    79.193299   -4406.2264 
42276000    52.470628   -5280.6507    -5175.703   -5280.6507            0    6841.9305    17.753446    22.702506    19.122429    7707.2512    7280.3922    7003.1688    6242.2303   -369.59004    308.67608    290.24072   -4406.6539 
42277000    52.494666   -5275.8995   -5170.9037   -5275.8995            0    7816.6371    17.777762    22.632283     19.09714      7683.76    8094.3979    7627.5522    7727.9611   -122.42944    158.89392   -609.75143   -4294.9732 
42278000    50.872491   -5284.1453   -5182.3941   -5284.1453            0    6599.5146    17.811225    22.536259    19.212143    7711.7229    7042.4209    7032.1428      5723.98    194.60888   -134.76812    -663.6057   -4440.1627 
42279000    52.837922   -5284.2595   -5178.5771   -5284.2595            0    6682.8428    17.852618    22.637697    19.077321    7709.9495     6056.832    6363.3706    7628.3258    311.07063    130.38671    306.75366   -4427.1468 
42280000    51.692511   -5279.6096   -5176.2182   -5279.6096            0    6272.6878    17.854592    22.732041    19.035153    7725.8229    6386.7992    6040.8854    6390.3788   -828.78033      201.592    -566.4342   -4469.4543 
42281000    52.513311   -5277.2418   -5172.2086   -5277.2418            0    7302.3209     17.76739    22.683443    19.113537    7703.2447    6490.0646    7007.0656    8409.8326   -530.89179      456.216   -735.38629   -4351.8373 
42282000    51.991259   -5281.8653   -5177.8763   -5281.8653            0    6560.3191    17.799919    22.687868    19.114303    7719.1624    7580.2469    6128.3675    5972.3428    62.521621   -183.01868    -145.2943   -4439.3414 
42283000    51.543771    -5282.746   -5179.6521    -5282.746            0    6712.0215    17.817813    22.649288     19.13519    7722.2123    7339.4598    6490.5202    6306.0846    834.83804   -197.42605    546.52378   -4423.7406 
42284000     51.52709   -5287.1609   -5184.1003   -5287.1609            0    7209.7244    17.813706    22.558242    19.164217    7701.0618     7391.877    7585.6816    6651.6147    583.33105    211.75785   -677.82322   -4374.3611 
42285000     50.69089   -5284.0785   -5182.6905   -5284.0785            0    7601.5599     17.80902    22.753038    18.963387     7684.141    7356.5012    7411.4054     8036.773    792.78293   -306.32531    264.67302   -4330.8193 
42286000    49.634283   -5282.2651   -5182.9904   -5282.2651            0    7713.4652    17.811587    22.635381    19.060355    7684.6025    7573.8178    7486.4421    8080.1356   -314.49532    13.620096    1052.3387   -4318.5265 
42287000    52.891842   -5283.3858   -5177.5956   -5283.3858            0    6990.1673    17.809133    22.692277    19.048456    7698.0483     6715.474    7176.2261     7078.802   -44.483428    341.60914    500.97744   -4392.8225 
42288000    50.335283   -5278.4171   -5177.7403   -5278.4171            0    6970.4524    17.783881    22.717638    19.039794    7692.2247    6759.1498     7211.817    6940.3903     540.7584    493.77474    522.48805   -4395.7727 
42289000    50.522824   -5279.4897   -5178.4378   -5279.4897            0    7555.4205    17.693196    22.630364    19.208508    7691.1534    8458.4339    7361.5309    6846.2967    312.53933    327.11258    6.2781839   -4330.9645 
42290000    52.956187   -5283.5782   -5177.6593   -5283.5782            0    6487.4938    17.781791    22.771847    19.047361    7712.7374    6018.3509    6243.6877    7200.4427    275.07641   -296.65782    534.60067   -4447.9307 
42291000    51.257054   -5280.1288   -5177.6084   -5280.1288            0    7321.3179    17.738186    22.801083    19.032963    7697.8794    8204.3647    6617.6141    7141.9748   -211.02353    90.103638    -420.9542   -4355.6757 
42292000    51.378128   -5281.4896    -5178.727   -5281.4896            0    7329.5402    17.811393    22.635019    19.090787    7696.6652    7507.1662    7521.0336     6960.421   -371.34337    -159.0461    642.44639    -4356.001 
42293000    51.672645   -5280.7306   -5177.3789   -5280.7306            0    6635.0547    17.864269    22.591922    19.146975    7727.4925    5785.4655    7348.1403    6771.5583   -377.78848    724.42198   -909.16852   -4429.6245 
42294000    48.972471   -5281.5602   -5183.6092   -5281.5602            0    7369.5305    17.784962    22.668787    19.080838    7692.6978    7181.7953    7142.7367    7784.0596    635.98028    37.941768    405.15983   -4356.8208 
42295000    50.891577   -5286.5804    -5184.791   -5286.5804            0    6945.5458    17.766442    22.773248    19.032244    7700.4379    6952.7372    6946.7178    6937.1825    733.46941   -276.12761    705.26126   -4404.7855 
42296000     52.63837   -5288.8781   -5183.5948   -5288.8781            0    6303.7568    17.739643     22.85085    19.029708    7713.9949    6120.6134    5715.5683    7075.0888    -580.3374    150.99344    62.837032   -4474.4178 
42297000    50.480467   -5284.0301   -5183.0629   -5284.0301            0    6144.2486     17.83312    22.690404     19.10499    7730.6562    7381.5022    5502.0269    5549.2168   -876.95719    83.442558   -863.66287   -4490.3376 
42298000    50.058822   -5284.3391   -5184.2153   -5284.3391            0    6609.1263    17.811866    22.594446    19.174807    7716.8863    7392.7904    6982.0455    5452.5429    -352.1853    117.27488    372.52135   -4440.4052 
42299000    51.746912   -5279.5278   -5176.0276   -5279.5278            0    6644.3193    17.821304    22.709064    19.066208    7716.1925    6886.8446     6750.301    6295.8123   -149.92898    211.42488   -438.66187    -4428.324 
42300000     50.08951   -5282.2604   -5182.0752   -5282.2604            0    6981.5543    17.878757    22.624949    19.045032     7703.829    6684.8247    6551.0106    7708.8276     911.0288   -22.819147   -459.04515   -4397.6805 
42301000    55.340509    -5278.115   -5167.4272    -5278.115            0    6719.7426    17.827106    22.678785    19.090294    7718.1509    6547.9929    6560.0973    7051.1378   -68.116238    85.755135   -348.83825   -4411.0441 
42302000    50.863622   -5287.8294   -5186.0959   -5287.8294            0    5717.6618    17.817437     22.71859    19.120465    7739.7167    5491.7055    5663.2734    5998.0063   -784.11707    236.38409   -532.69232   -4540.7101 
42303000    52.483496   -5292.7395   -5187.7661   -5292.7395            0    6137.7796    17.765406     22.79504    19.062536    7719.6248    6232.7492    6141.4023    6039.1872    211.63444    425.63987   -648.68326   -4496.7576 
42304000    54.283453   -5282.4274   -5173.8538   -5282.4274            0     6352.315    17.830838    22.747037    19.043712    7724.1055    6121.8514    6328.7761    6606.3175   -476.71737    85.499509    1009.7907   -4458.2772 
42305000    52.764899   -5281.2669   -5175.7306   -5281.2669            0    6677.5473    17.907514    22.636517    19.046886    7720.9171    6129.5744    6981.9334    6921.1342   -463.61895   -182.45106    219.05712   -4423.8277 
42306000    54.675937   -5280.6427   -5171.2841   -5280.6427            0    6446.4118    17.851849    22.566388    19.183307     7728.029    6708.0944    6476.1587    6154.9823    386.22207   -372.86885   -214.28345   -4444.7388 
42307000    50.524752   -5286.7738    -5185.718   -5286.7738            0    6978.6953     17.83711    22.580809    19.105592     7695.281    6553.0717    7152.9518    7230.0623    373.79142   -92.736833    161.86054   -4402.5145 
42308000    52.462219   -5284.8735   -5179.9426   -5284.8735            0    6678.7449    17.929883    22.530622    19.075336    7705.8907    5934.3442    6916.0509    7185.8396   -25.588125   -136.81359    148.60253   -4429.3685 
42309000    51.798289   -5282.3028   -5178.6998   -5282.3028            0    6892.5363    17.769255    22.584197    19.195654    7703.2999    6910.1859    7107.4325    6659.9904   -829.07456   -52.476863   -270.26219   -4404.3597 
42310000    50.209004   -5283.9991   -5183.5749   -5283.9991            0    6378.7845    17.868176    22.702691    19.053463    7729.1457    5501.0596    6297.6903    7337.6036    187.14719   -145.23675   -310.72291   -4464.5477 
42311000    52.291287   -5280.7017   -5176.1127   -5280.7017            0    7030.7762    17.819583    22.597081    19.126585     7701.713    6530.4853    7628.5224    6933.3211   -390.88033    274.26617    231.49801   -4386.4048 
42312000    56.088332   -5283.3481   -5171.1645   -5283.3481            0    6595.1751    17.829074    22.663087    19.085583    7711.7562    6035.0409    6167.7059    7582.7784   -204.60074   -542.46789    774.92472    -4429.418 
42313000    53.883369   -5281.8412   -5174.0678   -5281.8412            0    6655.6364    17.813805    22.651882    19.107266    7710.0913    6890.3716    7043.0518    6033.4857    241.40766   -317.05903   -901.94946   -4425.6829 
42314000    50.993795   -5285.0668   -5183.0729   -5285.0668            0    6748.3463    17.798236    22.734198    19.038491    7703.5184    6713.3999    6530.9973    7000.6419    115.37886   -251.43206    425.59089   -4424.9103 
42315000    51.702887   -5287.9089   -5184.4967   -5287.9089            0    7236.5142    17.754356    22.756715    19.057463    7699.8022    7485.7146    6716.2267    7507.6014    309.28924    385.69775    6.1610888   -4371.8816 
42316000    52.555106    -5279.358   -5174.2413    -5279.358            0    6366.3881    17.872753    22.523246    19.173795    7718.4578    5798.0304    7154.3178    6146.8161    775.43378    1021.3743    86.692791   -4457.6038 
42317000    49.991659   -5281.9112   -5181.9217   -5281.9112            0    6891.0979    17.821419     22.68264    19.069871    7708.7443    7851.5222    5948.5758    6873.1956     8.336322    211.80227   -715.15553    -4407.196 
42318000    52.123477   -5283.7072   -5179.4538   -5283.7072            0    6316.6597    17.782884    22.665449    19.137451    7713.4843    6384.5254    6570.6147     5994.839    456.46717   -347.47712    538.60792   -4468.8722 
42319000    50.067557   -5284.9918   -5184.8505   -5284.9918            0    6701.3314    17.858031    22.571589    19.088735    7694.3663    5916.7494    6967.6012    7219.6435    264.53749   -766.07426     635.1817   -4432.8643 
42320000    49.979074   -5280.3395   -5180.3751   -5280.3395            0    6996.3868    17.895897    22.410039    19.248736    7719.6628    6047.2951    7942.7327    6999.1326   -250.83094     408.8716    320.78326   -4392.6984 
42321000    52.354894   -5282.1721   -5177.4558   -5282.1721            0    7163.5801    17.855675    22.580661    19.106995    7703.8053    6369.7252    6721.1633    8399.8519    172.64903   -132.51825   -114.42253   -4372.6126 
42322000     53.81282   -5279.1208   -5171.4885   -5279.1208            0    6471.1033    17.870493    22.603087    19.133007    7728.3635    6918.6073    6415.5061    6079.1965   -300.21411   -45.301363    -701.7311   -4442.1288 
42323000    50.960163   -5291.1211   -5189.1945   -5291.1211            0    6220.0644     17.81723    22.639018    19.129673    7716.2326    6031.6315    6486.9626    6141.5992    12.015796    23.659488    143.19908   -4489.2299 
42324000    48.686524   -5283.7142   -5186.3352   -5283.7142            0    6160.1468    17.763959    22.771712    19.059547     7709.887    6676.3715    6046.5277    5757.5413   -83.869511    255.21012    961.16433   -4493.6834 
42325000    51.141957   -5285.6124   -5183.3221   -5285.6124            0    6150.3581    17.806948    22.670938    19.127325    7721.7051    5985.7048    5853.6332    6611.7363   -774.00471    660.22485    272.44691   -4490.7109 
42326000    52.904622   -5284.1961   -5178.3803   -5284.1961            0    6721.4946    17.871983    22.577421    19.111695    7711.6317    6480.9554    7024.7771    6658.7512   -67.630781    456.07354    269.42977   -4422.4391 
42327000    50.458384   -5292.3505   -5191.4275   -5292.3505            0     5575.149    17.867308    22.647401    19.111115    7733.2761    5012.4949    5969.9677    5742.9842    419.11313   -306.05636   -292.88874   -4562.6516 
42328000    54.506957   -5279.3877   -5170.3671   -5279.3877            0    6755.3377    17.778876     22.72012    19.078821    7706.6645    8026.0521    6132.6264    6107.3346   -242.82729    -290.3047    997.04463    -4411.109 
42329000    48.289495   -5282.4833   -5185.8983   -5282.4833            0    6161.6031    17.933894    22.586981    19.089976    7732.8249    5453.6668    6373.2283    6657.9141      23.6843   -29.782993   -416.80413   -4491.0216 
42330000    50.649021   -5272.6498   -5171.3455   -5272.6498            0    7524.5795    17.789428    22.586954    19.142959    7691.8133     7605.011    7753.9098    7214.8177    299.96623    89.741837   -981.49231   -4327.2592 
42331000     53.13619   -5286.4726   -5180.1937   -5286.4726            0    6360.4893    17.762064     22.74069    19.095918     7713.254    7413.5625    5694.9979    5972.9076    614.30562    -418.1368    1504.3403   -4464.7029 
42332000    50.440363   -5285.2928   -5184.4059   -5285.2928            0    6595.4352    17.729457    22.743243    19.118573    7709.0932    6719.1254    6213.3694    6853.8106    177.18355    438.23302    351.21028   -4442.8863 
42333000    52.860496   -5284.9435    -5179.216   -5284.9435            0    6162.2772    17.731557    22.852372    19.061181     7723.746     6457.882     5516.562    6512.3876    183.00959    313.46811    668.79867   -4485.0792 
42334000    52.896503   -5280.0183   -5174.2187   -5280.0183            0    6364.3425    17.782809    22.773877    19.064227    7720.6972    7133.9602    5646.3863    6312.6811   -29.840015   -408.61909    897.97172   -4457.6036 
42335000    51.566181   -5285.5543   -5182.4156   -5285.5543            0    7007.2446     17.81755    22.588474    19.142999     7704.507    7552.5745    6887.7648    6581.3945    440.07165   -99.270728    398.88167   -4395.0652 
42336000    49.620628   -5281.4352   -5182.1878   -5281.4352            0    7339.8287    17.824041    22.577294    19.127231    7697.1538    7532.4057    7187.8061    7299.2742    85.161537     131.8208   -21.597378   -4358.2546 
42337000    51.469275   -5285.6798   -5182.7349   -5285.6798            0    6609.9817    17.839809    22.630758    19.097977    7710.3952    6415.9232    6795.4402    6618.5816    103.61577   -50.005978    -147.7543   -4439.4543 
42338000    53.884854   -5285.6117   -5177.8353   -5285.6117            0    7193.0876    17.853156    22.622651    19.036778    7688.6831    6691.9156     7030.401    7856.9463    -619.3797   -463.49146    115.30702   -4371.2632 
42339000    47.991999   -5282.7712   -5186.7812   -5282.7712            0    7666.1984    17.811993    22.577831    19.102039    7682.0026    7828.5689    7589.9525    7580.0737   -292.19298    29.429433   -746.88682   -4327.9054 
42340000     50.92538    -5281.141   -5179.2839    -5281.141            0    7269.1307    17.795749    22.735247    19.003086    7688.4726    6902.9493    7036.1137    7868.3292    322.56555    227.15461    -337.5917   -4364.2073 
42341000    49.672663   -5284.9146   -5185.5632   -5284.9146            0    6755.5038    17.800043    22.665964    19.124204    7715.7584    6840.5223    6818.4993    6607.4899    223.44544     83.10783    705.35652   -4425.3905 
42342000    51.122537   -5284.3468   -5182.0954   -5284.3468            0    6690.6013    17.773915    22.704016    19.085559    7701.7719    6842.2191    6574.9846    6654.6002    489.21046    -133.0364    26.967106   -4430.5907 
42343000    51.075442   -5277.4432    -5175.286   -5277.4432            0    6380.0694    17.789504    22.740445     19.04615    7704.9531    5669.4384    6032.2549    7438.5151       167.02   -621.74396   -10.031296    -4458.365 
42344000    51.581747   -5282.1202   -5178.9503   -5282.1202            0    6727.6024    17.839245    22.633623    19.059713    7695.6784    6073.0553    6790.4565    7319.2955   -92.443269   -628.79592    601.82873   -4423.8875 
42345000    48.776285   -5283.2771   -5185.7185   -5283.2771            0    7042.2223    17.937768    22.557459    19.032268    7701.0357    6990.1095     6720.289    7416.2685   -12.242622   -113.20027     414.9615   -4394.7945 
42346000    53.771464   -5285.3318   -5177.7823   -5285.3318            0    6002.0575    17.820952    22.689404    19.063398    7708.2234    7017.9174    5716.7616    5271.4936   -17.141995   -513.45171   -557.36698   -4503.0518 
42347000     51.13813   -5283.7839   -5181.5013   -5283.7839            0    6153.3241     17.86222    22.580953    19.149776    7723.9847     5750.838    7035.8643    5673.2699    486.87199    72.459599   -40.629269   -4488.3516 
42348000    52.406896   -5285.3204   -5180.5001   -5285.3204            0    6919.0882    17.814215    22.648161    19.092675    7703.1156    6708.5903    6453.4504    7595.2238    301.03754   -322.46781    775.94703   -4403.1956 
42349000    52.686728   -5285.4713   -5180.0913   -5285.4713            0    6895.1013    17.868209    22.658265    19.021109    7700.9359    5418.3801    6612.6401    8654.2837    204.98071   -101.14481    92.071776   -4405.7007 
42350000    50.412706   -5282.6825   -5181.8509   -5282.6825            0    6675.2728    17.770709    22.698072    19.106598    7706.8532    6723.5544    6020.5667    7281.6974    568.11065   -208.98101     1136.663   -4431.5733 
42351000    48.978953    -5284.562    -5186.598    -5284.562            0    7506.3101    17.790715    22.645531    19.103925    7696.5925    6960.0344    7602.8739    7956.0222   -352.73756    373.69257    59.854192   -4344.0379 
42352000    48.390735   -5274.4109   -5177.6235   -5274.4109            0    7188.2568    17.825023    22.623836    19.074394    7692.1384    6682.2259    7276.3412    7606.2034   -121.24383   -391.17397   -164.28188   -4371.2308 
42353000    52.736755   -5282.3881   -5176.9081   -5282.3881            0    6770.6969    17.836322    22.618135    19.113503    7710.8521    5756.7115    7341.6877    7213.6915   -118.89431   -602.28597    683.31288   -4415.5103 
42354000    52.161158   -5281.3068    -5176.978   -5281.3068            0    6625.1877    17.800498    22.675868    19.099196    7709.2331     6594.609    6623.5828    6657.3713    254.92423   -263.17893    815.91524   -4432.0998 
42355000    53.095383   -5275.0179   -5168.8205   -5275.0179            0     7286.518    17.803819    22.562246     19.14727    7691.3462    8123.1225    6730.0931    7006.3385     75.68014   -404.53565    464.39084   -4351.4889 
42356000    50.956046   -5289.2432   -5187.3248   -5289.2432            0    6691.5219    17.853614    22.636575    19.067623    7706.0782     6628.657    6360.0287    7085.8799    139.63871   -342.60129    816.86363   -4435.2965 
42357000    54.014888   -5285.2026   -5177.1662   -5285.2026            0    6917.2866    17.815991    22.658201    19.086908    7704.9705    6504.4921     6933.851    7313.5166    113.30307   -74.884105   -375.36659    -4399.877 
42358000    52.104181   -5281.5092   -5177.2944   -5281.5092            0    6351.6079    17.719188    22.676155    19.201717    7715.3084    6208.7868    6841.4229    6004.6141   -787.35647    516.55113    273.55499   -4462.6123 
42359000    52.383157   -5287.2005   -5182.4277   -5287.2005            0    6190.1834    17.880124    22.577625    19.122778     7719.688    5496.0997    6578.7716    6495.6789    455.77245   -132.24433    235.79862   -4485.5138 
42360000    54.186953   -5283.4253   -5175.0447   -5283.4253            0    7478.9023    17.729381    22.724125    19.107827    7698.2502    8623.4969    6536.8084    7276.4016    -400.1966   -301.45093     -663.397   -4335.3802 
42361000    55.747276   -5284.1232   -5172.6218   -5284.1232            0    6750.6173    17.670826    22.828514    19.112237    7709.8518    7588.5664    6358.7318    6304.5536   -617.08143   -428.23057   -906.74893   -4413.5805 
42362000    50.654188   -5277.4074   -5176.0927   -5277.4074            0    7128.3988    17.839303    22.654495    19.048198    7698.1463    7326.9831    7281.8734    6776.3399    876.31654    288.84971    1038.8962   -4375.7905 
42363000    51.639084   -5286.2873   -5183.0028   -5286.2873            0    6892.0397    17.872484    22.502119    19.168382    7708.9246     6268.896    7816.1142     6591.109    165.41942    549.47273    27.623703   -4408.1531 
42364000    53.130062   -5282.0175   -5175.7508   -5282.0175            0    6909.2455    17.917997    22.579727    19.059959    7711.3445    5660.0014    7412.3036    7655.4316    468.45961    243.47386    197.36718   -4398.7229 
42365000    51.179707   -5282.4021   -5180.0364   -5282.4021            0     7146.371     17.76723    22.745643     19.04871     7698.099    6554.9115    7258.2588    7625.9425    631.28462     468.7722    -646.1353   -4377.7213 
42366000    50.617311   -5284.2534   -5183.0125   -5284.2534            0    7093.6178    17.878208    22.487659    19.152202    7699.9331    6498.0189    8122.6552    6660.1793     15.57972    139.65615   -285.56636   -4386.4302 
42367000    48.811565   -5284.2675   -5186.6384   -5284.2675            0    6695.6318    17.864973    22.592301    19.110434    7713.1785    5972.3421      6994.45    7120.1033   -11.872461   -124.01553   -137.93136   -4433.4548 
42368000    49.475337   -5282.3352   -5183.3784   -5282.3352            0    6739.2457     17.79301    22.702249    19.058392    7698.4723    6427.2923    6687.0398     7103.405   -287.35853    249.18438   -699.07076   -4426.7341 
42369000    52.034134   -5286.7202   -5182.6455   -5286.7202            0    6778.0783    17.831378    22.655433    19.058977    7699.3994    6266.1574    6788.3955    7279.6819   -710.05471   -10.719618   -766.67891   -4421.5497 
42370000    52.905872   -5287.6123    -5181.794   -5287.6123            0    6128.0914    17.846341     22.58627    19.151928     7719.803    5637.7188    7189.5762    5556.9793   -126.87979    349.43014   -254.63488   -4491.8603 
42371000    50.375549   -5284.5821   -5183.8248   -5284.5821            0    7145.2166    17.699439    22.771731    19.108791    7701.7381    7245.6021    6727.3552    7462.6927    340.51057    341.67489    136.67154   -4381.2601 
42372000    54.112573   -5284.4186   -5176.1867   -5284.4186            0    6220.5161    17.852705     22.70462    19.047553    7720.7141    5114.7388    6070.4307    7476.3787   -165.05708   -297.48561   -222.97535   -4475.7647 
42373000    50.784812   -5282.4274   -5180.8515   -5282.4274            0    6353.0614     17.88925    22.615923     19.07497    7717.3875    5756.5003    6433.6227    6869.0612   -223.65577   -65.562018   -11.666182   -4465.8133 
42374000    50.037859   -5278.1152   -5178.0333   -5278.1152            0    6158.2774    17.854894     22.59081    19.142488    7721.2471    4717.7618    6666.3381    7090.7324    912.60575    386.39558    408.83342   -4484.5714 
42375000    52.892385   -5281.2928   -5175.5015   -5281.2928            0    6586.7513    17.955477    22.452386    19.128313    7711.4516    6061.1727     6980.877    6718.2041    88.971105    63.992062    42.596002   -4434.7316 
42376000    48.908212   -5279.8207   -5181.9982   -5279.8207            0    6602.6961     17.84408    22.502559      19.1766    7700.1236    6086.2948    6971.8979    6749.8955    383.85157   -307.09876    114.57479    -4440.526 
42377000    50.064626    -5284.711   -5184.5756    -5284.711            0    6325.0683    17.825516    22.721724    19.063486    7721.2162    7030.7661    5696.4117     6248.027    71.022032   -690.03477    -570.3183   -4472.3348 
42378000     50.78815   -5283.3891   -5181.8066   -5283.3891            0    7336.9072    17.776605    22.560382     19.16041    7684.2252    6938.8121    7830.2861    7241.6234   -651.04749    7.2813553   -62.758783   -4359.5847 
42379000    53.097889    -5276.483   -5170.2807    -5276.483            0     6952.306    17.852638    22.631739     19.07969    7708.8863    6895.1965     7593.853    6367.8684   -535.32107    875.29092   -551.71412   -4388.6594 
42380000    49.671509   -5285.5686   -5186.2194   -5285.5686            0    6371.1286    17.835242    22.728628    19.006735    7704.7712     6159.577    6456.0413    6497.7675   -385.48554   -267.76939   -1432.8668     -4470.32 
42381000    48.616434   -5284.2767   -5187.0378   -5284.2767            0    6673.6269    17.841907     22.58545     19.13319    7710.0536    5921.5688    6931.4444    7167.8675    241.08455    68.763709    -226.7392   -4436.6337 
42382000    53.469615   -5280.9398    -5173.994   -5280.9398            0    6857.6766    17.786578    22.669699    19.115046    7707.4997    6354.2431    7195.9998    7022.7869    586.11899    104.96649    48.419439   -4403.1502 
42383000    52.937279   -5283.3449   -5177.4638   -5283.3449            0    6763.7984    17.789586    22.723557    19.057853    7703.9973    6384.7799    6997.2425    6909.3729   -929.63293    583.91836   -69.477742   -4417.5179 
42384000    48.734028   -5283.8783   -5186.4043   -5283.8783            0    6693.8642    17.735242    22.659212    19.183221    7709.0957    7194.4868    6515.2034    6371.9025   -227.45092   -245.20766    187.37848   -4433.8181 
42385000    47.402152   -5277.6294   -5182.8192   -5277.6294            0    6449.0486    17.793198     22.76952    19.029105    7709.5006    6233.7508    6210.0707    6903.3242    325.81116   -609.89427    300.17935   -4457.7194 
42386000    53.688846   -5283.1338   -5175.7495   -5283.1338            0    6005.8959    17.819191     22.80779    18.989789    7717.7611    6366.1178     5723.576     5927.994     271.1824    272.04261    108.88246   -4499.7521 
42387000    49.415262   -5281.0076    -5182.171   -5281.0076            0    6759.3676    17.789447    22.668959    19.116141    7708.9325    6926.1937    6691.4541     6660.455   -673.21724    55.169815    439.50991   -4422.2364 
42388000    51.583434    -5284.115   -5180.9417    -5284.115            0    6803.1526     17.83401    22.645781     19.09325     7711.097    6245.6176    7267.7927    6896.0475    123.28827    191.24847    346.34307   -4415.8698 
42389000    49.937085   -5286.8094    -5186.929   -5286.8094            0    6433.4972    17.894742    22.489989    19.190251    7723.1655    6604.8114    6474.4474    6221.2327   -501.44067    183.28488   -30.311396   -4462.2956 
42390000     52.68203    -5284.829   -5179.4584    -5284.829            0    6417.1787    17.867724    22.624014    19.096156     7719.423    5339.0198    6756.4419    7156.0743    99.821213   -113.99823    596.05601   -4457.0133 
42391000    50.393352   -5281.1808   -5180.3879   -5281.1808            0    7195.1006    17.772562    22.632659    19.132204     7695.744     6951.265    7884.9667    6749.0702    864.41454   -490.57016    418.75308   -4372.8491 
42392000    51.706283   -5283.3786   -5179.9596   -5283.3786            0    6492.8561     17.79607    22.604517    19.161434    7708.1002    6961.8916    6865.2019    5651.4748    68.449076   -513.33892    -290.8945   -4450.0669 
42393000    49.795431   -5282.6078   -5183.0108   -5282.6078            0    6650.6136    17.821564    22.598549    19.160433    7716.7012    6713.8198    7089.4649    6148.5562    632.42141     128.8397    10.106988   -4434.5496 
42394000    51.418749   -5282.5035   -5179.6597   -5282.5035            0    6799.3639      17.8194    22.685048    19.064587     7706.553    7491.8648    6482.4019    6423.8251   -125.24594   -15.335192    -829.5222   -4415.4644 
42395000    51.558661   -5283.1459   -5180.0222   -5283.1459            0    7207.3556    17.776875    22.716456    19.057766    7696.0524    7425.7127    6666.2498    7530.1044   -308.65872    243.78134    286.99494   -4371.0756 
42396000    50.103945   -5281.0917   -5180.8776   -5281.0917            0    7385.3243    17.797709      22.6598    19.075605    7693.0491    7482.1494    7592.1035    7081.7201   -631.09175   -43.070093    384.46523   -4352.2794 
42397000    51.161574   -5288.9488   -5186.6193   -5288.9488            0     6448.454     17.78226    22.684823    19.112892    7709.9002    6131.1165    6407.3339    6806.9116   -437.26742    247.92749   -751.43011   -4461.5488 
42398000    52.561609   -5288.7587    -5183.629   -5288.7587            0    6285.8054    17.820416    22.600164    19.170681    7720.8829    6385.3282     6565.161    5906.9272    698.27361   -19.798622   -562.58336     -4475.84 
42399000     52.82396   -5277.8908   -5172.2363   -5277.8908            0    7371.9035    17.871795    22.611042    19.056626    7700.7809    7519.2656    6984.9468    7611.4982    378.37299    105.78182    829.04769   -4344.3126 
42400000    50.758959   -5284.4291    -5182.905   -5284.4291            0    6390.6142    17.861486    22.494388    19.172083    7703.0211    6669.9509     6372.735    6129.1569    553.25648   -649.51886   -165.06658   -4464.9791 
42401000    52.588547   -5279.0422   -5173.8586   -5279.0422            0    6254.5919    17.833841    22.608432    19.172522    7730.2686    6746.8889    6362.9997     5653.887    174.36958   -275.97197    43.752426   -4468.7282 
42402000    52.379703   -5282.8704   -5178.1045   -5282.8704            0    7032.9175    17.792924    22.695891    19.077357     7703.938    6575.8486    7278.3438    7244.5602   -277.02624    170.77711   -480.44389   -4387.9279 
42403000    52.565994   -5281.3778   -5176.2393   -5281.3778            0    6725.8968    17.756804    22.815261    19.031773    7710.2682    7068.6205    6161.9657    6947.1042   -160.41145   -449.37784    190.06474   -4419.9367 
42404000    51.448742   -5283.3035   -5180.3997   -5283.3035            0    6630.1832    17.739044    22.753141    19.082171    7701.9264    6529.5039       6424.8    6936.2456   -178.27968    299.13391    222.70303   -4435.6664 
42405000    51.115836   -5283.1898   -5180.9518   -5283.1898            0    6887.1679     17.78383    22.722704    19.049807     7697.964    6916.6064    6607.7556    7137.1418    356.24404    54.482615    1006.6491   -4407.7508 
42406000    49.306273   -5285.7725   -5187.1539   -5285.7725            0    6821.5922    17.830831    22.653362    19.060435    7699.0487    6949.3742    6994.1313     6521.271    157.75589    183.87713    30.721615   -4421.2069 
42407000    50.852312   -5284.6467   -5182.9357   -5284.6467            0    6609.9486    17.864171    22.545979    19.152333    7713.8941    7032.5286    6578.6081    6218.7092   -53.642021   -175.39688   -207.49229   -4439.3216 
42408000    47.900874   -5282.0518   -5186.2441   -5282.0518            0    6756.1233    17.851572    22.666727    19.052287    7709.2546    6567.0029     6622.474    7078.8931    257.60686    282.40013    820.33678   -4426.6425 
42409000    47.765614   -5282.3782   -5186.8411   -5282.3782            0    6197.3714    17.861863    22.607005    19.132317    7725.6914     6646.626      6006.31    5939.1782   -893.68812    -31.77294   -16.012797   -4488.5753 
42410000    52.362393   -5283.3567   -5178.6255   -5283.3567            0    6603.6986    17.768508    22.717024    19.094938    7707.6263    6633.3659    6427.4846    6750.2453   -359.56582    -208.2075    -621.6129   -4436.3181 
42411000    51.587601   -5289.2014   -5186.0198   -5289.2014            0    6534.4777    17.769325    22.715546    19.113878    7715.1239    6433.8741    6793.6235    6375.9355   -353.14032    37.722557   -797.08255   -4450.7789 
42412000    49.806814   -5279.2837   -5179.6639   -5279.2837            0    6529.6606    17.753721    22.662512    19.163217    7710.2041    7590.4076    6158.9908    5839.5835    207.59546    401.84456    256.99893   -4445.4335 
42413000    50.104628   -5281.5871   -5181.3717   -5281.5871            0    6313.0287    17.755215    22.704394     19.13208    7712.5507    6712.8153    6920.3488    5305.9221    706.99075    -80.12203     257.9047   -4471.2845 
42414000    51.340993   -5289.4649   -5186.7766   -5289.4649            0     5868.017    17.792218    22.891394      18.9936    7735.8781     6222.441    4856.8731    6524.7368    327.20542       7.3788     697.6909   -4524.7478 
42415000    49.096236   -5280.7303   -5182.5318   -5280.7303            0    6926.5859    17.795447    22.680611    19.087024    7703.7448    6370.2869     6965.776    7443.6949   -321.83963   -74.422854   -285.72551   -4404.3214 
42416000    52.648409   -5279.3393    -5174.036   -5279.3393            0    6823.7877    17.815619    22.657227    19.113291    7715.1277    7684.9999    6289.2806    6497.0825   -218.25764     -152.412     380.4941   -4406.2423 
42417000    52.515789   -5286.3973   -5181.3592   -5286.3973            0    7135.8821    17.806018    22.621686    19.113542    7698.9759    6937.1286    7372.3867     7098.131   -623.10531    297.32654    308.29525   -4380.1305 
42418000     50.47827   -5279.6356   -5178.6728   -5279.6356            0    5971.8532    17.874776     22.58369     19.18293    7743.7343    6238.1061    5964.4547    5712.9988     200.8095     307.7924   -26.732996    -4504.245 
42419000    55.035483   -5283.3663   -5173.2885   -5283.3663            0     6746.705    17.858579    22.595445     19.10321     7708.576    5994.1682    6813.5599     7432.387    292.28633   -124.74923   -722.41299   -4414.8126 
42420000    51.195108   -5280.2875    -5177.891   -5280.2875            0    7230.3015     17.74946    22.647257     19.14089    7694.1895    7779.2968    7216.5323    6695.0752   -122.84828   -427.15011    606.94137   -4366.5654 
42421000    50.666582   -5279.8056   -5178.4662   -5279.8056            0    6701.9042    17.865671    22.633468    19.092685    7720.3582    6056.1424    6466.9491     7582.621    657.81338    169.32603   -32.292271   -4423.8753 
42422000    51.088519   -5284.0005   -5181.8171   -5284.0005            0    7375.5586    17.859504    22.517421    19.119464    7688.8916    6627.0894    7791.4122    7708.1743   -48.320726   -190.19739    47.956714   -4354.7618 
42423000    51.365322   -5289.4676   -5186.7306   -5289.4676            0    6668.9588     17.79243    22.640194    19.151907     7714.849    7279.3569    6281.1844    6446.3351   -518.96962    269.94418   -514.14831    -4436.385 
42424000    51.164893   -5284.8656   -5182.5295   -5284.8656            0    6661.5902    17.820818    22.682932    19.058648    7704.0469    6712.7962    5995.5305     7276.444    195.41734   -611.00664     329.9054   -4434.0624 
42425000     49.65407   -5281.8431   -5182.5289   -5281.8431            0    6481.0665    17.825373    22.764924    19.014245    7715.8524    6355.3614    6259.8712    6827.9668    489.74224   -199.29964   -346.75678   -4453.2288 
42426000    51.507427   -5286.0268   -5183.0056   -5286.0268            0    6644.8655    17.778188    22.733997    19.092489    7716.5975    6837.8935    5995.5725    7101.1305    650.59874   -509.19381    169.73034   -4435.2014 
42427000    51.693026   -5281.2538   -5177.8614   -5281.2538            0    6376.8805    17.845511    22.580659    19.189589    7732.7021    5917.2464    6726.7653    6486.6299   -569.99228    416.08068    63.197706    -4458.718 
42428000    53.656623   -5285.5552   -5178.2353   -5285.5552            0    6736.5942    17.814424    22.658001    19.096984     7708.292    7516.7587      5947.71     6745.314   -629.00027   -583.46754      117.694    -4420.924 
42429000     50.80839   -5281.0225   -5179.3995   -5281.0225            0     6019.056    17.780213      22.8102    19.083273    7739.6071    5522.5796    6223.3199    6311.2685    326.89134    757.66508   -453.23067   -4500.0031 
42430000     51.63463   -5283.3758   -5180.1001   -5283.3758            0    6459.4509    17.820103    22.597627    19.166328    7718.1278    5455.9788    7251.4432    6670.9307    194.88421    280.14767    889.07457    -4453.018 
42431000    50.847959   -5285.6856   -5183.9834   -5285.6856            0     6065.325    17.831867    22.695219    19.054665    7711.3871    5889.7725    6147.1055    6159.0969    171.68064    -257.5808    213.50331   -4501.8608 
42432000     51.54518   -5283.3069   -5180.2102   -5283.3069            0    6828.1743    17.789984    22.690167    19.133293    7723.3012    6946.6613    6624.0799    6913.7818    173.67515    177.33163    631.43916    -4411.109 
42433000    49.988826   -5285.9017   -5185.9179   -5285.9017            0    6809.5639    17.787281    22.673313    19.123055    7712.2627    7019.1237     6790.457    6619.1112    152.65693    71.256859    423.78178   -4420.0092 
42434000    50.362194   -5287.7557   -5187.0251   -5287.7557            0    6545.2789    17.847778     22.59942    19.120796    7712.3623      7038.67    6679.9088    5917.2579   -383.84679   -374.96894    538.23787   -4450.8325 
42435000    54.013591   -5282.6553   -5174.6214   -5282.6553            0    6897.6488     17.76745     22.74927    19.061077    7704.4213    6411.2278    6750.4029    7531.3157    483.43618   -8.7589815     109.6452   -4399.5941 
42436000    52.356069   -5283.1981   -5178.4795   -5283.1981            0    6445.9359    17.825041     22.60536    19.157616    7719.3982    7251.1881    6634.4993    5452.1204    111.54422    35.975618    766.17542   -4452.7992 
42437000    51.432723   -5286.0328    -5183.161   -5286.0328            0    6874.9718    17.826249    22.479811    19.230881    7706.4045    7192.8885    6652.1236    6779.9033   -436.27929   -402.14343    597.31618   -4410.4829 
42438000    54.053312   -5281.8655   -5173.7522   -5281.8655            0    7435.1927    17.757557    22.540426    19.196835    7683.7812    7978.7234    7498.9702    6827.8844   -488.91048    -536.0232   -1141.9488    -4340.564 
42439000    49.163585   -5286.0926   -5187.7593   -5286.0926            0    6474.5265    17.818852    22.682317    19.095344    7717.8195     6729.166    6558.0402    6136.3733   -110.62519   -217.03897   -903.92676   -4459.0094 
42440000    53.433384   -5278.9677   -5172.0944   -5278.9677            0    6620.3816    17.895856    22.550548    19.114723    7713.9638    5782.9311    6982.1222    7096.0915    542.90925   -62.755981   -660.48371   -4427.2998 
42441000    53.419096   -5285.0743   -5178.2295   -5285.0743            0    6855.6837    17.884076    22.673833    19.022772     7713.745    6037.8366    7040.2782    7488.9365    4.9454854    518.20114    231.53376   -4406.9853 
42442000    50.923018   -5278.8706   -5177.0183   -5278.8706            0    6746.5607    17.777577     22.72173    19.085654    7709.4075    7060.0035    6219.6744    6960.0042   -821.59011    -748.5874   -367.13824   -4418.4768 
42443000    49.893025   -5281.3564   -5181.5642   -5281.3564            0    7346.1009    17.776681    22.663146    19.106154    7697.4015    7831.7558    7342.1139     6864.433   -73.080047    60.110771   -308.08972   -4356.9004 
42444000    52.311129   -5282.0909   -5177.4622   -5282.0909            0    7455.7544    17.821954    22.654893    19.072463    7700.5917    7177.7438     7003.786    8185.7333   -544.53799    731.94724     866.8119    -4340.142 
42445000    49.155376   -5280.3902   -5182.0734   -5280.3902            0    6297.7034    17.859607    22.630314    19.137532    7734.7875    5682.5995    6752.8571    6457.6535   -376.17161    676.61915    64.805903   -4471.6676 
42446000    49.946212   -5284.4623   -5184.5637   -5284.4623            0     6352.306    17.835538    22.659725    19.113598      7724.73    6564.6639    6203.4227    6288.8313   -26.564574   -257.04392    226.17296   -4468.9303 
42447000    50.593905   -5281.2014   -5180.0074   -5281.2014            0    6271.1451    17.741025    22.905399    19.015377    7727.1887    6291.8228    6100.1758    6421.4367    281.38691    712.66921    1053.9556   -4473.2924 
42448000    50.557235   -5280.2306   -5179.1098   -5280.2306            0    7675.2268    17.762063    22.667925    19.108864    7693.7851    8117.0754    7526.2835    7382.3214    505.77892   -167.52165   -376.81806   -4317.9036 
42449000    52.793386   -5281.8133     -5176.22   -5281.8133            0    7271.1402    17.802652    22.597506    19.132179    7696.7903    7382.9459    7459.2713    6971.2033   -75.301428    466.37958   -258.68918    -4360.036 
42450000    50.064208   -5279.0277   -5178.8931   -5279.0277            0    7445.2919    17.784902    22.655317    19.080444    7687.9423    6859.1623    7922.4625    7554.2508   -364.28162     853.8836   -560.47641   -4344.1213 
42451000    49.998493   -5279.3062    -5179.303   -5279.3062            0    7113.9713    17.803977    22.717007    19.045179    7702.8808    8318.7114    6655.0151    6368.1874   -190.54282    506.90353    1470.6108   -4380.1293 
42452000    53.453852   -5284.1302   -5177.2159   -5284.1302            0    7739.4312    17.748042    22.613271    19.128437    7677.0313    7786.4094    7910.5282     7521.356   -273.98057    435.12831   -237.64043   -4310.6966 
42453000    51.100022   -5287.6917   -5185.4854   -5287.6917            0    6999.1783    17.758808    22.707708    19.097007    7701.0938    6390.0451    7650.3262    6957.1637    391.20833    1200.8249    460.51397   -4399.3898 
42454000    50.926709   -5290.3336   -5188.4739   -5290.3336            0    6412.6905    17.834209    22.679715     19.04723    7704.1243    5683.3904    6608.3077    6946.3734   -181.25683   -469.20049    96.885908   -4467.9648 
42455000    50.586293   -5285.7299   -5184.5511   -5285.7299            0    7026.2824      17.8045    22.617476    19.098129    7690.6798    7351.6804    6895.3217    6831.8449   -315.02475   -941.31545   -195.63088   -4396.4785 
42456000    51.435122   -5285.1013   -5182.2247   -5285.1013            0    7186.4318    17.779898    22.691087    19.052001    7686.4382    7017.6922    7124.1729    7417.4304    635.55085    546.73664   -214.75331   -4376.6342 
42457000     51.30432   -5282.3978   -5179.7828   -5282.3978            0    6864.8139    17.841217    22.482577    19.212979    7706.6433    6446.2614    7808.7728    6339.4077    281.31521    323.23959   -728.47779   -4408.2224 
42458000    51.752145   -5277.2378   -5173.7271   -5277.2378            0    6862.4571    17.797323    22.644893    19.101994    7698.4565    7364.0561     6800.571    6422.7443    191.39682   -696.83175     1184.309    -4403.251 
42459000    54.100176    -5286.026   -5177.8189    -5286.026            0    6597.9837    17.725487    22.855601    19.023902    7707.0895    7140.1767    5916.1334     6737.641    284.02715   -248.70013   -23.524118   -4436.2056 
42460000     50.06529   -5275.3732   -5175.2364   -5275.3732            0    7109.1464    17.769426    22.737906    19.071781    7705.7534    8048.4702    6614.8483    6664.1207   -183.60934   -145.79253   -481.13195   -4376.3069 
42461000    52.130803   -5283.9098   -5179.6417   -5283.9098            0    6765.7042    17.808238    22.628611    19.137231    7711.8389    6229.4473    7468.7509    6598.9142   -458.33604    625.36858    371.31039    -4418.708 
42462000     48.43823   -5276.6782   -5179.7958   -5276.6782            0    6770.5082    17.886022    22.614028     19.06538    7711.4698    6162.0252    7140.8404    7008.6589   -45.986667   -101.08633   -288.27194   -4418.3582 
42463000    51.310417   -5284.1446   -5181.5175   -5284.1446            0     6412.253    17.762841    22.745355    19.096765    7715.5157    6326.2696    6337.2421    6573.2473    605.54825   -113.44671   -157.65594   -4459.9923 
42464000    51.092873   -5284.7645   -5182.5724   -5284.7645            0    6343.7766    17.813218     22.63335    19.141984    7717.5273    6748.1519    6456.3433    5826.8345    92.001563    140.54878   -223.85767   -4468.5663 
42465000    48.823501   -5287.4663   -5189.8132   -5287.4663            0    6754.7977    17.883407    22.633381    19.055672    7713.0113    6522.1862    7054.4909    6687.7159   -193.81417    656.75969   -247.13508   -4429.9906 
42466000    52.266427   -5283.3084   -5178.7691   -5283.3084            0     7617.831    17.843519    22.558071    19.099508    7687.8458    7164.3681    7992.5142    7696.6106    649.51244    396.68838    68.505296   -4324.6629 
42467000    50.900644   -5288.0495   -5186.2419   -5288.0495            0    7242.6354    17.744178    22.624168    19.164728    7693.6282    8029.0218    7063.6819    6635.2026   -481.38123   -247.06664     273.2077   -4373.5916 
42468000    51.863263   -5281.2413   -5177.5084   -5281.2413            0    6794.5327    17.796824    22.768993    19.023963    7708.8096    6276.3853    6671.8677     7435.345   -26.451606   -244.63289     843.2749   -4413.6325 
42469000    50.868317     -5283.74   -5181.9971     -5283.74            0    6339.5314    17.776208    22.596579    19.186475    7706.8517    6714.7556    6464.9183    5838.9202    16.675246    137.88202   -1014.6553   -4469.4558 
42470000    50.197459   -5287.3275   -5186.9264   -5287.3275            0     6084.355    17.858087    22.675291    19.081816    7726.9398    6309.3415     6118.812    5824.9114   -418.02956    130.09551   -685.88881   -4501.2836 
42471000    48.994743   -5282.2389   -5184.2434   -5282.2389            0    6133.3687    17.777366    22.714124    19.127468    7723.6198    6154.9052    5874.5289    6370.6722   -812.20535   -102.53286   -703.72927   -4493.3742 
42472000    49.362907   -5285.8151   -5187.0832   -5285.8151            0    6320.8681    17.814677    22.674228    19.096116    7713.5715    7157.2468    6022.3088    5783.0487    688.39694    23.252317     154.2148   -4476.0201 
42473000    48.410363   -5283.9876   -5187.1609   -5283.9876            0    6805.9808    17.760336    22.691044    19.122372    7706.3268    7417.0986     6682.165    6318.6787    -159.1955   -214.80168     190.7744   -4422.2444 
42474000    50.683198   -5281.5032   -5180.1306   -5281.5032            0    6731.8062    17.775892    22.748008    19.063111    7708.4764    6502.4033    7133.0314    6559.9839    763.69802    477.76982    -446.9483   -4423.3394 
42475000    48.158373   -5281.5364   -5185.2137   -5281.5364            0    6715.5043    17.852879    22.589901    19.135389    7717.2028    6783.4112    7109.2062    6253.8954    615.42348    443.70697    375.69676   -4429.4005 
42476000    50.653776   -5283.3053   -5181.9915   -5283.3053            0    6091.6583    17.842011    22.634316    19.122771    7722.5728    6091.8274    5912.5709    6270.5766    373.78025   -106.31425   -104.47659   -4495.9136 
42477000    56.199789   -5283.1852   -5170.7787   -5283.1852            0    6178.6888    17.830591    22.665395    19.120482    7727.3015    5502.0911    6615.8921    6418.0832   -428.00731    567.35175    -685.5417   -4474.4728 
42478000    53.046961   -5284.1284    -5178.028   -5284.1284            0    5422.1043    17.886975    22.711307    19.074648    7748.8195    5846.0262    5285.1426    5135.1441    654.08276   -57.067223     821.2602   -4565.2836 
42479000    53.831249   -5282.0242   -5174.3551   -5282.0242            0     7868.054    17.777469     22.58902    19.114189    7675.7923     7743.484    8135.7566    7724.9214    198.08793    635.23648    395.44241   -4293.5771 
42480000    55.194783   -5283.4427   -5173.0463   -5283.4427            0    6346.6913    17.725864    22.741386    19.129234    7711.1992    7660.5669    5709.3949     5670.112    39.320669   -692.52516   -143.11827   -4459.2978 
42481000    53.995666   -5283.9978   -5175.9998   -5283.9978            0    6927.1096    17.855882    22.553403    19.141267    7708.3968    6901.9939    7150.1026    6729.2322    177.71868   -97.633244   -129.56992   -4397.2606 
42482000    52.240024    -5284.651   -5180.1645    -5284.651            0    6574.9733    17.833262     22.63782     19.08517    7704.8007    5769.6796    6714.3168    7240.9236    298.17326   -290.96227     918.6714    -4441.357 
42483000    50.704727   -5283.8529   -5182.4371   -5283.8529            0     6601.254    17.707651    22.936265    18.957168    7699.4043    6191.0584    5964.0323    7648.6712   -217.78541   -143.33233    133.73633   -4441.1961 
42484000    53.738418    -5282.753   -5175.2695    -5282.753            0    6967.4943    17.749905    22.699477    19.127451    7706.7095    7193.5077    6459.6383    7249.3368    558.76504   -48.304478    1177.1777   -4392.1618 
42485000     48.34008   -5282.2751    -5185.589   -5282.2751            0    7359.0899    17.874013     22.66707    18.993303    7695.1654    6721.0252    7441.3369    7914.9075   -295.58307   -483.77214   -1042.2563   -4359.7071 
42486000    50.315902   -5282.2363   -5181.5983   -5282.2363            0    7244.8951    17.805404    22.605057     19.13105    7700.0983    5678.4923    8247.8079     7808.385   -702.26522    765.45931   -84.920621   -4368.0108 
42487000    52.567626   -5287.0933   -5181.9516   -5287.0933            0    6907.3101    17.893619    22.480848    19.141063    7699.7555    7621.0222    6433.5449    6667.3632    375.79279   -197.25966    334.90641   -4406.3088 
42488000    51.672023   -5277.5096   -5174.1591   -5277.5096            0    7122.3149    17.855132    22.661367    19.033433    7701.3403    5896.3692    6857.4051    8613.1704     -685.853     129.9106   -234.00149   -4374.2081 
42489000    53.451222   -5286.7044   -5179.7953   -5286.7044            0    6968.6183    17.796825    22.652237    19.121837     7708.737    7189.3179    7074.6859    6641.8511   -172.11731    131.54861    441.26047   -4396.3552 
42490000    51.362748   -5278.8461   -5176.1143   -5278.8461            0    7408.8766    17.857961    22.509045    19.151973    7698.4351    7676.9224    7727.5029    6822.2045    459.74534   -219.12971    688.49412   -4344.2917 
42491000    49.564855   -5282.9248    -5183.789   -5282.9248            0    6821.3745     17.87799    22.566356    19.097693    7704.7938    6997.4021    7247.8773    6218.8441    615.13909    269.37599   -200.61487   -4417.2949 
42492000    51.759954   -5286.3899   -5182.8636   -5286.3899            0    7120.7502    17.784481    22.713684    19.069876    7703.2971    7788.5644     6387.801    7185.8854    607.19303   -185.69167    219.38411   -4382.8852 
42493000    55.812603   -5286.8567   -5175.2246   -5286.8567            0    7135.6147    17.764518     22.62675    19.135215    7691.4625    6705.2838     7180.936    7520.6243   -357.78795   -433.90374   -932.78311   -4374.8077 
42494000    52.554878   -5279.6764   -5174.5602   -5279.6764            0    6984.4139    17.790583    22.657779    19.128092    7710.4397    6696.0917    7001.7825    7255.3674    145.25686   -242.33386    104.04958   -4389.1708 
42495000    53.956308   -5281.7139   -5173.7947   -5281.7139            0    6382.3521     17.82057    22.699217    19.071718    7714.7576     6604.205    6006.9809    6535.8703   -963.11579    23.581472   -812.86381   -4455.7046 
42496000    52.389226   -5287.4701   -5182.6852   -5287.4701            0    6817.3511    17.777211    22.638237    19.174752     7716.778     6969.844    6802.1121    6680.0973   -60.108418    252.76051    42.225236   -4415.4517 
42497000    52.995441    -5286.227   -5180.2296    -5286.227            0    6592.8897    17.834498    22.750654    18.979875    7701.0175    5326.6083    6626.6558     7825.405    191.81115    272.43111   -615.66614   -4439.7727 
42498000     53.65545   -5283.4109   -5176.0934   -5283.4109            0    6594.9048    17.743361    22.781466    19.077751    7711.6042    7179.3564    6292.0452    6313.3128   -1152.9964   -469.43708   -1161.7993   -4434.3919 
42499000    50.410501   -5283.1372     -5182.31   -5283.1372            0    7178.3049    17.731736    22.730002    19.092182    7694.9589     7378.066    7021.3358    7135.5129    692.57015   -257.35975    427.18024   -4376.7385 
42500000    51.971378   -5279.4559   -5175.5068   -5279.4559            0    6148.5324    17.873193    22.670802    19.062655    7724.1804    6058.7551    5719.6195    6667.2225    495.18991   -61.334393   -115.17183   -4482.8792 
Loop time of 488.62 on 64 procs for 250000 steps with 1008 atoms

Performance: 88.412 ns/day, 0.271 hours/ns, 511.645 timesteps/s
195.0% CPU use with 32 MPI tasks x 2 OpenMP threads

MPI task timing breakdown:
Section |  min time  |  avg time  |  max time  |%varavg| %total
---------------------------------------------------------------
Pair    | 34.601     | 40.378     | 49.997     |  51.7 |  8.26
Bond    | 0.84934    | 1.2103     | 1.7328     |  13.9 |  0.25
Kspace  | 236.23     | 249.04     | 259.42     |  35.4 | 50.97
Neigh   | 0.35242    | 0.39337    | 0.44605    |   5.1 |  0.08
Comm    | 74.865     | 84.408     | 90.837     |  46.8 | 17.27
Output  | 0.43971    | 0.44009    | 0.44194    |   0.1 |  0.09
Modify  | 93.602     | 96.358     | 98.413     |  10.0 | 19.72
Other   |            | 16.39      |            |       |  3.35

Nlocal:        31.5000 ave          36 max          28 min
Histogram: 1 5 5 4 0 7 6 2 1 1
Nghost:        2969.44 ave        2984 max        2950 min
Histogram: 3 1 0 4 3 5 6 3 3 4
Neighs:        10813.3 ave       12281 max        9664 min
Histogram: 6 0 5 4 3 5 5 1 2 1

Total # of neighbors = 346027
Ave neighs/atom = 343.28075
Ave special neighs/atom = 2.0000000
Neighbor list builds = 760
Dangerous builds = 0

unfix		3
unfix		2
unfix		1

write_data	data.final.${pid}
write_data	data.final.0
System init for write_data ...
PPPM initialization ...
  extracting TIP4P info from pair style
  using 12-bit tables for long-range coulomb (../kspace.cpp:340)
  G vector (1/distance) = 0.38031845
  grid = 24 27 32
  stencil order = 5
  estimated absolute RMS force accuracy = 0.0023426042
  estimated relative force accuracy = 7.054683e-06
  using double precision FFTW3
  3d grid and FFT values/proc = 5355 672
Last active /omp style is kspace_style pppm/tip4p/omp
WARNING: Not all mixed pair coeffs generated from mixing. Use write_data with 'pair ij' option to store all pair coeffs. (../write_data.cpp:312)

write_restart   restart.lmp.${pid}
write_restart   restart.lmp.0
System init for write_restart ...
PPPM initialization ...
  extracting TIP4P info from pair style
  using 12-bit tables for long-range coulomb (../kspace.cpp:340)
  G vector (1/distance) = 0.38031845
  grid = 24 27 32
  stencil order = 5
  estimated absolute RMS force accuracy = 0.0023426042
  estimated relative force accuracy = 7.054683e-06
  using double precision FFTW3
  3d grid and FFT values/proc = 5355 672
Last active /omp style is kspace_style pppm/tip4p/omp
Total wall time: 0:08:08
