LAMMPS data file via write_data, version 30 Jul 2021, timestep = 39500000

1296 atoms
2 atom types
864 bonds
1 bond types
432 angles
1 angle types

-10.598597158766017 12.578597158766017 xlo xhi
-9.051871013091622 12.041869013091622 ylo yhi
0.2977150220363747 21.562283977952703 zlo zhi
-9.153173707638803 1.9319256740159492 2.6632071025872106 xy xz yz

Masses

1 1.008
2 15.999

Pair Coeffs # lj/cut/tip4p/long/omp

1 0 0
2 0.21084 3.1668

Bond Coeffs # harmonic/omp

1 450 0.9572

Angle Coeffs # harmonic/omp

1 55 104.52

Atoms # full

282 94 1 0.5897 -10.471709951207691 -4.044504992766181 1.6706415619100519 1 1 0
298 100 2 -1.1794 -5.8542815654078355 -7.063700575450569 4.034050103089143 1 1 0
280 94 2 -1.1794 -9.586591187782771 -4.375564707818434 1.518349277156737 1 1 0
299 100 1 0.5897 -6.3878425094744955 -7.858282240511713 4.019659978671334 1 1 0
270 90 1 0.5897 -8.41543123062638 -7.19795234630978 2.4297746139451086 1 1 0
163 55 2 -1.1794 -7.1001998663026065 -7.921267793571113 1.276042397962979 1 1 0
164 55 1 0.5897 -6.25942256632886 -8.346351934584375 1.4451905304847723 1 1 0
269 90 1 0.5897 -9.25577089246127 -5.943725337938133 2.542576702718126 1 1 0
268 90 2 -1.1794 -9.166696529131126 -6.829398188127343 2.894540437072869 1 1 0
323 108 1 0.5897 -6.3394364020421206 -5.389283388705797 3.55677443988882 1 1 0
324 108 1 0.5897 -7.22753373401083 -4.166614728963332 3.6481938279306 1 1 0
275 92 1 0.5897 -10.51029694374968 -7.972185560156132 3.283117966767316 1 1 0
314 105 1 0.5897 -9.020819589719071 -6.726200064942074 4.689341772645597 1 1 0
73 25 2 -1.1794 -8.597134338328315 -3.7702584957668215 4.830151494316686 1 0 0
260 87 1 0.5897 -6.8308890683470675 -6.301056113775818 0.566555938144206 1 1 0
315 105 1 0.5897 -8.654260710319504 -5.4595443690857595 5.433115113002605 1 1 0
75 25 1 0.5897 -9.434799411164358 -3.4873139120709027 4.463467392281844 1 0 0
322 108 2 -1.1794 -6.510557626231349 -4.545075969791078 3.139329024981574 1 1 0
313 105 2 -1.1794 -8.840687661442745 -6.388865026301353 5.566800672311523 1 1 0
633 211 1 0.5897 -5.844348886068299 -5.882894428626525 5.499524312136075 1 1 0
261 87 1 0.5897 -6.565244125478028 -5.038629006662058 1.3588277271325566 1 1 0
259 87 2 -1.1794 -6.627582589926249 -5.371367745076811 0.46351792958622506 1 1 0
165 55 1 0.5897 -7.465286307731153 -8.399371071222415 0.5315125612162643 1 1 0
429 143 1 0.5897 -6.2346384503121595 -7.218078340248306 8.789818445868526 1 0 0
428 143 1 0.5897 -6.614987756460132 -7.048336646843661 10.245240571773142 1 0 0
427 143 2 -1.1794 -5.889318732990137 -6.925588967607236 9.633248603091124 1 0 0
419 140 1 0.5897 -8.82519835258854 -5.545822837799899 8.609625415161533 1 0 0
418 140 2 -1.1794 -9.50059265319169 -6.078538679741715 9.02946735933814 1 0 0
413 138 1 0.5897 -7.4712157658822385 -3.521230908567686 7.760644661877101 1 0 0
616 206 2 -1.1794 -7.2365137052166215 -7.837162262737797 7.385155993566046 1 1 0
420 140 1 0.5897 -9.0355681835387 -6.560148075616608 9.713549019018924 1 0 0
618 206 1 0.5897 -7.711318003119523 -7.2191515392483865 6.829446635091668 1 1 0
350 117 1 0.5897 -7.046844865759134 -4.234837682574642 9.85666577817919 0 0 0
414 138 1 0.5897 -6.865959964270859 -4.874529756403581 7.4536010181809695 1 0 0
412 138 2 -1.1794 -7.421798769628007 -4.419892954700046 8.086523387892598 1 0 0
351 117 1 0.5897 -6.790717911169525 -2.930648219342654 10.581567219061604 0 0 0
627 209 1 0.5897 -10.402863703399738 -7.0444409532428205 6.421174356129283 1 1 0
631 211 2 -1.1794 -5.707409805684839 -5.377765057406224 6.300959411508467 1 1 0
349 117 2 -1.1794 -6.929021467021158 -3.865807025255627 10.73194815732249 0 0 0
684 228 1 0.5897 -8.364783612017096 -6.455897451056954 14.14432948540732 0 0 0
766 256 2 -1.1794 -10.312590206064502 -2.5136997424069607 14.713211300305353 0 0 0
652 218 2 -1.1794 -5.496445088491098 -5.3573377639254405 12.476919891878884 0 0 0
682 228 2 -1.1794 -7.5971786887194135 -6.764950256636112 13.66317928102593 0 0 0
780 260 1 0.5897 -7.341484351191002 -3.9472882482834466 15.165594764351276 0 0 0
779 260 1 0.5897 -7.000620152572395 -3.009274648609365 14.027327183458729 0 0 0
778 260 2 -1.1794 -7.740632229374722 -3.424415633727323 14.470287742112847 0 0 0
768 256 1 0.5897 -9.421635039184833 -2.858388577941784 14.77335474064479 0 0 0
654 218 1 0.5897 -5.854560121551872 -4.781177676856538 11.801667798489808 0 0 0
653 218 1 0.5897 -6.265815784400088 -5.740597477770964 12.898092624546045 0 0 0
661 221 2 -1.1794 -9.083406529475578 -4.521002037302482 12.431290726098815 0 0 0
729 243 1 0.5897 -7.891763784984925 -7.1214832676841056 11.980131210202952 1 0 0
662 221 1 0.5897 -8.669950107836328 -4.17996084913197 13.224332802275372 0 0 0
663 221 1 0.5897 -8.451584110066847 -4.341441832459365 11.735056474697725 0 0 0
788 263 1 0.5897 -4.809292890408493 -4.602128130677013 15.323574587244881 0 0 0
740 247 1 0.5897 -10.749968287155685 -3.37138005309264 12.23479154983378 1 0 0
767 256 1 0.5897 -10.872493363299917 -3.2895358864185837 14.74212452604402 0 0 0
727 243 2 -1.1794 -8.015990058611472 -7.421513020746752 11.079731738046668 1 0 0
739 247 2 -1.1794 -11.471411548580972 -3.023714680458559 11.71054937892189 1 0 0
757 253 2 -1.1794 -9.616846419949537 -5.912808628667709 15.458168129267177 0 0 0
749 250 1 0.5897 -10.195691637064638 -5.863681496310219 12.132395317606505 1 0 0
758 253 1 0.5897 -9.406248469484014 -5.340225771807836 16.195740250416875 0 0 0
1129 377 2 -1.1794 -7.827165982451763 -2.094275850273295 17.776912056106212 0 0 0
1248 416 1 0.5897 -5.860494222716135 -1.7296343511692118 20.701475249920684 0 0 0
1131 377 1 0.5897 -7.147135668950745 -1.8658377606015257 17.143226854386857 0 0 0
1121 374 1 0.5897 -4.83261528337373 -3.208759454056107 18.382820997435143 0 0 0
1152 384 1 0.5897 -6.500225788206147 -4.107696873831715 19.87364714227139 0 0 0
1225 409 2 -1.1794 -8.045215813642805 -3.520093035520196 20.743926366721766 0 0 0
1227 409 1 0.5897 -8.815382130989654 -3.1831646022126616 20.286204879560298 0 0 0
1109 370 1 0.5897 -8.681466067895697 -3.6806946264808573 17.665608827508628 0 0 0
1108 370 2 -1.1794 -9.359346214785031 -4.3562182245828796 17.64605155126066 0 0 0
1089 363 1 0.5897 -6.16596110474222 -4.4807247933509835 17.352450174082932 0 0 0
1151 384 1 0.5897 -5.625455316359073 -5.256523647660762 19.418690817459893 0 0 0
1143 381 1 0.5897 -8.49511222473465 -5.265773411417053 21.116705152511273 0 0 0
1150 384 2 -1.1794 -5.847714428396483 -4.347843567143107 19.21579694013754 0 0 0
1219 407 2 -1.1794 -10.374647593264498 -1.9823793266212322 20.033388524782815 0 0 0
1110 370 1 0.5897 -10.179187808469202 -3.877001575559202 17.76629299321446 0 0 0
1087 363 2 -1.1794 -6.21871201012829 -4.821545309535747 16.459572352311685 0 0 0
1141 381 2 -1.1794 -8.54206648266775 -6.219314622651924 21.186164525597988 0 0 0
1142 381 1 0.5897 -8.664217382149221 -6.519855325057851 20.285652387490988 0 0 0
1130 377 1 0.5897 -7.433286577892684 -1.908082331176331 18.62916697880169 0 0 0
1088 363 1 0.5897 -6.313009162987534 -5.76780244849523 16.569000401776535 0 0 0
1097 366 1 0.5897 -9.013226503829227 -5.989941760033136 18.350865263892416 0 0 0
1226 409 1 0.5897 -7.864768652365758 -2.8686240388144224 21.421604059715484 0 0 0
97 33 2 -1.1794 -11.99899338832276 0.7888589224602907 5.589018285046168 1 0 0
69 23 1 0.5897 -11.269429471078869 -2.5411934811996133 3.4233119660811275 1 0 0
272 91 1 0.5897 -9.495409388304523 -1.1204272373614241 1.3645256726238895 1 1 0
271 91 2 -1.1794 -10.325482792968364 -0.7863211478532861 1.0246110696831447 1 1 0
82 28 2 -1.1794 -9.02992514920738 -0.1963047880094244 4.286563096803478 1 0 0
54 18 1 0.5897 -11.576304771368692 -0.23531694748965748 2.150453283395027 1 0 0
258 86 1 0.5897 -12.428148505582461 -3.0291833532374515 1.264590022520701 1 1 0
83 28 1 0.5897 -9.598196743260123 -0.966070898823066 4.258683140213517 1 0 0
67 23 2 -1.1794 -10.82264848972301 -2.283419775854865 4.229602251088173 1 0 0
301 101 2 -1.1794 -8.092501238349712 -2.1353412481775678 1.7211560009442806 1 1 0
68 23 1 0.5897 -11.45559775108653 -2.4668106725976893 4.923813061021364 1 0 0
52 18 2 -1.1794 -12.299529846136025 0.049752162942292344 2.708943010475125 1 0 0
98 33 1 0.5897 -12.003353252187352 0.48079551982018565 4.682789914883518 1 0 0
53 18 1 0.5897 -12.462849877361549 0.9556654804627485 2.446446144843864 1 0 0
44 15 1 0.5897 -9.968001682369547 0.8595794713742624 0.30173802665845406 1 0 0
256 86 2 -1.1794 -12.104561016290484 -3.527184342954425 2.015218841666816 1 1 0
107 36 1 0.5897 -9.323334260984572 1.4019602197981929 3.453011094681542 1 0 0
281 94 1 0.5897 -9.042179853442143 -3.5899614514204767 1.4664672108789851 1 1 0
84 28 1 0.5897 -8.146637407051983 -0.5457251274307424 4.1684651225276195 1 0 0
302 101 1 0.5897 -7.661760716768423 -2.056138071020351 2.5722343328442836 1 1 0
59 20 1 0.5897 -13.55270224895962 -0.8386371860841315 3.643014607605425 1 0 0
99 33 1 0.5897 -11.807334487452284 1.7244098323722135 5.523595870862208 1 0 0
74 25 1 0.5897 -8.373057335948026 -3.0923383720522466 5.467688205142152 1 0 0
1010 337 1 0.5897 -12.523143612519267 1.3765225671036312 0.40797014881210486 0 -1 1
527 176 1 0.5897 -11.874723419959054 1.7259284612246315 8.809997987457331 1 0 0
526 176 2 -1.1794 -12.519055757643935 1.2331893222113361 9.318173425996108 1 0 0
426 142 1 0.5897 -8.928962833273957 -1.5174668844500223 7.119418712427637 1 0 0
411 137 1 0.5897 -13.452824795001748 0.19171074640442853 6.4969895066921595 1 0 0
424 142 2 -1.1794 -8.068607660837422 -1.893756794472143 6.933897147008883 1 0 0
402 134 1 0.5897 -10.918308870440574 -0.26443338776305225 6.584678003525293 1 0 0
401 134 1 0.5897 -11.185189149297159 -1.2309660712897639 7.718849161575659 1 0 0
400 134 2 -1.1794 -10.481661899239175 -0.7465846179971685 7.286839396071078 1 0 0
537 179 1 0.5897 -9.396683868257053 -0.09422585894677304 8.604416939637167 1 0 0
536 179 1 0.5897 -9.505724097488308 -0.055757802268583845 10.113823021224642 1 0 0
535 179 2 -1.1794 -8.881918473719793 0.05820244721726553 9.396842397334957 1 0 0
528 176 1 0.5897 -12.001735134623722 0.7699438421222258 9.976916697876455 1 0 0
435 145 1 0.5897 -7.348328091391279 -0.8056594351891562 9.630474972135044 0 0 0
410 137 1 0.5897 -13.465945887733161 0.45202133767920394 7.98822402367339 1 0 0
522 174 1 0.5897 -9.722758950982014 2.2766847727516417 7.688039943817295 1 0 0
425 142 1 0.5897 -7.497161398219856 -1.1360618175955812 6.8090581147904645 1 0 0
417 139 1 0.5897 -9.00935218498904 1.030082745974509 5.850588870704951 1 0 0
458 153 1 0.5897 -10.257616410638663 2.60906466584556 10.003657041381034 0 0 0
415 139 2 -1.1794 -8.57022244822835 1.6392445481657418 6.444147857043297 1 0 0
790 264 2 -1.1794 -10.818609177388339 0.03215214714688486 13.774098919552053 0 0 0
771 257 1 0.5897 -11.730444662129695 2.747134559135633 11.805717379144644 0 0 0
762 254 1 0.5897 -9.248720455248232 2.055463050076522 12.162425550994582 0 0 0
761 254 1 0.5897 -9.303461975481067 0.9713748772255695 13.217663385167862 0 0 0
760 254 2 -1.1794 -8.702365908810041 1.5800494724937995 12.788237293458952 0 0 0
888 296 1 0.5897 -10.55051641594237 3.010163881781157 15.111319883832806 0 0 0
792 264 1 0.5897 -11.377115431672697 0.45778546243155027 14.42459461584591 0 0 0
769 257 2 -1.1794 -12.502822733963907 2.5987861992935386 12.351269550954216 0 0 0
837 279 1 0.5897 -10.977333933489566 -0.11674036778791752 12.045675421809433 1 0 0
791 264 1 0.5897 -10.7221766890377 -0.8658311240946492 14.091228834918573 0 0 0
836 279 1 0.5897 -11.165106204026102 -1.2470609952666587 11.056199646756774 1 0 0
770 257 1 0.5897 -12.198573409166533 2.75440621111132 13.24534227352779 0 0 0
896 299 1 0.5897 -7.932010060587233 2.340502519866728 15.496165075432739 0 0 0
835 279 2 -1.1794 -10.990328729035184 -0.3073421325907475 11.10777193270727 1 0 0
865 289 2 -1.1794 -12.69320468264845 1.1484521657078481 15.400089086410956 0 0 0
866 289 1 0.5897 -12.517814975288498 1.802807528953993 16.076324738835993 0 0 0
818 273 1 0.5897 -6.010282691496331 -1.6494276631221947 15.235157269029802 0 0 0
1195 399 2 -1.1794 -9.50001045352573 2.1413928723589777 16.407218562881106 0 0 0
1260 420 1 0.5897 -9.886865074278834 2.778828173812002 19.67295025134175 0 0 0
1204 402 2 -1.1794 -11.774345130325393 0.28732568324278596 18.644490592551037 0 0 0
1259 420 1 0.5897 -9.007664159600356 1.578180707920831 19.394648255394426 0 0 0
1258 420 2 -1.1794 -9.147606034259688 2.4896736578108687 19.13805016600689 0 0 0
1205 402 1 0.5897 -11.849121651205444 1.1836575200843082 18.31700478583558 0 0 0
1009 337 2 -1.1794 -10.926670176797698 3.4499962795001142 20.99733346176955 0 -1 0
1218 406 1 0.5897 -13.170696128281472 3.2786796724660636 17.666660719334665 0 0 0
1236 412 1 0.5897 -7.856310934684553 -0.27379566385578435 20.26005625335434 0 0 0
1216 406 2 -1.1794 -12.385267685498434 2.7366127576799872 17.59240942378192 0 0 0
1235 412 1 0.5897 -9.333026010602554 -0.5997219160846097 20.189820901920566 0 0 0
1234 412 2 -1.1794 -8.721505686249813 0.13509356187470267 20.238131918784735 0 0 0
1099 367 2 -1.1794 -9.920303073749926 -0.5699636544566555 16.902882298669905 0 0 0
1100 367 1 0.5897 -9.183492009218131 -1.014429337184696 17.32211672162684 0 0 0
1206 402 1 0.5897 -11.094714324937996 -0.11099156290653589 18.100722493563 0 0 0
1250 417 1 0.5897 -11.522732697783859 0.5903533477923819 20.476607466573807 0 0 0
1197 399 1 0.5897 -9.471500140085276 2.370174817489195 17.33620209166004 0 0 0
1196 399 1 0.5897 -9.559428678062789 1.1860658074151846 16.396991633327232 0 0 0
1246 416 2 -1.1794 -6.319812495765575 -1.1253374991157248 20.11835787439213 0 0 0
1229 410 1 0.5897 -7.847997706685518 3.431072484982497 18.28142921462783 0 0 0
1251 417 1 0.5897 -11.214907754821176 1.6886214215924973 21.472081778825594 0 0 0
1249 417 2 -1.1794 -11.483951166019125 0.7717224507263261 21.415627441343354 0 0 0
1217 406 1 0.5897 -11.680484120280394 3.358755252974218 17.41227547146791 0 0 0
1101 367 1 0.5897 -10.271595061122795 -1.2147890254703997 16.28885708429393 0 0 0
1247 416 1 0.5897 -5.6247498212347775 -0.7076732007547459 19.609787031212605 0 0 0
1011 337 1 0.5897 -11.82570401299485 3.7427417068338187 20.84816097379585 0 -1 0
273 91 1 0.5897 -8.592529304257003 1.3110171976873382 21.543243313117625 1 1 -1
40 14 2 -1.1794 -14.874736365143136 3.7091635723990333 2.120402027690713 1 0 0
177 59 1 0.5897 -13.936726983706208 4.633421391766168 3.3423027999375607 1 0 0
42 14 1 0.5897 -15.289345736177296 4.296757236201588 1.4887288517963189 1 0 0
41 14 1 0.5897 -15.605902628676201 3.296790429247041 2.5803452837920213 1 0 0
175 59 2 -1.1794 -13.533739493163655 4.852489988855087 4.182392142089743 1 0 0
55 19 2 -1.1794 -13.270480168725914 5.974700458608609 0.892837109523019 1 0 0
56 19 1 0.5897 -12.45336801163695 5.6148564963494145 1.2378641760902518 1 0 0
66 22 1 0.5897 -13.33637410736214 3.1017121424525325 1.7780616703199785 1 0 0
65 22 1 0.5897 -11.845198044432562 3.357500124262046 1.7250062503588761 1 0 0
64 22 2 -1.1794 -12.490367209109662 2.654533597013268 1.8013592562834695 1 0 0
167 56 1 0.5897 -16.437096819385193 6.181648601692885 3.483293609634843 1 0 0
85 29 2 -1.1794 -10.898974492208339 4.799259448572739 1.6054685169408314 1 0 0
191 64 1 0.5897 -12.569779796006356 6.4108739438329785 4.083282859591288 1 0 0
108 36 1 0.5897 -10.25307814395001 2.575740299956278 3.67621097343537 1 0 0
183 61 1 0.5897 -12.07563495770328 3.789930663452136 4.574991005553208 1 0 0
181 61 2 -1.1794 -11.355662397013848 3.356462759266952 5.0331683328047765 1 0 0
176 59 1 0.5897 -14.248050434173642 4.785265529663251 4.815983128827225 1 0 0
190 64 2 -1.1794 -11.884956554560972 7.072928765061532 4.177809691291152 1 0 0
45 15 1 0.5897 -9.833291942717238 1.9971992219694386 1.2914963060881464 1 0 0
192 64 1 0.5897 -11.068829946127233 6.598125835340102 4.020503962702432 1 0 0
162 54 1 0.5897 -14.500464492195537 6.75515439084443 1.9440485107574221 1 0 0
43 15 2 -1.1794 -9.85106989120513 1.8082324813751498 0.3533451142550284 1 0 0
206 69 1 0.5897 -14.932554687563771 7.284444060014019 4.485795734074518 1 0 0
106 36 2 -1.1794 -9.592905423369604 2.2373483596876476 3.071318396571949 1 0 0
508 170 2 -1.1794 -13.398874982915219 6.39706111307771 7.353141895261447 1 0 0
645 215 1 0.5897 -12.404109506157894 7.177507776337139 8.687509232670566 1 0 0
644 215 1 0.5897 -12.415810244677004 7.191248879171473 10.201225878951563 1 0 0
643 215 2 -1.1794 -11.85421573941731 7.369830145216193 9.446972627649725 1 0 0
509 170 1 0.5897 -14.146759352639904 5.930155111036344 7.725799480031371 1 0 0
636 212 1 0.5897 -14.932869030032915 7.659758648381439 9.841508053607358 1 0 0
532 178 2 -1.1794 -10.912106404482813 5.286543914423952 7.095830835554669 1 0 0
459 153 1 0.5897 -10.078800039619894 3.8688387127892376 10.824009566393649 0 0 0
510 170 1 0.5897 -13.76436096929513 6.886047229951194 6.615938550281845 1 0 0
534 178 1 0.5897 -11.768283919452589 5.708406263535371 7.168175955028336 1 0 0
521 174 1 0.5897 -10.422086525015116 3.6091860774897775 7.853579368348061 1 0 0
457 153 2 -1.1794 -10.213166290018847 2.9246662446050316 10.906208089597191 0 0 0
543 181 1 0.5897 -10.560112229192658 6.159187256878679 9.875016916728372 0 0 0
518 173 1 0.5897 -16.410439582232726 7.6232634763571046 7.928026167519106 1 0 0
477 159 1 0.5897 -15.390140366126637 4.503326617783463 6.7254259561575305 1 0 0
520 174 2 -1.1794 -10.350659457968808 2.738128496039513 8.24395755664749 1 0 0
541 181 2 -1.1794 -9.803924638817845 5.643106599461094 10.154405658515019 0 0 0
519 173 1 0.5897 -16.334064760345168 7.429973125380636 6.42852391709498 1 0 0
182 61 1 0.5897 -11.081209806871989 3.9866501214512837 5.6993239010623915 1 0 0
887 296 1 0.5897 -10.267591860913331 3.8843462131321935 13.908204150014049 0 0 0
874 292 2 -1.1794 -13.478788258521389 4.725834990737081 14.968121043821867 0 0 0
876 292 1 0.5897 -12.569499474581004 4.427308767788288 14.950613064641628 0 0 0
944 315 1 0.5897 -14.354791844825604 5.84239489680847 11.134279149139807 1 0 0
945 315 1 0.5897 -14.124743863322546 7.116180853777907 11.919475232431935 1 0 0
848 283 1 0.5897 -13.680581571160175 3.7414879015565905 11.967242168785525 1 0 0
900 300 1 0.5897 -14.546819276127573 7.681831432729103 14.416499979089615 0 0 0
899 300 1 0.5897 -13.76873162587107 6.4224037217206895 14.099560871423444 0 0 0
898 300 2 -1.1794 -13.943900283887594 7.305770575245438 13.775174797439242 0 0 0
875 292 1 0.5897 -13.992027058170601 3.9254688477539883 15.078777640403798 0 0 0
886 296 2 -1.1794 -10.976102148449062 3.591858004091387 14.481487088024597 0 0 0
943 315 2 -1.1794 -14.022219074935396 6.735741718720643 11.047150753467612 1 0 0
847 283 2 -1.1794 -14.50079554616216 4.175183382262587 11.731932147572419 1 0 0
869 290 1 0.5897 -12.541370559786003 8.278535817713186 13.191793994253667 0 0 0
649 217 2 -1.1794 -15.67034826008191 8.171118943374632 15.613595168189711 0 -1 0
1018 340 2 -1.1794 -11.89156698532463 6.8775201725888735 20.128797664314924 0 -1 0
1019 340 1 0.5897 -12.457713898064318 6.1091042963321645 20.201337170133705 0 -1 0
1020 340 1 0.5897 -11.021751585832163 6.518928521625908 19.952524107320993 0 -1 0
1043 348 1 0.5897 -12.247300115054601 8.602700546442753 19.566287128507504 0 -1 0
1237 413 2 -1.1794 -10.43205599390956 4.7888711594888225 17.609641768374555 0 0 0
1003 335 2 -1.1794 -13.376687264262602 4.581020919771385 20.338552587264196 0 -1 0
1030 344 2 -1.1794 -9.275086880281812 5.9276803285419355 19.77436627943861 0 -1 0
1032 344 1 0.5897 -8.79548034759166 5.471533840019198 20.46579245897621 0 -1 0
989 330 1 0.5897 -14.694376648831456 8.128637022614265 18.499527845459685 0 -1 0
1207 403 2 -1.1794 -12.731136346154658 6.440504615288917 16.946645499640034 0 0 0
1208 403 1 0.5897 -11.92398534349556 6.041602500494223 17.27159007869202 0 0 0
1239 413 1 0.5897 -9.779127034849827 4.9137732912571614 16.92096703050892 0 0 0
1238 413 1 0.5897 -9.979516970242758 5.034023609579899 18.41665698462323 0 0 0
990 330 1 0.5897 -14.285665614615452 6.7122212341851935 18.154929619549407 0 -1 0
980 327 1 0.5897 -12.594987948016845 8.183861489649695 16.60644691461111 0 -1 0
1034 345 1 0.5897 -14.547501772539839 7.40678387328539 20.617534565693962 0 -1 0
988 330 2 -1.1794 -14.81694224155217 7.218497485567228 18.769473606633447 0 -1 0
1035 345 1 0.5897 -14.578055506542228 8.723221980591491 21.364568846370613 0 -1 0
1033 345 2 -1.1794 -14.433689661937677 7.785209907916203 21.48932776142003 0 -1 0
57 19 1 0.5897 -11.605689450921947 8.018431850953968 21.478351756080595 1 0 -1
1209 403 1 0.5897 -13.092024615226155 5.792836544106015 16.34123748230729 0 0 0
650 217 1 0.5897 -15.360709102866949 8.713486654599299 16.338969833784567 0 -1 0
291 97 1 0.5897 -15.379141877072213 10.768838592729919 4.326711012152794 1 0 0
174 58 1 0.5897 -16.463243398475033 9.980851518931887 1.775959702566019 1 0 0
173 58 1 0.5897 -15.012197353535978 10.33534248070639 1.529715965115717 1 0 0
172 58 2 -1.1794 -15.604560471607664 9.588612885319135 1.6176929589399038 1 0 0
283 95 2 -1.1794 -16.733537968085585 11.934234289872732 4.04932919455839 1 0 0
161 54 1 0.5897 -15.209243068051084 8.03583033794544 2.3307514393447644 1 0 0
216 72 1 0.5897 -13.2675861938421 9.583760443076278 3.6344672298078438 1 0 0
290 97 1 0.5897 -14.294958788551295 10.80422265212494 5.38265450061184 1 0 0
285 95 1 0.5897 -17.158623718122083 11.768504659670933 3.207910834044339 1 0 0
148 50 2 -1.1794 -18.161178688164647 10.855703246978456 1.8882654318423957 1 0 0
289 97 2 -1.1794 -14.648074246137096 10.260748050604183 4.67826985508694 1 0 0
150 50 1 0.5897 -18.64773238436208 11.315323035132065 1.2040284025241048 1 0 0
284 95 1 0.5897 -17.414494223290657 11.763440379358729 4.699956616453641 1 0 0
152 51 1 0.5897 -12.894416611581011 7.64039455578777 0.5168185334324834 1 0 0
215 72 1 0.5897 -12.179819648925562 8.566320247872847 3.3632733076554047 1 0 0
214 72 2 -1.1794 -12.513152854236594 9.414414054205812 3.070230698721386 1 0 0
153 51 1 0.5897 -12.953129545471999 8.93586781815001 1.2980374880677552 1 0 0
193 65 2 -1.1794 -13.934089313711311 11.684102651719 1.6844785379949996 1 0 0
194 65 1 0.5897 -13.599434200506286 11.883224846966305 2.558842294444302 1 0 0
207 69 1 0.5897 -15.017321226317673 8.559923414486844 5.296946262153208 1 0 0
1118 373 1 0.5897 -16.036580005621037 8.385721466191102 0.31542813047892 0 -1 1
205 69 2 -1.1794 -15.026345228832138 7.6065523674762066 5.382251329694369 1 0 0
160 54 2 -1.1794 -15.08774955411655 7.126114248494881 2.6026199684865605 1 0 0
151 51 2 -1.1794 -12.784893717639601 8.586672771727988 0.42285108965494345 1 0 0
640 214 2 -1.1794 -14.059967407605704 12.039102303795785 6.536240125483063 1 0 0
630 210 1 0.5897 -12.725607175759539 9.454708072686126 7.266997047595877 1 0 0
629 210 1 0.5897 -13.689224977976318 10.608901743313934 7.443862057209162 1 0 0
628 210 2 -1.1794 -13.436779114804992 9.768247005953112 7.825707489413531 1 0 0
566 189 1 0.5897 -13.113067881589807 9.819129272469498 9.792713467644353 0 0 0
635 212 1 0.5897 -14.765011332108031 8.669912970077176 8.726535225377381 1 0 0
327 109 1 0.5897 -13.554209397982868 13.198166531232507 9.996591749672385 0 -1 0
634 212 2 -1.1794 -15.430314302956564 8.184405093141455 9.214239039390241 1 0 0
642 214 1 0.5897 -14.933235077377267 12.374881404728194 6.7384539228552836 1 0 0
565 189 2 -1.1794 -13.20845294046929 10.128725071871413 10.693400444051184 0 0 0
617 206 1 0.5897 -17.06974562290937 12.689991381243521 7.74945719950485 1 0 0
567 189 1 0.5897 -12.916154220814185 11.039819090075587 10.666275905170016 0 0 0
641 214 1 0.5897 -13.492876075499566 12.809495806515228 6.5701291217530375 1 0 0
624 208 1 0.5897 -17.022563051811233 8.934532302866428 9.6786625872176 1 0 0
646 216 2 -1.1794 -18.37066459175624 11.673844626810874 8.35243301888227 1 0 0
658 220 2 -1.1794 -16.3146160981835 11.990610466402282 14.969269015819611 0 -1 0
870 290 1 0.5897 -12.094101078123996 9.201981092790698 12.078711314808286 0 0 0
868 290 2 -1.1794 -11.763601311959366 8.694403262119854 12.819854621914514 0 0 0
671 224 1 0.5897 -13.302629840901805 11.042391652450556 14.000276930995435 0 -1 0
670 224 2 -1.1794 -13.996986763024744 10.70865597530011 14.568331142706269 0 -1 0
672 224 1 0.5897 -13.548901140313184 10.117036979553356 15.172793409204747 0 -1 0
956 319 1 0.5897 -16.79778437023174 10.774815690723214 12.178167827737335 1 0 0
660 220 1 0.5897 -15.460599251446384 11.59702023794412 14.790431709303045 0 -1 0
879 293 1 0.5897 -14.664209005218892 9.985153529397293 11.593086707690519 0 0 0
878 293 1 0.5897 -14.893171064903303 9.98578447521461 13.089505723054037 0 0 0
877 293 2 -1.1794 -15.306607928616618 9.74453664668408 12.26063106901392 0 0 0
683 228 1 0.5897 -16.51851783340009 13.502167779292284 14.086470869061458 0 -1 0
955 319 2 -1.1794 -17.644982039336433 11.062887635373036 11.838357752765372 1 0 0
728 243 1 0.5897 -17.260768664596203 12.72227561546545 11.153726874019878 1 -1 0
659 220 1 0.5897 -16.941682198594584 11.284432898825534 14.813259071316448 0 -1 0
965 322 1 0.5897 -16.406176179051595 8.321016204650517 12.207714973988328 1 0 0
680 227 1 0.5897 -10.876065343201525 9.430897103643465 15.748113350374425 0 -1 0
681 227 1 0.5897 -10.879454057833057 9.173568817459765 14.256307189138454 0 -1 0
1140 380 1 0.5897 -12.008897331002029 12.280942040848172 20.508056714774952 0 -1 0
1138 380 2 -1.1794 -12.319936301023064 12.902238236621445 19.849719796500178 0 -1 0
1128 376 1 0.5897 -13.947723840703606 13.682749921547453 20.339363898202713 0 -1 0
1127 376 1 0.5897 -15.44323706246498 13.582140215506309 20.12688461578848 0 -1 0
1022 341 1 0.5897 -13.142927134228778 12.223307503337848 18.587217190281763 0 -1 0
1119 373 1 0.5897 -15.102724193911001 10.912916504814822 20.44992197821451 0 -1 0
1117 373 2 -1.1794 -14.339587494646082 10.487679959028513 20.84106326662178 0 -1 0
1044 348 1 0.5897 -13.061509909162105 9.860622119862876 19.782403661368622 0 -1 0
1042 348 2 -1.1794 -12.314214614877047 9.51747064499713 19.292476113337873 0 -1 0
1013 338 1 0.5897 -10.893559050443482 10.398169769834455 18.450192671851433 0 -1 0
1002 334 1 0.5897 -16.116903033477627 10.080752286618468 17.788734403175813 0 -1 0
981 327 1 0.5897 -12.542087464752683 9.460226458782559 17.418900027902726 0 -1 0
991 331 2 -1.1794 -15.9237195662867 13.576833272988159 17.100136105180372 0 -1 0
992 331 1 0.5897 -15.152633303518714 13.141272430132398 17.46334026985809 0 -1 0
1111 371 2 -1.1794 -16.5317625246687 12.122850118762395 20.0639714757372 0 -1 0
1023 341 1 0.5897 -12.980263523785316 11.980840785031033 17.101799204416732 0 -1 0
1021 341 2 -1.1794 -13.629745336210988 11.964701275251207 17.80472136366052 0 -1 0
1001 334 1 0.5897 -14.676334790821466 10.541146170332992 17.8568955480296 0 -1 0
1000 334 2 -1.1794 -15.21696689296008 9.754706712776477 17.7828340983727 0 -1 0
1126 376 2 -1.1794 -14.744251067333039 14.212255394688713 20.30183626726445 0 -1 0
979 327 2 -1.1794 -12.529638821539894 9.134817345103736 16.51882562641916 0 -1 0
1098 366 1 0.5897 -17.29083248292007 13.910035345716869 18.034124694577194 0 -1 0
993 331 1 0.5897 -16.186573577297757 13.024695554844191 16.363756394596255 0 -1 0
305 102 1 0.5897 -1.5398902361659594 -5.792054354028451 2.209371983567314 1 1 0
311 104 1 0.5897 -2.693726708080531 -7.652341719682134 3.2407958520954225 1 1 0
318 106 1 0.5897 -2.7244870111201482 -3.765717211211652 1.6005472132564336 1 1 0
306 102 1 0.5897 -0.7069154253401333 -7.042789358047773 2.025430538720391 1 1 0
310 104 2 -1.1794 -3.3833706988140753 -8.110047279574815 3.721520188373158 1 1 0
304 102 2 -1.1794 -1.4011962521678338 -6.668680018680649 2.567883411014675 1 1 0
316 106 2 -1.1794 -1.8461793555773607 -4.144721906510068 1.5666386374769607 1 1 0
242 81 1 0.5897 -1.0347247527358139 -6.5885432748653265 4.3843426988048275 0 1 0
293 98 1 0.5897 -4.9873850286755035 -3.8244362809227166 2.5121766685741136 1 1 0
199 67 2 -1.1794 0.4478868044526614 -7.82331078460055 0.9531094308549041 1 1 0
241 81 2 -1.1794 -0.962235633115915 -6.307571398140325 5.296464165656267 0 1 0
243 81 1 0.5897 -0.8820009470973265 -5.354919829904716 5.248532749350991 0 1 0
300 100 1 0.5897 -4.951202719455899 -7.380947277994286 4.028233359112711 1 1 0
201 67 1 0.5897 0.057512323649685726 -8.406081998117857 0.3017994060936082 1 1 0
227 76 1 0.5897 0.9755180465002926 -7.766676015835177 4.060732712782 0 1 0
312 104 1 0.5897 -2.942973418031845 -8.463926331083806 4.494152558330187 1 1 0
632 211 1 0.5897 -4.897294557381067 -5.72901089562505 6.670471934640257 1 1 0
555 185 1 0.5897 -2.666589471009571 -6.490450460105281 6.050757023450936 0 1 0
554 185 1 0.5897 -2.855050367484435 -6.451497902993068 7.552308453623291 0 1 0
553 185 2 -1.1794 -3.3225442497310747 -6.623581350830179 6.735000199481225 0 1 0
546 182 1 0.5897 0.044144570222181656 -7.042056103999108 6.62776521075129 0 1 0
356 119 1 0.5897 1.178044920427185 -6.963071753311618 10.21676405509725 0 0 0
359 120 1 0.5897 -4.624146588946411 -3.108745888925946 8.707861052595966 0 0 0
348 116 1 0.5897 -1.6303557273046483 -6.503271732510813 9.74487759557824 0 0 0
347 116 1 0.5897 -1.1663374524739964 -5.493220224266587 8.71713669279583 0 0 0
346 116 2 -1.1794 -1.9558878662996282 -5.88141760014447 9.094127656449155 0 0 0
336 112 1 0.5897 -3.336819170740652 -5.135486343703715 9.310181448046805 0 0 0
334 112 2 -1.1794 -4.176164991694087 -4.714314754014054 9.49553709910978 0 0 0
404 135 1 0.5897 -5.266208685769756 -3.7627624225241147 5.849363872493766 1 0 0
335 112 1 0.5897 -4.788010191842931 -5.440739155215248 9.61467916485393 0 0 0
544 182 2 -1.1794 0.5194952712435956 -7.521822005030258 7.306016743050434 0 1 0
669 223 1 0.5897 -3.901232225503965 -3.6159251125736604 10.928058060064004 0 0 0
545 182 1 0.5897 -0.16122664439281742 -7.985192333802285 7.793966547504133 0 1 0
718 240 2 -1.1794 0.09202042925723042 -6.916658074754308 13.64213337619846 0 0 0
793 265 2 -1.1794 -1.801638402110596 -6.0377278561993855 15.354303917923986 0 0 0
795 265 1 0.5897 -2.6055033383850255 -5.696830909491613 14.962148244173951 0 0 0
803 268 1 0.5897 -3.2403663201666326 -3.0374520056016268 14.720676596664367 0 0 0