LAMMPS data file via write_data, version 30 Jul 2021, timestep = 500000

2268 atoms
2 atom types
1512 bonds
1 bond types
756 angles
1 angle types

0.012507624498674375 46.64749037550443 xlo xhi
0.05066546156321827 19.94933553843827 ylo yhi
0.10815063661051205 20.59184736339131 zlo zhi

Masses

1 1.008
2 15.999

Pair Coeffs # lj/cut/tip4p/long/omp

1 0 0
2 0.21084 3.1668

Bond Coeffs # harmonic/omp

1 450 0.9572

Angle Coeffs # harmonic/omp

1 55 104.52

Atoms # full

3 1 1 0.5897 1.843205265731775 2.356872805293505 0.7886028561717076 0 0 0
1042 348 2 -1.1794 5.083418653728273 8.991295512179164 7.197633845808818 0 0 0
761 254 1 0.5897 4.381185527106319 2.293851777852899 10.250112485572854 0 0 0
4 2 2 -1.1794 4.2025974993435735 1.5349508129920828 3.2997029061208756 0 0 0
5 2 1 0.5897 3.410093901337291 1.2334362024370729 3.74386037444954 0 0 0
282 94 1 0.5897 5.794362491775264 7.691050270452277 4.561135105744442 0 0 0
28 10 2 -1.1794 5.666559827118932 1.0619498218590706 5.649969277060303 0 0 0
10 4 2 -1.1794 1.4728729527780584 4.063269432514746 3.725308731954046 0 0 0
11 4 1 0.5897 1.1707347503917698 4.843751746296937 3.2607797240858516 0 0 0
12 4 1 0.5897 2.4246053597614146 4.1589226405704744 3.7615311645606364 0 0 0
13 5 2 -1.1794 4.611792786064027 6.057795845475522 1.7927292731917033 0 0 0
14 5 1 0.5897 4.526543101368613 5.410609935412305 2.4928089741160937 0 0 0
2 1 1 0.5897 3.181168610583983 2.843024245098491 0.2733813466814683 0 0 0
16 6 2 -1.1794 4.233628518431584 4.267604157813916 3.651157119518977 0 0 0
17 6 1 0.5897 4.825791168207303 4.329451644698366 4.400665101059105 0 0 0
18 6 1 0.5897 4.346108661500068 3.373075497763737 3.329616908409616 0 0 0
31 11 2 -1.1794 0.7845947883600051 1.6954752347125215 2.3476483131024835 0 0 0
20 7 1 0.5897 0.8018332272281462 7.233929136423989 2.439764536039717 0 0 0
15 5 1 0.5897 3.9079731631736805 5.843185723626245 1.1804980092745918 0 0 0
772 258 2 -1.1794 3.795242782262819 4.185639989251408 10.177454860480797 0 0 0
6 2 1 0.5897 4.412141369795434 0.8350614850605165 2.6812578582118274 0 0 0
25 9 2 -1.1794 2.459113645502917 5.553580583332814 6.470617808448525 0 0 0
26 9 1 0.5897 1.8502351769537013 5.663960192899593 7.20091021020631 0 0 0
27 9 1 0.5897 2.585585454362893 4.607080474479798 6.404567462244031 0 0 0
1539 513 1 0.5897 1.8411859443364573 6.006183842898963 0.786837381757878 0 0 1
30 10 1 0.5897 5.655325975913594 0.1114275416430791 5.762224695634142 0 0 0
777 259 1 0.5897 1.1405048552719543 6.762884514769656 9.037091660186611 0 0 0
224 75 1 0.5897 0.3357255934173738 4.862491403115261 4.914673410646749 1 0 0
773 258 1 0.5897 4.09952390097947 4.6831430582071745 9.418417825847769 0 0 0
22 8 2 -1.1794 2.0174531868450085 0.769048976301549 4.96484460266109 0 0 0
1011 337 1 0.5897 1.837561190836296 9.230356779492205 7.571870941315383 0 0 0
256 86 2 -1.1794 3.6828029274167213 8.381611167903856 3.0116467072098803 0 0 0
257 86 1 0.5897 4.09571006366548 7.648450455967899 2.5553437422336738 0 0 0
258 86 1 0.5897 3.0221413259907455 7.974227152330648 3.5718319056555057 0 0 0
1039 347 2 -1.1794 0.6791568821639246 8.643395706056179 8.82087157284327 0 0 0
274 92 2 -1.1794 1.9008262712230677 7.685626550672879 5.0550388111437785 0 0 0
275 92 1 0.5897 2.100312440583637 6.83747866617081 5.451364628042806 0 0 0
276 92 1 0.5897 1.9703600192314883 8.310199176535074 5.777051871619841 0 0 0
35 12 1 0.5897 5.486482150108782 2.3191709793316155 1.0643660112047884 0 0 0
1043 348 1 0.5897 5.163473994470116 9.920266538464086 6.981237314657792 0 0 0
283 95 2 -1.1794 0.7121432202526494 9.066279883315994 2.4321792609193684 0 0 0
498 166 1 0.5897 0.08851424841358498 7.963361149094004 5.04724027067097 1 0 0
285 95 1 0.5897 1.431406596271167 9.139342983821463 1.8048278237148891 0 0 0
19 7 2 -1.1794 0.7177140847889423 6.2967646749105235 2.2640758757777584 0 0 0
776 259 1 0.5897 1.2314610311957837 5.2671278841006925 9.25227531489766 0 0 0
757 253 2 -1.1794 2.618685087015014 2.6143857968189637 6.96947033682482 0 0 0
758 253 1 0.5897 2.7150412396041976 1.9692790455976308 6.268912336806169 0 0 0
759 253 1 0.5897 3.4697158246942275 2.62181605619032 7.407584807633849 0 0 0
254 85 1 0.5897 3.716182481832461 9.326378499535865 0.30341110095761203 0 0 0
1026 342 1 0.5897 4.309788381867933 9.788242918730104 10.112439088633968 0 0 0
23 8 1 0.5897 1.0602570370398232 0.7696480181895095 4.9592267688663645 0 0 0
34 12 2 -1.1794 4.8985093501764645 2.331460275217839 0.30913058931819654 0 0 0
769 257 2 -1.1794 4.6633820716795 6.012642897798183 7.986409973131568 0 0 0
770 257 1 0.5897 4.645479286222556 6.858827487344099 8.433482908679085 0 0 0
771 257 1 0.5897 4.084674610507855 6.127189295785136 7.232605992823083 0 0 0
32 11 1 0.5897 1.104195269837573 2.298494671109777 3.018807437914123 0 0 0
791 264 1 0.5897 5.655263353399122 2.158263417322387 7.218026016515643 0 0 0
33 11 1 0.5897 0.01842575796177978 2.1333234606175764 1.9768117348305794 0 0 0
1010 337 1 0.5897 3.2986626794237335 9.328214196667075 7.187736571616404 0 0 0
787 263 2 -1.1794 0.6886253639512482 1.8116320595829163 8.716030541556382 0 0 0
789 263 1 0.5897 1.462265793407852 2.053246880449598 8.206764866181855 0 0 0
1041 347 1 0.5897 0.7623231178980412 9.263997426044837 9.544864481743335 0 0 0
762 254 1 0.5897 4.5096685426257554 0.9422147247786026 9.580454552758992 0 0 0
1009 337 2 -1.1794 2.4298586426164634 9.651145503574522 6.948684845038304 0 0 0
775 259 2 -1.1794 0.9642812143286315 5.924598973269379 8.609954286022024 0 0 0
1044 348 1 0.5897 5.545019711589375 8.898366924677156 8.031018212601115 0 0 0
1012 338 2 -1.1794 4.165147129317028 8.020295807312984 10.000359399914487 0 0 0
790 264 2 -1.1794 5.315208154330023 2.5092946966530647 8.041054585489912 0 0 0
767 256 1 0.5897 0.9397761877451133 3.04730923503224 10.163717957315137 0 0 0
29 10 1 0.5897 5.256083455666537 1.2078120694843009 4.797635526965454 0 0 0
1 1 2 -1.1794 2.2381524142206373 2.9429580566910736 0.14303788139164197 0 0 0
1758 586 1 0.5897 0.2274860998250574 1.2114973840784717 18.95419758928515 1 0 0
766 256 2 -1.1794 1.097211639408893 3.8629371557268097 10.63931144046048 0 0 0
1782 594 1 0.5897 4.165767178045545 9.92107864015145 17.3883311387715 0 0 0
2010 670 1 0.5897 0.20581589888711557 7.4137649787075866 18.64003741871968 1 0 0
1548 516 1 0.5897 5.286689985887611 2.2559869373469015 13.820724686979045 0 0 0
1765 589 2 -1.1794 2.2041028254045893 9.05283786358631 13.826355946843567 0 0 0
1767 589 1 0.5897 2.418545839889944 9.955686771093127 13.591622499489105 0 0 0
1523 508 1 0.5897 0.638433173148413 4.448796445963342 18.196387335725973 0 0 0
1520 507 1 0.5897 5.4723027066011545 3.7558683703452362 20.168295305908785 0 0 0
779 260 1 0.5897 2.2951143819508273 1.7324446870827541 12.606471325740788 0 0 0
1800 600 1 0.5897 4.157040501174914 8.940341217928422 14.019428197798694 0 0 0
781 261 2 -1.1794 2.2816340127081913 5.522638760060393 13.56596132509823 0 0 0
782 261 1 0.5897 1.5049540716980712 5.748792772613283 14.077695206136731 0 0 0
783 261 1 0.5897 2.268803090564915 4.566630921118739 13.520089699277365 0 0 0
765 255 1 0.5897 5.837238474607509 4.173920031745532 12.970577838349623 0 0 0
2031 677 1 0.5897 4.683703626833158 0.36721425499097665 15.607638557581573 0 1 0
1795 599 2 -1.1794 0.6753423402620274 8.547781682239803 15.970253087941586 0 0 0
1518 506 1 0.5897 4.675731110952696 1.5915130251971337 17.254049848115763 0 0 0
1521 507 1 0.5897 5.05246757653717 4.543738466935598 18.94563504421823 0 0 0
1030 344 2 -1.1794 1.992365144287002 7.315594338665674 11.501954316157184 0 0 0
1031 344 1 0.5897 1.057500350986319 7.483612301116543 11.620501158227276 0 0 0
1032 344 1 0.5897 2.1566003325208656 6.512947540579776 11.99693856439067 0 0 0
768 256 1 0.5897 2.027431953509512 4.0437805237132975 10.5042525647746 0 0 0
1513 505 2 -1.1794 2.39917297251501 2.9364530810908267 14.076405026182575 0 0 0
1514 505 1 0.5897 1.7297845487648509 2.65248758660956 14.69892241818673 0 0 0
1515 505 1 0.5897 3.1985979041756485 3.0052288538001086 14.598362478868184 0 0 0
1516 506 2 -1.1794 3.9597754028706387 1.7497067917282667 16.63872153953931 0 0 0
1517 506 1 0.5897 3.2073473399076047 1.302196261334014 17.025802063646424 0 0 0
1534 512 2 -1.1794 2.0301721576389253 0.8209331659151198 18.50497603709168 0 0 0
1531 511 2 -1.1794 0.5489177552863781 5.945342403383297 15.63471147858285 0 0 0
1546 516 2 -1.1794 5.405765200530446 3.004226317436681 14.405691152937905 0 0 0
1522 508 2 -1.1794 1.44686100243516 4.5748714210685435 17.699597257576812 0 0 0
774 258 1 0.5897 4.421860664023085 4.396657308709416 10.86960105731587 0 0 0
1524 508 1 0.5897 1.1810185624291203 5.083861605124454 16.93377093757436 0 0 0
1525 509 2 -1.1794 4.680516512459922 5.982282975074562 14.987023345964943 0 0 0
1526 509 1 0.5897 4.50460156600585 5.347573313507832 15.681592759994496 0 0 0
1527 509 1 0.5897 3.8826384138692074 5.986677872346061 14.458231192080493 0 0 0
1528 510 2 -1.1794 4.212980433537296 4.288191850855391 17.292477723836463 0 0 0
1529 510 1 0.5897 3.3212724540902845 4.556254776163201 17.51440365280461 0 0 0
1530 510 1 0.5897 4.1331257222776845 3.3653421196448026 17.05124681147386 0 0 0
255 85 1 0.5897 2.675385847783788 8.754430862128663 19.848203282969628 0 0 -1
1798 600 2 -1.1794 5.06652492318845 9.171908811279353 14.207757521160516 0 0 0
778 260 2 -1.1794 2.2823651985750124 0.9417382168907458 12.067170267180261 0 0 0
1535 512 1 0.5897 2.2121448651003104 1.427794489611617 19.222495950793416 0 0 0
1786 596 2 -1.1794 2.0248557903957214 7.584127015880355 18.658521847977966 0 0 0
764 255 1 0.5897 5.664832821870022 5.569097203349003 12.40876909580231 0 0 0
780 260 1 0.5897 2.9719401643303165 1.0825854566341575 11.418406403462653 0 0 0
1038 346 1 0.5897 5.634825047641028 8.447555700257197 12.670341197599345 0 0 0
1545 515 1 0.5897 0.8467943117987855 2.871758760653728 16.806077386952367 0 0 0
1787 596 1 0.5897 2.8054853977911827 7.678978303018665 18.11274736629398 0 0 0
1543 515 2 -1.1794 0.4792696451715475 2.282206731297997 16.147604344412706 0 0 0
1788 596 1 0.5897 2.1991690504225576 6.810280355839949 19.19424770310932 0 0 0
1014 338 1 0.5897 4.88895087261967 7.885178699096641 10.611995281426928 0 0 0
1766 589 1 0.5897 1.8140682565845367 8.684893683549054 13.033432855536825 0 0 0
1768 590 2 -1.1794 4.537490025142567 8.1386676194129 16.944523031712066 0 0 0
1769 590 1 0.5897 5.238816290554696 7.797351131340948 17.49940080843688 0 0 0
1770 590 1 0.5897 4.602475801815987 7.630626909194453 16.1358802163708 0 0 0
1797 599 1 0.5897 1.2066022745029963 8.87099433320264 15.242559867141992 0 0 0
1532 511 1 0.5897 0.6591891253824025 6.892018924993761 15.7233875421634 0 0 0
2036 679 1 0.5897 1.2511706640440245 0.5521866246371748 15.513587813826781 0 1 0
763 255 2 -1.1794 5.721324593910822 4.649792393227567 12.148177579694904 0 0 0
785 262 1 0.5897 5.211369229594473 1.1649975034456663 11.865641216036122 0 0 0
784 262 2 -1.1794 5.814133607070003 0.951343488455426 12.577870100389248 0 0 0
1519 507 2 -1.1794 5.726195117092985 4.501388924909019 19.624268950919294 0 0 0
36 12 1 0.5897 5.33474588963126 1.7838058608094691 20.140134820012044 0 0 -1
1002 334 1 0.5897 0.4058447208974639 0.8683967835986197 12.15149115744883 1 0 0
1538 513 1 0.5897 2.1402173463703376 4.838497155952441 20.354581159737926 0 0 0
760 254 2 -1.1794 4.344451463354866 1.3541523988412816 10.428537270005645 0 0 0
253 85 2 -1.1794 2.7795294349240076 9.349001335738855 20.59108250367346 0 0 -1
1013 338 1 0.5897 3.379584577953149 7.82501604195713 10.511247713296708 0 0 0
1537 513 2 -1.1794 2.384636649982757 5.747930297588409 20.52608272796476 0 0 0
519 173 1 0.5897 3.8714129960876185 19.182752123946344 0.8202418318746587 0 0 0
1025 342 1 0.5897 4.421247159131467 11.287153834045213 9.931586184801022 0 0 0
507 169 1 0.5897 2.135821297339789 15.709708484523619 0.76230819009415 0 0 0
525 175 1 0.5897 0.9748150203024002 18.305180667060398 2.582354543363412 0 0 0
265 89 2 -1.1794 4.735580822253358 12.648035011910233 1.7580592974449245 0 0 0
535 179 2 -1.1794 0.842342749881994 15.684486867627504 2.131730051967889 0 0 0
1291 431 2 -1.1794 0.7867910128750166 15.67061834816374 8.904428652109177 0 0 0
518 173 1 0.5897 5.28432465530552 19.05161458249829 1.3479095816045312 0 0 0
269 90 1 0.5897 4.256806988947872 11.509789011564164 3.020881639110668 0 0 0
533 178 1 0.5897 5.56151685117752 14.422600717452355 4.767566881458035 0 0 0
272 91 1 0.5897 1.4789505079659966 12.721140857940252 1.1512303566650506 0 0 0
506 169 1 0.5897 3.5178921067964195 15.767926961317299 0.14713485514028174 0 0 0
277 93 2 -1.1794 2.7745288986765835 12.387833776742779 6.930605168660641 0 0 0
278 93 1 0.5897 2.7302947852525565 11.467471046134174 6.671382061518451 0 0 0
279 93 1 0.5897 2.6901632105688518 12.872705568706802 6.10962205748725 0 0 0
262 88 2 -1.1794 1.204151320388535 11.191296605680213 3.9398367716480336 0 0 0
538 180 2 -1.1794 5.204460721880098 15.847136835024449 0.8695128323330681 0 0 0
537 179 1 0.5897 0.8728290381646504 14.736915079605792 2.263632033361413 0 0 0
270 90 1 0.5897 3.9002555011110003 10.123590116141205 3.5140316782962078 0 0 0
508 170 2 -1.1794 4.173672067403865 14.824410321777156 3.740295982980701 0 0 0
509 170 1 0.5897 4.051021372078096 15.744835938855235 3.507929719750848 0 0 0
510 170 1 0.5897 4.3016079019560935 14.380276490142775 2.90207734584395 0 0 0
513 171 1 0.5897 5.095175889446536 17.868946379217405 5.234568708921666 0 0 0
514 172 2 -1.1794 1.3803135914252453 17.462805704535256 4.250221768181874 0 0 0
266 89 1 0.5897 4.345546519382764 12.622078449319645 0.8843093983334092 0 0 0
516 172 1 0.5897 1.1445090805495315 16.701567572964116 3.719996447315752 0 0 0
271 91 2 -1.1794 0.893731254593227 12.919812525615516 1.882182683972431 0 0 0
1275 425 1 0.5897 3.996365058076408 18.84420883534972 7.8820712990492865 0 0 0
1027 343 2 -1.1794 0.6585249798140798 12.668910390494286 9.051223503359248 0 0 0
520 174 2 -1.1794 4.050417727775551 17.534936891859573 3.6843130872866454 0 0 0
521 174 1 0.5897 3.117197199196032 17.55600040609678 3.896235868592021 0 0 0
522 174 1 0.5897 4.130831662018144 18.07835246469245 2.9004350940562578 0 0 0
524 175 1 0.5897 0.6419550634832853 19.751857808577462 2.2853721851723434 0 0 0
511 171 2 -1.1794 5.806269997921331 18.153295568007934 5.808795205271232 0 0 0
526 176 2 -1.1794 1.8815152410831986 14.15665037239784 4.988237682229082 0 0 0
527 176 1 0.5897 2.682834289430548 14.284366519430474 4.480471966875196 0 0 0
528 176 1 0.5897 1.896979259373596 14.856495573876513 5.64108099336021 0 0 0
529 177 2 -1.1794 2.6341499963449473 18.448070570620658 6.765698056962451 0 0 0
530 177 1 0.5897 2.566973101627545 17.494984413768343 6.70796375018819 0 0 0
531 177 1 0.5897 1.8483511602098308 18.715600534995964 7.2423490162051225 0 0 0
264 88 1 0.5897 1.0381689747742298 10.400078497671696 3.427342954178403 0 0 0
24 8 1 0.5897 2.2538342489204015 19.909932831831476 5.499737530991557 0 -1 0
268 90 2 -1.1794 3.955307234254802 11.036541158694574 3.7963625029163035 0 0 0
517 173 2 -1.1794 4.404597666373572 19.331199944653925 1.6012153873190444 0 0 0
273 91 1 0.5897 1.1733275103257745 12.3284801560019 2.581027872339939 0 0 0
261 87 1 0.5897 5.367048191811524 11.262195344355382 5.243405219154968 0 0 0
1273 425 2 -1.1794 4.512109240776243 19.14336183639881 8.63090796396186 0 0 0
1293 431 1 0.5897 0.8643745077244395 14.75819367306816 9.183148053032909 0 0 0
1021 341 2 -1.1794 4.749679562828271 12.58850110689888 8.627955304929806 0 0 0
1022 341 1 0.5897 4.5500521019824935 13.486406433302646 8.892790182426399 0 0 0
1023 341 1 0.5897 4.17106953433955 12.423615891446762 7.88346441202466 0 0 0
1292 431 1 0.5897 0.985761723021233 16.179391680953486 9.690426599184015 0 0 0
1264 422 2 -1.1794 3.942306011600718 14.753845012297964 10.164323062094041 0 0 0
1028 343 1 0.5897 1.1688717653448306 12.609731127404636 8.243581291009168 0 0 0
1261 421 2 -1.1794 2.6274245242337577 15.793034180357864 7.020448028573385 0 0 0
1262 421 1 0.5897 2.157831247100443 15.573464265858293 7.825129207308872 0 0 0
1263 421 1 0.5897 3.5516891522502885 15.771662122793325 7.268507364517792 0 0 0
515 172 1 0.5897 0.6544976288087413 17.560036740025275 4.866650961447132 0 0 0
1279 427 2 -1.1794 0.5453458371553913 19.017912577934766 8.519389137431656 0 0 0
1274 425 1 0.5897 4.325225095372818 18.506636467568967 9.320751882395157 0 0 0
1019 340 1 0.5897 0.9510107359727988 11.386877404282757 10.341285225410694 0 0 0
1280 427 1 0.5897 0.74334789929903 18.50155943843211 9.30067411359853 0 0 0
523 175 2 -1.1794 0.587300426426294 18.871065989084308 1.9146425519096513 0 0 0
1294 432 2 -1.1794 5.395967516644818 15.893388460224783 7.499371394336414 0 0 0
263 88 1 0.5897 2.1306259185206566 11.135644603478184 4.173936478873127 0 0 0
2042 681 1 0.5897 1.8742101397259876 18.84500630388758 0.5343881334424576 0 0 1
534 178 1 0.5897 5.768443906115683 14.640500289579618 6.2513480857562795 0 0 0
267 89 1 0.5897 5.646714637490059 12.388092906066873 1.6219776848653438 0 0 0
1296 432 1 0.5897 5.728118672360747 16.608112384320776 6.956164028176565 0 0 0
539 180 1 0.5897 5.798258197360718 15.780164168729312 1.617286320233447 0 0 0
750 250 1 0.5897 0.046345174778103626 14.233390272687869 4.678727115748337 1 0 0
1281 427 1 0.5897 0.7361435734866314 19.92076085577975 8.773717638258907 0 0 0
540 180 1 0.5897 5.378824240953396 15.060104976368216 0.353367893055065 0 0 0
1789 597 2 -1.1794 2.7523394077427925 11.99236807086011 20.115988856982383 0 0 0
1271 424 1 0.5897 0.9548837732165172 17.625213020439446 11.574226959177437 0 0 0
1015 339 2 -1.1794 5.7066283433494345 11.402055036859341 12.773810614864239 0 0 0
1269 423 1 0.5897 5.827440876418246 18.820707741452296 12.791472338715336 0 0 0
1270 424 2 -1.1794 1.394426943293876 17.744932809538476 10.732378433844453 0 0 0
1033 345 2 -1.1794 2.806946501027644 11.823189520981733 13.28144758315463 0 0 0
1034 345 1 0.5897 3.535425574756984 11.945235767990656 13.89027477758532 0 0 0
1035 345 1 0.5897 2.0405524469148113 12.143980477899456 13.756821582845507 0 0 0
2052 684 1 0.5897 5.678145109315893 15.56760599406687 13.549802931517373 0 0 0
2044 682 2 -1.1794 5.531522222001145 14.616796856089298 18.86877199516723 0 0 0
1774 592 2 -1.1794 1.2779258243894571 10.95956327489648 17.13630515388448 0 0 0
1988 663 1 0.5897 0.0883747002531246 11.114456914213308 18.59533743352428 1 0 0
2038 680 2 -1.1794 1.9444530470674646 14.045040608983607 18.260098927030647 0 0 0
1781 594 1 0.5897 3.093166291383547 10.977284028187906 17.227496670259576 0 0 0
2024 675 1 0.5897 5.078374368109176 17.84858000705342 18.74206286607191 0 0 0
1020 340 1 0.5897 2.10042334892582 10.596887427682576 10.930090083625142 0 0 0
1282 428 2 -1.1794 1.8658040648727912 14.092170957416899 11.75308288939469 0 0 0
1283 428 1 0.5897 2.009401205345072 14.826352663785489 12.35022911326846 0 0 0
1284 428 1 0.5897 2.27983747541152 13.345843502552055 12.186444129414923 0 0 0
1285 429 2 -1.1794 3.207701009100571 18.75397872436225 13.462212504849623 0 0 0
1016 339 1 0.5897 4.99758220157938 11.301367393922469 12.13870061048164 0 0 0
1287 429 1 0.5897 3.9384255921916282 19.010643453091852 14.024716951153026 0 0 0
2035 679 2 -1.1794 1.2216881591872946 19.494117624425314 15.513280647538972 0 0 0
1783 595 2 -1.1794 0.9727732895241664 12.856761181442481 15.264766358918216 0 0 0
1780 594 2 -1.1794 4.023968846013766 10.86712171342501 17.421728795184997 0 0 0
2051 684 1 0.5897 4.337654775198454 16.040223409815695 14.071012088633953 0 0 0
1278 426 1 0.5897 4.1221983463089025 16.564831287166925 10.533985714479105 0 0 0
2039 680 1 0.5897 2.448545309691904 14.68302128705514 18.7651782999395 0 0 0
505 169 2 -1.1794 2.5966764557321955 15.945484794099801 20.440857745726618 0 0 -1
1277 426 1 0.5897 5.156930291042454 17.27257392892883 11.382719833647139 0 0 0
1776 592 1 0.5897 1.1444840805234908 11.49766561303296 16.356003920780786 0 0 0
1777 593 2 -1.1794 4.714098978427866 12.238947181093772 15.338952199704968 0 0 0
1778 593 1 0.5897 4.59887765294433 11.604366585737571 16.046243854200924 0 0 0
2046 682 1 0.5897 5.036845534003485 14.611569127320495 18.049315385119094 0 0 0
1785 595 1 0.5897 1.044299069177804 13.782686313499225 15.496644937611913 0 0 0
2043 681 1 0.5897 2.468643450842731 17.62302654026218 20.350777199583554 0 0 0
1784 595 1 0.5897 0.03722876023052635 12.664788722554396 15.329248683435962 0 0 0
2047 683 2 -1.1794 1.0347370872760715 15.727342688170816 15.67582351100717 0 0 0
1265 422 1 0.5897 4.517950411541875 14.614984353475052 10.916382974197829 0 0 0
2037 679 1 0.5897 1.5970930819319624 19.242721057320587 14.669415231326562 0 0 0
1791 597 1 0.5897 2.113216032348855 12.184934050894535 19.429923919249525 0 0 0
2040 680 1 0.5897 1.0401405554167797 14.172449189308995 18.54687558360102 0 0 0
2017 673 2 -1.1794 2.742190972086536 16.0561405503162 13.462042562309401 0 0 0
2018 673 1 0.5897 2.8343545654746616 17.000731589628288 13.337649885344542 0 0 0
2019 673 1 0.5897 2.154175349930622 15.969125087156451 14.21231619063921 0 0 0
2020 674 2 -1.1794 4.069925417157193 14.555345145592689 16.682607265992814 0 0 0
2021 674 1 0.5897 3.244738844020916 14.388419838160301 17.13807888325706 0 0 0
2022 674 1 0.5897 4.174263414041758 13.80818883070398 16.093457504394145 0 0 0
2041 681 2 -1.1794 2.4699054409127443 18.57963669777734 20.317393600941827 0 0 0
1018 340 2 -1.1794 1.1526533683874687 10.570519965290863 10.798587585343283 0 0 0
2026 676 2 -1.1794 1.1846042430478656 17.73753205315706 17.679957983734965 0 0 0
2027 676 1 0.5897 2.13213913037893 17.662991475440606 17.793436281483878 0 0 0
2028 676 1 0.5897 1.066859112961608 18.533642374295766 17.161718297381377 0 0 0
2049 683 1 0.5897 0.990035787047065 16.410108894447134 16.345195758870297 0 0 0
2045 682 1 0.5897 5.754079978155828 13.698301405800834 19.02061288156075 0 0 0
1773 591 1 0.5897 5.013023713986331 11.543566124812518 19.056334077780797 0 0 0
2032 678 2 -1.1794 4.135984774062449 17.51469338898317 17.20726419009339 0 0 0
2033 678 1 0.5897 4.377527392707628 18.19026006490111 16.573627018097724 0 0 0
2034 678 1 0.5897 4.249236898305681 16.69037399754174 16.734088846069533 0 0 0
2029 677 2 -1.1794 4.935252268181449 19.38460779402653 15.331416994830997 0 0 0
1790 597 1 0.5897 2.664073329288545 11.051612714469147 20.268987118254294 0 0 0
1272 424 1 0.5897 2.325662477290088 17.78122284973516 10.950870139582142 0 0 0
1286 429 1 0.5897 2.9189701188228683 19.57120172905254 13.056002938653151 0 0 0
1266 422 1 0.5897 3.0598247241460395 14.617631186192934 10.509178841948717 0 0 0
2050 684 2 -1.1794 5.279193317720851 16.113976611393817 14.226966339481331 0 0 0
1024 342 2 -1.1794 4.114484698155272 10.619469576529923 10.545039108683156 0 0 0
1276 426 2 -1.1794 4.488226270190827 17.430298742244496 10.716234266492878 0 0 0
1799 600 1 0.5897 5.18183456115541 10.034748192970072 13.80971920170088 0 0 0
1779 593 1 0.5897 5.645683892617274 12.192184396282261 15.123968787122095 0 0 0
1536 512 1 0.5897 2.102232298003545 19.85118210639741 18.90105085892359 0 -1 0
2025 675 1 0.5897 5.608115636792863 17.211054177011178 20.008885717223286 0 0 0
2023 675 2 -1.1794 5.746142051393701 17.952855062581598 19.419897693879406 0 0 0
2048 683 1 0.5897 0.20262833735230357 15.79542782784238 15.207624306651361 0 0 0
1775 592 1 0.5897 0.9910331910017076 10.084226012766859 16.876110424760675 0 0 0
792 264 1 0.5897 5.978545287066211 2.2801187527985003 8.691982296902319 0 0 0
1047 349 1 0.5897 9.016040228130837 8.52455230679779 6.394390448450846 0 0 0
824 275 1 0.5897 7.581550640944676 0.9244861839251003 9.410729870266005 0 0 0
8 3 1 0.5897 5.872052568843318 5.409876798829184 5.713170010311105 0 0 0
41 14 1 0.5897 11.496276450891864 1.0812416773915423 4.247653713313169 0 0 0
51 17 1 0.5897 11.216514976471318 5.2113324044399745 2.5239006536699837 0 0 0
56 19 1 0.5897 6.59767544321596 5.416295159068955 1.8831332911948024 0 0 0
40 14 2 -1.1794 10.730532462938845 1.1459130737433312 3.676950205172321 0 0 0
1076 359 1 0.5897 7.271911008744111 7.279988947620548 9.144291979776439 0 0 0
42 14 1 0.5897 9.987894888154043 0.9518593715914178 4.248859670987207 0 0 0
46 16 2 -1.1794 8.14248203310546 3.811144977082901 4.170228256443429 0 0 0
47 16 1 0.5897 7.54661899127092 4.198116062721648 4.811665470795929 0 0 0
48 16 1 0.5897 8.018348408985865 4.336557297118347 3.3798082616178653 0 0 0
293 98 1 0.5897 10.945623925827126 7.56988227731612 2.6231566428917827 0 0 0
54 18 1 0.5897 10.991461705945841 3.2393812188295903 3.46569085944846 0 0 0
52 18 2 -1.1794 10.867009949247553 4.108333705129029 3.847339652450246 0 0 0
53 18 1 0.5897 9.928844174457492 4.157754682568455 4.0308018284358385 0 0 0
1045 349 2 -1.1794 9.00323734250475 8.997974593275776 7.226219168969532 0 0 0
55 19 2 -1.1794 7.508943520048609 5.453357183085103 2.1737727277100123 0 0 0
1048 350 2 -1.1794 10.347144852966586 7.869115763883317 10.09279160603295 0 0 0
57 19 1 0.5897 7.663149114157824 6.378977109362788 2.36263547990364 0 0 0
813 271 1 0.5897 7.720074081144322 5.21544037323427 9.474959356038605 0 0 0
1046 349 1 0.5897 9.925138534726317 9.167758975546976 7.419935018375949 0 0 0
1075 359 2 -1.1794 7.059772770532387 8.211810310818082 9.198393450280406 0 0 0
61 21 2 -1.1794 9.20716121409026 5.135383148961648 6.623542353750178 0 0 0
62 21 1 0.5897 8.562716326310959 5.371636551196841 7.290714783957781 0 0 0
63 21 1 0.5897 9.10553641627765 4.18970021935866 6.515951285624145 0 0 0
67 23 2 -1.1794 7.373692769250741 2.1462655805751885 2.0783002473035443 0 0 0
68 23 1 0.5897 8.019261948372865 2.4043793560022624 1.4203777030831295 0 0 0
69 23 1 0.5897 7.683026231485536 2.5498022121999497 2.8892909603943755 0 0 0
1050 350 1 0.5897 10.597448562408918 8.788633220335056 10.003028998446613 0 0 0
59 20 1 0.5897 7.4821430585226745 1.0715977673042234 5.302428615151484 0 0 0
58 20 2 -1.1794 8.383203048183024 0.8003717167281256 5.126985672555446 0 0 0
9 3 1 0.5897 6.012417930876704 4.337071330878392 6.772071462310597 0 0 0
1575 525 1 0.5897 8.661498860005027 5.695519119491282 0.8592431124474265 0 0 1
294 98 1 0.5897 10.166499165278285 7.63394230900591 3.9196057113703575 0 0 0
1574 525 1 0.5897 10.14360800102291 5.619135652760138 0.5601219259839101 0 0 1
310 104 2 -1.1794 8.891736312585548 7.000349522938736 4.825678439471586 0 0 0
311 104 1 0.5897 9.125959860873074 6.27554990262166 5.405362957038906 0 0 0
312 104 1 0.5897 7.945591210528454 7.09766180525736 4.9333601377528495 0 0 0
319 107 2 -1.1794 7.885077603162218 8.2339280437138 2.329691769899349 0 0 0
1049 350 1 0.5897 10.622889041046424 7.463975515659626 9.270562265260782 0 0 0
321 107 1 0.5897 8.390691587477894 8.40602633584826 1.535350592279427 0 0 0
288 96 1 0.5897 6.581740179610411 9.104718513197904 1.337963403125956 0 0 0
809 270 1 0.5897 11.039612058014788 5.105840791887471 10.016692176355289 0 0 0
825 275 1 0.5897 8.125944845076777 2.0616833193019835 8.57269259408861 0 0 0
793 265 2 -1.1794 8.947919147236563 2.4973200334493315 7.141108715182225 0 0 0
794 265 1 0.5897 9.85307706892166 2.6605788796666503 7.406233463644091 0 0 0
795 265 1 0.5897 9.020704024201361 1.915997293790454 6.384143505272215 0 0 0
823 275 2 -1.1794 7.622069689875796 1.8797726045067655 9.365951516600083 0 0 0
807 269 1 0.5897 10.976198676097093 5.6465266003465775 7.464337214986543 0 0 0
1077 359 1 0.5897 7.615959977150206 8.623350353161946 8.536932469564691 0 0 0
320 107 1 0.5897 7.905823464230665 9.060901314231286 2.8112600726230568 0 0 0
805 269 2 -1.1794 11.348119220898663 6.036936667449912 8.255217247163271 0 0 0
1078 360 2 -1.1794 11.655051980987137 9.34808143285301 7.3735893101529095 0 0 0
7 3 2 -1.1794 5.889767365137179 4.460098965254832 5.830765440308461 0 0 0
811 271 2 -1.1794 7.558715029116089 5.659556579986037 8.642518834283276 0 0 0
292 98 2 -1.1794 10.914339719591277 8.022695847115674 3.465898219338821 0 0 0
49 17 2 -1.1794 11.493789628155213 5.73916771909605 1.7750737095470799 0 0 0
324 108 1 0.5897 11.110472624896484 8.977034387785022 0.8310957359600472 0 0 0
812 271 1 0.5897 6.630310490441603 5.507855019406934 8.465583019237283 0 0 0
797 266 1 0.5897 10.785224091194928 1.194496675578141 9.838029238322369 0 0 0
280 94 2 -1.1794 6.265196116382963 7.2249929841726015 5.2520352134171615 0 0 0
281 94 1 0.5897 5.945204070868011 7.614851475368795 6.065577437796116 0 0 0
306 102 1 0.5897 11.100999524351227 9.88490107672465 3.8586547055679445 0 0 0
286 96 2 -1.1794 5.907961648480351 9.345776308129201 0.7022273653063247 0 0 0
561 187 1 0.5897 7.410889757442668 0.10286249823474178 2.0497051712926178 0 1 0
1573 525 2 -1.1794 9.288907105171692 5.697512683533966 0.13633264881758578 0 0 1
39 13 1 0.5897 9.87395808586713 2.6919015398386095 0.2570999119906645 0 0 0
289 97 2 -1.1794 9.387526932007065 9.2602258660658 0.1341666160916688 0 0 0
1803 601 1 0.5897 8.909859755497637 8.843952172920773 14.991059155953183 0 0 0
1562 521 1 0.5897 11.240931788976896 5.204841059478301 15.760350649106384 0 0 0
810 270 1 0.5897 9.92962749198262 4.55312901378466 10.88523734276588 0 0 0
1802 601 1 0.5897 10.327789840540605 8.932942669660074 14.46808256593278 0 0 0
1801 601 2 -1.1794 9.413520904673724 8.97890877064206 14.188343059249084 0 0 0
808 270 2 -1.1794 10.87938920261085 4.534200782975814 10.7675494638415 0 0 0
803 268 1 0.5897 7.260031421807555 4.338191156900743 11.328968575999303 0 0 0
786 262 1 0.5897 6.663374093424421 0.8439605947625874 12.149486402880989 0 0 0
38 13 1 0.5897 8.994401441210648 3.848577089705462 20.316085241780883 0 0 -1
1833 611 1 0.5897 7.696156265914439 9.441189338195787 16.50344473400964 0 0 0
1055 352 1 0.5897 7.462560044904044 9.494317179807133 10.642547528267189 0 0 0
1583 528 1 0.5897 11.024868866062175 2.5631719786244225 14.762242329001293 0 0 0
817 273 2 -1.1794 8.927644407868874 5.077623701250017 13.711486290023966 0 0 0
818 273 1 0.5897 8.871621558436809 5.748988418277095 13.031516930693634 0 0 0
819 273 1 0.5897 8.280782310256736 5.343429584684972 14.365061296954186 0 0 0
1823 608 1 0.5897 9.266586969722516 7.439996581552336 18.00987371072594 0 0 0
1037 346 1 0.5897 6.871977449750947 7.76052912548771 12.132401674658617 0 0 0