LAMMPS (30 Jul 2021)
Processor partition = 1
  using 2 OpenMP thread(s) per MPI task
using multi-threaded neighbor list subroutines
variable        pid world 0 1
variable        phase world IceIh Liquid

shell cd ${phase}
shell cd Liquid
include Restart.lmp
echo both
log log.lammps
#include		in.partitions
include		in.temp
variable        temperature equal 204.50
variable	tempDamp equal 100.0
include		in.pressure
variable        pressure equal 3479.5
variable        pressureDamp equal 1000.0 # This is 1 ps
include		in.seed
variable        seed equal 745823

units		real
atom_style	full
read_restart	restart.lmp.${pid}
read_restart	restart.lmp.1
Reading restart file ...
  restart file = 30 Jul 2021, LAMMPS = 30 Jul 2021
  restoring atom style full from restart
  orthogonal box = (0.42142484 1.5879141 0.51413732) to (17.786148 22.041264 21.699058)
  2 by 4 by 4 MPI processor grid
  restoring pair style lj/cut/tip4p/long/omp from restart
  restoring bond style harmonic/omp from restart
  restoring angle style harmonic/omp from restart
  864 atoms
  576 bonds
  288 angles
Finding 1-2 1-3 1-4 neighbors ...
  special bond factors lj:    0        0        0       
  special bond factors coul:  0        0        0       
     2 = max # of 1-2 neighbors
     1 = max # of 1-3 neighbors
     1 = max # of 1-4 neighbors
     2 = max # of special neighbors
  special bonds CPU = 0.003 seconds
  read_restart CPU = 0.012 seconds
include 	in.setup
variable	out_freq equal 1000
variable	out_freq2 equal 10000
variable	out_freq3 equal 1000

timestep	2.0

neigh_modify    delay 7 every 1

include		in.tip4p
# This is TIP4P/Ice

# create groups ###
group ox type 2
288 atoms in group ox
group hy type 1
576 atoms in group hy

# set charges - beside manually ###
set group ox charge -1.1794
Setting atom values ...
  288 settings made for charge
set group hy charge 0.5897
Setting atom values ...
  576 settings made for charge

# ### TIP3P Potential Parameters ###
pair_style lj/cut/tip4p/long/omp 2 1 1 1 0.1577 8.5
pair_coeff 1 1*2 0.000 0.000
pair_coeff 2 2 0.21084 3.1668
bond_style  harmonic
bond_coeff  1 450 0.9572
angle_style harmonic
angle_coeff 1 55 104.52
kspace_style pppm/tip4p/omp 1.0e-5
pair_modify tail yes

thermo          ${out_freq}
thermo          1000
thermo_style    custom step temp pe etotal epair emol press lx ly lz vol pxx pyy pzz pxy pxz pyz enthalpy

restart 	${out_freq3} restart.lmp.${pid} restart2.lmp.${pid}
restart 	1000 restart.lmp.${pid} restart2.lmp.${pid}
restart 	1000 restart.lmp.1 restart2.lmp.${pid}
restart 	1000 restart.lmp.1 restart2.lmp.1


include         in.dump
dump            myDump all atom ${out_freq2} dump.water.${pid}
dump            myDump all atom 10000 dump.water.${pid}
dump            myDump all atom 10000 dump.water.1
dump            myDump2 all dcd ${out_freq2} dump.dcd
dump            myDump2 all dcd 10000 dump.dcd
dump_modify     myDump append yes
dump_modify     myDump2 append yes


variable natoms 	equal  "count(all)"                        # NUMBER ATOMS
variable H      	equal  "enthalpy/v_natoms"                 # ENTHALPY-per-atom
variable Vol      	equal  "vol/v_natoms"                 # volume-per-atom
fix AVG all 		ave/time ${out_freq} 1 ${out_freq} v_Vol v_H file vol_enthalpy.dat
fix AVG all 		ave/time 1000 1 ${out_freq} v_Vol v_H file vol_enthalpy.dat
fix AVG all 		ave/time 1000 1 1000 v_Vol v_H file vol_enthalpy.dat


timer           timeout 23:50:00 every 1000
New timer settings: style=normal  mode=nosync  timeout=23:50:00

fix 		1 all shake 1e-6 200 0 b 1 a 1
Finding SHAKE clusters ...
       0 = # of size 2 clusters
       0 = # of size 3 clusters
       0 = # of size 4 clusters
     288 = # of frozen angles
  find clusters CPU = 0.001 seconds
fix             2 all nph iso ${pressure} ${pressure} ${pressureDamp}
fix             2 all nph iso 3479.5 ${pressure} ${pressureDamp}
fix             2 all nph iso 3479.5 3479.5 ${pressureDamp}
fix             2 all nph iso 3479.5 3479.5 1000
fix             3 all temp/csvr ${temperature} ${temperature} ${tempDamp} ${seed}
fix             3 all temp/csvr 204.5 ${temperature} ${tempDamp} ${seed}
fix             3 all temp/csvr 204.5 204.5 ${tempDamp} ${seed}
fix             3 all temp/csvr 204.5 204.5 100 ${seed}
fix             3 all temp/csvr 204.5 204.5 100 745823

run             250000
PPPM initialization ...
  extracting TIP4P info from pair style
  using 12-bit tables for long-range coulomb (../kspace.cpp:340)
  G vector (1/distance) = 0.37395213
  grid = 24 24 25
  stencil order = 5
  estimated absolute RMS force accuracy = 0.0031063769
  estimated relative force accuracy = 9.3547618e-06
  using double precision FFTW3
  3d grid and FFT values/proc = 3822 576
Last active /omp style is kspace_style pppm/tip4p/omp
Neighbor list info ...
  update every 1 steps, delay 7 steps, check yes
  max neighbors/atom: 2000, page size: 100000
  master list distance cutoff = 10.8154
  ghost atom cutoff = 10.8154
  binsize = 5.4077, bins = 4 4 4
  1 neighbor lists, perpetual/occasional/extra = 1 0 0
  (1) pair lj/cut/tip4p/long/omp, perpetual
      attributes: half, newton on, omp
      pair build: half/bin/newton/omp
      stencil: half/bin/3d
      bin: standard
Setting up Verlet run ...
  Unit style    : real
  Current step  : 13250000
  Time step     : 2
  Walltime left : 23:49:59.94
Per MPI rank memory allocation (min/avg/max) = 10.20 | 10.20 | 10.22 Mbytes
Step Temp PotEng TotEng E_pair E_mol Press Lx Ly Lz Volume Pxx Pyy Pzz Pxy Pxz Pyz Enthalpy 
13250000    215.81624   -4096.1642   -3726.2626   -4096.1642            0    559.89678    17.364723     20.45335    21.184921    7524.1795   -92.692489   -151.71756    1924.1004    342.71034    588.48679    412.50413   -3664.8237 
13251000     204.7607   -4103.0412   -3752.0884   -4103.0412            0    2128.3578    17.352407    20.438844    21.169896    7508.1821    1102.8477    4952.8826    329.34317   -677.14424    598.52448   -1279.0348    -3519.035 
13252000    197.49632   -4092.1631   -3753.6611   -4092.1631            0    3262.1361     17.31082    20.389859     21.11916    7454.3282    3121.2769    4424.4354     2240.696    673.47659    -322.4404   -465.03733   -3399.0222 
13253000    203.71156   -4102.3028   -3753.1482   -4102.3028            0    3148.6198    17.321519    20.402461    21.132213    7468.1583    2740.5442    3358.4254    3346.8897    1042.1521    1271.7685    695.10531   -3410.2149 
13254000    198.41671    -4129.804   -3789.7246    -4129.804            0    3505.1841    17.274102    20.346611    21.074365     7406.995    3866.3371    3316.9639    3332.2513   -456.95206    1143.0375    492.97219   -3411.0826 
13255000    212.57604   -4107.5024   -3743.1544   -4107.5024            0    1995.8618    17.364669    20.453287    21.184856    7524.1103    2161.3181    2064.7262     1761.541   -627.61922    767.88453     -989.575   -3524.1456 
13256000    210.78605   -4098.6826   -3737.4025   -4098.6826            0     3493.039    17.319923    20.400582    21.130266    7466.0941    2117.3543    4296.7463    4065.0163    576.17394     1746.285   -413.08191   -3357.0618 
13257000    205.74772   -4107.1756   -3754.5311   -4107.1756            0    2540.5607    17.294491    20.370625    21.099238    7433.2529    3410.0447    2120.7415     2090.896   -361.00053    402.82812    163.03306   -3479.1181 
13258000    202.87647   -4095.2883    -3747.565   -4095.2883            0    3640.0782    17.318028     20.39835    21.127954    7463.6441    4182.3238    3708.8688     3029.042   -450.07797    67.481436   -1217.6542    -3351.344 
13259000     214.5918   -4095.5243   -3727.7213   -4095.5243            0     3699.319    17.337699    20.421519    21.151952     7489.106    2610.5714    4831.9098    3655.4758   -268.92376    226.39194    512.87669   -3323.6782 
13260000    195.97165   -4087.3036   -3751.4149   -4087.3036            0     2725.793    17.331424    20.414128    21.144296    7480.9768    2740.4974    3085.2624     2351.619   -597.96883    861.13639    1443.3888   -3454.0244 
13261000    207.50768   -4120.2592   -3764.5982   -4120.2592            0    4200.0421    17.303782    20.381569    21.110573    7445.2394    3568.0098    5239.4917    3792.6247   -577.35272   -127.07494    257.53358   -3308.5527 
13262000    205.71462   -4067.2255   -3714.6377   -4067.2255            0    4113.2225     17.30484    20.382816    21.111864    7446.6055    3429.2116    4403.8775    4506.5782    83.546197    790.04646    16.717117   -3267.9372 
13263000    200.62204   -4078.5944   -3734.7351   -4078.5944            0    3497.2921    17.324215    20.405636    21.135501    7471.6455    4224.1707    3444.9631    2822.7427     38.58733   -190.14568   -744.82337   -3353.6481 
13264000    198.94252   -4114.2434   -3773.2627   -4114.2434            0    2732.8061     17.29012    20.365478    21.093907    7427.6195     2722.663    3646.5582    1829.1971   -102.23704    1064.7896   -1007.2245   -3477.2337 
13265000    199.57436   -4100.1992   -3758.1356   -4100.1992            0     3679.175    17.340837    20.425216    21.155781    7493.1733    3462.5255    5067.4442    2507.5554    509.48172   -1305.5053    331.72574   -3356.0744 
13266000    209.81714   -4107.7858   -3748.1664   -4107.7858            0    4402.0716    17.269158    20.340787    21.068332    7400.6366    4958.9853    4295.4712    3951.7583   -898.02865   -952.17537   -468.99902   -3273.0477 
13267000    206.19502   -4100.0111   -3746.5999   -4100.0111            0    4431.3301    17.280285    20.353893    21.081907    7414.9506    5431.2941    4160.1115    3702.5849    82.171878    1422.7783   -958.11364   -3267.3983 
13268000    203.72053   -4115.5797   -3766.4097   -4115.5797            0    4789.1962    17.226641    20.290708    21.016462    7346.1096    6206.8756    3907.3571    4253.3559   -1368.7497    1770.1942    6.3906096   -3253.3169 
13269000    200.30143   -4091.0362   -3747.7264   -4091.0362            0     4164.764    17.274059     20.34656    21.074311    7406.9392    3869.1496    4816.0554    3809.0871   -647.64842    776.71254   -2133.9162   -3297.8377 
13270000    200.82421   -4108.3293   -3764.1235   -4108.3293            0    2710.8277    17.376072    20.466717    21.198767    7538.9416    4301.2231    2362.4838    1468.7761    36.564034    1818.8428    178.90887   -3466.0741 
13271000    200.03433   -4107.2508   -3764.3988   -4107.2508            0    4040.6434    17.336817     20.42048    21.150876    7487.9629    3688.3886    4004.2375    4429.3041   -474.94038     396.6338    586.74311   -3323.1434 
13272000    212.16879   -4092.4889   -3728.8388   -4092.4889            0    2562.4702    17.369473    20.458945    21.190716     7530.356     1661.277    3108.4854    2917.6481   -1130.4641   -333.81626    591.75465   -3447.4219 
13273000    201.07887   -4104.5895   -3759.9472   -4104.5895            0    3653.9864    17.305726     20.38386    21.112946    7447.7499    4013.3064    4849.7329    2098.9199   -645.16946    292.27926   -122.96108   -3363.0593 
13274000     206.1392   -4060.5634   -3707.2479   -4060.5634            0    3904.9385    17.325041     20.40661     21.13651    7472.7148    3758.9684    3050.1347    4905.7123    1294.3181    590.33287   -302.57271   -3281.6803 
13275000    201.30786   -4087.8884   -3742.8536   -4087.8884            0    2474.2395    17.334022    20.417189    21.147467    7484.3423    2721.9467      3502.81    1197.9619   -47.763641   -423.95882    33.281933   -3472.7867 
13276000    205.31895   -4075.6525   -3723.7429   -4075.6525            0    3458.4804    17.335273    20.418661    21.148992    7485.9621    3423.8125    2487.5598     4464.069   -469.32236     607.2208    841.75213    -3346.163 
13277000    209.07211   -4089.9685    -3731.626   -4089.9685            0     2374.811    17.348346     20.43406    21.164942    7502.9118    751.97843    3927.0432    2445.4114    -119.0549    386.30338    400.67808   -3471.7688 
13278000    199.34777   -4101.4298   -3759.7546   -4101.4298            0    1908.8705    17.401221     20.49634    21.229449    7571.7241    1994.0369    1794.2172    1938.3574   -271.61924     73.20368   -177.35979    -3548.966 
13279000    197.73777   -4110.5997    -3771.684   -4110.5997            0     3918.929     17.36058     20.44847    21.179867    7518.7954    3291.1636    5720.5433      2745.08   -287.95982    1488.5831    717.38991    -3341.958 
13280000    207.02826   -4080.9397   -3726.1004   -4080.9397            0    3181.9447    17.409846    20.506499    21.239972    7582.9885    3695.9837    1675.9466    4173.9039   -983.40916    772.04705     204.3055   -3374.2088 
13281000    217.70919    -4091.098   -3717.9519    -4091.098            0    3583.7301    17.381987    20.473685    21.205983    7546.6436    3690.6887    3369.9391    3690.5624    134.68952    282.54396   -1008.7701   -3323.5263 
13282000    200.20235   -4086.1492   -3743.0092   -4086.1492            0    3167.8825       17.369    20.458388    21.190139    7529.7408    2451.9336    2525.6247    4526.0891   -1032.4347   -266.14985    600.02846   -3395.1328 
13283000     213.0748    -4105.691    -3740.488    -4105.691            0    2824.5406     17.33028     20.41278    21.142901    7479.4954    2321.8819    2884.3605    3267.3794   -683.39387   -805.98046    -52.75582    -3432.385 
13284000    194.68349   -4108.1321   -3774.4512   -4108.1321            0    2945.4022    17.316122    20.396104    21.125628    7461.1792    2047.6733     3100.173    3688.3601    -430.1959   -361.78829    212.16475   -3453.9513 
13285000    206.45843   -4138.9444   -3785.0817   -4138.9444            0    4505.9587    17.326835    20.408723    21.138699    7475.0369    3712.7869    5246.7929    4558.2963   -1084.3894     1408.014     1360.696   -3293.8612 
13286000    208.19625   -4125.6726   -3768.8314   -4125.6726            0    5043.9946     17.27717    20.350224    21.078107    7410.9416    6511.6664    4318.9342    4301.3832   -358.16901   -560.30159    994.53365   -3223.6715 
13287000    206.06786   -4094.6906   -3741.4974   -4094.6906            0    2500.3531    17.349177    20.435039    21.165955    7503.9896    2836.7916    988.44739    3675.8203    -476.9488     262.9849     1176.805   -3467.8637 
13288000    197.05953   -4090.3286   -3752.5753   -4090.3286            0    3870.9874    17.351399    20.437656    21.168666    7506.8726     3104.595    4562.9954    3945.3718   -248.74413    348.43637    800.84375   -3328.7795 
13289000    202.91043   -4090.2594   -3742.4779   -4090.2594            0    2526.7891    17.361842    20.449957    21.181407    7520.4359    1692.1878    2953.0327    2935.1469   -568.95635   -781.92647    237.94808   -3465.3451 
13290000     200.3164   -4096.5778   -3753.2423   -4096.5778            0    2267.1875    17.350702    20.436835    21.167816    7505.9684    2201.2706    1569.8232    3030.4687    937.29939   -121.16491    484.49557   -3505.0604 
13291000    193.30502   -4073.6981   -3742.3799   -4073.6981            0    3215.7262    17.327329    20.409305    21.139301    7475.6754    2245.9439    2718.3006    4682.9342   -471.51735   -560.96051    1606.0014   -3391.7852 
13292000     209.2029   -4104.2471   -3745.6805   -4104.2471            0    3553.2641    17.309276    20.388041    21.117276    7452.3339    1536.0245    4157.5403    4966.2275   -723.40961    1272.0732     217.9098   -3359.4953 
13293000    205.88025   -4088.4035   -3735.5317   -4088.4035            0    1541.6702    17.382684    20.474506    21.206834    7547.5516    971.57005    1926.6298    1726.8107   -1077.7459   -1447.6608   -624.41671    -3565.835 
13294000    206.56399   -4101.8571   -3747.8135   -4101.8571            0    2296.7695    17.366994    20.456025    21.187692    7527.1326    1341.6552    2365.3811    3183.2721   -1200.7171    616.21411   -677.94932   -3495.6845 
13295000    194.87787   -4120.5923   -3786.5783   -4120.5923            0    4018.3309    17.323458    20.404745    21.134578    7470.6663    3363.9528    4749.9138     3941.126     213.1416    1016.2013    1415.9705   -3348.7731 
13296000    209.89937   -4091.8231   -3732.0628   -4091.8231            0    2191.6237    17.371657    20.461518    21.193381    7533.1974     1598.782    2766.1915    2209.8976   -157.07685    -365.2937    260.69608   -3491.2823 
13297000    201.32437   -4109.2287   -3764.1656   -4109.2287            0     3974.284    17.374305    20.464636    21.196611     7536.642    4996.3926    3906.0621    3020.3972   -1662.4821    906.06667    224.17717   -3327.3354 
13298000    204.87307   -4088.9186   -3737.7731   -4088.9186            0    5455.1275    17.311471    20.390626    21.119954    7455.1694    5200.9261    4681.7011    6482.7554    185.39351   -810.29297    462.55944    -3144.659 
13299000    202.65508   -4094.2736   -3746.9297   -4094.2736            0    2457.2461    17.358812    20.446388     21.17771    7516.4992    2091.3281    3371.9242    1908.4859    321.47068   -661.34677    410.04754   -3477.5654 
13300000    209.56437   -4121.2241   -3762.0379   -4121.2241            0    5195.1769    17.347303    20.432831    21.163669    7501.5576    3741.6881    7306.8991    4536.9436   -497.27878    224.55586    2.9320709   -3193.6725 
13301000    206.08862   -4080.4681   -3727.2393   -4080.4681            0    2157.1615    17.421892    20.520687    21.254667     7598.739     1450.111    2971.1794    2050.1941    -334.8487   -435.74337    -96.98336   -3488.1831 
13302000    209.07457   -4118.6946    -3760.348   -4118.6946            0    3052.3124    17.361641     20.44972    21.181161    7520.1743    4274.8713    2158.6982    2723.3676   -821.15996     796.2886       702.51   -3425.5886 
13303000    204.65817   -4100.7873   -3750.0103   -4100.7873            0    3673.2855    17.342855    20.427592    21.158242    7495.7886    3129.8792    4102.5757    3787.4017   -457.50154     394.9048   -902.35044   -3348.4526 
13304000    213.80233   -4092.3171   -3725.8673   -4092.3171            0    3871.2164     17.40055    20.495549     21.22863    7570.8473    5206.0539    3509.9937    2897.6016    977.54924    1694.0131    806.11707   -3298.4345 
13305000    197.13196   -4081.6812   -3743.8037   -4081.6812            0     3569.308    17.399306    20.494085    21.227113    7569.2247    2594.2726    4019.1356    4094.5157    787.09282    174.73091    1082.9252     -3349.79 
13306000    218.34235   -4088.8873    -3714.656   -4088.8873            0    1858.7161    17.378186    20.469208    21.201347    7541.6946    1317.2268    2260.7254     1998.196    -433.0702     200.0086    1318.5774   -3510.2198 
13307000    205.21365   -4088.4881   -3736.7589   -4088.4881            0    3999.3933    17.335511    20.418942    21.149283    7486.2704    2708.2471    5076.8547    4213.0781    1770.3837    517.87518    1942.3399   -3300.1069 
13308000    207.12832    -4090.725   -3735.7142    -4090.725            0    1641.1963    17.376126    20.466781    21.198833    7539.0123    1043.9725    2071.4145    1808.2019    551.96612   -71.144258    78.289264   -3555.2667 
13309000    212.64167   -4103.9787   -3739.5182   -4103.9787            0    3444.3074    17.374313    20.464646    21.196621    7536.6529     4196.159    3250.5915    2886.1717    315.14617   -295.29267   -163.83852   -3360.9394 
13310000     195.5733   -4100.7973   -3765.5914   -4100.7973            0    3786.7618    17.290056    20.365402    21.093828    7427.5362    3349.0088    4883.8967    3127.3798    741.01526     538.3504    2058.2149    -3355.398 
13311000     206.0456   -4093.0055   -3739.8504   -4093.0055            0    3493.7712    17.372862    20.462937    21.194851    7534.7651     3293.804    4783.5037     2404.006   -34.936989   -404.47722     1449.153   -3355.9309 
13312000    213.77021   -4088.6118    -3722.217   -4088.6118            0    3418.4003    17.350649    20.436773    21.167752    7505.9003    4069.4262    3435.5676    2750.2072    278.71471    938.61352   -69.901884   -3348.0189 
13313000    214.77529   -4070.5597   -3702.4422   -4070.5597            0    3465.9455    17.321897    20.402907    21.132674    7468.6475    2444.9622    4547.0285    3405.8458   -193.58851   -812.90481    660.82274   -3324.9226 
13314000    201.67994   -4080.1086    -3734.436   -4080.1086            0    2612.0434     17.37357    20.463771    21.195715     7535.686    1092.3521    3326.2863    3417.4917    42.609744     488.2551   -1048.8654   -3447.3718 
13315000    198.16335   -4088.9309   -3749.2857   -4088.9309            0    2608.3832    17.339046    20.423106    21.153596    7490.8516    184.01959    3579.5192    4061.6107    -51.06713   -331.46288    1120.4653   -3464.3293 
13316000    219.47719   -4097.8153   -3721.6389   -4097.8153            0    2340.4473    17.392601    20.486186    21.218932    7560.4765    1952.6039    2771.8344    2296.9036    354.99561     819.1645    733.66701    -3463.577 
13317000     198.3462   -4103.7273   -3763.7687   -4103.7273            0    3373.1012    17.337307    20.421057    21.151474    7488.5974    3896.3583    1660.7022    4562.2432    317.32236    791.52604   -868.64399   -3395.3804 
13318000    199.29796   -4079.0171   -3737.4272   -4079.0171            0    2805.5867    17.320651     20.40144    21.131154    7467.0362    2098.6654    3278.6422    3039.4525    515.99235   -224.96339   -68.596999   -3431.9015 
13319000    197.54227   -4114.2608   -3775.6801   -4114.2608            0    3699.8855    17.331607    20.414343     21.14452    7481.2139    4321.4464    4039.2042     2739.006    399.03514    605.76556    81.113654    -3372.001 
13320000    197.09494   -4085.0165   -3747.2025   -4085.0165            0    4057.2545    17.360537     20.44842    21.179815    7518.7403    3601.3433    3439.6309    5130.7892   -180.92791   -711.32996   -537.83125   -3302.3119 
13321000    205.18404   -4105.0971   -3753.4187   -4105.0971            0    3402.9879    17.319976    20.400643     21.13033    7466.1621    5689.6207    2032.5841    2486.7589     107.5838   -948.20642   -1768.3708   -3382.8798 
13322000    221.54619   -4072.4807   -3692.7581   -4072.4807            0    2496.4748    17.412957    20.510163    21.243767    7587.0537    3021.7945    3641.7339    825.89607   -209.91651     323.6572   -443.54514   -3416.5247 
13323000    195.98935   -4105.2717   -3769.3527   -4105.2717            0    4483.1809    17.282062    20.355987    21.084076    7417.2394    4304.0839     2708.611    6436.8477    145.23097    1021.3806    -773.4136   -3284.3943 
13324000     209.0423   -4100.2171   -3741.9257   -4100.2171            0    3257.6855    17.338307    20.422236    21.152694    7489.8941    2505.3299    3525.0769    3742.6496    266.14956     49.67568    746.57439   -3386.0808 
13325000    203.53267    -4089.045   -3740.1969    -4089.045            0    4092.3003    17.380808    20.472296    21.204545    7545.1079    4418.9012    4117.1747    3740.8248   -371.07272     946.9048    810.35923   -3289.8898 
13326000    204.44008   -4087.0269   -3736.6236   -4087.0269            0    3343.5059    17.330627     20.41319    21.143325    7479.9457    3273.4931    2882.6916    3874.3329   -589.65306    557.68738   -365.02553   -3371.8895 
13327000    195.46294   -4093.8327   -3758.8159   -4093.8327            0    3345.5995    17.401335    20.496474    21.229588    7571.8729    3512.7337    4080.5317     2443.533    219.27322   -838.11063    1361.1436   -3389.3681 
13328000     223.1575   -4080.7356   -3698.2512   -4080.7356            0    3182.4873    17.364633    20.453244    21.184812    7524.0628    3226.0379     3926.859    2394.5649    386.76838    500.10765   -173.55817   -3349.0346 
13329000    210.96351   -4109.2952   -3747.7109   -4109.2952            0    4301.9536    17.366814    20.455812    21.187472    7526.8978    4196.4238    4206.4108    4503.0262   -262.38168    268.53067    920.53013   -3275.4765 
13330000      214.124   -4077.3801   -3710.3789   -4077.3801            0    2666.7541    17.387085     20.47969    21.212204    7553.2865    1302.6681    4241.7953     2455.799   -1055.0247    867.68646    850.07312   -3416.6175 
13331000     197.3634   -4084.7147   -3746.4406   -4084.7147            0    3629.6232    17.409285    20.505838    21.239287     7582.255    5616.3999    3209.1358    2063.3339   -539.20946    201.41966    1898.5049    -3345.079 
13332000    191.11418   -4083.1784   -3755.6153   -4083.1784            0    4339.0193    17.324052    20.405445    21.135303    7471.4351    4588.1747    4187.9283    4240.9547   -1202.0468    315.03505   -220.50513   -3282.8218 
13333000    197.79365    -4099.437   -3760.4254    -4099.437            0     4858.199    17.345808     20.43107    21.161845    7499.6183     6093.093    3326.2442    5155.2598   -611.32718   -172.21145   -686.87018   -3229.0636 
13334000    216.03542   -4082.2744   -3711.9971   -4082.2744            0    4169.8057    17.339045    20.423105    21.153595    7490.8508    4874.4549    4151.0257    3483.9367    -2015.392    669.72408    1104.7726   -3256.4609 
13335000    205.46765   -4099.7104   -3747.5459   -4099.7104            0    3722.1014    17.410107    20.506807     21.24029    7583.3297    4159.3021    4103.3917    2903.6103   -1454.2017   -265.48041   -198.50261   -3335.8998 
13336000    198.75571   -4085.8368   -3745.1763   -4085.8368            0    3909.5525    17.414269    20.511709    21.245368    7588.7696    3078.0159    5500.0849    3150.5568   -330.83255    850.10904    622.89122   -3312.4889 
13337000     196.5532    -4095.903   -3759.0176    -4095.903            0    3886.0148    17.383486     20.47545    21.207812    7548.5961     4082.716    2673.5302    4901.7982   -631.37097   -107.56269    457.14243   -3331.2119 
13338000    212.64761   -4079.9565   -3715.4857   -4079.9565            0    4404.3863    17.344311    20.429307    21.160019    7497.6773    4966.2816    3739.9243    4506.9532   -581.15606    975.08364    1120.3293    -3233.884 
13339000    192.72093   -4098.8929   -3768.5758   -4098.8929            0    4845.4454    17.319406    20.399972    21.129635    7465.4255    4954.1047    4306.2264     5276.005    -702.2174   -822.23337    420.04634   -3241.0252 
13340000    212.99726   -4105.7809   -3740.7109   -4105.7809            0    2867.6349    17.365039    20.453723    21.185307    7524.5911     1199.698    4564.7685    2838.4383   -599.74868     354.5899    -616.5568   -3426.0211 
13341000    187.10722   -4093.8156   -3773.1202   -4093.8156            0    3190.0481    17.349964    20.435965    21.166915    7505.0103    5611.4018    2539.7728    1418.9698   -332.88527    666.98125   -951.53669   -3423.9603 
13342000    216.13343     -4094.17   -3723.7247     -4094.17            0    5070.3129    17.350668    20.436796    21.167775     7505.925     5922.282    5619.2361    3669.4204    1674.4363   -220.29746   -171.16616   -3168.6967 
13343000    197.77513    -4103.245   -3764.2652    -4103.245            0    3696.1925    17.350362    20.436435    21.167402    7505.5279    4159.5771    2940.7419    3988.2586   -1223.8225    1607.3097    583.45186   -3359.6784 
13344000     207.6074   -4104.3175   -3748.4855   -4104.3175            0    2925.6222    17.344777    20.429857    21.160588    7498.2821    2412.7216    3499.3678    2864.7773   -119.96166   -293.95251   -474.24256   -3428.5548 
13345000    209.31301   -4115.5538   -3756.7985   -4115.5538            0    3699.3925     17.34552    20.430731    21.161494     7499.245    3070.7638    3368.3806     4659.033   -687.02217    886.70486   -1054.0137   -3352.2004 
13346000    211.52965   -4083.8844   -3721.3298   -4083.8844            0    3211.0303    17.385065    20.477311    21.209739    7550.6541    3595.7621    3546.5171    2490.8117   -1143.3237     572.1491     2443.454   -3367.7358 
13347000    205.82731   -4080.3045   -3727.5235   -4080.3045            0    2743.6684    17.347977    20.433626    21.164492    7502.4331    2637.3767    2470.3089    3123.3196   -566.70515    581.40763    211.65104   -3427.3242 
13348000    200.84172    -4114.087   -3769.8512    -4114.087            0     4021.101    17.320099    20.400789    21.130481    7466.3223    3904.6795    4473.9974     3684.626   -192.94023    1837.6816    859.46905   -3331.9989 
13349000    208.51583   -4101.3582   -3743.9692   -4101.3582            0    3086.1085    17.322226    20.403294    21.133076    7469.0731     1879.267     2948.591    4430.4673    -656.1271    805.33079    1033.4422   -3407.8032 
13350000    209.79335   -4120.5345   -3760.9558   -4120.5345            0    2524.6186    17.334752    20.418048    21.148356     7485.287    2371.6841    3472.6212    1729.5505   -619.79999    689.97421     353.9018   -3485.3553 
13351000    198.08017   -4106.1144   -3766.6117   -4106.1144            0    3597.0943    17.348419    20.434145     21.16503    7503.0055    2763.2906    4477.2297    3550.7625   -128.27773    132.90001    483.34295   -3373.0046 
13352000    213.76527   -4095.9496   -3729.5633   -4095.9496            0    2392.4836    17.397858    20.492378    21.225346    7567.3344    2904.6174     3216.862    1055.9714    1101.7011    601.02274    912.03444   -3465.5245 
13353000     212.5349   -4089.3092   -3725.0317   -4089.3092            0    3844.7918    17.317381    20.397587    21.127164    7462.8069    3292.8865    5689.5084    2551.9807    1059.3985    1047.5107     290.1369   -3306.5746 
13354000    200.76452   -4083.0638   -3738.9603   -4083.0638            0    2184.7936    17.358198    20.445664    21.176961    7515.7007    3743.4916    879.66088    1931.2282    -1407.871    -804.7532   -341.78218   -3499.4877 
13355000    208.11005   -4084.7718   -3728.0783   -4084.7718            0    4109.8976    17.384875    20.477087    21.209507    7550.4064     3870.245    4565.2671    3894.1808   -2197.5129   -966.87342    1002.6905   -3275.5172 
13356000    196.59847   -4104.7693   -3767.8062   -4104.7693            0    3087.8567    17.373283    20.463433    21.195365    7535.3128     3080.999    2466.6447    3715.9264   -113.91513   -587.90129    693.90179   -3428.4668 
13357000     193.2921   -4092.1849   -3760.8888   -4092.1849            0    4431.1855    17.350525    20.436627      21.1676    7505.7392    4577.4756    3742.1247    4973.9562   -462.85148    1377.2538    24.102842   -3275.8357 
13358000    197.75094   -4078.4568   -3739.5184   -4078.4568            0    4160.9927    17.390114    20.483257    21.215898    7557.2337    4355.4654    3889.1601    4238.3525   -115.93551    1231.7039    308.20436   -3280.9167 
13359000    209.10425   -4097.9404   -3739.5428   -4097.9404            0    4113.0565    17.356428     20.44358    21.174802    7513.4025    4394.4284    3086.9358    4857.8052   -255.62025   -365.52805    95.359879   -3288.8536 
13360000    201.67225   -4085.3127   -3739.6534   -4085.3127            0    1960.0396    17.402503    20.497849    21.231013    7573.3968    3088.2648    993.12067    1798.7334   -1953.1874    875.17612   -354.36153   -3523.1666 
13361000    207.53916   -4091.3877   -3735.6727   -4091.3877            0    3587.7589    17.410767    20.507584    21.241095    7584.1921    3652.8676    2810.0046    4300.4043   -81.524666   -53.208894     155.4161   -3338.8391 
13362000    203.71169   -4099.9789    -3750.824   -4099.9789            0    2930.2626    17.411848    20.508857    21.242414    7585.6049    3540.1365     2780.862    2469.7894   -722.02072    614.76459    204.35064   -3426.6542 
13363000    194.72401   -4079.9411   -3746.1908   -4079.9411            0    2770.2191    17.434132    20.535104      21.2696    7614.7658    3095.8276    3105.1534    2109.6764   -2207.6001   -49.562353   -327.87161   -3438.5482 
13364000    211.11881    -4070.392   -3708.5416    -4070.392            0    3988.2262    17.355064    20.441973    21.173138    7511.6311    4930.7528    4813.7873    2220.1384   -1425.1548   -142.76707    887.92373   -3271.6337 
13365000    211.98517   -4092.6972   -3729.3618   -4092.6972            0    2585.5239    17.431072    20.531501    21.265867    7610.7577    2135.4093    2371.2961    3249.8663   -221.37468    6.5676615    725.89018   -3442.3814 
13366000    205.78383   -4103.3176   -3750.6111   -4103.3176            0    5251.8708    17.358969    20.446572    21.177902    7516.7026    4961.4326    5629.9423    5164.2375    962.88318    32.756912   -1129.8736   -3174.8832 
13367000    197.95075   -4116.2895   -3777.0087   -4116.2895            0     3389.939    17.427969    20.527845    21.262081    7606.6931    4021.8392    3167.3167    2980.6611   -643.34491    472.24155    675.30204    -3400.943 
13368000    195.03427   -4105.5109   -3771.2288   -4105.5109            0    3950.6398    17.388451    20.481298    21.213869    7555.0659    4267.2588    3983.3509    3601.3098    -191.5219    1527.2943    319.33841   -3335.9359 
13369000    215.97456   -4109.2593   -3739.0863   -4109.2593            0    2821.8866    17.380161    20.471534    21.203756    7544.2654    4333.0812     883.0338    3249.5448   -871.21184    72.749137    1178.7773   -3428.6071 
13370000    205.22678   -4111.4047    -3759.653   -4111.4047            0    4083.2834    17.392234    20.485754    21.218485    7559.9985    3518.9579    3790.7548    4940.1376   -1159.7784     455.3589   -318.14342   -3309.4513 
13371000    202.11724    -4105.775    -3759.353    -4105.775            0    4022.9382    17.360884    20.448828    21.180237      7519.19    5178.4326    3588.0374    3302.3445    879.46267    1137.3536    329.17181   -3318.1989 
13372000    214.04894   -4095.9399   -3729.0674   -4095.9399            0    3793.6461    17.337605    20.421408    21.151837    7488.9835    3408.4486    2061.4213    5911.0685   -876.86172   -274.39746    1399.2652   -3314.7286 
13373000    204.19403   -4122.0642   -3772.0826   -4122.0642            0    4564.8602    17.309424    20.388215    21.117457    7452.5249    4951.4109    3646.9497    5096.2199   -90.937785     458.0109    619.39375   -3275.9397 
13374000    204.34963   -4087.1437   -3736.8954   -4087.1437            0    3540.3283    17.372554    20.462574    21.194476    7534.3646    2515.4204    2075.6479    6029.9167    170.92385    797.22262   -15.590179   -3347.8806 
13375000    219.77179   -4094.5026   -3717.8212   -4094.5026            0    2183.3788    17.416148    20.513922     21.24766    7591.2258    2728.6518    1352.4521    2469.0327     724.0364    1418.7532    729.02136   -3476.0988 
13376000    208.12541   -4102.8733   -3746.1535   -4102.8733            0    3669.8656    17.365681    20.454479    21.186091    7525.4256    4411.8793     3676.576    2921.1415     214.2491    286.57166   -112.47996   -3343.3835 
13377000    207.62578   -4084.2888   -3728.4253   -4084.2888            0    3416.3292    17.352394    20.438828     21.16988    7508.1649    3812.9177    2271.7599      4164.31   -98.523922    1042.8921    700.19321   -3354.3411 
13378000    211.57648   -4100.8381   -3738.2032   -4100.8381            0    3177.0455     17.39632    20.490567     21.22347    7565.3281    3678.7077    3325.2389    2527.1899   -504.32088    1637.9135   -389.63865   -3387.6717 
13379000    218.26241   -4096.2651   -3722.1708   -4096.2651            0    3935.5953    17.374662    20.465057    21.197047    7537.1071    4094.1462    3970.1506     3742.489    1108.7921    -219.2246     290.1791   -3289.5664 
13380000    195.57972   -4098.0315   -3762.8146   -4098.0315            0    3750.6683     17.35596    20.443028    21.174231    7512.7947    5046.2706    1687.4725    4518.2618   -875.94557    1385.2864    1210.6928   -3351.8674 
13381000    200.89839   -4123.9472   -3779.6143   -4123.9472            0    2610.7578    17.380122    20.471488    21.203708    7544.2146    2743.5406    3482.7225    1606.0104    394.10848    49.452226    -163.9823   -3492.3666 
13382000    211.05661   -4094.2422   -3732.4984   -4094.2422            0    3020.3213    17.374938    20.465382    21.197383    7537.4659    4116.3009    2591.1619     2353.501    380.91501    1080.6382   -322.83172   -3400.4859 
13383000    200.98472   -4102.5744   -3758.0935   -4102.5744            0    2769.1864    17.399021    20.493749    21.226765    7568.8526    2572.9045    1595.2225    4139.4321   -37.243295    462.66897   -793.31531   -3452.4198 
13384000    214.38206   -4145.1644   -3777.7209   -4145.1644            0    5965.4772    17.287619    20.362532    21.090855    7424.3961    6166.7808    6696.0301    5033.6208    696.96362    442.07003    568.18278   -3131.7957 
13385000    191.16836   -4113.5761   -3785.9201   -4113.5761            0     1687.304     17.41069    20.507493    21.241001    7584.0907     907.6062    3458.6268    695.67914    -685.7764    907.61164   -23.216579   -3599.2938 
13386000    205.22946   -4104.6179   -3752.8616   -4104.6179            0       1301.4    17.438383    20.540112    21.274787    7620.3382    1361.1792    1511.6009    1031.4199    106.08321    685.04368    994.15841   -3608.2308 
13387000    198.67843   -4111.5216   -3770.9936   -4111.5216            0    923.86258    17.463811    20.570062    21.305809    7653.7214     1721.004    1241.1966   -190.61278    21.408371    490.30883   -126.23826   -3667.8705 
13388000    214.48709   -4112.5399   -3744.9163   -4112.5399            0    2588.1624    17.372971    20.463065    21.194984    7534.9066    2920.5216    2933.2501    1910.7155    624.44987   -772.29188    322.32987   -3460.5061 
13389000    193.13777   -4111.3808   -3780.3493   -4111.3808            0    3709.9601    17.313222    20.392689    21.122091    7457.4321    3509.7528    3805.0569    3815.0707    -343.2335    542.44771    1152.9574   -3376.8577 
13390000    196.96432   -4088.2807   -3750.6906   -4088.2807            0    3811.5476    17.400996    20.496075    21.229175    7571.4302    3374.7754    5155.0052    2904.8622    187.69483   -803.71296    112.66477   -3329.8137 
13391000     202.1445   -4118.4011   -3771.9324   -4118.4011            0    3658.0361    17.361047     20.44902    21.180436    7519.4021    5678.0099    2996.1224    2299.9759    78.166075    -69.22956    882.96102    -3370.782 
13392000    194.42913   -4092.9102   -3759.6653   -4092.9102            0    2385.4553    17.418138    20.516266    21.250087     7593.828    4562.2424    1927.5699    666.55342     74.14513    646.85872   -1011.3811   -3495.4804 
13393000    198.81813   -4092.8546   -3752.0872   -4092.8546            0    3993.2734    17.309166    20.387911    21.117142    7452.1918      3244.54    3245.7861    5489.4941   -605.56561   -529.58208    676.73729   -3318.0879 
13394000    198.79186   -4094.7954   -3754.0729   -4094.7954            0    2306.6701    17.362129    20.450295    21.181757    7520.8086    1578.3897    3223.9434    2117.6771    100.28082   -197.83645   -2084.6206   -3501.0698 
13395000    204.34107   -4075.1616    -3724.928   -4075.1616            0     2896.149    17.348872     20.43468    21.165584    7503.5942    3216.2454    2421.4249    3050.7768   -163.06907    504.31436    -791.0023    -3407.996 
13396000     198.6639    -4101.922   -3761.4189    -4101.922            0     4333.498     17.32502    20.406585    21.136484    7472.6872    5025.1184    3508.9273    4466.4483    -978.0451      73.2214   -309.33637   -3289.1479 
13397000    197.44197   -4108.3413   -3769.9325   -4108.3413            0    2315.5239     17.29612    20.372545    21.101226    7435.3545      3430.63    664.01099    2851.9306    81.917621   -508.88518    403.12365    -3518.844 
13398000    206.32588   -4116.1438   -3762.5083   -4116.1438            0    5230.5139     17.22948    20.294052    21.019925    7349.7421    4108.7437    4852.7009     6730.097    768.80619   -1009.3196   -978.21346   -3201.8576 
13399000    211.86655   -4069.5396   -3706.4076   -4069.5396            0    3984.2719    17.340796    20.425167     21.15573    7493.1197    5195.5545    4527.1746    2230.0865   -489.96008   -229.94343   -50.727261   -3271.0085 
13400000    203.17828    -4103.793   -3755.5524    -4103.793            0    3821.9899    17.275869    20.348691     21.07652    7409.2676    3948.9731    4355.4639    3161.5328   -378.47364   -8.6500931    928.17413   -3342.5613 
13401000    205.19593   -4081.5376   -3729.8388   -4081.5376            0    3180.5527     17.33694    20.420626    21.151027    7488.1229    3403.3196    4649.5995    1488.7391    -845.1489   -173.56856   -496.97795   -3382.5015 
13402000    194.81439   -4104.5188   -3770.6136   -4104.5188            0    4419.1105    17.276508    20.349444    21.077299    7410.0899    5612.0988    3416.0019    4229.2309   -205.28918    650.61245    779.23019   -3293.0467 
13403000    210.99979    -4102.368   -3740.7215    -4102.368            0    2989.9801    17.299691    20.376751    21.105583     7439.961    3232.4452     1957.293    3780.2021    43.163903   -181.68784   -860.17866   -3416.2961 
13404000    196.36615   -4104.2802   -3767.7153   -4104.2802            0    3015.7303    17.336532    20.420144    21.150528    7487.5932    3055.3363    2262.2178    3729.6368   -588.35048    321.96312   -1689.7287    -3438.401 
13405000    205.60257   -4106.8285   -3754.4327   -4106.8285            0    2466.8684    17.355794    20.442833    21.174028    7512.5792    3076.7624     2092.572    2231.2708   -1058.2764   -903.89083    602.64633   -3484.1545 
13406000    197.54914   -4118.9298   -3780.3374   -4118.9298            0    3346.8595    17.315579    20.395465    21.124966    7460.4782    2715.9268    2311.6223    5013.0293   -239.40151   -58.409569   -696.16585   -3416.1876 
13407000    191.16065   -4093.4746   -3765.8318   -4093.4746            0    2272.7893    17.430855    20.531245    21.265602     7610.473     3651.071    1368.7784    1798.5185   -250.01793   -482.68579     46.30073   -3513.5728 
13408000    215.26985   -4132.0818   -3763.1166   -4132.0818            0     3909.274    17.342843    20.427578    21.158228    7495.7733    3734.6886     2917.797    5075.3364     40.44982   -997.05728   -205.09126    -3335.762 
13409000     209.1634   -4114.3989   -3755.8999   -4114.3989            0    3942.3331    17.319968    20.400634     21.13032     7466.152    4143.6539    5715.5839    1967.7617   -913.42355   -1645.0812    236.70887   -3326.6344 
13410000    212.40394   -4091.2325   -3727.1794   -4091.2325            0     3638.617    17.341325    20.425791    21.156376    7493.8059    3308.3596    3638.7824    3968.7089   -589.94526     -812.868   -1351.3751   -3329.5168 
13411000    193.20491   -4116.1147   -3784.9681   -4116.1147            0    3054.4195    17.404093    20.499723    21.232953    7575.4738    2151.7807     3841.643    3169.8349   -555.83112   -1230.3692   -459.43039   -3447.5143 
13412000    196.00227   -4099.7747   -3763.8335   -4099.7747            0    853.66362    17.437065    20.538559    21.273178      7618.61    557.96204    133.19272    1869.8361   -445.22553    360.84794   -923.12197   -3668.9833 
13413000    194.64737     -4083.85   -3750.2311     -4083.85            0    2881.4324    17.352111    20.438495    21.169535    7507.7972     1754.988    2749.2838    4140.0256    43.472525   -1420.3484   -87.575162   -3434.7329 
13414000    208.52769   -4120.7419   -3763.3326   -4120.7419            0    5204.3494    17.310622    20.389626    21.118919    7454.0726    5476.8164    4689.9108     5446.321   -1145.9905   -105.99446   -146.87311   -3197.5677 
13415000    201.56002   -4102.3143   -3756.8474   -4102.3143            0    4327.4182    17.360517    20.448396     21.17979     7518.714    6304.8808    3394.1358     3283.238   -1345.4729    216.99584   -462.51778   -3282.3341 
13416000    208.05719    -4094.536   -3737.9331    -4094.536            0    3257.6472    17.312963    20.392384    21.121775    7457.0975    3253.9603    3542.7595    2976.2218   -626.92374   -277.30358   -1121.1439   -3383.6506 
13417000    195.68607   -4117.6337   -3782.2344   -4117.6337            0    1173.1735    17.361176    20.449172    21.180594    7519.5702    215.28944    1715.1026    1589.1286    -1149.203   -1655.9268   -812.87431   -3653.5781 
13418000    212.35575   -4084.7902   -3720.8197   -4084.7902            0    3213.9327    17.338831    20.422853    21.153334    7490.5733    1906.0533    3982.4117    3753.3332    1821.3272    448.91805    -600.7208   -3369.7222 
13419000    217.14153   -4103.0078   -3730.8346   -4103.0078            0    3179.2915    17.386525     20.47903     21.21152    7552.5563    4241.6686    2756.5112    2539.6948   -427.08926   -1544.0421    232.95198   -3380.6475 
13420000    208.51399   -4107.4901   -3750.1042   -4107.4901            0    4967.4929    17.294155     20.37023    21.098829    7432.8206    5530.5292    5306.0769    4065.8725   -541.93438   -517.89967   -1083.0471   -3211.6277 
13421000     192.0993   -4082.5728   -3753.3211   -4082.5728            0     4118.484    17.296795     20.37334    21.102049    7436.2246    4773.4151    4748.1791    2833.8579    795.08016   -1765.0387   -652.87286   -3306.6728 
13422000    198.45521   -4099.0562   -3758.9107   -4099.0562            0    3727.1558     17.31744    20.397657    21.127236    7462.8835    4229.3154    4098.3691    2853.7828   -1491.8888   -108.51832   -1125.2028   -3353.2527 
13423000    203.43462   -4107.0017   -3758.3217   -4107.0017            0    3976.8657    17.332942    20.415917    21.146149    7482.9436    3409.8013    5744.0982    2776.6976    733.77962   -102.77774   -832.40014   -3324.3222 
13424000    192.66206   -4101.4485   -3771.2323   -4101.4485            0    2212.9896    17.360554     20.44844    21.179836    7518.7624    1119.5628    2954.9557    2564.4503   -479.23375   -2135.9906   -1772.6705   -3528.5704 
13425000    209.04837   -4112.9524   -3754.6507   -4112.9524            0    4436.0324     17.31532    20.395159     21.12465    7460.1426    3236.1937     6157.806    3914.0974    -1265.552   -185.78318   -1008.1682   -3272.0169 
13426000    192.39297   -4104.1605   -3774.4055   -4104.1605            0    4673.5308    17.324542    20.406022    21.135901    7472.0694    3764.2051    4303.4576    5952.9297   -527.88042   -519.46328    -147.8175   -3265.1193 
13427000    204.19466   -4085.7098   -3735.7272   -4085.7098            0    4416.4292    17.348421    20.434148    21.165033    7503.0085    4344.5091    4233.5514    4671.2272    -123.1641    837.55985    323.98614   -3252.4652 
13428000    210.88222    -4102.641   -3741.1961    -4102.641            0    4197.2929    17.326492    20.408319     21.13828    7474.5929    3785.7842    4719.2992    4086.7954   -299.71342   -835.38864    397.55908   -3283.6523 
13429000    202.60824   -4108.3065   -3761.0429   -4108.3065            0    3218.0174     17.34839    20.434112    21.164995    7502.9686    3039.6328     3306.919    3307.5004    215.31884    1021.4363   -432.84362   -3408.9174 
13430000    198.47689   -4101.2715   -3761.0889   -4101.2715            0    3510.8566    17.402847    20.498255    21.231432    7573.8462    3451.8073    3758.9579    3321.8048    345.75461    1148.0687   -660.70529    -3373.291 
13431000    211.43275   -4116.9095    -3754.521   -4116.9095            0    2619.6835    17.389543    20.482585    21.215202    7556.4896    3296.4994    2380.3579    2182.1933   -573.48057   -277.87791   -1547.8528   -3465.8223 
13432000    213.01593   -4091.5132   -3726.4112   -4091.5132            0    4545.1188    17.280922    20.354644    21.082685    7415.7713    4142.8571    4133.6252    5358.8741   -103.44836   -341.48167    722.69189   -3234.8502 
13433000    204.21147   -4119.1107   -3769.0992   -4119.1107            0    4692.6967    17.351852     20.43819    21.169219    7507.4613    5382.2168    4564.3441    4131.5291   -680.30218   -102.84893   -1929.0089   -3255.3024 
13434000    209.58269   -4132.9474   -3773.7299   -4132.9474            0    3087.5672    17.353419    20.440036    21.171131    7509.4956     3810.343    2965.2293    2487.1293    308.31581    462.14905   -336.92463   -3435.5848 
13435000    216.31367    -4108.649   -3737.8948    -4108.649            0    2297.1858    17.387822    20.480558    21.213103    7554.2468    4037.8941    2335.8349    517.82841   -161.49508   -368.56675    -254.5673   -3484.8117 
13436000    201.85173   -4083.1333   -3737.1663   -4083.1333            0     3064.208    17.321013    20.401866    21.131596    7467.5042    3079.5469    3274.1804    2838.8967    238.89903   -189.05233   -965.98617    -3403.456 
13437000    191.52477   -4092.4027   -3764.1358   -4092.4027            0    3485.2833    17.358652      20.4462    21.177515    7516.2913    4302.7356    2428.3091    3724.8052    349.13281     -147.457   -1352.8427   -3382.0882 
13438000    218.71335   -4105.2231   -3730.3559   -4105.2231            0    4029.0264    17.319528    20.400116    21.129784    7465.5833    3522.9568     4399.906    4164.2163    706.55765   -840.11561   -220.23258   -3291.6841 
13439000    196.40323   -4121.5085   -3784.8801   -4121.5085            0    3996.1826     17.34638    20.431744    21.162543    7500.3608    4350.8429    4007.9906    3629.7143   -295.16514    525.52008   -949.02344   -3347.7574 
13440000    209.79534   -4084.9851   -3725.4031   -4084.9851            0    5561.9039    17.352922    20.439451    21.170525    7508.8507    6846.4648    5223.3849     4615.862    815.69906    378.40714   -1105.3982   -3116.3252 
13441000    206.74434   -4102.4148   -3748.0621   -4102.4148            0    3340.9954    17.390905    20.484189    21.216863    7558.2651    2148.1161    3853.0536    4021.8166      11.6226    316.07267   -477.10561   -3379.7857 
13442000    202.07145   -4088.7427   -3742.3992   -4088.7427            0    3968.0999    17.348196    20.433884    21.164759    7502.7171    3314.7532    4466.5267    4123.0198    748.15294   -1027.3105   -986.64555   -3308.2119 
13443000    207.00406   -4096.6453   -3741.8474   -4096.6453            0    3799.5195     17.34371    20.428599    21.159286    7496.8978    3066.0682    4079.6149    4252.8753    38.869781    390.35547   -319.75966   -3326.4286 
13444000    214.36418   -4107.3951   -3739.9822   -4107.3951            0    2448.3134    17.394908    20.488904    21.221747    7563.4862     2238.333     3032.772    2073.8354   -240.71533   -200.10533   -1121.9806   -3469.9193 
13445000    203.61258   -4114.0275   -3765.0425   -4114.0275            0    3191.6667    17.359065    20.446686    21.178019    7516.8276    3857.5579    3721.3966    1996.0455   -662.83881   -501.92118   -553.53897   -3415.1553 
13446000     198.6294   -4097.6552   -3757.2112   -4097.6552            0    3913.8274    17.353871    20.440568    21.171682    7510.0819    4008.7656    4467.6193    3265.0972   -551.90907   -457.01486    395.21899   -3328.5421 
13447000    196.54624   -4089.3032   -3752.4297   -4089.3032            0    5445.2364    17.311374    20.390512    21.119836     7455.044    6326.2212    4989.9623    5019.5258    153.13493     756.0205    257.56952   -3160.4009 
13448000    204.81772   -4105.1628   -3754.1122   -4105.1628            0    1765.7274    17.415935    20.513671      21.2474    7590.9477    3107.2022    1203.2873     986.6925    1456.2738    866.48181   -762.96249   -3558.6353 
13449000    209.09578   -4097.2204   -3738.8374   -4097.2204            0    3907.7675    17.395784    20.489936    21.222816    7564.6284    4362.9395    4333.7122    3026.6509    1640.5855    132.97359   -233.60446   -3307.7233 
13450000    201.18409   -4114.0578   -3769.2351   -4114.0578            0    2046.7977    17.414594    20.512092    21.245765    7589.1945    1532.2848    2535.5953     2072.513    436.67737    1562.0109   -1476.9231   -3542.6943 
13451000    209.57387    -4110.611   -3751.4086    -4110.611            0    4225.1258    17.386896    20.479467    21.211973      7553.04    5314.6914    4785.8023    2574.8837    1840.5825    76.789815   -1005.6576   -3285.9968 
13452000    193.41456   -4082.2707   -3750.7648   -4082.2707            0    4110.9086    17.371331    20.461133    21.192983    7532.7724    6016.4635    3349.7425    2966.5197    565.21869    1053.1853     679.1687   -3299.1496 
13453000    201.96503   -4129.1233   -3782.9622   -4129.1233            0    2263.9564    17.443079    20.545643    21.280515    7626.4953    2945.1792    946.64587    2900.0441     199.2306   -461.05609   -330.16649   -3531.1545 
13454000    197.28407   -4112.5583   -3774.4201   -4112.5583            0      2420.46    17.373948    20.464215    21.196175    7536.1774    2286.7114    2688.2747    2286.3939    1865.1173    346.53397    824.65694   -3508.3936 
13455000    205.75022   -4128.9728   -3776.3239   -4128.9728            0    4548.2859    17.324325    20.405767    21.135637    7471.7888    6133.1037    4496.1283    3015.6258    1171.2821    5.9522939   -1377.9361   -3280.7046 
13456000    206.36319   -4133.9199   -3780.2205   -4133.9199            0    4223.1881    17.325342    20.406965    21.136877    7473.1045     4562.452    4594.0487    3513.0635    419.94289    868.56423   -672.78719   -3319.9455 
13457000    192.18861   -4089.5322   -3760.1275   -4089.5322            0    2874.9387    17.378103     20.46911    21.201246    7541.5865     3703.342    1605.3308    3316.1434    280.90686    766.90638    139.84814   -3443.9236 
13458000    200.12399   -4086.5189   -3743.5132   -4086.5189            0    4328.4368    17.327368    20.409351    21.139348    7475.7261    3981.6649    3744.6661    5258.9792   -156.71463   -277.19665   -772.48496    -3271.602 
13459000    201.41527   -4106.1308    -3760.912   -4106.1308            0    5663.3225    17.309133    20.387872    21.117102    7452.1489    6314.7767    4655.1155    6020.0754    103.12232   -852.83303   -911.54184    -3145.411 
13460000    202.74275   -4091.0902   -3743.5961   -4091.0902            0    3298.5167    17.364081    20.452594    21.184138    7523.3454    2682.9507    3246.3134    3966.2861    489.16445   -680.03838   -112.87273    -3381.682 
13461000    207.65135   -4130.1418   -3774.2345   -4130.1418            0    4150.3027    17.368876    20.458242    21.189988    7529.5799    4914.3897    3313.6061    4222.9122    340.59307    15.869983    157.30006   -3318.4848 
13462000    209.24884   -4129.4027   -3770.7574   -4129.4027            0    1871.5722    17.423202    20.522231    21.256266    7600.4535    1215.8875    1358.9244    3039.9048    821.02556   -553.99552    546.45793   -3563.3033 
13463000    217.05777   -4113.3913   -3741.3617   -4113.3913            0    3384.0755    17.313928     20.39352    21.122952    7458.3439    2554.8395    3430.9673    4166.4199    713.45645     165.6221   -113.79337    -3373.268 
13464000    201.65238   -4122.7292    -3777.104   -4122.7292            0    2064.6908    17.387705     20.48042     21.21296    7554.0944    1582.6882     1334.334    3277.0501    450.74415    237.88973   -1659.4765   -3549.6396 
13465000     200.1776   -4150.8209   -3807.7233   -4150.8209            0    3416.2178    17.315973    20.395929    21.125447    7460.9871    4012.4445    2624.7202    3611.4886    444.72372    1279.2696   -39.870586   -3436.0018 
13466000    198.63124    -4106.567   -3766.1198    -4106.567            0    2967.6882    17.366931    20.455951    21.187615    7527.0505    3741.2305    2833.3606    2328.4735    476.59782    655.97126   -963.12873   -3440.3439 
13467000    205.77494   -4130.4945   -3777.8033   -4130.4945            0      2679.37    17.320521    20.401286    21.130995    7466.8678    2831.1551    1579.1937    3627.7611    678.75816    217.39822   -76.151973    -3486.029 
13468000    206.90242   -4108.7984   -3754.1748   -4108.7984            0    4196.0246    17.298601    20.375467    21.104253    7438.5542    4511.6586    5268.3908    2808.0244   -983.21559    440.27009   -918.39309   -3298.9746 
13469000    210.22216   -4108.0721   -3747.7585   -4108.0721            0    2588.0223    17.370091    20.459672     21.19147    7531.1596    2534.4853    2454.3115      2775.27    979.91127   -1262.5917   -1861.4797   -3463.5051 
13470000    193.82009    -4102.703    -3770.502    -4102.703            0    4400.4201    17.305825    20.383976    21.113066    7447.8771    4545.6284    4094.5463    4561.0857     280.0145   -1405.7753   -462.29453   -3292.5299 
13471000    206.65998   -4107.7965   -3753.5884   -4107.7965            0    2577.9309    17.364689    20.453309    21.184879    7524.1351    1573.7167    3285.8407    2874.2352    707.68574     708.2645   -125.16539   -3470.7074 
13472000    191.33918   -4104.9134   -3776.9646   -4104.9134            0    3138.2335    17.329197    20.411505     21.14158    7478.0935    2207.6929    3541.9338    3665.0737    981.94889   -263.94422   -756.52946   -3434.7078 
13473000    201.89336   -4127.2542   -3781.2159   -4127.2542            0     2296.543    17.347936    20.433577    21.164442    7502.3797    2750.0314    1466.3585    2673.2391    1527.1715   -452.38037   -677.92149   -3529.9408 
13474000    205.23344   -4107.4145   -3755.6514   -4107.4145            0    3423.1191    17.287911    20.362875     21.09121    7424.7718     4614.318     3397.172    2257.8672    670.91145    566.36693    -620.0537   -3384.9869 
13475000    194.89366   -4106.3028   -3772.2618   -4106.3028            0    3179.2026    17.320285    20.401008    21.130707     7466.562    3345.2518    1062.1301    5130.2259     1460.725    740.58571   -146.07587   -3426.0716 
13476000    201.32753   -4103.2967   -3758.2282   -4103.2967            0    4323.7391    17.284179     20.35848    21.086658    7419.9647    4995.4004    3493.3342    4482.4826    914.26451    933.42026   -679.36596   -3290.3452 
13477000     218.4265   -4087.6648   -3713.2892   -4087.6648            0    2292.9079    17.356313    20.443444    21.174661    7513.2525    1150.1404    3981.8971    1746.6863    126.42785   -544.44597   -530.33841   -3462.0482 
13478000    207.93285   -4096.6557   -3740.2659   -4096.6557            0    4470.8302    17.273942    20.346423    21.074169    7406.7894    5262.8919    4380.4358    3769.1631    384.49685    449.35433    498.41558   -3257.3249 
13479000    205.30622   -4106.3235   -3754.4357   -4106.3235            0    4876.6675    17.299078    20.376028    21.104834    7439.1692    4920.4743    2911.9786    6797.5497     296.4659   -554.54181    465.27896   -3225.3531 
13480000    205.12053   -4087.5788   -3736.0092   -4087.5788            0    2112.9013    17.363001    20.451321     21.18282    7521.9411    4630.8852    243.21194    1464.6067    48.543635   -1151.0444   -116.12146   -3504.2243 
13481000    215.36477   -4119.0638   -3749.9359   -4119.0638            0    2085.1526    17.363035    20.451362    21.182863    7521.9862    2670.4556    -223.7812    3808.7834     1063.211    1050.0028   -58.510595   -3521.1938 
13482000    202.30387   -4111.6896   -3764.9477   -4111.6896            0    3527.2314    17.280386    20.354012     21.08203    7415.0806    4022.2944    2815.2826    3744.1172    966.09596    1120.6844   -65.363141   -3383.5081 
13483000    203.64885   -4128.5534   -3779.5063   -4128.5534            0    3481.4635    17.322511     20.40363    21.133423    7469.4411    4175.5144    2354.7704    3914.1056   -123.59959   -745.46122   -902.23316   -3400.2561 
13484000    207.17211   -4093.6241   -3738.5382   -4093.6241            0    5124.9553    17.287351    20.362216    21.090528    7424.0509    5043.4599    4988.1423    5343.2637    643.46384    766.91565   -754.25973   -3183.6482 
13485000    204.29595   -4137.4106   -3787.2543   -4137.4106            0    3722.4908    17.333396    20.416451    21.146703    7483.5312    4066.7242    3472.5007    3628.2475   -528.43623     1802.134     -709.291   -3380.9831 
13486000    207.50784   -4122.5317   -3766.8704   -4122.5317            0    3891.3395    17.264869    20.335735      21.0631     7395.124     5469.817    4090.9077    2113.2937    750.82844    262.75323    40.333777   -3347.1882 
13487000    205.64944      -4126.5   -3774.0239      -4126.5            0    4284.1714    17.312685    20.392056    21.121435    7456.7379    4528.1628    3878.2972    4446.0541    1150.2483    212.63599    56.268115   -3308.1251 
13488000    203.96808   -4109.9267   -3760.3324   -4109.9267            0    2560.5939    17.348695    20.434471    21.165367    7503.3638    3281.0087    1883.8657    2516.9073   -113.48581   -1316.3978   -1092.7507   -3480.1295 
13489000    195.80606   -4100.9574   -3765.3525   -4100.9574            0    4366.7675    17.323292    20.404549    21.134375    7470.4512     6439.036    3110.3191    3550.9474    1050.9267    -816.7994    161.22376   -3289.5982 
13490000    200.21359   -4102.6336   -3759.4743   -4102.6336            0    3015.7739    17.335075    20.418428    21.148751    7485.7057    3956.2745    1933.6026    3157.4447    94.885251    288.24126   -652.08066   -3430.2382 
13491000    194.59898   -4117.3475   -3783.8115   -4117.3475            0     3798.542    17.346867    20.432318    21.163137    7500.9926    5803.0959    1450.8403    4141.6897   -173.07014     864.5506   -167.61582   -3368.2727 
13492000     206.5381   -4106.1384   -3752.1392   -4106.1384            0    3787.8054    17.334246    20.417452     21.14774     7484.632    4688.5319    3681.9082    2992.9761    400.71124   -630.00039   -840.34542   -3338.6787 
13493000    220.20923    -4116.334   -3738.9029    -4116.334            0    4104.4787    17.334118    20.417301    21.147584    7484.4663    5888.1472    2534.6775    3890.6113     61.45688    1231.3728   -856.70812   -3290.8856 
13494000    206.90131   -4098.6141   -3743.9924   -4098.6141            0    4424.0197    17.316839    20.396949    21.126503    7462.1066    4892.1863    4174.3418    4205.5311    71.605458    572.19615   -464.12144   -3262.5388 
13495000    210.98582   -4099.1798   -3737.5573   -4099.1798            0    2087.6789    17.384976    20.477205     21.20963    7550.5377    3697.1644     927.4779    1638.3945    598.21934   -895.49732    413.41951   -3507.6687 
13496000    205.56009   -4113.2288   -3760.9058   -4113.2288            0    3223.6431    17.321964    20.402986    21.132756    7468.7342    4033.1051    2396.3801    3241.4442     518.9642    946.27692   -485.46348   -3409.7743 
13497000    202.06866   -4107.4621   -3761.1234   -4107.4621            0    2110.4773    17.362146    20.450315    21.181778    7520.8308    3348.9278    1405.2933    1577.2107   -631.88051   -31.429521    -342.1916   -3529.6386 
13498000    211.53956   -4096.1688   -3733.5972   -4096.1688            0    3086.1169    17.394024    20.487862    21.220668    7562.3322    2718.2027     3218.508    3321.6399   -1523.1344     652.3961   -730.04287   -3393.2329 
13499000    187.26705   -4095.9197   -3774.9504   -4095.9197            0    3253.1005    17.350557    20.436664    21.167639    7505.7805    2776.6948    2820.1886    4162.4181    -788.4585    778.30639    314.69956   -3418.8526 
13500000     208.4113   -4072.8331   -3715.6233   -4072.8331            0    3328.9715    17.361616     20.44969    21.181131    7520.1418    4589.3198    3343.5407    2054.0539    273.42146    236.78098    922.35368   -3350.5232 
Loop time of 415.439 on 64 procs for 250000 steps with 864 atoms

Performance: 103.986 ns/day, 0.231 hours/ns, 601.773 timesteps/s
193.2% CPU use with 32 MPI tasks x 2 OpenMP threads

MPI task timing breakdown:
Section |  min time  |  avg time  |  max time  |%varavg| %total
---------------------------------------------------------------
Pair    | 26.674     | 32.092     | 40.465     |  62.4 |  7.72
Bond    | 0.90408    | 1.0869     | 1.5668     |  11.7 |  0.26
Kspace  | 192.48     | 199.53     | 210        |  30.4 | 48.03
Neigh   | 2.3263     | 2.5489     | 2.8188     |  11.3 |  0.61
Comm    | 73.808     | 80.999     | 85.142     |  35.9 | 19.50
Output  | 0.57293    | 0.57428    | 0.57583    |   0.1 |  0.14
Modify  | 76.635     | 78.798     | 82.435     |  15.2 | 18.97
Other   |            | 19.81      |            |       |  4.77

Nlocal:        27.0000 ave          32 max          20 min
Histogram: 2 1 3 1 3 7 4 3 4 4
Nghost:        2466.50 ave        2513 max        2418 min
Histogram: 2 3 3 6 1 4 5 1 3 4
Neighs:        8219.41 ave       11048 max        6418 min
Histogram: 4 2 7 7 1 5 1 3 1 1

Total # of neighbors = 263021
Ave neighs/atom = 304.42245
Ave special neighs/atom = 2.0000000
Neighbor list builds = 7134
Dangerous builds = 0

unfix		3
unfix		2
unfix		1

write_data	data.final.${pid}
write_data	data.final.1
System init for write_data ...
PPPM initialization ...
  extracting TIP4P info from pair style
  using 12-bit tables for long-range coulomb (../kspace.cpp:340)
  G vector (1/distance) = 0.37396687
  grid = 24 24 25
  stencil order = 5
  estimated absolute RMS force accuracy = 0.0031047257
  estimated relative force accuracy = 9.3497893e-06
  using double precision FFTW3
  3d grid and FFT values/proc = 3822 576
Last active /omp style is kspace_style pppm/tip4p/omp
WARNING: Not all mixed pair coeffs generated from mixing. Use write_data with 'pair ij' option to store all pair coeffs. (../write_data.cpp:312)

write_restart   restart.lmp.${pid}
write_restart   restart.lmp.1
System init for write_restart ...
PPPM initialization ...
  extracting TIP4P info from pair style
  using 12-bit tables for long-range coulomb (../kspace.cpp:340)
  G vector (1/distance) = 0.37396687
  grid = 24 24 25
  stencil order = 5
  estimated absolute RMS force accuracy = 0.0031047257
  estimated relative force accuracy = 9.3497893e-06
  using double precision FFTW3
  3d grid and FFT values/proc = 3822 576
Last active /omp style is kspace_style pppm/tip4p/omp
Total wall time: 0:06:55
