LAMMPS (30 Jul 2021)
Processor partition = 1
  using 1 OpenMP thread(s) per MPI task
using multi-threaded neighbor list subroutines
variable        pid world 0 1
variable        phase world IceII IceIII

shell cd ${phase}
shell cd IceIII
include Restart.lmp
echo both
log log.lammps
#include		in.partitions
include		in.temp
variable        temperature equal 132.85
variable	tempDamp equal 100.0
include		in.pressure
variable        pressure equal 7418.8
variable        pressureDamp equal 1000.0 # This is 1 ps
include		in.seed
variable        seed equal 745823

units		real
atom_style	full

read_restart	restart.lmp.${pid}
read_restart	restart.lmp.1
Reading restart file ...
  restart file = 30 Jul 2021, LAMMPS = 30 Jul 2021
  restoring atom style full from restart
  orthogonal box = (0.13658565 0.039381943 0.19571643) to (19.863415 19.960619 20.504282)
  4 by 4 by 4 MPI processor grid
  restoring pair style lj/cut/tip4p/long/omp from restart
  restoring bond style harmonic/omp from restart
  restoring angle style harmonic/omp from restart
  972 atoms
  648 bonds
  324 angles
Finding 1-2 1-3 1-4 neighbors ...
  special bond factors lj:    0        0        0       
  special bond factors coul:  0        0        0       
     2 = max # of 1-2 neighbors
     1 = max # of 1-3 neighbors
     1 = max # of 1-4 neighbors
     2 = max # of special neighbors
  special bonds CPU = 0.009 seconds
  read_restart CPU = 0.022 seconds
include 	in.setup
variable	out_freq equal 1000
variable	out_freq2 equal 10000
variable	out_freq3 equal 1000

timestep	2.0

neigh_modify    delay 7 every 1

include		in.tip4p
# This is TIP4P/Ice

# create groups ###
group ox type 2
324 atoms in group ox
group hy type 1
648 atoms in group hy

# set charges - beside manually ###
set group ox charge -1.1794
Setting atom values ...
  324 settings made for charge
set group hy charge 0.5897
Setting atom values ...
  648 settings made for charge

# ### TIP3P Potential Parameters ###
pair_style lj/cut/tip4p/long/omp 2 1 1 1 0.1577 8.5
pair_coeff 1 1*2 0.000 0.000
pair_coeff 2 2 0.21084 3.1668
bond_style  harmonic
bond_coeff  1 450 0.9572
angle_style harmonic
angle_coeff 1 55 104.52
kspace_style pppm/tip4p/omp 1.0e-5
pair_modify tail yes

thermo          ${out_freq}
thermo          1000
thermo_style    custom step temp pe etotal epair emol press lx ly lz vol pxx pyy pzz pxy pxz pyz enthalpy

restart 	${out_freq3} restart.lmp.${pid} restart2.lmp.${pid}
restart 	1000 restart.lmp.${pid} restart2.lmp.${pid}
restart 	1000 restart.lmp.1 restart2.lmp.${pid}
restart 	1000 restart.lmp.1 restart2.lmp.1


include         in.dump
dump            myDump all atom ${out_freq2} dump.water.${pid}
dump            myDump all atom 10000 dump.water.${pid}
dump            myDump all atom 10000 dump.water.1
dump            myDump2 all dcd ${out_freq2} dump.dcd
dump            myDump2 all dcd 10000 dump.dcd
dump_modify     myDump append yes
dump_modify     myDump2 append yes


variable natoms 	equal  "count(all)"                        # NUMBER ATOMS
variable H      	equal  "enthalpy/v_natoms"                 # ENTHALPY-per-atom
variable Vol      	equal  "vol/v_natoms"                 # volume-per-atom
fix AVG all 		ave/time ${out_freq} 1 ${out_freq} v_Vol v_H file vol_enthalpy.dat
fix AVG all 		ave/time 1000 1 ${out_freq} v_Vol v_H file vol_enthalpy.dat
fix AVG all 		ave/time 1000 1 1000 v_Vol v_H file vol_enthalpy.dat


timer           timeout 02:55:00 every 1000
New timer settings: style=normal  mode=nosync  timeout=02:55:00

fix 		1 all shake 1e-6 200 0 b 1 a 1
Finding SHAKE clusters ...
       0 = # of size 2 clusters
       0 = # of size 3 clusters
       0 = # of size 4 clusters
     324 = # of frozen angles
  find clusters CPU = 0.001 seconds
fix             2 all nph aniso ${pressure} ${pressure} ${pressureDamp}
fix             2 all nph aniso 7418.8 ${pressure} ${pressureDamp}
fix             2 all nph aniso 7418.8 7418.8 ${pressureDamp}
fix             2 all nph aniso 7418.8 7418.8 1000
fix             3 all temp/csvr ${temperature} ${temperature} ${tempDamp} ${seed}
fix             3 all temp/csvr 132.85 ${temperature} ${tempDamp} ${seed}
fix             3 all temp/csvr 132.85 132.85 ${tempDamp} ${seed}
fix             3 all temp/csvr 132.85 132.85 100 ${seed}
fix             3 all temp/csvr 132.85 132.85 100 745823


run             250000
PPPM initialization ...
  extracting TIP4P info from pair style
  using 12-bit tables for long-range coulomb (../kspace.cpp:340)
  G vector (1/distance) = 0.37238981
  grid = 24 24 24
  stencil order = 5
  estimated absolute RMS force accuracy = 0.0034820091
  estimated relative force accuracy = 1.0485967e-05
  using double precision FFTW3
  3d grid and FFT values/proc = 2197 216
Last active /omp style is kspace_style pppm/tip4p/omp
Neighbor list info ...
  update every 1 steps, delay 7 steps, check yes
  max neighbors/atom: 2000, page size: 100000
  master list distance cutoff = 10.8154
  ghost atom cutoff = 10.8154
  binsize = 5.4077, bins = 4 4 4
  1 neighbor lists, perpetual/occasional/extra = 1 0 0
  (1) pair lj/cut/tip4p/long/omp, perpetual
      attributes: half, newton on, omp
      pair build: half/bin/newton/omp
      stencil: half/bin/3d
      bin: standard
Setting up Verlet run ...
  Unit style    : real
  Current step  : 21750000
  Time step     : 2
  Walltime left : 2:54:59.90
Per MPI rank memory allocation (min/avg/max) = 9.225 | 9.227 | 9.229 Mbytes
Step Temp PotEng TotEng E_pair E_mol Press Lx Ly Lz Volume Pxx Pyy Pzz Pxy Pxz Pyz Enthalpy 
21750000    135.13878   -4958.1055    -4697.479   -4958.1055            0    8250.0774     19.72683    19.921237    20.308565    7980.9178    9243.8633    6765.8817    8740.4872   -355.45933    1150.9151    498.49744   -3737.2236 
21751000    129.00202   -4966.9333    -4718.142   -4966.9333            0    7341.6905    19.488023    20.019562    20.458091     7981.554    6733.5745    6477.4186    8814.0784   -30.615418   -985.12599    258.50253   -3863.5488 
21752000     138.2179   -4972.6887   -4706.1238   -4972.6887            0    8280.2054    19.661972    19.490702    20.620162    7902.1747    9644.4178    7609.1562    7587.0421    278.03155    473.09071   -1241.3096   -3751.8706 
21753000    133.99781   -4982.3342   -4723.9082   -4982.3342            0    6683.2162    19.537299    19.889492    20.615134    8010.7721    7768.5811    5713.5858    6567.4816   -87.847445    129.01856    1453.9252   -3943.1154 
21754000    126.64261   -4981.0627   -4736.8217   -4981.0627            0    7138.1561    19.885371    19.769475    20.374448    8009.6713    5162.1723    8311.8428    7940.4531    629.72583   -482.45576   -1486.6508   -3902.9935 
21755000    129.85397   -4967.9966   -4717.5623   -4967.9966            0    6250.1097    19.769162    19.803128    20.456105    8008.3864     5533.166    7264.5736    5952.5896    203.91877    565.50864   -13.408876   -3987.5863 
21756000    134.20607   -4963.7743   -4704.9466   -4963.7743            0    7575.4985    19.644243    19.897824    20.377327    7965.0427    8069.7074    7204.9304    7451.8578   -250.35727    1316.7007    251.09175   -3824.9617 
21757000    130.69004   -4966.4994   -4714.4526   -4966.4994            0    7077.1656    19.720088     19.73956    20.512482    7984.8086    7678.5447    6717.5517    6835.4004   -284.06866    560.34166   -567.46333    -3890.315 
21758000    133.65551   -4969.3577   -4711.5918   -4969.3577            0    7672.3322     19.67345    19.901423    20.349046     7967.255    6867.6124    7661.2833    8488.1009   -93.378965   -1577.3462    -403.1023    -3820.111 
21759000    142.70937   -4972.9342   -4697.7072   -4972.9342            0    9301.7459    19.816755    19.779508     20.29742    7955.8915    9257.2344    8975.8726    9672.1307      126.417    426.83976   -395.66065   -3618.4394 
21760000    133.92539   -4970.6495   -4712.3631   -4970.6495            0    7133.5936    19.941686    19.753286    20.347152    8015.0245    6103.5863    7908.9038    7388.2909   -207.72458    119.78584    456.59139   -3878.5108 
21761000    129.12381   -4971.3036   -4722.2775   -4971.3036            0    7735.4204    19.649678    19.860253    20.505539    8002.2368    6957.2124    8659.4109     7589.638    203.58447    1415.8217    868.28587   -3819.5198 
21762000    137.49518   -4962.3488   -4697.1778   -4962.3488            0    6815.1931    19.700591    19.839343     20.57649    8042.2546    6336.4555    7181.3581    6927.7657    409.21464   -994.37734   -1033.1668   -3897.8372 
21763000    134.63639   -4958.3851   -4698.7275   -4958.3851            0     7711.922    19.689259    19.754464    20.577639    8003.6881    7342.6653    9377.6786    6415.4221    142.93821     1225.279   -341.53458   -3798.5489 
21764000    128.49805   -4982.4358   -4734.6165   -4982.4358            0    5570.6849    19.861453     19.75541    20.620372     8090.839      5457.64    5741.9948      5512.42   -118.60464    1571.5829    593.95394   -4077.2947 
21765000    131.21921    -4978.771   -4725.7037    -4978.771            0    7164.4828    19.952862    19.733207    20.385592    8026.4999    6201.3688    7524.8348    7767.2448   -148.00223   -764.44938   -308.45126   -3887.0418 
21766000    131.15428   -4972.4799   -4719.5378   -4972.4799            0    5942.1214    19.888301    19.930725    20.282093    8039.5837    5993.7379     4496.341    7336.2855   -8.6122587   -1142.7748    105.66065   -4022.8295 
21767000    135.02343   -4980.5923   -4720.1882   -4980.5923            0    7544.3048    19.863714    19.754089    20.429532    8016.3352    8478.4486    6420.2838     7734.182    8.7281274    107.29244   -342.07107   -3838.1834 
21768000    135.58176   -4990.4991   -4729.0183   -4990.4991            0    7306.9716    19.646669    19.901707    20.406445    7978.9655    6607.1162     7400.124    7913.6747    70.194884    187.50928    1057.6676   -3878.7424 
21769000    127.89279   -4963.1193   -4716.4673   -4963.1193            0     7852.793    19.810559     19.74911    20.395685    7979.6262    8123.0001    8294.2236    7141.1552    194.19402    234.01008    -1253.741   -3802.6012 
21770000    137.70969   -4991.5117    -4725.927   -4991.5117            0     7625.625    19.761084    19.792209    20.458138    8001.4949    6696.7186    8863.9015     7316.255    100.95738    661.01471   -318.59606   -3836.0654 
21771000    131.80645   -4988.4107   -4734.2108   -4988.4107            0    6879.1366    19.655605    19.931054     20.47409    8020.8667    9245.9062    4441.3809    6950.1228   -329.79584   -565.03207    347.63018   -3929.5162 
21772000    135.92167   -4974.4688   -4712.3324   -4974.4688            0    8123.3784    19.713389    19.840202    20.410099    7982.7495    9171.8506    6768.1067    8430.1778   -617.28967    1145.1823    -380.4554   -3766.6069 
21773000    127.69111   -4977.3993   -4731.1362   -4977.3993            0     7206.149    19.632463    20.009488    20.342398    7991.2168    7402.0215    5464.2138    8752.2117   -334.91841    208.95383   -538.58215    -3891.305 
21774000    140.66453   -4963.7787   -4692.4953   -4963.7787            0    7192.1777    19.865975    19.857549    20.346626    8026.5318    7318.5864    7109.9006     7148.046    159.47762    668.12267   -578.09935   -3850.5881 
21775000    136.21468   -4961.3782   -4698.6768   -4961.3782            0    7521.1283    19.700447    19.847679    20.350161    7957.0786    8020.3525    7004.5565    7538.4758   -222.60655   -141.66555    46.996329   -3825.8812 
21776000    137.16372   -4964.8957   -4700.3639   -4964.8957            0    8703.7546    19.831296    19.797637    20.347438    7988.6646      8360.21    9339.8843    8411.1697  -0.67115769   -53.274568    659.59481   -3686.3201 
21777000    138.29568   -4965.3604   -4698.6456   -4965.3604            0    6798.1886    19.544489    19.819021    20.631383    7991.6206    6634.3739    7210.0107    6550.1813   -608.03061    290.05091     820.5244   -3906.3195 
21778000    131.75311   -4979.0376   -4724.9406   -4979.0376            0    8721.8381    19.762897    19.748331    20.444772    7979.2722    8220.9179    10102.937    7841.6596   -211.79796    644.63522   -231.83893   -3709.9847 
21779000    136.15946    -4971.275     -4708.68    -4971.275            0    7494.0046    19.764615    19.795469    20.360224    7965.9341    6315.3114    8126.3511    8040.3514   -230.33631    859.64333    795.84797   -3838.0642 
21780000    136.46433   -4976.1024   -4712.9195   -4976.1024            0     6936.027    19.691087     19.93337    20.430583    8019.2021    7937.3548     5569.369    7301.3571   -334.95442    -1541.737    507.23882   -3901.7384 
21781000    135.30731   -4957.2409   -4696.2894   -4957.2409            0    8015.3994     19.58918    19.744169    20.566338    7954.4854    8333.7942    8361.7243    7350.6798   -107.11793    539.70579   -46.715816   -3766.4388 
21782000    137.59815   -4978.7157   -4713.3461   -4978.7157            0    5690.9668    19.812251    19.865278    20.406434    8031.4801    5402.5186    5065.1469    6605.2348   -291.40467     465.8839   -28.811647    -4046.758 
21783000    135.39985   -4968.7581   -4707.6281   -4968.7581            0    7546.6107    19.796089    19.793135    20.342071    7970.5658    7911.2563    7329.3955    7399.1803   -439.54625    -255.4981   -213.11506    -3830.391 
21784000    128.33506   -4971.3021   -4723.7971   -4971.3021            0    7574.0833    19.800463    19.805451    20.312214     7965.579    7914.3912    7245.9115    7561.9471   -243.18175    148.75432   -325.40551   -3843.9174 
21785000    129.30749   -4985.5393    -4736.159   -4985.5393            0    8407.4303     19.64815    19.882089    20.335596    7944.0246    8378.9993    8473.1542    8370.1373   -214.49685    776.36159    1011.4837   -3762.1124 
21786000    132.12153    -4993.215   -4738.4075    -4993.215            0     7291.784    19.770875    19.840925    20.480168    8033.8057    7579.6614    7633.5377     6662.153    116.12302    795.18844    772.80478   -3884.0669 
21787000    131.65835   -4969.6942     -4715.78   -4969.6942            0    8680.4106    19.632594    19.753741    20.569514    7977.2108    8723.6024    8018.3123     9299.317    491.03406   -315.11865    330.23601   -3705.9059 
21788000     134.5635    -4972.859    -4713.342    -4972.859            0    6207.2079    19.827725    19.850724    20.469723    8056.7745    6236.8416    6213.6513    6171.1308   -24.886838    666.78469    -204.7123   -3983.9963 
21789000    127.33084   -4976.2544   -4730.6862   -4976.2544            0    6461.6129    19.814063    19.818174    20.445964    8028.6911    6273.2538    7014.3376    6097.2474    390.73821   -687.91878    424.30339   -3974.0945 
21790000    137.53489   -4985.7129   -4720.4653   -4985.7129            0    6443.9806    19.656176    19.761168    20.555714    7984.4356    7249.0066    5679.9989    6402.9361   -367.24989   -145.29918   -96.088988   -3970.0973 
21791000    134.97247   -4970.2903   -4709.9845   -4970.2903            0    7231.5748    19.691796    19.681574    20.576256    7974.6481    6690.0054    7859.6402    7145.0787   -131.48742    884.83205   -276.22428   -3868.9374 
21792000    130.47859   -4971.6134   -4719.9745   -4971.6134            0    6521.3422     19.70411    19.699163    20.538899    7972.2655    6882.9734      7325.46    5355.5932   -282.91225    93.633513    67.125521   -3961.7555 
21793000    132.51544    -4964.312   -4708.7448    -4964.312            0    7149.6221    19.679266    19.977573    20.341716    7997.2228    7067.6552    6839.2441     7541.967    305.84862   -485.29818    900.27971   -3874.8752 
21794000    133.69613   -4989.6604   -4731.8162   -4989.6604            0    6765.9908    19.733526    19.784203    20.411857    7969.0361    7542.0206    6546.5314    6209.4205   -591.80013    655.20439    493.70609   -3945.4713 
21795000    125.02037   -4975.8776   -4734.7653   -4975.8776            0    6970.5423    19.952469    19.853414    20.201136    8002.1675     7083.599    5832.0284    7995.9995   -25.795216    328.72373    547.80276   -3921.2793 
21796000      130.274   -4979.2856   -4728.0412   -4979.2856            0    6897.9365    19.913395    19.681687    20.429876    8007.0647    6869.0052    6111.5696    7713.2346   -401.58099    476.10626   -330.90174   -3922.5359 
21797000    135.73302   -4979.6798   -4717.9073   -4979.6798            0    7722.9949    19.737115     19.74063    20.383946    7942.0559    5651.9253    9961.2062    7555.8533   -32.814425    869.20054    -444.9364   -3823.3779 
21798000    121.57947   -4963.2325   -4728.7563   -4963.2325            0    7970.2047    19.710486    19.883308    20.336876    7970.2183    9367.4482    6093.0679    8450.0979   -579.83831   -459.39012    492.07898     -3802.32 
21799000    135.44989   -4968.4487   -4707.2222   -4968.4487            0    7887.0239    19.718381     19.89435    20.277285    7954.4619    8373.3386    6359.5335    8928.1997   -353.13597    393.72834   -231.33476   -3792.2669 
21800000    126.81656   -4974.0468   -4729.4704   -4974.0468            0    8573.5162    19.781484    19.736347     20.49142    8000.1417    7535.8957    9816.6772    8367.9757    -370.9528   -238.47419    1065.2859   -3729.1652 
21801000    138.49586   -4951.3058   -4684.2049   -4951.3058            0    7846.5989    19.801442    19.744222    20.479701    8006.8269    7350.6642    8414.5049    7774.6275    210.42946    93.301262     311.0382   -3767.9469 
21802000    128.16399   -4973.8061   -4726.6311   -4973.8061            0    8181.7433    19.731653    19.870821     20.37417    7988.3888    8304.0019    7162.2598    9078.9684    11.846676    140.94436    223.07585   -3773.4379 
21803000    126.84108   -4979.5215   -4734.8978   -4979.5215            0    7344.1286     19.61573    19.821717    20.488821    7966.4112    7831.3478    6729.8761     7471.162   -94.424681    1022.1494    248.42811   -3881.6427 
21804000    132.29808   -4962.6308   -4707.4828   -4962.6308            0    7175.0388    19.829846     19.73536    20.511571    8027.1859    7147.8499    6690.0424     7687.224   -157.08747   -443.30394   -145.77408   -3867.5134 
21805000    135.96738    -4973.675   -4711.4505    -4973.675            0    7970.8389    19.673863    19.724692    20.476489    7946.1246    8320.9869    8281.3785    7310.1512    114.91416    547.36118   -205.31158   -3787.7413 
21806000    139.31446   -4966.0343   -4697.3547   -4966.0343            0    7474.0198    19.881875    19.780081    20.344632    8000.8333    7580.3073    6783.2938    8058.4583   -933.87161   -451.32754    109.90454   -3825.2566 
21807000    130.59774   -4986.5533   -4734.6846   -4986.5533            0    6829.9247    19.772033     19.81469    20.392508    7989.3094    6809.0601    6326.7199     7353.994    117.30798    583.54371    231.85327   -3938.8899 
21808000    135.96188   -4976.4186   -4714.2047   -4976.4186            0    8010.3512    19.633692    19.799076    20.541243    7984.9758    8191.1904    8283.0925    7556.7707   -780.83905    228.31526   -953.27559   -3781.3778 
21809000    133.63623   -4983.0967   -4725.3679   -4983.0967            0    7848.1417    19.874062    19.864491    20.301204    8014.6741    7390.4989    7608.2679    8545.6584    843.43187    408.23736   -732.27903   -3808.0316 
21810000    135.12815   -4974.8349   -4714.2289   -4974.8349            0     6936.632    19.639516    19.907129    20.320816    7944.7559    5120.3986    7407.4928    8282.0046   -303.40563    1158.8327    548.09512   -3910.5082 
21811000    130.69725   -4960.8063   -4708.7457   -4960.8063            0    8007.1387    19.668929    19.757553     20.46797    7954.0562    7475.1294    9006.6054    7539.6813    232.34114    1351.7575   -617.42906   -3779.9036 
21812000    139.47897   -4965.7326   -4696.7356   -4965.7326            0    6578.8228    19.711426    19.867674    20.457113    8011.4181    6152.9648    6890.0271    6693.4764   -550.21492   -919.32263    114.80705   -3928.0771 
21813000    138.72331   -4971.8463   -4704.3067   -4971.8463            0    8229.6138     19.68875     19.82831    20.458547     7986.907    9177.2025    6605.2444    8906.3945    -279.4137    396.57808   -109.99131   -3745.7143 
21814000    132.89424   -4974.2056   -4717.9078   -4974.2056            0    7631.6482    19.757015    19.724821    20.549569    8008.2408     7275.868    7700.0388     7919.038   -383.65501   -747.82386    591.05003   -3826.5926 
21815000    134.21041   -4983.1911    -4724.355   -4983.1911            0    6928.4939    19.665937    19.851418    20.502546    8004.1272    7541.3686    6496.2062     6747.907    181.77894     901.4414   -501.97368   -3915.5781 
21816000    143.30815    -4970.997   -4694.6152    -4970.997            0    8550.0883     19.83303    19.823079    20.248032    7960.5483    8475.3091    7855.7308     9319.225   -316.32127    704.29773   -93.969912   -3701.9805 
21817000    129.15733   -4975.8433   -4726.7525   -4975.8433            0    7658.5527    19.852691     19.89573    20.294125    8015.8503    8187.6008    6492.4265    8295.6309   -179.65467    483.30798   -90.944097   -3831.4451 
21818000    131.08917   -4971.0659   -4718.2494   -4971.0659            0    7867.7768    19.774508    19.678699    20.483266    7970.7882    8554.3061      7681.55    7367.4743   -331.58213    417.39491    728.47118   -3803.6537 
21819000    128.74603   -4985.5559   -4737.2584   -4985.5559            0    7193.4905    19.944888    19.664536    20.360707    7985.6114    4988.2222     8058.604    8533.6454    499.06563    6.6802767   -131.25618   -3899.4904 
21820000    133.28606   -4963.9131   -4706.8597   -4963.9131            0    7641.9188    19.821491    19.863042    20.195574    7951.3025    6982.7032    6939.7558    9003.2973   -180.24546   -600.26119   -845.99934   -3820.6906 
21821000    132.05118   -4966.0197   -4711.3479   -4966.0197            0    7613.1138    19.815324    19.673044    20.501237    7991.9509    8110.4211    7467.8347    7261.0854    219.84174    808.07433   -25.571273    -3824.006 
21822000    143.83741   -4967.6871   -4690.2846   -4967.6871            0    6812.4326    19.588131     19.97727    20.483895    8015.7042    7986.0966     6424.522    6026.6791   -152.07419    840.49131    140.11351   -3893.9056 
21823000    131.00594   -4991.6598   -4739.0039   -4991.6598            0    7602.5299    19.745487    19.713729    20.539487    7995.1425    6987.9631    7761.8179    8057.8088    18.450497   -38.165577    322.93781   -3852.5416 
21824000    136.67724   -4996.8228   -4733.2293   -4996.8228            0     6458.645      19.7303    19.788502    20.477759     7995.195    6927.6167    6219.2432     6229.075    275.52898    60.693827    44.672282   -3980.1401 
21825000    133.21516   -4982.7903   -4725.8737   -4982.7903            0    8397.4063    19.807452    19.788452    20.389351    7991.7856    7768.8279     9258.475    8164.9161   -801.23828    869.84364    154.25924   -3747.1392 
21826000    136.51087   -4984.7363   -4721.4636   -4984.7363            0    7052.1123    19.869496    19.769122    20.366769    8000.1177    6306.1423    7418.0153    7432.1791    404.15066     36.68219    426.13237   -3898.6689 
21827000    130.02549   -4990.5131   -4739.7481   -4990.5131            0    6980.4119     19.85444    19.901637    20.200794    7982.0584    6824.2028    5417.3282    8699.7048   -69.657998    844.03505   -83.948075   -3927.1574 
21828000    134.85775   -4963.4391   -4703.3546   -4963.4391            0     6613.865    19.818404    19.720471    20.534528    8025.4741    6590.0515    5747.5863     7503.957   -402.92798    420.75346   -813.30005    -3929.246 
21829000    132.69085   -4989.8274   -4733.9219   -4989.8274            0    6421.0744    19.782964    19.776389    20.534569     8033.854    6304.4719    7022.4456    5936.3059    -236.5313   -830.44158   -932.91763   -3981.5934 
21830000     136.7269   -4969.1332   -4705.4438   -4969.1332            0    7294.1461    19.893821    19.710144    20.409431    8002.7433     5077.636    9101.2075    7703.5948   -84.584688     461.8933    -762.0089   -3854.1309 
21831000    137.04621   -4974.3119   -4710.0067   -4974.3119            0    7116.7279    19.833132    19.772306    20.332363    7973.2701    8433.1295    6108.7707    6808.2835    -14.54646    434.16361   -395.75729   -3882.4596 
21832000    126.45982   -4971.8061   -4727.9177   -4971.8061            0      8477.57    19.911127    19.706061    20.344561    7982.5928    7415.7186     8940.191    9076.8002      -504.39    451.84388   -243.63538   -3740.9766 
21833000    133.83511   -4969.3034   -4711.1911   -4969.3034            0    6889.2674    19.790153    19.893461    20.380026    8023.5067    7825.5015    6085.2704    6757.0303     7.931435    996.80426    110.88726   -3905.0462 
21834000    134.70095    -4960.193   -4700.4108    -4960.193            0    7078.7891     19.85893    19.853461     20.32199    8012.3202    6559.9474    6597.9279     8078.492    107.00503   -1137.8079    1046.9887   -3873.2439 
21835000    129.60516   -4978.0006   -4728.0462   -4978.0006            0    7540.2859    19.721497    19.850879    20.392618    7983.4866    8456.4472    7157.0797    7007.3309    401.89026   -127.95868    546.02446   -3850.1234 
21836000     127.8204   -4970.8984    -4724.386   -4970.8984            0    6661.6136    19.626393    19.782734    20.606047    8000.5804    8417.3712    5048.7744    6518.6952   -45.725175    228.89192    779.52482   -3947.1072 
21837000    128.32893   -4968.9785   -4721.4854   -4968.9785            0    7776.7659    19.798816    19.583438    20.592163    7984.1761    8628.6374    7645.3994    7056.2609   -61.954092   -449.90374   -581.03797   -3815.9508 
21838000    133.95339   -4972.8355   -4714.4952   -4972.8355            0    8034.8143    19.637361    19.750782    20.534208     7964.259    8361.4643     8791.237    6951.7416   -331.65261    670.34265    97.900787   -3781.2471 
21839000    125.99399   -4984.1318   -4741.1418   -4984.1318            0    8491.8797    19.871866    19.722546    20.384986    7989.3614    6703.2326     9690.397    9082.0095    125.21617   -14.719866   -157.63762   -3751.6964 
21840000    130.81507   -4976.7251   -4724.4372   -4976.7251            0    7079.8168    19.652791    19.950728    20.376165    7989.2394    7482.4943    5305.1806    8451.7755   -395.25101    527.89311    1180.3477   -3899.5333 
21841000    125.24949   -4970.2496   -4728.6955   -4970.2496            0    7540.7215    19.741229    19.911062    20.370785    8007.1208    7015.7632    7642.6373    7963.7641    129.65871     1323.211    395.85674   -3848.1229 
21842000    134.34768   -4985.4988    -4726.398   -4985.4988            0    6512.8772    19.640699    19.959321    20.466458    8023.1587    8292.7454    4463.3222    6782.5641   -80.968379   -703.84681   -185.83842   -3964.3292 
21843000    140.57917   -4981.6946   -4710.5758   -4981.6946            0    6381.1113    19.673702    19.839108    20.565557    8026.9156    6249.0853    6641.5992    6252.6494     95.83535    431.19554     1013.607   -3963.5753 
21844000    130.30323   -4967.5459   -4716.2452   -4967.5459            0    7270.1047    19.759161      19.6722    20.541115     7984.458    7908.3605     8016.699    5885.2548    284.03731    137.67255   -773.27807   -3869.6769 
21845000     124.2891   -4981.6803   -4741.9783   -4981.6803            0    6710.6954    19.851641    19.852513    20.352518    8021.0282     6615.599    6086.6935    7429.7937   -736.76799    205.50134   -342.25489   -3956.9714 
21846000    134.02532   -4977.9447   -4719.4656   -4977.9447            0    6347.4163    19.868335    19.927038    20.297677    8036.1967    4950.8506     6945.855    7145.5433    60.272711   -136.49585   -984.34392   -3975.5504 
21847000    135.93526   -4980.4726   -4718.3101   -4980.4726            0    6855.4397    19.726084    19.876418    20.412265    8003.3201    7649.0014    6070.3566    6846.9611    160.52889    1358.0247   -1328.8782   -3918.1417 
21848000    135.72362   -4982.7378   -4720.9834   -4982.7378            0    7031.6227    19.861515    19.785074    20.326365    7987.4798    6364.0539    7303.7338    7427.0802    174.66307    491.42383   -1144.6286   -3901.8753 
21849000    136.21263    -4982.787   -4720.0894    -4982.787            0    7625.4719    19.652539    19.785749    20.521794    7979.6988    8047.2408    7235.0025    7594.1724   -53.150182    1054.3548     68.78467   -3832.6696 
21850000    130.21844     -4967.73   -4716.5928     -4967.73            0    7604.0938    19.712819    19.715118     20.55341    7987.8884    7899.1379    7838.3107    7074.8327   -567.14421    5.8124569    717.48683   -3830.7527 
21851000    131.21141   -4989.8243   -4736.7721   -4989.8243            0    7905.0514    19.686501    19.809136    20.390523    7951.7447    7955.2454    8210.2219     7549.687   -226.96146    212.66018   -839.08985   -3820.0387 
21852000    131.62334   -4976.0904   -4722.2437   -4976.0904            0    7513.2594    19.836911     19.83191    20.390172    8021.5719    7276.7373    7419.8529     7843.188    386.02348    237.36048   -917.84145   -3843.2945 
21853000    137.06028   -4974.5407   -4710.2084   -4974.5407            0    6551.8992      19.8361    19.749525     20.48094    8023.4808    5875.4867    6904.7236    6875.4873    85.749812    296.95288   -218.02855   -3943.5429 
21854000    140.94563   -4980.5024   -4708.6769   -4980.5024            0    8168.4977    19.541769    19.812563    20.574299    7965.8034    9472.3307    7150.9917    7882.1707    77.334933    1080.9832    588.11823   -3759.7174 
21855000    134.94351   -4954.7679    -4694.518   -4954.7679            0    8192.4098    19.718891    19.808919    20.441135    7984.5097    7150.5663      10112.4     7314.263    150.19123    -150.0477    460.30843   -3740.5456 
21856000    131.66783   -4991.1276   -4737.1951   -4991.1276            0    6335.5294     19.72576    19.832445    20.569671    8047.0618    6176.0133    7163.2306    5667.3444   -209.51473   -567.20513    618.28911   -3993.6692 
21857000    130.80724   -4965.8357   -4713.5629   -4965.8357            0    8455.4595    19.626199    19.785624    20.536926    7974.8291    8117.6899    8569.9239    8678.7648   -317.29173    28.629326   -618.88624   -3730.1532 
21858000    133.40129   -4970.3722   -4713.0966   -4970.3722            0    6310.8933    19.743487    19.896561    20.450611     8033.562    6585.8355    6378.4779    5968.3665    122.17025   -141.25851     677.2356   -3973.7043 
21859000    132.79928   -4975.0699   -4718.9553   -4975.0699            0    6819.3256    19.673253    19.915138    20.470984    8020.4403    6504.1851    6541.2102    7412.5815   -5.4284001    402.34744    916.21521   -3921.2995 
21860000    134.75332   -4963.0697   -4703.1866   -4963.0697            0    8030.9066    19.866599    19.694883    20.453269    8002.7576    8721.5032    7808.6683    7562.5482    100.98292   -733.15514    205.94063   -3765.8834 
21861000    139.68081   -4978.0942    -4708.708   -4978.0942            0    7344.0045    19.759337    19.721457    20.561529    8012.4767    8083.1666    7409.9212    6538.9256   -150.56377    1716.8479    65.916098   -3850.5335 
21862000    134.54286   -4968.7968   -4709.3196   -4968.7968            0    7329.3648    19.893301    19.676703      20.4521    8005.6589    6768.0234    7558.3031    7661.7679   -460.33667    751.02676   -426.70438   -3853.5846 
21863000    134.43591   -4991.4568   -4732.1859   -4991.4568            0    8253.2608    19.882289    19.731714    20.368651    7990.8592    6537.5995    9037.9945    9184.1883   -71.858457   -499.79018     1354.435   -3770.3634 
21864000    138.60832   -4977.5537   -4710.2359   -4977.5537            0    7846.9807    19.891285    19.789844    20.262643    7976.2967    6598.7033    8337.9253    8604.3134   -169.60718    372.01214    1044.8586   -3797.4272 
21865000    131.85907   -4973.8987   -4719.5974   -4973.8987            0    6568.6806    20.034104    19.634289    20.362701    8009.7784     4817.175    7448.3239    7440.5428    615.29673    696.68277   -534.34443   -3952.2809 
21866000    126.09116   -4974.7175   -4731.5401   -4974.7175            0    6973.6842      19.8172    19.808863    20.403504     8009.522    5990.6575    7127.3586    7803.0364   -596.84187     1058.382    374.46519   -3916.9394 
21867000     125.3612   -4978.2946   -4736.5249   -4978.2946            0    7288.2475    19.853048    19.767738    20.434397     8019.476     6067.045    8651.0637    7146.6339   -371.63947     185.6675    651.43102   -3884.1219 
21868000    135.20189   -4990.7474   -4729.9991   -4990.7474            0    6869.8364    19.671093    19.789743    20.561142     8004.162    7072.3326    7001.0192    6536.1574   -490.00922    1099.2638    937.00634    -3928.066 
21869000    137.50547   -4993.1267   -4727.9359   -4993.1267            0    8318.3575    19.556755    19.769707    20.568322    7952.3572    9074.4467     7443.887    8436.7389   -185.22901    -579.9996    -109.3111    -3763.198 
21870000    135.99274   -4980.3278   -4718.0544   -4980.3278            0    6969.5707    19.894797    19.743691      20.3932    8010.3826    6578.2424    7822.6364    6507.8332    153.59773    697.60764   -280.88942   -3903.8468 
21871000    133.31969   -4997.7587   -4740.6405   -4997.7587            0    6402.5396    19.861056    19.984626    20.208267    8020.9797    6277.0843    5472.8265    7457.7082   -683.91723   -454.39888    220.07244   -3991.6857 
21872000    131.46557   -4955.3912   -4701.8488   -4955.3912            0    6938.5554    19.864951    19.782319    20.319344    7984.9901    7970.5083    5579.5448    7265.6131   -222.80784    71.636307    85.684226    -3893.834 
21873000     129.8472   -4966.0517   -4715.6305   -4966.0517            0    6635.1406    19.912036    19.771635    20.323495    8001.2281    6322.1784    6266.9225     7316.321   -62.519392    1258.5271   -190.66829   -3941.3779 
21874000    127.14405   -4964.1981   -4718.9901   -4964.1981            0    7144.5923    19.726024    19.870011    20.459826     8019.358    8468.3466    5846.7782    7118.6522   -245.80654   -712.58687   -560.06906   -3883.4007 
21875000    144.18541    -4978.423   -4700.3493    -4978.423            0    8050.3881    19.826151    19.786715    20.301212    7964.0519    7353.0056    8608.0913    8190.0674     58.69855    323.24295     -1093.14   -3765.3166 
21876000    129.28855   -4983.8803   -4734.5365   -4983.8803            0    7472.4593    19.942827    19.703053    20.342197    7993.1524    6159.3227    8598.7734    7659.2817   -394.23516   -104.54044   -455.21808   -3863.4575 
21877000     133.0697   -4972.8588   -4716.2227   -4972.8588            0    8599.6972    19.507176    19.804032    20.528101    7930.4311    8973.3727    8351.5601    8474.1587   -291.01854    244.58724   -603.24035   -3721.6058 
21878000    127.49049    -4974.122   -4728.2459    -4974.122            0    7667.6841    19.858527    19.881527    20.302798    8015.9066    7526.6494    7017.5665    8458.8363   -188.20785   -897.48414    371.45632   -3831.8646 
21879000    139.35904   -4970.2547   -4701.4891   -4970.2547            0    7240.6308    19.789911    19.876717    20.405779    8026.7857    7261.9239     6691.892    7768.0764    121.72124   -1572.2356    29.030228   -3853.8832 
21880000    127.38788    -4984.616   -4738.9378    -4984.616            0    7707.0494    19.681579    19.799731    20.488642    7984.2182    6869.4568    8687.2739    7564.4175    40.048366    480.21572    731.62204   -3841.5164 
21881000    129.09186   -4987.2526   -4738.2881   -4987.2526            0    7903.1548    19.640939    19.823979    20.527206    7992.5048    8564.5752    6785.6255    8359.2637    74.823015    -841.7448    913.39114   -3817.0767 
21882000    133.18371   -4951.9272   -4695.0713   -4951.9272            0    7478.4393    19.447326    19.854432     20.60333    7955.2673    8734.0036    7157.2595    6544.0548     14.49322   -22.664711    1044.4844   -3827.4271 
21883000     139.9877   -4974.7735   -4704.7955   -4974.7735            0    6343.5703    19.860715    19.882365    20.336938    8030.6095    6599.4722    5489.8022    6941.4365    468.94774   -994.46711   -843.87298   -3961.8479 
21884000    130.11889   -4978.7167   -4727.7715   -4978.7167            0    7010.6123    19.838889    19.859584    20.300639    7998.2908    6499.5056    6684.6931    7847.6383   -350.30328   -104.29722    944.12675   -3910.0056 
21885000    139.74507    -4986.498   -4716.9879    -4986.498            0     7999.669    19.559537     19.86497    20.472681    7954.6523    7552.3306    8059.6223    8387.0543   -226.48239    351.73405    1075.5323   -3788.9427 
21886000    137.70698   -4976.8102   -4711.2307   -4976.8102            0    7346.4202    19.530599    19.810098    20.552032    7951.6442    8704.3686    6801.3236    6533.5685    116.82361    1079.0104   -526.58048   -3859.2915 
21887000    128.37384   -4979.4494   -4731.8696   -4979.4494            0    7163.7694    19.810922    19.793938    20.448074     8018.429    7136.4285    6795.3771    7559.5026   -30.370189    13.359195    95.767081   -3894.1344 
21888000    136.59346   -4986.2083   -4722.7763   -4986.2083            0    8504.6809     19.88798    19.737199    20.274705     7958.491    8216.9424    8510.0142    8787.0863    85.421289   -180.65333   -103.44389   -3735.6684 
21889000    127.30432   -4987.9617   -4742.4446   -4987.9617            0    6283.9564    19.829074    19.679883    20.515346    8005.7825    4580.4205    8333.4783    5937.9704    455.29965   -253.09976    668.42793   -4008.7542 
21890000    140.95248   -4983.3297    -4711.491   -4983.3297            0    7157.0218    19.743324     19.79802    20.468956    8000.8794    7349.8582    6343.1254    7778.0816   -154.58145    487.95092   -1250.6162   -3876.3766 
21891000    132.99031     -4979.53    -4723.047     -4979.53            0    6718.7347    19.727987    19.815265    20.445374    7992.4097    6802.6112    6321.0109     7032.582     386.8105   -299.52759   -492.35909   -3939.9039 
21892000    127.48036   -4971.2687   -4725.4121   -4971.2687            0     7164.125     19.85685    19.943147    20.287563    8034.0392    7800.3966    6275.5922    7416.3862   -413.59562    385.96872    311.24482   -3886.0044 
21893000    131.63736    -4975.949   -4722.0753    -4975.949            0    8272.0221    19.912427     19.81009    20.233413    7981.4131    8301.3157    7676.3014    8838.4492    609.53619     1598.757    236.40887   -3759.2059 
21894000    133.58559   -4978.8077   -4721.1766   -4978.8077            0     6224.431    19.664084    19.846164    20.540453    8016.0483    6072.0966    6469.9352    6131.2612    67.085643    521.34788    515.59477   -3993.5043 
21895000    125.14077   -4965.1671   -4723.8226   -4965.1671            0    6306.2391    19.753761    19.725968     20.61893    8034.4143    5640.9296    7039.0811    6238.7066   -113.75174    384.14794   -47.353383   -3984.8973 
21896000    130.16293   -4986.4712    -4735.441   -4986.4712            0    6969.6406    19.665261     19.83244    20.564711    8020.4452    8038.5262    6533.2722    6337.1236     602.9865   -390.50913    -61.55297   -3920.2024 
21897000    127.05156   -4972.3645   -4727.3349   -4972.3645            0     7940.072    19.605798    19.803258    20.452514     7940.866    9966.6774    6018.2189    7835.3197   -229.27724   -545.99835    442.63855      -3807.8 
21898000     126.7635   -4967.7562   -4723.2821   -4967.7562            0    8907.7812     19.78211     19.85461    20.253894    7955.0425     7989.914    8354.5409    10378.889   -438.66766    849.26029   -161.10596   -3689.8357 
21899000    135.28233   -4975.0749   -4714.1716   -4975.0749            0    6690.1323    19.787106    19.903915     20.36092    8018.9626    7711.7458    4747.0453    7611.6059   -470.88621   -582.03796   -228.34476   -3931.7717 
21900000     132.9492   -4981.4622   -4725.0585   -4981.4622            0    7853.6147    19.899547    19.704013    20.369602    7986.9402    5466.4236    9262.3242    8832.0964    305.96804   -12.197596    511.90762    -3810.259 
21901000    139.41273    -4964.531   -4695.6618    -4964.531            0     7434.006    19.806895    19.819191    20.306809    7971.5728    6924.7344    8181.7696    7195.5139     -183.812    1042.4359   -246.23101    -3831.405 
21902000    133.97811   -4968.1437   -4709.7557   -4968.1437            0    8178.0393    19.906691    19.873093    20.212462     7996.202    6963.7716    8528.1541    9042.1923    40.850679    811.26454    924.39029   -3756.0621 
21903000    136.33268   -4982.7296   -4719.8006   -4982.7296            0    8757.2419    19.763978    19.725526    20.401993    7953.8159    7506.5224    9265.9468    9499.2566   -13.751488     1237.158    -1149.878   -3703.9758 
21904000    135.25532   -4976.7749   -4715.9237   -4976.7749            0    7077.7254    19.899168    19.571334    20.429911    7956.4954    5999.5059    7470.0677    7763.6026    81.734511   -337.54783   -224.08441   -3894.6434 
21905000    124.67258    -4953.013   -4712.5714    -4953.013            0    8592.9163    19.616643    19.826015    20.320551    7903.0662    9472.4938    8378.9831    7927.2722    264.37023    12.810847   -19.318856   -3722.1681 
21906000    121.13174   -4967.0242   -4733.4114   -4967.0242            0    7197.9665      19.7827    19.906737      20.3147    8000.1122    7347.6297    6399.4728     7846.797   -39.239524    1742.1127   -14.790635      -3893.6 
21907000    130.60553    -4964.226   -4712.3422    -4964.226            0    7561.7314    19.872957    19.722011    20.393673    7992.9877    6730.2163    7433.3724    8521.6054    -568.4467    224.58397   -17.118625   -3830.8748 
21908000    131.71284   -4993.4846   -4739.4653   -4993.4846            0    7486.1347    19.783878    19.681674    20.595076    8019.3074    8573.1476    5739.7227    8145.5336    113.57706   -1019.9595     658.7664   -3863.9366 
21909000     127.8658   -4976.8147   -4730.2147   -4976.8147            0    7881.0467    19.664634    19.780151    20.538992    7989.0403    8232.9236    8814.4736    6595.7429     195.1678    398.03299    -546.3157   -3811.9786 
21910000    141.67918   -4987.7087   -4714.4685   -4987.7087            0    7439.7998    19.799404    19.604985    20.566156    7983.1038    7324.4664       6891.3     8103.633   -161.77065    878.88291     58.70727    -3848.287 
21911000    128.61228   -4984.4138   -4736.3742   -4984.4138            0    5922.2602    19.715167    19.862721    20.577963    8058.2657    6377.2452     5971.547    5417.9884   -521.39013    1140.1604    733.87775   -4040.3811 
21912000    131.20228   -4971.3527   -4718.3181   -4971.3527            0    7050.4298    19.863931    19.753889    20.478065    8035.3856    7198.5558    6275.5938    7677.1397    278.04018   -5.4697186    223.93928   -3892.0933 
21913000    134.16536   -4980.5462    -4721.797   -4980.5462            0    5877.3416    19.838618    19.707458     20.60275    8055.0308     6174.089     5706.869    5751.0668    -184.8048   -142.14142   -544.42149     -4031.36 
21914000    132.70251   -4981.1887   -4725.2607   -4981.1887            0    7854.8612     19.69513    19.788832    20.492894    7986.9746    10047.656    6055.7797    7461.1484    253.50277   -1161.0882   -320.69599   -3810.3121 
21915000    133.94454   -4978.6646   -4720.3413   -4978.6646            0    7750.1524    19.675764    19.718414    20.536427    7967.6172    7802.4075    7807.9244    7640.1254    263.47118   -64.566516    739.64849   -3819.7773 
21916000    131.70175   -4969.7426   -4715.7448   -4969.7426            0    6822.2819    19.699454    19.817166    20.547461    8021.4691    7168.0668    6275.1257    7023.6534    -294.6816    1429.5096   -656.52474   -3917.6408 
21917000    135.54876   -4978.4746   -4717.0574   -4978.4746            0    8298.9162    19.649654    19.708062    20.619662       7985.1    9119.4195    9132.8926    6644.4364    53.911126    129.64398    466.61923   -3750.6114 
21918000    136.03532   -4964.9572   -4702.6016   -4964.9572            0    6548.6959    19.870966    19.791455    20.434795    8036.5012    6931.1418    5679.7365    7035.2092    144.60531    618.28852    607.36101   -3935.0674 
21919000    139.91392   -4977.0637   -4707.2279   -4977.0637            0     6359.739    19.634416      19.9236    20.516237    8025.7111    7093.5075    5675.0329    6310.6766    62.296685    706.19021   -259.34413    -3962.841 
21920000     130.0113   -4960.9826   -4710.2449   -4960.9826            0    7716.4732    19.732806    19.770725    20.408354    7961.9494    7105.3469    8329.4563    7714.6164   -310.21651    1085.3312    -538.2513   -3814.2322 
21921000    134.26976   -4969.2232   -4710.2727   -4969.2232            0    7121.5165    19.921103    19.819251    20.236777    7989.9111     5002.811    7717.0406     8644.698   -573.55746    886.94567   -259.36536   -3880.4404 
21922000    133.82137   -4985.4744   -4727.3886   -4985.4744            0    7181.7991    19.802269    19.850115    20.414486    8024.4716    6337.2193     8065.197     7142.981    170.72861    548.58922   -547.11511   -3886.9121 
21923000    125.82124   -4980.6982   -4738.0414   -4980.6982            0    6383.2709    19.761872    19.919437    20.432916    8043.3223    5777.5605    7154.7933     6217.459    215.66714    1315.5073    439.08455   -3989.2607 
21924000    133.92768   -4980.1546   -4721.8639   -4980.1546            0    6503.4719     19.64206    19.945356     20.43072    8004.0998     7398.325    5849.2329    6262.8579    351.54411    250.67662    -271.7144   -3962.7033 
21925000    133.40377   -4979.9224    -4722.642   -4979.9224            0    7406.3007    19.725376    19.829765    20.457397    8001.9019    7115.4578    8670.9927    6432.4515   -521.02557    658.72302    574.68963   -3858.3302 
21926000    124.57631   -4977.5122   -4737.2563   -4977.5122            0    7068.4507    19.796384    19.840324     20.44364    8029.5802    7604.1908    6485.6525    7115.5087   -409.57589   -469.66902    325.65982   -3909.5182 
21927000    131.54688   -4972.5694   -4718.8702   -4972.5694            0    7449.9455     19.66828    19.831263    20.562046     8020.161    7801.8429    6881.2794    7666.7141    397.33528   -341.74994   -108.56309   -3847.4812 
21928000    133.81817   -4974.0351   -4715.9555   -4974.0351            0    8918.5354    19.756523     19.73671    20.387881    7949.8213    7859.9283    9694.6297    9201.0481    68.646597   -91.850261   -813.76394   -3681.9406 
21929000    134.32415   -4957.1654     -4698.11   -4957.1654            0    8789.5716     19.65025    19.867876    20.382854     7957.644    8207.5663    8775.2271    9385.9214    89.233741     888.5191    123.56648   -3678.0444 
21930000    129.71244   -4963.0444   -4712.8831   -4963.0444            0    6785.3357    19.682473     19.79008    20.633556    8037.1354    7201.1122    6999.5796    6155.3154   -53.552058    78.942088     203.1124    -3917.551 
21931000    132.92861   -4984.2055   -4727.8415   -4984.2055            0    6700.5489    19.646364    19.779124    20.634062    8018.1459    6819.1955    6547.9022     6734.549   -916.68358    -1567.131   -736.42557   -3944.3032 
21932000    131.99721   -4977.9503   -4723.3825   -4977.9503            0    7183.9818    19.702862    19.814486    20.430622    7976.1573    6921.0593    7316.3331     7314.553   -819.19411    141.24438    284.13779   -3887.7125 
21933000    133.78385   -4991.6606   -4733.6472   -4991.6606            0    6839.9528    19.705805    19.870001    20.372356    7976.8847    7411.2547    6316.8223    6791.7813   -307.97912    93.333406   -596.13814   -3937.9235 
21934000    129.08938   -4982.7187    -4733.759   -4982.7187            0    6359.1236    19.786899    19.871416    20.353348    8002.8084    6838.2694    5214.0986    7025.0026    358.28435   -631.49992    194.38674   -3991.5682 
21935000    136.28788   -4979.6282   -4716.7856   -4979.6282            0    5257.8097    19.880022    19.834539     20.50025    8083.4758    4921.4499    5318.9952    5532.9839    276.84135    65.841555    1386.8647   -4096.9466 
21936000    138.09977   -4976.5124   -4710.1754   -4976.5124            0    7263.4763    19.709754    19.940403    20.369377    8005.5815    7150.6025    6428.0948    8211.7315   -301.24204   -703.30928   -11.476415   -3862.1413 
21937000    129.62551   -4970.3943   -4720.4006   -4970.3943            0    6817.7903     19.59683    19.915436    20.390862    7958.1335    7463.7542    5565.7854    7423.8311    -431.1411    385.01012    434.21118   -3929.1196 
21938000    139.26462   -4977.4117   -4708.8281   -4977.4117            0    8560.3454    19.816915    19.672912     20.44062    7968.9071    8894.9458    8451.7453    8334.3452   -559.31866   -419.51629    15.718034    -3713.959 
21939000    129.79322   -4985.4437   -4735.1265   -4985.4437            0    7663.6597    19.775981    19.657328    20.546208    7987.1933    7185.0563     8165.209    7640.7137     66.08249   -299.24366   -521.98563    -3842.425 
21940000    138.07712   -4969.9588   -4703.6654   -4969.9588            0    7582.1073    19.713358    19.797534    20.522389    8009.3931    7056.1834     8566.827    7123.3116   -468.90948    488.73454    392.79088   -3818.0087 
21941000    133.95049   -4972.4056   -4714.0709   -4972.4056            0    7842.2594    19.761301    19.851199    20.345477    7981.2361     6894.582    8552.0119    8080.1842    64.467342    670.13089   -841.41487   -3801.2464 
21942000    135.49916   -4977.7722   -4716.4507   -4977.7722            0    7701.1379    19.787989    19.812431    20.448151    8016.6602    7897.0486    7589.7353    7616.6297   -108.55957   -546.16577   -107.07868   -3816.0739 
21943000    132.47527   -4974.6656   -4719.1759   -4974.6656            0    6929.1779    19.725316    19.717477     20.58327    8005.5224    6259.9005    8488.8848    6038.7486   -80.313478    261.70102    698.36426   -3910.1782 
21944000    140.49694   -4980.1442    -4709.184   -4980.1442            0    7048.3274    19.691168    19.888394    20.466648    8015.2658    7168.4744    6569.8909    7406.6168   -207.44893    -66.71061    108.23174   -3885.2738 
21945000    135.51461   -4987.9615   -4726.6102   -4987.9615            0     5451.493     19.95889    19.783128    20.527604    8105.3095    6385.0169    4176.4725    5792.9895    30.003811    517.78672   -105.47014   -4082.2021 
21946000    137.93858   -4991.3721   -4725.3459   -4991.3721            0    5620.2624      19.7124     19.76999    20.623793    8037.3797    5171.8493    6337.5441    5351.3939    279.75571    460.88375   -677.06623   -4066.5559 
21947000    128.50189   -4966.7821   -4718.9554   -4966.7821            0    7390.6129    19.708812    19.810109    20.472585    7993.1876    8994.0109    6453.5607    6724.2672    45.659077    75.441674    -846.3548   -3857.4136 
21948000     138.1438   -4990.1098   -4723.6879   -4990.1098            0    6466.4373    19.870702    19.757711    20.501457    8048.8638    6043.8934    6774.7965    6580.6219    107.92716   -2.9776232   -411.19984   -3964.6289 
21949000    131.82987   -4958.1515   -4703.9065   -4958.1515            0    8065.9333     19.82127    19.790242     20.35031    7982.7696    6867.4804    9185.4913    8144.8283    641.81941    239.66993    1126.5068   -3764.8665 
21950000    130.80582   -4975.9371   -4723.6671   -4975.9371            0    7382.3061    19.815211    19.847695    20.271315    7972.4297    6253.7889    8016.6106    7876.5187    17.160473    89.545395   -880.10414   -3865.3285 
21951000    126.22924   -4965.2915   -4721.8478   -4965.2915            0    7442.2707    19.795816     19.87608       20.291    7983.7621    7797.5778    6191.0542    8338.1801   -281.55349     939.0007    228.60355   -3855.3071 
21952000    135.73304   -4984.9532   -4723.1806   -4984.9532            0    6370.9263    19.771124    19.911389    20.383059    8024.2097    5982.4957    6320.6501    6809.6329   -404.84989    560.42804    365.21841   -3977.6238 
21953000    133.05186   -4979.9405   -4723.3388   -4979.9405            0    8372.9193    19.721127    19.824256    20.330143     7948.205    6985.8698    10438.342    7694.5462   -686.82076    764.52333    178.46821     -3752.78 
21954000    125.33229   -4972.5328   -4730.8189   -4972.5328            0     6680.984    19.784295    19.689981    20.480081    7978.0645    5958.5549    7570.2371    6514.1602   -29.470938   -673.98803    -575.3254   -3953.4738 
21955000    133.51171   -4987.6299   -4730.1413   -4987.6299            0    7639.1399     19.66411     19.64559    20.514364    7924.9665    7093.5828    8887.5103    6936.3264   -34.794186     -1789.31    486.48421   -3847.2286 
21956000    122.57631   -4968.9143   -4732.5156   -4968.9143            0    8487.0753    19.809096     19.68861    20.425603    7966.2625    5905.2105    10259.705    9296.3102     405.7844    407.17479   -218.17073   -3746.4892 
21957000    128.06992   -4966.8142   -4719.8206   -4966.8142            0    8743.7631    19.732292    19.729625    20.454164    7963.0251    9566.9936     8083.693    8580.6027   -809.74787    1166.0491    811.09009    -3704.385 
21958000    134.72864   -4971.4612   -4711.6257   -4971.4612            0    6458.1161    19.684027     19.62941    20.640528    7975.2078    5620.4591     7779.086    5974.8033    -163.1167    132.37987   -1279.1847   -3960.4808 
21959000    129.32526   -4971.9006    -4722.486   -4971.9006            0    7035.1073    19.685677    19.801864    20.518103    7998.2253    7189.5949     6733.923    7181.8038   -954.02289   -457.86712   -1315.8299   -3901.8695 
21960000    136.99289   -4959.8772   -4695.6749   -4959.8772            0    8807.8314     19.87663    19.710149    20.246962    7932.1793    8508.7351     9157.489      8757.27   -529.89553    45.216616     327.4847   -3676.7612 
21961000    134.19813   -4977.8746   -4719.0623   -4977.8746            0    7274.0545    19.863943     19.70534    20.457367    8007.5402    7560.1722    6298.8665    7963.1249    259.94704   -428.67481    3.4714723   -3869.5854 
21962000    138.04816   -4984.0025   -4717.7651   -4984.0025            0    7728.6454    19.970398    19.679313    20.357831    8000.7032    7717.5877    6900.9622    8567.3864    190.63814    1060.6642   -984.72577   -3815.9709 
21963000    137.12188   -4964.0448   -4699.5937   -4964.0448            0    8590.5616     19.79863    19.807121    20.288489     7956.209    7615.3856    8582.9316    9573.3676   -239.94462    908.91129   -768.42868   -3702.8038 
21964000    133.54464   -4983.1002   -4725.5482   -4983.1002            0    6446.8167    20.055036    19.761542    20.389877    8080.8837    5411.4355    7230.3942    6698.6205   -13.232627    388.50356   -720.97459   -3965.7818 
21965000    123.70779   -4981.1782   -4742.5973   -4981.1782            0    7913.5022     19.85439     19.87179    20.250159    7989.5434    8253.7693    7184.1163    8302.6209   -156.81962   -608.22657     119.6942   -3820.5216 
21966000     130.1052   -4979.5627   -4728.6439   -4979.5627            0    6665.5488    19.832743    19.786005    20.319828    7973.7191    6358.8971    5004.5798    8633.1694   -71.019784   -194.64717    738.00533   -3953.5171 
21967000     127.0425   -4988.0254   -4743.0132   -4988.0254            0     7563.702    19.869925    19.892112    20.309179    8027.3001    8603.8687    5011.3878    9075.8496   -784.45622   -490.36641    -1204.891   -3857.5311 
21968000    137.72825   -4970.9016   -4705.2811   -4970.9016            0    7704.4544    19.817189    19.830383    20.264377    7963.5446    6558.8092     8277.749    8276.8049   -410.11099    372.28092    695.83111   -3810.4848 
21969000    135.62276   -4974.6409    -4713.081   -4974.6409            0    8440.4745    19.849157    19.780164    20.307644    7973.1783    8229.0818    8071.9431    9020.3985    113.44159   -89.570748   -817.35984   -3731.6174 
21970000     132.6222   -4987.7655   -4731.9924   -4987.7655            0    6610.3548    19.595915     19.78864    20.539421    7964.7048    7064.0327    5765.9536     7001.078   -430.67821   -816.12707    911.59877   -3964.1531 
21971000    132.66624   -4979.2303   -4723.3723   -4979.2303            0    8178.3373    19.710432     19.82652    20.471243    7999.9422    7639.1962    8848.8075    8047.0083   -266.54014   -178.55723    -156.6768   -3769.1979 
21972000    129.09437   -4976.8084   -4727.8391   -4976.8084            0    8651.9095    19.565827     19.68548    20.646256    7952.1676    9545.4351    9127.2437    7283.0499    212.60758   -253.11184    230.37731   -3724.4407 
21973000    133.65094   -4986.3893   -4728.6322   -4986.3893            0     7188.523    19.843125    19.657661     20.50478    7998.2878    6921.4921    7928.7254    6715.3516    224.29955   0.99114644   -1.1437052   -3890.1139 
21974000    138.71649   -4990.2148   -4722.6884   -4990.2148            0    7714.1029    19.703296    19.812385    20.493641    8000.0883    6467.7549    8412.8985    8261.6554    38.523339   -222.83864   -166.15756   -3822.6602 
21975000     128.9681   -4980.2879   -4731.5621   -4980.2879            0    7990.1249    19.711802    19.670904     20.56582    7974.3755    7399.2421    9006.3539    7564.7787    145.67131    591.28737    427.78518   -3802.3259 
21976000    123.98057   -4956.8396   -4717.7326   -4956.8396            0    7740.1662    19.657982    19.896461    20.366838     7965.965    7370.6871    7024.5111    8825.3003   -469.36281    383.94625   -357.40992   -3818.5155 
21977000    144.74959    -4963.006   -4683.8443    -4963.006            0    8085.3533    19.751968    19.821176    20.277936    7938.9587    5599.8524    9882.6989    8773.5086     131.1707     631.0675   -12.118618   -3747.7094 
21978000    134.36594   -4966.8556   -4707.7196   -4966.8556            0    8258.2078    19.795753    19.923949    20.275765    7996.9556    7500.9276    8434.8725    8838.8232   -179.32767     520.6111   -617.97864   -3744.5863 
21979000    135.42367   -4967.2817   -4706.1057   -4967.2817            0     8798.451    19.734968    19.654304    20.461903    7936.7029    9063.6713    9144.6501    8187.0317   -35.203167   -1115.2422   -199.10056   -3687.6967 
21980000    140.40554   -4968.5924   -4697.8085   -4968.5924            0    8369.3061    19.657167    19.708741    20.593982    7978.4799    9297.0939    7762.2819    8048.5425   -91.272864     386.9988   -492.96801   -3723.9732 
21981000    134.64198   -4973.0054   -4713.3371   -4973.0054            0    7102.7156    19.756834     19.95164     20.41584    8047.5413    7756.2694    6610.3806    6941.4969    -64.76399     373.5933    120.21973   -3879.7259 
21982000    138.92987   -4988.2068   -4720.2689   -4988.2068            0    6795.4215    19.812562    19.814024    20.448744    8027.4932    6392.5575    6472.5085    7521.1986    251.84689     1083.361   -134.48581   -3924.7101 
21983000    123.91306   -4974.0858   -4735.1091   -4974.0858            0    7010.0003    19.702453    19.874737    20.504232    8029.0692    7672.3796    6150.6785    7206.9427   -171.05996   -326.89565    769.18883   -3914.2679 
21984000    133.44354   -4975.1193   -4717.7622   -4975.1193            0    6056.8044    20.041274    19.511722     20.58459    8049.3934    4725.3754    7611.1245    5833.9134     261.3857   -505.59513   -871.76825   -4006.7409 
21985000    130.94164   -4981.8643   -4729.3323   -4981.8643            0    8310.2748     19.86081    19.715775    20.291835    7945.6991    9353.2159    7135.6652    8441.9433    -220.6971    203.60313    66.033954   -3766.3388 
21986000    124.95839   -4978.8918    -4737.899   -4978.8918            0    5630.7273    19.896761     19.81624    20.438412    8058.4366    4424.3912    6891.3352    5576.4557   -11.305496    191.37629    325.36604   -4076.1533 
21987000    132.77025   -4964.9005   -4708.8419   -4964.9005            0    9238.3387      19.6763    19.681868    20.375838    7890.8764    8644.2229    8763.6761    10307.117   -108.00041   -102.72961    195.11388   -3645.6907 
21988000    133.07057   -4970.1765   -4713.5387   -4970.1765            0    7703.2755     19.84856    19.803401    20.310216    7983.3163     8578.644    6840.0208    7691.1617     492.7571    54.630471    725.09005   -3816.6581 
21989000    132.78256    -4983.497   -4727.4147    -4983.497            0    6169.4588    19.943892    19.751869    20.517119    8082.2915     6594.516    5797.5094    6116.3511    154.76211    24.403648   -328.68342   -4000.2086 
21990000    132.61304   -4964.5865   -4708.8311   -4964.5865            0    8152.3475    19.746594    19.754044    20.394977    7955.5724    8964.9533    8051.3853     7440.704     82.72418   -963.23163   -30.674709   -3762.9642 
21991000    132.62353    -4984.271   -4728.4953    -4984.271            0    7725.3886     19.86488    19.615032    20.452745    7969.4171    6940.2761    8515.6277    7720.2621    394.35728    513.16634    663.84979   -3830.6061 
21992000    137.60601   -4989.7849   -4724.4001   -4989.7849            0    7050.0864    19.692415    19.864767    20.502058    8020.1021    7493.6221    6544.2309    7112.4063   -332.13832    926.67677   -992.56613    -3899.787 
21993000    132.66408   -4968.1987   -4712.3449   -4968.1987            0    6919.8277    19.834509    19.757305    20.479764    8025.5374    7248.5529    7128.1736    6382.7566   -605.68491   -710.05053    494.54905   -3902.4189 
21994000    136.86688   -4974.8735   -4710.9142   -4974.8735            0    7554.5648    19.672113    19.716329    20.579224    7981.8959    6306.1209     9185.494    7172.0794    48.087346    62.607169   -391.79123   -3831.5042 
21995000    139.73039   -4970.0609   -4700.5791   -4970.0609            0    7670.1774    19.743916    19.856902    20.376136    7988.5254    8589.0903     6347.147     8074.295    568.94993    792.00821   -135.23233   -3806.9693 
21996000    141.07516      -4972.5   -4700.4247      -4972.5            0    10153.055    19.774863    19.745417    20.245653    7905.1766    9507.5673    10590.136    10361.463    288.79331   -85.434657   -517.27663   -3529.8902 
21997000    133.09515   -4971.7292    -4715.044   -4971.7292            0    8196.0415    19.738654    19.755679    20.400662    7955.2485    8445.3056     7886.336     8256.483    156.50349    521.31554    71.775077   -3764.1463 
21998000    134.09551   -4969.0638   -4710.4493   -4969.0638            0    6586.5813    19.874103    19.904253    20.309588    8034.0504       5517.4    7326.0951    6916.2487    166.47565    201.99959   -320.95895   -3938.7103 
21999000    121.64637   -4967.4846   -4732.8794   -4967.4846            0    5208.5249    19.809883    19.946727    20.370192    8049.1251    4950.0436    5114.7964    5560.7346   -750.01259   -792.53362    472.47098   -4121.4598 
22000000    136.84304   -4966.0144   -4702.1011   -4966.0144            0    6578.5683    19.816704    19.835552    20.442747    8035.5378    5790.5071    7522.9211    6422.2768   -14.861801   -97.969736   -204.55503   -3931.1582 
Loop time of 361.953 on 64 procs for 250000 steps with 972 atoms

Performance: 119.352 ns/day, 0.201 hours/ns, 690.697 timesteps/s
99.1% CPU use with 64 MPI tasks x 1 OpenMP threads

MPI task timing breakdown:
Section |  min time  |  avg time  |  max time  |%varavg| %total
---------------------------------------------------------------
Pair    | 19.451     | 28.726     | 39.347     |  87.2 |  7.94
Bond    | 0.26064    | 0.27623    | 0.28791    |   1.0 |  0.08
Kspace  | 142.17     | 152.47     | 162.02     |  38.1 | 42.12
Neigh   | 0.99325    | 1.0106     | 1.0239     |   0.7 |  0.28
Comm    | 84.741     | 85.508     | 86.293     |   4.0 | 23.62
Output  | 0.52465    | 0.52626    | 0.53451    |   0.2 |  0.15
Modify  | 86.768     | 88.042     | 88.827     |   4.9 | 24.32
Other   |            | 5.399      |            |       |  1.49

Nlocal:        15.1875 ave          20 max          11 min
Histogram: 2 5 6 9 17 9 6 6 3 1
Nghost:        2311.47 ave        2351 max        2260 min
Histogram: 2 1 3 8 8 11 14 9 6 2
Neighs:        4890.00 ave        6972 max        3118 min
Histogram: 2 4 12 5 14 9 10 6 1 1

Total # of neighbors = 312960
Ave neighs/atom = 321.97531
Ave special neighs/atom = 2.0000000
Neighbor list builds = 2807
Dangerous builds = 0

unfix		3
unfix		2
unfix		1

write_data	data.final.${pid}
write_data	data.final.1
System init for write_data ...
PPPM initialization ...
  extracting TIP4P info from pair style
  using 12-bit tables for long-range coulomb (../kspace.cpp:340)
  G vector (1/distance) = 0.3721825
  grid = 24 24 24
  stencil order = 5
  estimated absolute RMS force accuracy = 0.0035091297
  estimated relative force accuracy = 1.056764e-05
  using double precision FFTW3
  3d grid and FFT values/proc = 2197 216
Last active /omp style is kspace_style pppm/tip4p/omp
WARNING: Not all mixed pair coeffs generated from mixing. Use write_data with 'pair ij' option to store all pair coeffs. (../write_data.cpp:312)

write_restart   restart.lmp.${pid}
write_restart   restart.lmp.1
System init for write_restart ...
PPPM initialization ...
  extracting TIP4P info from pair style
  using 12-bit tables for long-range coulomb (../kspace.cpp:340)
  G vector (1/distance) = 0.3721825
  grid = 24 24 24
  stencil order = 5
  estimated absolute RMS force accuracy = 0.0035091297
  estimated relative force accuracy = 1.056764e-05
  using double precision FFTW3
  3d grid and FFT values/proc = 2197 216
Last active /omp style is kspace_style pppm/tip4p/omp
Total wall time: 0:06:02
