#include		in.partitions
include		in.temp
variable        temperature equal 62.60
variable	tempDamp equal 100.0
include		in.pressure
variable        pressure equal 2019.4
variable        pressureDamp equal 1000.0 # This is 1 ps
include		in.seed
variable        seed equal 745823

units		real
atom_style	full
#include		in.box
read_restart	restart.lmp.${pid}
read_restart	restart.lmp.1
Reading restart file ...
  restart file = 30 Jul 2021, LAMMPS = 30 Jul 2021
  restoring atom style full from restart
  orthogonal box = (0.16864564 0.17983611 0.10807614) to (18.038927 23.449342 22.105120)
  2 by 4 by 2 MPI processor grid
  restoring pair style lj/cut/tip4p/long/omp from restart
  restoring bond style harmonic/omp from restart
  restoring angle style harmonic/omp from restart
  864 atoms
  576 bonds
  288 angles
Finding 1-2 1-3 1-4 neighbors ...
  special bond factors lj:    0        0        0       
  special bond factors coul:  0        0        0       
     2 = max # of 1-2 neighbors
     1 = max # of 1-3 neighbors
     1 = max # of 1-4 neighbors
     2 = max # of special neighbors
  special bonds CPU = 0.001 seconds
  read_restart CPU = 0.006 seconds
include 	in.setup
variable	out_freq equal 1000
variable	out_freq2 equal 10000
variable	out_freq3 equal 1000

timestep	2.0

neigh_modify    delay 7 every 1

include		in.tip4p
# This is TIP4P/Ice

# create groups ###
group ox type 2
288 atoms in group ox
group hy type 1
576 atoms in group hy

# set charges - beside manually ###
set group ox charge -1.1794
Setting atom values ...
  288 settings made for charge
set group hy charge 0.5897
Setting atom values ...
  576 settings made for charge

# ### TIP3P Potential Parameters ###
pair_style lj/cut/tip4p/long/omp 2 1 1 1 0.1577 8.5
pair_coeff 1 1*2 0.000 0.000
pair_coeff 2 2 0.21084 3.1668
bond_style  harmonic
bond_coeff  1 450 0.9572
angle_style harmonic
angle_coeff 1 55 104.52
kspace_style pppm/tip4p/omp 1.0e-5
pair_modify tail yes

thermo          ${out_freq}
thermo          1000
thermo_style    custom step temp pe etotal epair emol press lx ly lz vol pxx pyy pzz pxy pxz pyz enthalpy

restart 	${out_freq3} restart.lmp.${pid} restart2.lmp.${pid}
restart 	1000 restart.lmp.${pid} restart2.lmp.${pid}
restart 	1000 restart.lmp.1 restart2.lmp.${pid}
restart 	1000 restart.lmp.1 restart2.lmp.1


include         in.dump
dump            myDump all atom ${out_freq2} dump.water.${pid}
dump            myDump all atom 10000 dump.water.${pid}
dump            myDump all atom 10000 dump.water.1
dump            myDump2 all dcd ${out_freq2} dump.dcd
dump            myDump2 all dcd 10000 dump.dcd
dump_modify     myDump append yes
dump_modify     myDump2 append yes


variable natoms 	equal  "count(all)"                        # NUMBER ATOMS
variable H      	equal  "enthalpy/v_natoms"                 # ENTHALPY-per-atom
variable Vol      	equal  "vol/v_natoms"                 # volume-per-atom
fix AVG all 		ave/time ${out_freq} 1 ${out_freq} v_Vol v_H file vol_enthalpy.dat
fix AVG all 		ave/time 1000 1 ${out_freq} v_Vol v_H file vol_enthalpy.dat
fix AVG all 		ave/time 1000 1 1000 v_Vol v_H file vol_enthalpy.dat


timer           timeout 23:50:00 every 1000
New timer settings: style=normal  mode=nosync  timeout=23:50:00

fix 		1 all shake 1e-6 200 0 b 1 a 1
       0 = # of size 2 clusters
       0 = # of size 3 clusters
       0 = # of size 4 clusters
     288 = # of frozen angles
  find clusters CPU = 0.000 seconds
fix             2 all nph aniso ${pressure} ${pressure} ${pressureDamp}
fix             2 all nph aniso 2019.4 ${pressure} ${pressureDamp}
fix             2 all nph aniso 2019.4 2019.4 ${pressureDamp}
fix             2 all nph aniso 2019.4 2019.4 1000
fix             3 all temp/csvr ${temperature} ${temperature} ${tempDamp} ${seed}
fix             3 all temp/csvr 62.6 ${temperature} ${tempDamp} ${seed}
fix             3 all temp/csvr 62.6 62.6 ${tempDamp} ${seed}
fix             3 all temp/csvr 62.6 62.6 100 ${seed}
fix             3 all temp/csvr 62.6 62.6 100 745823


run             250000
PPPM initialization ...
  extracting TIP4P info from pair style
  using 12-bit tables for long-range coulomb (../kspace.cpp:340)
  G vector (1/distance) = 0.37200684
  grid = 24 27 25
  stencil order = 5
  estimated absolute RMS force accuracy = 0.0031288811
  estimated relative force accuracy = 9.4225324e-06
  using double precision FFTW3
  3d grid and FFT values/proc = 6300 1296
Last active /omp style is kspace_style pppm/tip4p/omp
Neighbor list info ...
  update every 1 steps, delay 7 steps, check yes
  max neighbors/atom: 2000, page size: 100000
  master list distance cutoff = 10.8154
  ghost atom cutoff = 10.8154
  binsize = 5.4077, bins = 4 5 5
  1 neighbor lists, perpetual/occasional/extra = 1 0 0
  (1) pair lj/cut/tip4p/long/omp, perpetual
      attributes: half, newton on, omp
      pair build: half/bin/newton/omp
      stencil: half/bin/3d
      bin: standard
Per MPI rank memory allocation (min/avg/max) = 12.26 | 12.29 | 12.31 Mbytes
Step Temp PotEng TotEng E_pair E_mol Press Lx Ly Lz Volume Pxx Pyy Pzz Pxy Pxz Pyz Enthalpy 
35750000    64.595817   -4624.1568   -4513.4418   -4624.1568            0    2020.8082    17.870281    23.269506    21.997044    9147.0879    2248.2417    1656.2402    2157.9428   -553.27268   -311.13804   -117.20315   -4243.8641 
35751000    65.758041    -4634.988   -4522.2809    -4634.988            0    1906.0933    17.773015    23.466686    21.913115    9139.3852    2867.6615    1866.4741    984.14418    320.03762    97.577112    19.651722   -4268.2205 
35752000    62.977634   -4629.4074   -4521.4659   -4629.4074            0    2288.3854    17.784778    23.360223    21.943721    9116.6588    3162.6653    2017.4386    1685.0522    252.71496    30.258458   -41.792077   -4217.2087 
35753000     64.57388   -4634.3774      -4523.7   -4634.3774            0    1634.1842    17.944312    23.218171    21.952667    9146.2298    1760.8995    1075.0628    2066.5903   -65.848722   -5.8746966    180.13298   -4305.7188 
35754000    59.708188   -4636.3129   -4533.9751   -4636.3129            0    1824.5089    17.939262     23.20215    22.007739    9160.2689    1619.9411    2157.6848    1695.9007   -100.50617   -98.782521    388.26381   -4290.2333 
35755000    64.653085   -4629.9807   -4519.1675   -4629.9807            0    1836.5491    17.890275    23.293354    21.925785    9137.0118    1610.6269     1582.509    2316.5113   -304.09695   -33.901113    167.32563   -4274.4401 
35756000    64.249472   -4626.2991   -4516.1777   -4626.2991            0    2437.0144    18.040132     23.05434    21.910253    9112.5473    2201.9746    2357.4675    2751.6012    485.64729   -116.41976   -55.502475   -4192.3054 
35757000    63.996617   -4633.3295   -4523.6415   -4633.3295            0    1824.9505     17.93258     23.32054    21.881543    9150.8053    1892.7565    1922.9043    1659.1908    352.92572   -86.251427     346.8989   -4280.0925 
35758000    66.464415   -4632.6551   -4518.7373   -4632.6551            0    2117.0291    17.861786    23.323373    21.949392    9144.0532    2928.7238    1951.0728    1471.2906    161.53564    16.447503    45.600816   -4236.4175 
35759000    63.473587   -4623.7578   -4514.9662   -4623.7578            0    1709.6614    17.870969    23.318365    21.986713    9162.3421    1500.3458    2015.8902    1612.7481    225.56688    79.085417   -189.22059   -4286.5155 
35760000    60.793228   -4624.3328   -4520.1352   -4624.3328            0    2217.6622    17.713716    23.521635     21.90523    9126.9363    2726.5924    943.37653    2983.0178   -771.79607    98.642405    102.35225   -4224.9489 
35761000    61.171648   -4627.4161     -4522.57   -4627.4161            0    1875.5077    17.885902    23.352574    21.904825     9149.248    1108.9268    2419.3021    2098.2944    -544.7003    391.73433   -20.053567   -4272.3165 
35762000    65.135947   -4623.3475   -4511.7067   -4623.3475            0    1488.9962    17.973898    23.217818    21.972292    9169.3606    1558.9149    1949.6694    958.40421   -74.748007    246.36131   -12.206117   -4312.5897 
35763000    65.106018   -4626.4139   -4514.8244   -4626.4139            0    2161.2058    17.903766    23.337786    21.865248    9136.0494    2349.6736     2062.732    2071.2118   -26.253181    88.295628    75.439548   -4226.8655 
35764000    61.278643   -4630.4038   -4525.3743   -4630.4038            0    1946.5963    17.836386    23.296407     22.00553    9143.8194      1671.25    2551.7237    1616.8152   -14.389729    67.180828   -164.59692   -4265.7894 
35765000    63.629054   -4632.0915   -4523.0335   -4632.0915            0    967.90135    17.949978    23.375472    21.888613     9184.226    1998.3413    479.05523     426.3075       170.15   -53.187751    71.555979   -4393.3904 
35766000    62.329408   -4629.3201   -4522.4896   -4629.3201            0    1775.5484    17.899257     23.30653    21.924996    9146.4413     2464.031    1111.4669    1751.1472   -470.31804   -231.67422    111.68076   -4285.6466 
35767000    60.514327   -4623.2085    -4519.489   -4623.2085            0      2479.21    17.931664    23.146091    21.989045    9126.5072    1676.8634    3688.6914    2072.0751    298.49635   -556.56483    312.64255   -4189.5043 
35768000    59.859012   -4632.1193    -4529.523   -4632.1193            0    1486.7345    17.965768    23.309598    21.883189    9164.1288    1375.5102    1414.6481    1670.0453    -6.647094    55.799348   -223.74767   -4330.8218 
35769000    62.408862   -4629.1072   -4522.1406   -4629.1072            0     1547.587    17.950891    23.284663    21.884382     9147.244    963.84411    1777.3371    1901.5798    -287.1716   -50.126011    170.03535   -4315.6876 
35770000     61.40209   -4631.1816   -4525.9405   -4631.1816            0    2319.8154    17.864705    23.366005    21.863421    9126.3772    2013.1554    2408.8226    2537.4682   -279.59088   -170.24947    18.531849   -4217.1757 
35771000    62.473828   -4635.6104   -4528.5324   -4635.6104            0    1264.0076    17.884229    23.325468    21.992445    9174.3246    1883.4181    1387.2427     521.3619   -68.595919   -637.38342   -109.44784   -4359.4105 
35772000    64.523479   -4628.5718   -4517.9807   -4628.5718            0    2054.8847     17.84931    23.384882    21.944553    9159.7445    2534.2651     1993.059    1637.3298   -19.966144   -293.46619   -296.39768    -4243.478 
35773000    62.656385   -4637.7771   -4530.3862   -4637.7771            0    1523.2501     18.00595    23.252065     21.87753    9159.5865      1383.58    1250.8655    1935.3049    245.01275   -57.744287    146.14708   -4326.9057 
35774000    64.572576   -4620.4271   -4509.7519   -4620.4271            0    2364.2266    17.989778    23.198783    21.865369    9125.3141    2045.3196    3192.2406    1855.1197   -424.83888   -116.34701    -124.3669   -4195.1127 
35775000    64.120081   -4629.7032   -4519.8035   -4629.7032            0    2039.4527      17.9816    23.239176    21.808392    9113.2381    580.93883    3050.3098    2487.1095    56.299391    46.798186    23.551319   -4248.7455 
35776000    64.573536   -4624.7198    -4514.043   -4624.7198            0    1830.2038    17.838622    23.292625    22.024616    9151.4117    1956.8927    1940.5278     1593.191   -176.74816   -73.661156   -227.89571   -4269.7768 
35777000    61.745779    -4622.505   -4516.6748    -4622.505            0    2028.7626    17.926734    23.282908    21.891736    9137.3149    2483.0486    2457.8365    1145.4026   -280.20194    97.189476    34.394422   -4246.3252 
35778000    62.034287   -4633.1522   -4526.8276   -4633.1522            0    1928.9263     17.82563    23.369383    21.907458    9126.0769    2099.8062    1559.5225    2127.4501    204.26272   -468.56002   -142.57406   -4270.0981 
35779000    61.093792   -4634.8112   -4530.0985   -4634.8112            0    2432.6352     17.82763    23.391913    21.822241    9100.3621     2243.992      1839.11    3214.8037    333.39005   -330.62065   -45.943745   -4207.2405 
35780000    63.518353   -4625.3374   -4516.4691   -4625.3374            0     2263.414    17.949433    23.297235    21.832047    9129.5544    1936.5894    2359.8637    2493.7889   -760.89254    87.634655    489.83128   -4215.1064 
35781000     65.99312   -4629.7351   -4516.6251   -4629.7351            0    1243.6816    17.927405    23.340069    21.951279    9185.0053    1882.3852    1149.6285    699.03117    184.82487   -49.095037     14.11797   -4350.0291 
35782000    65.833197   -4630.8048    -4517.969   -4630.8048            0    2599.3727    17.971986    23.153565     21.88795    9107.9164    1983.2395    3694.4145    2120.4643   -297.87476   -9.8510103    417.41889   -4172.6953 
35783000    64.673656   -4631.0404   -4520.1919   -4631.0404            0    2101.7524     17.93688    23.248585    21.919118    9140.4275    1558.0435    2646.3096    2100.9041    302.61024   -172.61247    138.59559   -4240.0204 
35784000    60.387723   -4631.6903   -4528.1878   -4631.6903            0    1708.6475    17.947765    23.262029    21.949418    9163.9133    2662.5464    1619.7803    843.61575    -12.89606    1.4745668    190.57494   -4299.8334 
35785000    60.005291   -4634.3046   -4531.4576   -4634.3046            0    2326.3729    17.900838     23.31464    21.902412    9141.0065    2686.8083    1683.5268    2608.7836   -169.60737   -36.005174    398.74901   -4221.3237 
35786000    60.166559   -4630.0468   -4526.9234   -4630.0468            0    2089.9421    17.785819    23.236367    22.079427    9124.9374    2407.6401     2635.026    1227.1603   -626.67091    -49.11537    533.63096   -4248.7984 
35787000    64.458814   -4630.3247   -4519.8445   -4630.3247            0    1676.8304    17.849603      23.3434    21.974663    9156.1922    1978.6318    2170.6506    881.20892   -48.863073   -8.3191977    359.92153   -4295.9312 
35788000    62.835544    -4631.031    -4523.333    -4631.031            0     1874.751    17.955285    23.338626    21.838352    9151.3986    2112.6977    1276.5223    2235.0331   -510.37799   -182.33013     220.1403   -4273.1217 
35789000    62.365244   -4626.8124   -4519.9205   -4626.8124            0    2373.8019    17.780551    23.335749     21.98339    9121.4023    3020.9322    2293.8314    1806.6422    -265.7234    285.01263    -159.8965   -4204.1424 
35790000    59.825902   -4623.4902   -4520.9507   -4623.4902            0    2734.9489    17.924648    23.186941    21.896887    9100.7349    2865.2612    2926.4039    2413.1816   -341.81976   -299.33031   -75.778558   -4157.9549 
35791000    61.648789   -4628.2546   -4522.5907   -4628.2546            0    1848.6398    17.877082    23.292176    21.915477    9125.5202    2228.6676    1624.0802    1693.1715   -303.81965   -315.28193    252.84682    -4276.562 
35792000    62.655984   -4630.6755   -4523.2853   -4630.6755            0    1509.6235    17.776343    23.450417    21.977291    9161.5117    2287.3843    760.31576    1481.1706    143.23474    88.134808    251.78461   -4321.5826 
35793000    63.852867   -4630.2822   -4520.8406   -4630.2822            0    1978.5537    17.860196    23.315054    21.957414    9143.3183    2033.0551    2307.4027    1595.2032   -1126.7862     117.9112    327.66909   -4257.0085 
35794000    64.456422   -4630.1254   -4519.6493   -4630.1254            0    2247.9379     17.93523    23.263852    21.892453    9134.4626     2584.106    2037.4692    2122.2386   -49.157657   -163.90446    115.52899   -4220.1863 
35795000    57.829354   -4632.3431   -4533.2256   -4632.3431            0    2325.3976    18.039897    23.201718    21.798384    9123.8576    1852.1507    2755.6728    2368.3694   -386.22563    63.525755   -296.45357   -4223.8033 
35796000    65.638384   -4631.6041   -4519.1021   -4631.6041            0    1942.2521    17.832538    23.314154    22.016321    9153.2974    2111.6752    1739.8357    1975.2455    23.903375    333.43754   -304.64239   -4259.8281 
35797000    64.106591   -4635.6365     -4525.76   -4635.6365            0    1867.3603    17.882654    23.429061     21.85832    9158.0631     2832.598    1460.6305    1308.8523   -195.51076   -251.44551    295.22762   -4276.3535 
35798000     62.33203   -4628.1894   -4521.3544   -4628.1894            0    1823.0165    17.941344    23.225046    21.948201    9145.5635    1121.4431    2446.1579    1901.4486    104.29418    10.318646     66.65826   -4278.2029 
35799000    63.876077     -4628.66   -4519.1786     -4628.66            0    2267.1653    17.945412     23.29143    21.837463    9127.4986    2117.3738    2439.5196    2244.6026   -348.84854   -99.005359   -121.81995   -4217.3844 
35800000    62.163729   -4630.7872   -4524.2407   -4630.7872            0    1821.5378    17.939143    23.117108    22.080264    9156.7094    1667.4594    2832.0552    965.09886    153.27031    118.76651    97.598409   -4280.9903 
35801000    65.893207   -4629.7787     -4516.84   -4629.7787            0    1467.4785    17.937942    23.210582    22.017005    9166.7816    1063.5893    1718.6362      1620.21   -175.06741    289.86883   -1.4014784   -4320.6556 
35802000     60.63636   -4626.3913   -4522.4627   -4626.3913            0    2288.8809    17.858763    23.344776     21.89764    9129.3193    2778.2917    2311.8935    1776.4575    352.54179    181.08413    87.914095   -4217.7171 
35803000    60.988997   -4630.0115   -4525.4784   -4630.0115            0    1722.1778    18.033895    23.308009    21.751174    9142.7623     1184.828    1215.7404     2765.965    194.51873    24.745805   -416.77849    -4295.847 
35804000    62.443104   -4625.6577   -4518.6323   -4625.6577            0    1915.5042    17.887982    23.357131    21.896314    9148.5413    1976.1716    2438.5824    1331.7585    103.62507   -70.652701   -249.93171   -4263.0618 
35805000    60.497683   -4625.7392   -4522.0482   -4625.7392            0    1395.0177     17.78175    23.438965    22.018449    9176.9772    1874.1291    1074.7475    1236.1764   -1134.7383   -219.36408   -271.45677   -4335.3435 
35806000    66.454252    -4627.862   -4513.9617    -4627.862            0    2060.3401    17.883574    23.424504    21.831031    9145.3213     2122.013    1458.7129    2600.2944   -562.96275    89.082721    17.961735   -4239.1635 
35807000    60.649545   -4624.2075   -4520.2563   -4624.2075            0    1920.4604    17.967684    23.361652    21.811113    9155.3188    1999.7144    2293.3446    1468.3223   -529.99834   -6.0281537    441.59159   -4263.8346 
35808000    62.483847   -4630.1249   -4523.0297   -4630.1249            0    1762.4233    17.947527     23.31182    21.886694    9157.1637    2263.4665     1217.052    1806.7514   -606.42792   -89.770434    130.61696   -4287.6619 
35809000    63.131249   -4630.2827   -4522.0779   -4630.2827            0    2037.9526    17.879653    23.329371     21.90137    9135.5227    1812.3085    2403.4937    1898.0557    202.40909    282.48441   -56.917602   -4250.5569 
35810000    61.815879   -4637.1826   -4531.2323   -4637.1826            0    2474.0526    17.969049    23.229909    21.851328    9121.1675    2583.9601    2206.5813    2631.6165    142.87579    392.34208    371.85913   -4202.1267 
35811000    60.176899   -4625.6085   -4522.4674   -4625.6085            0    1617.7174    17.961331    23.287353     21.90732    9163.2157    1321.9439    2319.3388    1211.8695    161.56707    206.96449   -154.59628   -4306.2819 
35812000    58.658117    -4617.398     -4516.86    -4617.398            0    1679.6734    17.837093    23.320254    22.021197     9160.059    1423.4706    2159.8059    1455.7437   -104.72533    97.829217   -222.71938   -4292.4723 
35813000    64.138415   -4623.1703   -4513.2392   -4623.1703            0    2101.5775    17.923696    23.286908     21.90496    9142.8554    2590.2065    1384.3918    2330.1343   -266.90324   -361.38359    233.11807   -4233.0166 
35814000    62.218279   -4625.9607   -4519.3207   -4625.9607            0     2976.596    17.976188    23.198104    21.802902    9092.1042    2256.2732    2858.3938    3815.1209   -91.686408   -274.70175    246.64436    -4124.627 
35815000    61.742186   -4635.5968   -4529.7728   -4635.5968            0    1447.2773    17.982293    23.250427    21.915763    9162.8927    781.56035    1863.9369    1696.3346    -161.3985    129.28016    430.55184   -4336.3711 
35816000    63.372559   -4624.7959   -4516.1775   -4624.7959            0    2824.9364    17.917049    23.298348    21.817524     9107.456    2409.0965    3145.4266     2920.286   -361.12094    194.22661    288.69515   -4140.9612 
35817000     57.65057   -4630.1327   -4531.3216   -4630.1327            0    2398.3343    18.009877    23.244908    21.773087    9115.0402    1768.7742    2729.7615    2696.4672   -21.498143   -117.05181   -544.42045   -4212.5026 
35818000    61.327398   -4629.1047   -4523.9916   -4629.1047            0    1528.5643    17.958176    23.375878    21.836184    9166.5706    1475.8914    1278.7825    1831.0192   -543.40986   -178.08418    130.66898   -4319.6454 
35819000    61.873074   -4638.2798   -4532.2315   -4638.2798            0    2168.9215    17.845501    23.384994    21.868937    9126.2776    2392.4166    1978.2738    2136.0741    367.63224     31.83251   -304.04079   -4243.5537 
35820000    58.734979   -4623.4021   -4522.7323   -4623.4021            0    2249.8288    17.973849    23.274233    21.837029    9135.0307     2053.489    2943.7091    1752.2881   -45.286995    112.00743   -415.49117   -4222.9988 
35821000    63.209077   -4631.8087   -4523.4705   -4631.8087            0    1914.5877    17.938486    23.273088    21.901796    9143.6487    2343.9662    2039.3841    1360.4129    34.837088    -26.90262   -125.33808   -4268.1588 
35822000    67.591174   -4623.7397   -4507.8907   -4623.7397            0    1954.8097    17.784419    23.470649    21.930728    9154.1459    2162.7441    1245.7085    2455.9765   -651.64024   -331.50018    516.84375   -4246.9161 
35823000    58.419954   -4630.5271   -4530.3973   -4630.5271            0    1881.7066     17.89975    23.364127    21.861371    9142.6886    2022.4725    1183.1813     2439.466   -243.12861    450.62713    198.07636   -4279.4967 
35824000    61.297522   -4627.9991   -4522.9372   -4627.9991            0    2496.9215    17.865139    23.381978    21.834517    9120.7644    3162.2823    1736.8152    2591.6671    100.46123    -236.6223    31.844139   -4190.8042 
35825000    60.925489   -4627.9624   -4523.5382   -4627.9624            0    1747.4891    17.927028    23.297587    21.908492     9150.224    2253.9966    1798.1073    1190.3635   -576.06861   -223.73754    84.041569   -4290.3417 
35826000    61.334333   -4631.0997   -4525.9748   -4631.0997            0    1827.8532    17.957879    23.283496    21.913836    9162.6617    1594.4246     2359.889     1529.246   -429.01997   -390.85707   -32.302189   -4281.7223 
35827000    62.069634   -4632.9112    -4526.526   -4632.9112            0    2152.1901    17.907552    23.221295    21.961187    9132.2646    2110.1802    2293.9264    2052.4639   -714.55877    250.31089   -14.252816   -4239.8872 
35828000    63.074275   -4621.5372   -4513.4301   -4621.5372            0     1567.599    17.935337    23.275038    21.959382    9166.8484    1861.5098    1486.7923     1354.495     -193.079   -80.989487    144.37669   -4303.8592 
35829000    63.989121    -4633.641   -4523.9659    -4633.641            0     2642.543    17.945082    23.203446    21.901297    9119.4318    2165.6107    2682.1455    3079.8729    119.58609    152.24503   -423.61235   -4172.5141 
35830000    66.593792   -4627.1896   -4513.0501   -4627.1896            0    1694.9806    17.927998    23.243103     21.97385    9156.5538    1749.9986    1873.1881    1461.7549   -468.24281   -165.56523   -175.11832   -4286.7042 
35831000    62.246294    -4630.285    -4523.597    -4630.285            0     1517.508    17.944815    23.315885    21.881684    9155.2796    1533.8794     1378.144    1640.5007    112.02347    527.39533    78.059053   -4320.9788 
35832000    61.191728   -4631.6882   -4526.8077   -4631.6882            0    1794.0586    17.921458    23.289664    21.912489    9145.9386    1988.4404    1612.0174    1781.7181   -537.12317   -327.07881   -130.86349   -4287.5088 
35833000    59.317515   -4630.6189   -4528.9507   -4630.6189            0    1675.2758    17.840772    23.390292    21.939384    9155.3238    2110.2411     1339.224    1576.3621    359.00449    251.78522   -245.93775   -4305.2662 
35834000    67.512953   -4630.7427   -4515.0278   -4630.7427            0    1815.4135    17.981019    23.251958    21.890176    9152.1489    1802.1225    1519.2216    2124.8964    58.248598   -4.6257023   -414.10442    -4272.716 
35835000    64.118914   -4632.4555   -4522.5578   -4632.4555            0    2021.2697     17.79971    23.391941    21.937956    9134.3016    2699.7314    2105.1309     1258.947   -93.917807    161.99853   -304.93806   -4253.2956 
35836000    64.361102    -4632.562   -4522.2493    -4632.562            0    1785.6252    17.913018    23.234699    21.989232    9151.9973    2004.6918    2183.4108    1168.7729    167.50245   -236.96176   -93.237063   -4283.9174 
35837000    61.099434   -4631.6185   -4526.8962   -4631.6185            0    2177.9369    17.859244    23.236512    22.012032    9134.6967    3118.6013    1954.5182    1460.6912   -896.25782   -162.56811   -41.879661    -4236.751 
35838000    66.254838   -4627.4525   -4513.8939   -4627.4525            0     1957.751    17.836464    23.502793    21.835955     9153.779    2560.4725    1362.8792    1949.9013   -55.194257   -1.2239678   -274.64036   -4252.5372 
35839000    60.842208   -4635.2206   -4530.9391   -4635.2206            0    1699.6354    17.869512    23.267423    22.015232    9153.4379    1814.9996    1287.8971    1996.0094   -94.858568   -124.45665    21.806979   -4304.0488 
35840000    61.103246   -4627.3539   -4522.6251   -4627.3539            0    1969.2867    17.991581    23.262734    21.888295    9160.9813    1758.1791    2549.1965    1600.4846   -186.05926   -330.59399   -153.06755   -4259.5214 
35841000     56.96436   -4627.4457   -4529.8107   -4627.4457            0    2026.4032    17.942398    23.288415    21.932379    9164.4451    2482.0148    2259.6038    1337.5909    348.55985    23.791346    141.04098   -4258.9738 
35842000    65.141309    -4628.515    -4516.865    -4628.515            0    2054.7364    17.817878    23.332458    21.987228    9140.8578    2227.9737    2170.7253    1765.5102    26.597509    29.259294    80.743406    -4242.948 
35843000    61.634957   -4635.1231   -4529.4829   -4635.1231            0    1537.1397    17.794541    23.408321    22.012196    9168.9673    2004.4425    1051.9679    1555.0086    259.74466   -480.19156   -99.384932   -4323.9366 
35844000    62.320984   -4630.3707   -4523.5547   -4630.3707            0    2111.8914    17.994941    23.225758     21.87815    9143.8883    1798.8041    2389.8796    2146.9904    799.79104    29.158771   -92.455077    -4241.925 
35845000    60.562657   -4631.4414   -4527.6391   -4631.4414            0    1875.8326    17.861915    23.353625    21.950187    9156.3109    2248.7821    1249.2126     2129.503   -98.333393    -212.3342   -195.56032    -4277.149 
35846000    62.590044   -4626.2795   -4519.0023   -4626.2795            0    1343.7852    17.836861    23.340324    22.033867    9173.0978    2251.1051    690.83524    1089.4152   -3.7971186    -516.2438   -227.88303   -4339.2304 
35847000    65.379192   -4635.8401   -4523.7824   -4635.8401            0    1686.2618    17.913019    23.254996    22.006358    9167.1264    1845.6961    2186.7439    1026.3453   -28.809437    53.400336    228.99031   -4298.3408 
35848000    59.328553   -4632.7698   -4531.0827   -4632.7698            0    2132.8985    17.924256    23.224899    21.964449    9143.5595    1779.0896    2465.6819    2153.9239   -701.50461   -442.78138    121.30697   -4246.6619 
35849000    64.346836   -4629.6259   -4519.3376   -4629.6259            0    2313.8434    17.847879    23.191286    22.058686    9130.4264    1824.7579    2474.9988    2641.7734   -374.94251   -48.635109    233.37333   -4211.2311 
35850000    61.811806   -4633.8872   -4527.9438   -4633.8872            0    1613.1609     17.88212    23.251692    22.026218    9158.2713    1396.0701     2361.904    1081.5085    495.28926     319.8832   -219.94511   -4312.4836 
35851000    61.482778   -4637.7656   -4532.3862   -4637.7656            0    2028.1919    17.849898     23.35086    21.911721    9133.0346    2661.7455    1902.1477    1520.6824    486.63227   -79.645221   -66.238673   -4262.2393 
35852000    64.756156   -4627.9178   -4516.9279   -4627.9178            0    2517.9795    18.042451    23.139084    21.810135    9105.4216    1509.6411    3142.1799    2902.1174   -506.82775     433.1855    -322.4317   -4182.5573 
35853000     63.10953   -4627.3312   -4519.1637   -4627.3312            0    2292.8291    17.920585    23.312395    21.882246     9141.784    2504.8266    1972.8932    2400.7674   -173.97189   -66.337926    -90.03774   -4213.4756 
35854000    62.461226   -4629.4522   -4522.3958   -4629.4522            0    2142.4738    17.829897    23.368618    21.898395    9124.1863    2240.6127    2380.1382    1806.6706   -59.756893   -46.434239    318.41383   -4237.3035 
35855000    63.287403   -4626.1343   -4517.6618   -4626.1343            0    2360.1562    17.940117     23.23322    21.898462    9127.4252    1882.0014     2820.559    2377.9082   -141.53795    568.34693   -133.14034   -4203.4917 
35856000    59.779339   -4631.2213   -4528.7615   -4631.2213            0    1776.7386     17.94258    23.358233     21.83837    9152.6128    1763.8461    1189.9359    2376.4338   -117.46743    94.206126   -176.93756   -4291.5999 
35857000    59.225768    -4628.928   -4527.4171    -4628.928            0    2282.4402     17.77057    23.344198    22.000394     9126.637    3076.0879    2130.9888    1640.2438    15.582623   -23.354391    9.2868941   -4223.6183 
35858000    65.262299   -4633.4732   -4521.6159   -4633.4732            0    2492.7709    17.974479    23.182493    21.890714    9121.7125    1726.7595    3429.3179    2322.2354   -538.05326    206.40675    165.67296   -4190.0005 
35859000    60.557123   -4628.6174   -4524.8246   -4628.6174            0    1897.3494    17.904185    23.365448    21.859833    9144.8275     1865.162    1641.1041    2185.7821   -17.937846     69.58895     313.8386    -4271.779 
35860000    63.420788   -4635.2097   -4526.5086   -4635.2097            0     1372.927    17.976599    23.410286    21.788127    9169.2573    438.16936    1848.5088    1832.1027   -352.44148    221.78766    125.52626   -4342.9151 
35861000    60.908904   -4624.8977   -4520.5019   -4624.8977            0    1743.4406    17.798002    23.336359    22.017414    9144.7251    1934.2645    2137.0567    1159.0006   -567.16426   -74.142046    120.07545   -4287.9855 
35862000    61.519737   -4628.9964   -4523.5537   -4628.9964            0    1413.5692    17.956736    23.392555    21.812498    9162.4255    1310.4562    1589.7639    1340.4876     210.3966   -46.314594   -167.14882   -4334.6661 
35863000    63.193247    -4632.653    -4524.342    -4632.653            0    1891.3776    17.945086    23.264038    21.938152    9158.6335    1468.1303    2421.3465     1784.656   -171.74816   -119.91094     -164.769    -4271.712 
35864000     63.92553   -4621.2343   -4511.6681   -4621.2343            0     2363.745    17.781874     23.37701    21.963873    9130.0976    2398.6811    2293.0386    2399.5152   -44.143745   -292.99222   -71.439808   -4196.9281 
35865000    66.425409   -4631.3883   -4517.5375   -4631.3883            0    1806.7352    17.994363    23.212908     21.93319    9161.5263      2293.36    1799.1444    1327.7013    144.44253   -50.082125    95.366441   -4276.1369 
35866000    60.119682   -4629.0749   -4526.0318   -4629.0749            0    1951.9764    17.924356    23.198829    21.953076     9128.617    2450.6501    2671.9438    733.33535     229.5063   -1.6131684   -407.39892   -4266.1622 
35867000    59.138343   -4631.2848   -4529.9237   -4631.2848            0    2727.1757    17.900648    23.152934     21.98837    9113.1354     3056.695    2485.7194    2639.1128    113.70937    96.786143   -87.499025   -4167.4664 
35868000    61.391072   -4632.5991   -4527.3769   -4632.5991            0    2215.2424    17.978861    23.173504     21.91093    9128.8215    2005.1739    2154.2121    2486.3411    232.21586    27.388206    139.78059   -4232.4517 
35869000    63.069788   -4629.1622   -4521.0628   -4629.1622            0    1417.9075    17.869423    23.402947    21.940086    9175.2817     1519.652    1631.6902    1102.3803    44.834446   -309.28539    589.78118   -4331.3296 
35870000    61.363047   -4632.5881   -4527.4139   -4632.5881            0      1778.67    17.938701      23.2862     21.93033    9160.8289       2425.2    2063.8261    846.98381    117.49016    331.39528    354.28442   -4289.7813 
35871000    60.198279   -4628.6121   -4525.4343   -4628.6121            0    2323.3614    17.896876    23.282134     21.90904     9129.003    2026.8882    2903.3301    2039.8659    51.291352    442.57522    325.94651   -4216.1086 
35872000    63.584692   -4626.5432   -4517.5612   -4626.5432            0    1522.8261    17.934592    23.394385     21.88358    9181.6667    1454.8945    1189.7983    1923.7855    421.73766    73.885452   -176.17485   -4313.6469 
35873000    59.473426   -4635.2815   -4533.3461   -4635.2815            0    2354.5158    17.957285    23.285398    21.826503    9126.5896    2121.2182     2580.316    2362.0132    55.911228   -214.38121   -270.77373   -4219.9555 
35874000    63.838725   -4626.7814    -4517.364   -4626.7814            0    1957.5571    17.852688    23.448913    21.866024    9153.6889    1784.2935      2189.12    1899.2579   -614.37635    -259.3524   -70.575411   -4256.0357 
35875000    65.354864   -4624.9727   -4512.9567   -4624.9727            0    1990.3611    17.875209    23.225309    22.016849    9140.4547    1876.3874    1852.6543    2242.0415   -611.24005    370.77244    73.833719   -4247.6333 
35876000    63.240454   -4631.8851   -4523.4932   -4631.8851            0    2070.0919    18.006987    23.094825    21.982533    9141.8366    1931.9752    2629.1261    1649.1743   -32.746949    479.75944   -116.41167   -4247.4996 
35877000    65.322994   -4631.5278   -4519.5664   -4631.5278            0    2302.8243    17.901794     23.21157     21.95836    9124.3302    2266.2218    2464.7521    2177.4991    15.227391   -195.49136   -88.138622   -4213.1319 
35878000    60.018823   -4624.2002     -4521.33   -4624.2002            0    2664.5883    17.899691    23.198535    21.958324    9118.1198    3138.6305    2380.5363    2474.5981   -619.11503     -154.365   -366.66858   -4166.9972 
35879000        66.14   -4628.6728   -4515.3112   -4628.6728            0    2407.7038    17.960625    23.292987    21.818062    9127.7302     2060.409    2473.3811    2689.3214   -628.26365    412.88019   -91.383287    -4194.801 
35880000    62.740868   -4634.7384   -4527.2027   -4634.7384            0    2588.5022    17.968226    23.141182    21.918646    9113.9038    2313.3231     3161.957    2290.2264    285.03303    384.32301    417.69596   -4183.1469 
35881000    60.683322   -4634.1277   -4530.1185   -4634.1277            0    1965.0227    17.843501    23.282704    21.971398    9127.9065    2444.8522    1630.3533    1819.8627    64.414742   -32.300622    722.82877   -4268.5324 
35882000    63.096092   -4624.8451   -4516.7006   -4624.8451            0    1786.1695    17.937108    23.299621    21.917357    9159.8733    1477.6365    1939.7068    1941.1652   -33.916029   -121.94617    199.58268   -4278.0909 
35883000     62.96605   -4635.3824   -4527.4608   -4635.3824            0    2112.8812    17.845353    23.462631    21.846782    9147.2243    2478.1162    1265.2205    2595.3068   -211.35726   -158.63528    25.757016   -4245.5963 
35884000    63.534695   -4638.0506   -4529.1543   -4638.0506            0    2055.1087    17.868729    23.404607    21.837356    9132.6138    1441.7987    2110.2574      2613.27   -1091.0758   -9.8981882   -235.07057   -4255.4348 
35885000    59.721617   -4635.3075   -4532.9467   -4635.3075            0    1722.7847    17.854138    23.445962    21.848854    9146.0931    2425.8297    739.04623    2003.4781    69.030658    -179.1007    167.89486   -4303.1506 
35886000    59.503399   -4624.0072   -4522.0204   -4624.0072            0    2146.2727    17.937663    23.245563    21.908567    9135.2383     2522.522    2613.5802    1302.7158    161.65596   -76.827683   -64.948327   -4236.0766 
35887000    61.950409   -4634.5211   -4528.3402   -4634.5211            0    1827.9925     17.81614     23.43667    21.902892    9145.5746    2081.2245    1410.0537    1992.6992   -180.35236   -30.115239    52.477133   -4284.5248 
35888000    63.424281   -4633.2498   -4524.5428   -4633.2498            0    1647.5039    17.929058    23.369574    21.875503    9165.7143    1879.8348    1531.4665    1531.2103   -387.42444     274.3102   -325.55174   -4304.3167 
35889000    60.245968   -4637.6526   -4534.3931   -4637.6526            0    1342.2404    17.999346    23.259562    21.892365    9165.3896    1106.3554    963.48371    1956.8821    466.46777    74.555764    128.74995   -4354.9788 
35890000    62.687601   -4630.9054    -4523.461   -4630.9054            0    1875.7231    17.983192     23.22996    21.860045    9132.0082    1763.3452    1491.3778    2372.4464    413.45964   -94.502342   -28.049567   -4273.6504 
35891000     61.83755   -4637.3494    -4531.362   -4637.3494            0    1474.2225    17.901061    23.358427    21.915035    9163.5663    1674.6254     1197.565     1550.477   -207.92869   -203.45146    262.43848   -4334.3451 
35892000    61.957795   -4631.8386   -4525.6451   -4631.8386            0    2607.5544    17.986929    23.154559    21.888175    9115.9741     2171.684     3119.089    2531.8902   -565.04221    50.290154    80.592029   -4178.9782 
35893000    59.503261   -4630.2743   -4528.2877   -4630.2743            0    1666.7753    17.889922    23.397049      21.8715    9154.7838     2091.396    1362.6026    1546.3272   -375.09503     25.13903    -32.11783   -4305.7513 
35894000    61.884009   -4630.6677   -4524.6007   -4630.6677            0    1980.4502    18.065558    23.229422    21.793764    9145.8072    819.50663     2350.951    2770.8929   -275.56313    244.55613   -194.60882   -4260.4438 
35895000    64.154492   -4627.4154   -4517.4568   -4627.4154            0    1954.5201    17.989424    23.343462    21.786607    9148.9685    1905.6053    1299.9415    2658.0136    425.32078    -175.4615    -192.9589   -4256.6685 
35896000     62.94401   -4634.2687   -4526.3848   -4634.2687            0    1896.3561    17.862853    23.440591    21.830536    9140.7909    2098.5523      2104.85    1485.6659    184.56505   -256.59282    190.36537   -4273.5834 
35897000    59.046823   -4632.5955   -4531.3912   -4632.5955            0    2161.7225    17.871021    23.273162    21.935043    9123.1168    2180.3948    2043.3407     2261.432    353.82423    391.89126    201.58093   -4243.7712 
35898000    58.882814   -4631.6353   -4530.7121   -4631.6353            0    1946.7256    17.964216    23.234997    21.914612    9147.1265    1994.8539    2377.1284    1468.1946     123.7189    226.00434   -209.72136   -4271.0161 
35899000    64.490325   -4627.1616   -4516.6274   -4627.1616            0    1644.0997    18.037158    23.203085    21.871769    9153.7229    833.42256    1399.7965    2699.0802    502.98965    42.940266    121.06522   -4297.1439 
35900000     62.78746   -4633.6248   -4526.0093   -4633.6248            0    2592.5415    17.884092    23.320579    21.853405    9114.3424     2481.813    2434.7349    2861.0765    154.00469     14.88216    509.20656      -4181.4 
35901000    64.896798    -4627.972   -4516.7411    -4627.972            0    1897.1848    17.946427    23.155017    21.978973     9133.358    2116.0636    2558.6485    1016.8423   0.31569158   -57.316849    409.93379   -4264.0349 
35902000    57.953014    -4628.592   -4529.2625    -4628.592            0    1904.8283    18.009393    23.252032    21.815337    9135.2806    1776.4931     1732.877    2205.1148   -414.51381    -272.4516     36.33022   -4275.4847 
35903000     62.44083    -4630.303   -4523.2816    -4630.303            0    1586.3049    17.913233    23.330879    21.930137    9165.2942    1851.8342    2041.6292    865.45119   -78.171631    -373.5294    414.10933   -4311.2459 
35904000     61.04049   -4633.2379   -4528.6166   -4633.2379            0    2036.2946    17.878347      23.2402    21.951579    9120.8009    1653.0598    2453.9166    2001.9073    363.71845    132.05489   -62.036546   -4257.7537 
35905000     63.39145   -4631.9051   -4523.2543   -4631.9051            0    2345.7622    17.945014    23.371049    21.750764    9122.1353    2063.5978    2144.9565    2828.7324   -306.89178    209.37226     43.55557   -4211.1812 
35906000    59.021356    -4636.284   -4535.1235    -4636.284            0    2006.0883    17.959343    23.264056    21.848848    9128.6051    1479.6205    2080.1196    2458.5248   -123.44218    -16.02346    86.267557   -4268.0502 
35907000    63.955705   -4637.2428   -4527.6249   -4637.2428            0    1620.4279    17.931341    23.153369    22.049477    9154.3024    1540.2729    2341.8897    979.12102   -209.51346    315.24066   -175.54408   -4311.2879 
35908000    61.593491   -4632.4022    -4526.833   -4632.4022            0    1871.9232    17.893138    23.344399    21.900218    9147.8206    1487.9159    1984.1816     2143.672   -358.38795    20.996758   -128.50854   -4277.0968 
35909000    63.665874   -4632.7454   -4523.6242   -4632.7454            0    2816.1259    17.816976    23.393607    21.818711     9094.111    3108.6709    2110.2303    3229.4765   -487.66639    323.18909      263.427   -4150.1263 
35910000    64.734754   -4627.6531      -4516.7   -4627.6531            0    1640.5238     18.05419     23.10292    21.965923    9162.0853    1054.3162    2505.1416    1362.1136   -67.548732   -150.26393    287.61561   -4297.4938 
35911000    59.450173     -4634.59   -4532.6944     -4634.59            0    1286.7856    17.928676    23.422335    21.822614    9164.0021    1497.9765    1172.4896    1189.8907    201.09502   -220.81529    66.027186   -4360.7187 
35912000    59.486521   -4629.5131   -4527.5553   -4629.5131            0    2145.0314    17.905515    23.272407    21.899529     9125.631    2260.9583    2091.9504    2082.1854   -63.431956    210.84119    105.13201   -4242.0774 
35913000    61.872861   -4627.9231   -4521.8752   -4627.9231            0    2997.2368    17.879486    23.256186    21.878039    9097.0782    3052.3858    2394.1559    3545.1686    22.392163   -4.2025107   -6.4962531   -4124.2271 
35914000    60.899857   -4631.2544   -4526.8741   -4631.2544            0    1502.2738    17.893711    23.191209    22.037017    9144.8505    1045.1558    1913.9897    1547.6758    -20.25078   -80.756716   -206.38492   -4326.5185 
35915000    61.985755   -4630.8745    -4524.633   -4630.8745            0    2364.5542    17.958764      23.2944    21.795628    9117.9531    2144.3522    2297.0136    2652.2967    161.28262   -35.817588   -212.03849   -4210.2041 
35916000     63.74473   -4628.7529   -4519.4967   -4628.7529            0    2115.5894    17.933759    23.231986    21.960443    9149.5297    2464.0328    1618.4299    2264.3056   -123.94988   -333.04719   -284.61906   -4237.1998 
35917000    61.874469   -4636.3989   -4530.3482   -4636.3989            0    1976.2127    17.811162    23.364222    21.950793    9134.6894    1922.9987    1696.9133    2308.7261   -245.17488     196.2976   -74.094433    -4267.077 
35918000    66.297958   -4626.3735    -4512.741   -4626.3735            0    2500.5397     17.85765    23.300288    21.893203    9109.5074    2867.5586    2295.7758    2338.2846   -376.70242   -102.13912   -84.810476   -4180.5373 
35919000    63.659921   -4626.1317   -4517.0208   -4626.1317            0    1924.2438    17.951525    23.168749    21.993565    9147.4396    1490.7542      2806.43    1475.5471   -244.38007    28.460915   -514.36622   -4260.3151 
35920000     63.82096   -4633.8164   -4524.4294   -4633.8164            0    1697.7035    17.909001    23.401619    21.827632    9147.9524    1946.8664       1642.4     1503.844    -177.6762    216.53348   -142.42455   -4297.9329 
35921000    59.910549   -4627.3437   -4524.6591   -4627.3437            0    1545.3153    17.988677    23.312342    21.836257    9157.2135    1838.0306    289.67555    2508.2398   -182.28657   -254.85993    230.34221   -4318.2845 
35922000    62.957714   -4633.9862   -4526.0788   -4633.9862            0    2077.9802    18.031781    23.209462    21.807698    9126.6945    1937.2118    2459.2732    1837.4558   -201.26591    318.62459    493.97059   -4249.4924 
35923000    59.687452   -4627.7619   -4525.4596   -4627.7619            0    1624.8749     17.92389    23.127375    22.085051    9154.9717    1392.9577    2090.1556    1391.5115    86.530249    228.73518   -39.110593    -4308.513 
35924000    60.740457   -4631.6983   -4527.5913   -4631.6983            0    1778.8173    17.940021    23.251748    21.945208    9154.1547    1103.2452    1756.7816    2476.4249   -269.60494    102.89343    96.881741   -4290.1121 
35925000    63.703625    -4628.726   -4519.5401    -4628.726            0    2102.6318     17.90081    23.297348    21.860696    9116.8153    1625.0963    2595.6783    2087.1206   -122.90503   -6.7127693     126.5757   -4239.9755 
35926000     61.39117   -4631.1899   -4525.9676   -4631.1899            0    2242.0786     17.89654    23.255314    21.951059    9135.8037    2731.4063    2406.6107    1588.2186   -438.42593     527.8436    144.84105   -4227.2413 
35927000    65.686175   -4628.6291   -4516.0453   -4628.6291            0    2234.3014    17.831446    23.394363    21.899145     9135.345     2765.934    1473.2652    2463.7051    656.92025    391.62143    576.73713   -4218.3701 
35928000     65.27774   -4629.9651   -4518.0813   -4629.9651            0    2149.8888    17.859888    23.300076    21.913456    9118.9943    2836.9305    1668.4289    1944.3069    518.58646    386.49229   -221.00141    -4232.165 
35929000    62.541416   -4632.4032   -4525.2094   -4632.4032            0    1577.8644    17.962134    23.317695    21.849395    9151.3037    1010.7257    1378.8206    2344.0469    -442.5469    -117.6148    -23.16375   -4314.6239 
35930000    61.594611   -4630.3613   -4524.7903   -4630.3613            0    2182.0822     17.82937    23.278382    21.976361    9121.0443    2327.5908    2370.4196    1848.2363    664.93591    184.77443    436.94777   -4234.5273 
35931000    63.812322      -4629.5   -4520.1278      -4629.5            0    2593.4485     17.87246    23.340676    21.865685    9121.3863    3221.0006    2015.4127     2543.932   -75.949576      325.977    207.25547   -4175.1316 
35932000    66.891836    -4627.657   -4513.0067    -4627.657            0    2068.8348    17.915235    23.274337    21.934768    9146.0353    1740.9224    2674.7017    1790.8804    203.66525    587.94806    393.98625    -4237.054 
35933000     60.71437   -4630.0639   -4526.0016   -4630.0639            0    2602.4449    17.923114    23.312006     21.78849    9103.7479    2651.9207    2218.5536    2936.8603    186.21296     55.79731   -16.192206    -4180.478 
35934000    61.072547   -4633.3132   -4528.6369   -4633.3132            0    2112.0301    17.941797    23.351651    21.813811     9139.345    2320.9105    1706.5023    2308.6775   -503.41611   -12.619519    105.95095   -4247.1287 
35935000    63.643231   -4626.8695   -4517.7872   -4626.8695            0    2584.8622    17.834452    23.250796    21.994619    9120.4033    2110.9484    2709.7945    2933.8436    93.501665    99.428212   -161.22458   -4173.9702 
35936000    63.500787   -4626.2508   -4517.4127   -4626.2508            0    2949.2229    17.934052    23.264105     21.81568     9101.931    2601.6788    2841.4348     3404.555    528.24869    532.93626   -94.208491    -4125.926 
35937000    61.874226   -4631.7668   -4525.7165   -4631.7668            0    1927.3121    17.978261    23.154609    21.957626    9140.5115    1454.5363    2512.9051    1814.4949    167.59272   -89.514193    207.21903   -4268.7962 
35938000    65.939475   -4628.1727   -4515.1547   -4628.1727            0    2001.3786    17.864607    23.433533    21.827463      9137.65     1900.793     1405.165    2698.1778   -166.61886   -252.53578   -85.592939   -4248.4445 
35939000     58.38121   -4629.0484    -4528.985   -4629.0484            0    2017.1011    17.796037    23.244906    22.063027    9126.7506    2188.9665    2159.3323    1703.0047   -696.56886    127.56568    278.53589   -4260.5002 
35940000    65.832918   -4628.5233   -4515.6879   -4628.5233            0    1552.5244    17.907801    23.372836     21.88089      9158.38    1957.9057    1798.0063    901.66118   -384.37588    110.57286    376.16163   -4308.3241 
35941000    61.309145   -4626.1451   -4521.0633   -4626.1451            0    2384.7994    17.922731    23.325916    21.829222    9126.0141    2192.2305    1335.8164    3626.3514   -502.16203    96.652164    211.35743   -4203.6618 
35942000    64.475335   -4629.9004   -4519.3918   -4629.9004            0    2584.0668    17.906872    23.145183    21.973915    9107.2615    2379.8126    3123.7439    2248.6439   -265.07375    254.56077     210.7697   -4176.1759 
35943000    61.784677   -4626.9947   -4521.0978   -4626.9947            0    2464.7429     17.79447    23.365465    21.941593    9122.7895    2840.0755    2051.4156    2502.7375   -420.04646    152.58544   -133.99655   -4193.1724 
35944000    62.798425   -4623.0404    -4515.406   -4623.0404            0    2001.5549    17.868439    23.268279    22.015115    9153.1761     3094.958    1946.8078    962.89898    141.22947    19.746752   -114.18744   -4248.2191 
35945000    61.580046   -4631.2686   -4525.7225   -4631.2686            0    1870.5178    18.026063    23.247534    21.796918    9134.2492    1459.4047    1491.0381    2661.1105   -386.90481    185.95252   -152.27949    -4276.544 
35946000    63.360417   -4629.5826    -4520.985   -4629.5826            0    2892.3172    17.843349    23.259991    21.906435    9091.9624    2777.6598    3237.8602    2661.4318    125.61951    146.94271   -56.235822   -4137.4726 
35947000    61.598258    -4627.018   -4521.4407    -4627.018            0    1550.3952    17.912642    23.350423    21.910896    9164.6219    1811.5266    1894.5421    945.11703   -43.045515   -299.45117   -131.14908   -4314.2202 
35948000    63.611374   -4631.1278   -4522.1001   -4631.1278            0    2021.5366    17.915838    23.290681    21.928289    9150.0623    3051.0147    1875.6324    1137.9628   -433.46241    397.15207   -255.29775   -4252.3376 
35949000    65.696147   -4631.1837   -4518.5827   -4631.1837            0    1882.2231    17.921483    23.223475    21.988144    9151.4462    1866.2673    2058.7813    1721.6207    124.19972   -58.979703    27.425292   -4267.3728 
35950000    60.004897   -4626.1075   -4523.2611   -4626.1075            0    2325.5623    17.901871    23.383859    21.808639    9129.4197    2477.5099    1556.2037    2942.9733   -219.82427    48.401403    69.535319   -4213.6283 
35951000     62.41425   -4628.3729    -4521.397   -4628.3729            0    1999.5975    17.804439    23.351001    21.981194    9138.7143      2279.32    2130.7876     1588.685    87.102268   -120.20321    47.637573   -4254.8931 
35952000    65.298896   -4632.2353   -4520.3152   -4632.2353            0    2450.3646    17.838813    23.235289    21.978751    9109.9721    2681.7855    2784.2159    1885.0922   -150.68879    236.78712   -37.777897   -4194.7608 
35953000    61.542342   -4632.3808   -4526.8993   -4632.3808            0    1874.6024    17.945718    23.226466    21.935808    9143.1872    2250.9078    1675.9899    1696.9096    303.80094   -242.10236    51.400256   -4276.9323 
35954000    62.110064   -4636.5392   -4530.0847   -4636.5392            0     1563.188    17.912005    23.332187     21.90001    9152.5888    1180.3535    1872.2218    1636.9888    36.095943   -27.491964    267.02634   -4321.4286 
35955000    60.487116   -4632.1493   -4528.4765   -4632.1493            0    2418.7501    17.826548    23.253045    21.992616     9116.413    2496.2137    1922.2617    2837.7749    -207.3997   -239.66511    173.38638   -4206.8951 
35956000    60.464156   -4631.4751   -4527.8416   -4631.4751            0    2219.5035    17.953351    23.206077    21.918712     9131.924    1950.9874    3147.6704    1559.8527   -412.08304   -80.291347    248.33503   -4232.2487 
35957000    64.480419   -4636.8875   -4526.3703   -4636.8875            0    2115.7014    17.971369    23.210371    21.934619    9149.4155     2365.787    1924.3635    2056.9537   -915.85463   -421.92587    120.88016    -4244.062 
35958000     65.11688   -4630.9462   -4519.3381   -4630.9462            0    2134.0333    17.941499    23.172328     21.96951    9133.7424    2180.2232    2211.7236    2010.1532    183.67272    47.885231    165.08362   -4235.0715 
35959000    61.371744   -4626.8511    -4521.662   -4626.8511            0    2581.2813    17.962804    23.253923    21.847619    9125.8739    1802.7906    3176.9113    2764.1421    246.07217    60.497244    481.42607   -4178.1154 
35960000    64.365587   -4627.8229   -4517.5025   -4627.8229            0    1823.3439    18.007623    23.234526    21.892432    9159.7623    1204.0698    2019.1875    2246.7745    48.069171   -16.201788     399.0804   -4273.9297 
35961000    63.370354   -4635.3225   -4526.7078   -4635.3225            0    2536.6669    17.955543    23.229986    21.867867    9121.2412    2032.3893    3169.4505     2408.161    466.35481   -176.54163    171.93187   -4189.2704 
35962000    65.729738   -4634.3961   -4521.7376   -4634.3961            0    2070.8279    17.831409    23.311595    21.985531     9138.914    2716.8457    1991.3601    1504.2778   -505.88088   -257.66234    387.85612   -4245.7341 
35963000    64.649489    -4627.845   -4517.0379    -4627.845            0    2181.7344    17.917657    23.324595    21.853143    9132.9114    2759.9072    1683.1039     2102.192   -49.161652   -137.51933    36.422598   -4226.4437 
35964000    60.824914    -4628.926   -4524.6742    -4628.926            0    2056.9639    17.908229    23.368244    21.845731    9142.0859     1960.231    2158.3575    2052.3034   -152.83081   -156.88016    285.56167   -4250.4234 
35965000    59.871876    -4639.077   -4536.4587    -4639.077            0    1642.1135    17.885376    23.441655     21.85099    9161.3075    1434.3465    549.31264    2942.6814    569.20296   -94.180402   -278.97285   -4317.0587 
35966000    61.829046   -4632.6428   -4526.6699   -4632.6428            0    1955.9106    18.006606    23.282716    21.820863    9148.2372     2109.634    1796.6775    1961.4202    230.96031    1.5105286    323.06435   -4265.7169 
35967000    58.003463   -4630.4734   -4531.0575   -4630.4734            0     1698.142    17.957546    23.350778    21.819972     9149.609     1651.941    1321.0809    2121.4042    -40.61076   -161.12562    74.979993   -4304.4614 
35968000    59.617726   -4624.0253   -4521.8425   -4624.0253            0    2613.9564    17.818703    23.415183    21.868597    9124.1948    3092.4322    2281.5424    2467.8946    189.52251    310.08718    228.79785   -4174.0111 
35969000    63.223358   -4628.4221   -4520.0594   -4628.4221            0    1782.6346    17.887418    23.354347    21.900938    9149.0945    2240.4938    1565.5613    1541.8486   -241.89915    144.22019    37.905582   -4282.2022 
35970000    63.434445   -4639.0187   -4530.2942   -4639.0187            0    1635.3251    17.937891    23.394145    21.814736    9154.3711    2292.4445    1188.9859    1424.5449    -196.9449    -191.8909    397.19229   -4311.9667 
35971000    62.853888    -4631.527   -4523.7975    -4631.527            0    1937.4057    17.963812    23.173326    21.954795    9139.3698    1916.7503    1943.5577    1951.9092    235.38929   -589.16724    524.18057    -4265.564 
35972000    61.772719   -4632.2657   -4526.3894   -4632.2657            0    2732.5147    17.837824    23.246816    21.972956    9111.5832    2766.4269    3217.4978    2213.6193   -166.31853   -166.20504    595.36737   -4163.2843 
35973000    58.851245   -4626.3066   -4525.4376   -4626.3066            0     1894.898    17.919156    23.282966    21.926085    9147.8061     2068.032      1620.72    1995.9419   -282.43098   -51.284156   -57.356607   -4272.6366 
35974000    64.657078   -4634.2248   -4523.4047   -4634.2248            0    2006.7333    17.942005    23.237147    21.940607       9147.5    1854.7923    2807.8976      1357.51    530.31715   -210.38448   -49.861893   -4255.6927 
35975000    61.431182   -4631.3085   -4526.0175   -4631.3085            0    2501.4617     18.01788    23.236383     21.78961    9122.6637    1751.4343    3006.3422    2746.6087   -363.01042   -29.097882    336.13027   -4193.2113 
35976000    64.556827    -4633.584   -4522.9358    -4633.584            0    1791.1607    17.893153    23.416015     21.85143    9155.4509    1631.9865    1254.1434    2487.3521   -310.38945    -404.6325    208.51637   -4283.7749 
35977000    63.755713   -4619.5375   -4510.2624   -4619.5375            0    2016.4156    17.981698    23.428101     21.70278    9142.8829    1589.0464    1424.7194    3035.4811    55.047755    23.753415    247.86617   -4241.3944 
35978000    63.562413   -4624.8015   -4515.8577   -4624.8015            0    2124.4564    17.737393    23.443983    21.962159    9132.6373    1453.9341    1464.1614    3455.2738   -516.25697    -79.99355    268.76561   -4232.9011 
35979000    63.251723   -4628.0134   -4519.6022   -4628.0134            0    2628.1861    17.844955    23.332848    21.882132    9111.1428      2163.33    2881.7638    2839.4645    119.97074   -188.66212    380.41484   -4170.3775 
35980000    62.654497   -4623.2321   -4515.8445   -4623.2321            0    1961.8634    17.994645    23.302773    21.819024    9149.2652    1831.8825    2164.6427     1889.065   -519.30794   -243.69724    105.93757   -4254.0678 
35981000    63.690432   -4627.2527   -4518.0895   -4627.2527            0    2315.0027    17.932198     23.30207    21.857981    9133.5177    2747.1763    2905.7555    1292.0764   -57.142952   -405.23701    184.39498   -4209.7242 
35982000    66.166914   -4637.2847   -4523.8769   -4637.2847            0    1756.5513    17.836043    23.347572    22.004954    9163.4857    2170.0778    1760.2605    1339.3156    -607.0424   -157.70507   -621.77188   -4289.1313 
35983000    64.029827   -4635.3023   -4525.5574   -4635.3023            0    2179.9688    17.874019     23.25515    21.951968    9124.6211    2049.7875    2198.2996    2291.8193   -511.38454   -57.797747   -52.908016   -4235.4619 
35984000    63.294617   -4626.3412   -4517.8564   -4626.3412            0    2130.6457    17.969516    23.203043    21.893155    9128.2953    1335.5397    2515.4337    2540.9637    236.26831     -343.368    293.17911   -4234.2103 
35985000    61.052736   -4634.7238   -4530.0815   -4634.7238            0    1804.9323    17.961768    23.186986     22.00366    9164.0682    1626.0399    2811.6945     977.0624    400.33189   -157.62165    367.54253   -4288.8549 
35986000    62.145205    -4631.565   -4525.0502    -4631.565            0    2468.4882    17.932154    23.314081    21.835858    9128.9541    2814.4283    1646.3441    2944.6923   -65.325584    199.70134    166.22082   -4196.4045 
35987000    61.804022    -4629.887    -4523.957    -4629.887            0    1028.1894    18.018067    23.318617    21.857969     9183.766    566.36196    1256.5524    1261.6538    98.986895   -637.50456    269.58466   -4386.2457 
35988000    62.752608    -4626.433   -4518.8772    -4626.433            0    2609.0432    17.963397    23.131074     21.91955    9107.8504    3224.5577    1972.4568     2630.115    413.36142   -298.59414    174.57945   -4172.3215 
35989000    62.851727   -4629.3539   -4521.6282   -4629.3539            0    2011.3401    17.928766    23.383895    21.814703    9145.6915    2102.6349    2073.9874     1857.398   -178.39504   -47.879853   -346.73136   -4253.3546 
35990000    64.818472   -4634.0355   -4522.9389   -4634.0355            0    1883.8692    17.870102    23.398884    21.879385    9148.6555    2162.7869    1654.4221    1834.3985    152.48028    58.449256   -168.93115    -4271.586 
35991000    62.561176   -4637.9476   -4530.7199   -4637.9476            0    1213.8955    17.905663    23.327696    21.993685    9186.7154    1410.2424     1177.673    1053.7711    277.34799   -411.37447    95.022704   -4368.0836 
35992000    62.273733   -4630.4323   -4523.6973   -4630.4323            0    2387.3523    17.879817    23.218091    21.975274    9122.7097     2607.825    3239.7586    1314.4731     25.51822   -214.04512    -121.3742   -4206.0711 
35993000     61.07815   -4621.9629   -4517.2771   -4621.9629            0    1820.4636    17.891343    23.368994    21.902081    9157.3186    2240.0967    1505.4254    1715.8687    590.16803   -249.84718   -130.25655    -4274.154 
35994000    62.225966   -4625.8552    -4519.202   -4625.8552            0    1870.6311    17.937584    23.256561    21.944779    9154.6266    1547.3624    1849.7422    2214.7886   -528.35667   -66.143437   -46.629223   -4269.4525 
35995000    65.899416   -4626.6235   -4513.6742   -4626.6235            0    3272.1127      17.8117    23.329567    21.878681    9091.4512    3323.5992    3415.0257    3077.7133    164.47669    475.64297   -485.30641   -4079.8264 
35996000    62.613898   -4631.3439   -4524.0258   -4631.3439            0    1461.8109    17.930787    23.249466    21.973971    9160.5361    1536.1641    1805.3992    1043.8693   -3.0683317    204.40061    296.88578   -4328.7322 
35997000    60.747699   -4629.5934   -4525.4739   -4629.5934            0    2013.0101    17.924503    23.186279    22.007862    9146.5234    2116.0216    3226.3199     696.6888    -146.5551   -82.639896   -167.44172   -4256.9531 
35998000    66.651107   -4630.7725   -4516.5347   -4630.7725            0    2123.9649    17.892393    23.253542    21.936089    9126.7622    2334.0137    1838.9299    2198.9512   -87.370902   -70.568097   -346.51081   -4233.8255 
35999000    60.805933    -4634.058   -4529.8388    -4634.058            0    2635.9306    17.899226    23.322034    21.857341    9124.2675    2821.4679    1811.7996    3274.5244    317.54784   -212.52975    149.32838   -4179.0805 
36000000    63.433034   -4621.4714   -4512.7493   -4621.4714            0    2132.4863    17.821817    23.340224    21.958907    9134.1413     2183.317     2796.269    1417.8727    136.75707   -263.75618    380.99741   -4228.6764 
Loop time of 322.524 on 64 procs for 250000 steps with 864 atoms

Performance: 133.944 ns/day, 0.179 hours/ns, 775.136 timesteps/s
381.7% CPU use with 16 MPI tasks x 4 OpenMP threads

MPI task timing breakdown:
Section |  min time  |  avg time  |  max time  |%varavg| %total
---------------------------------------------------------------
Pair    | 24.632     | 26.689     | 28.517     |  27.3 |  8.27
Bond    | 1.6104     | 1.7799     | 2.1894     |  13.8 |  0.55
Kspace  | 168.36     | 173.16     | 176.86     |  17.1 | 53.69
Neigh   | 0.089281   | 0.093899   | 0.10041    |   1.0 |  0.03
Comm    | 39.82      | 42.984     | 47.311     |  32.4 | 13.33
Output  | 0.37538    | 0.37563    | 0.37689    |   0.1 |  0.12
Modify  | 53.395     | 59.076     | 64.52      |  50.1 | 18.32
Other   |            | 18.37      |            |       |  5.70

Nlocal:        54.0000 ave          62 max          46 min
Histogram: 1 4 1 2 0 0 2 2 3 1
Nghost:        2579.50 ave        2590 max        2566 min
Histogram: 1 0 4 2 0 0 2 3 1 3
Neighs:        13295.8 ave       15189 max       11522 min
Histogram: 2 2 3 1 0 0 2 3 1 2

Total # of neighbors = 212732
Ave neighs/atom = 246.21759
Ave special neighs/atom = 2.0000000
Neighbor list builds = 342
Dangerous builds = 0

unfix		3
unfix		2
unfix		1

write_data	data.final.${pid} nocoeff
write_data	data.final.1 nocoeff
System init for write_data ...
PPPM initialization ...
  extracting TIP4P info from pair style
  using 12-bit tables for long-range coulomb (../kspace.cpp:340)
  G vector (1/distance) = 0.37202908
  grid = 24 27 25
  stencil order = 5
  estimated absolute RMS force accuracy = 0.0031273476
  estimated relative force accuracy = 9.4179145e-06
  using double precision FFTW3
  3d grid and FFT values/proc = 6300 1296
Last active /omp style is kspace_style pppm/tip4p/omp

write_restart   restart.lmp.${pid}
write_restart   restart.lmp.1
System init for write_restart ...
PPPM initialization ...
  extracting TIP4P info from pair style
  using 12-bit tables for long-range coulomb (../kspace.cpp:340)
  G vector (1/distance) = 0.37202908
  grid = 24 27 25
  stencil order = 5
  estimated absolute RMS force accuracy = 0.0031273476
  estimated relative force accuracy = 9.4179145e-06
  using double precision FFTW3
  3d grid and FFT values/proc = 6300 1296
Last active /omp style is kspace_style pppm/tip4p/omp
Total wall time: 0:05:22
