LAMMPS data file via write_data, version 30 Jul 2021, timestep = 11250000

972 atoms
2 atom types
648 bonds
1 bond types
324 angles
1 angle types

-0.08482528732203676 20.08482628732407 xlo xhi
0.07052293068200477 19.929478069326112 ylo yhi
-0.08697556527393502 20.786973565268823 zlo zhi

Masses

1 1.008
2 15.999

Pair Coeffs # lj/cut/tip4p/long/omp

1 0 0
2 0.21084 3.1668

Bond Coeffs # harmonic/omp

1 450 0.9572

Angle Coeffs # harmonic/omp

1 55 104.52

Atoms # full

33 11 1 0.5897 1.762837883637782 2.434735180469507 1.5034729754098828 0 0 0
11 4 1 0.5897 1.2130211745801234 3.661652107179679 3.470123937703503 0 0 0
31 11 2 -1.1794 0.9625097591441103 2.3407378767129345 2.0201791851196034 0 0 0
141 47 1 0.5897 0.8405937958364155 8.169250144790297 2.2299087875030974 0 0 0
21 7 1 0.5897 -0.07064066083910348 6.188323195336565 1.8784692668889156 0 0 0
10 4 2 -1.1794 1.5977441923503033 4.3596585737545 4.0002654710438055 0 0 0
19 7 2 -1.1794 0.8857876029999688 6.184537153433081 1.9182963467992695 0 0 0
12 4 1 0.5897 2.5196914240932804 4.376038087667738 3.7430789207903614 0 0 0
20 7 1 0.5897 1.0927389675121524 5.620824574314484 2.663692008941935 0 0 0
114 38 1 0.5897 4.585345821048401 7.820019339808821 3.8882527582283744 0 0 0
111 37 1 0.5897 2.0834734272504476 9.213819414715017 0.6481701189312572 0 0 0
24 8 1 0.5897 2.738881285680989 0.754335179123579 4.139594811243393 0 0 0
674 225 1 0.5897 2.2242881717136487 5.835541466604886 0.39645900712969323 0 0 1
5 2 1 0.5897 4.065073417606694 0.4872294308408294 2.4983304921676406 0 0 0
4 2 2 -1.1794 4.159680086820948 1.119672218670734 3.2105772836788495 0 0 0
130 44 2 -1.1794 1.6701376759665114 7.597617847010461 5.031621226940607 0 0 0
32 11 1 0.5897 0.2606460888178446 2.6074167661545253 1.4263944025891517 0 0 0
113 38 1 0.5897 3.0864262953588244 8.00926335825718 3.9869474208953477 0 0 0
18 6 1 0.5897 3.9496926624370863 2.9240873382978374 3.097448562424357 0 0 0
15 5 1 0.5897 4.410625988163532 6.644461033309178 2.1736637270042545 0 0 0
139 47 2 -1.1794 0.7300422151120379 9.057735051808304 1.891387373378111 0 0 0
112 38 2 -1.1794 3.832098285200286 8.161793559212239 3.4064265537543594 0 0 0
16 6 2 -1.1794 4.139895809137337 3.829143417931126 3.3443191216573256 0 0 0
14 5 1 0.5897 4.477697194316641 5.85081218613312 0.8862048850634376 0 0 0
236 79 1 0.5897 0.7591060591623026 0.5950499342047466 1.7326359080503053 0 1 0
13 5 2 -1.1794 4.911462365658921 5.9581401868342345 1.7327285239171049 0 0 0
17 6 1 0.5897 4.5864536891537355 4.197134780998736 2.581793226299336 0 0 0
140 47 1 0.5897 0.8774303755369176 9.623442808090328 2.6493383269844295 0 0 0
3 1 1 0.5897 3.668057154310152 2.4908073230428402 0.03646444310151353 0 0 0
126 42 1 0.5897 4.100497238148087 9.91935169273454 3.3106212637293484 0 0 0
22 8 2 -1.1794 2.124362140154679 0.6369850541737653 4.864097563197997 0 0 0
110 37 1 0.5897 3.44162939320988 9.699972740632758 0.18849019072577794 0 0 0
325 109 2 -1.1794 2.486462461410972 2.763948650067993 6.683094908905484 0 0 0
326 109 1 0.5897 2.3660547538970778 2.239478405308571 5.891492325959592 0 0 0
327 109 1 0.5897 3.4055265859067605 2.636199601354343 6.918242588141708 0 0 0
356 119 1 0.5897 1.7435213604973658 2.237268399696597 8.409652967922861 0 0 0
560 187 1 0.5897 1.1341070226158831 0.17693923661443725 8.848708557466136 0 1 0
25 9 2 -1.1794 2.7310870997701704 5.68754337349399 6.590420158762418 0 0 0
437 146 1 0.5897 4.4129927327943435 7.377753157933629 9.51557748412556 0 0 0
337 113 2 -1.1794 4.793664710089804 5.889975556166708 8.409784732974853 0 0 0
433 145 2 -1.1794 1.866781052847358 9.369234508735584 6.93157449327479 0 0 0
344 115 1 0.5897 0.8528786249759809 5.401499367738182 9.727440716326296 0 0 0
343 115 2 -1.1794 0.9003373236005099 5.745269370443361 8.835356294592067 0 0 0
357 119 1 0.5897 0.23628221484250522 2.182807145702785 8.542235250643731 0 0 0
443 148 1 0.5897 0.4794721516155288 9.601693486066157 10.172386890948525 0 0 0
27 9 1 0.5897 2.578630541680966 4.779685983937611 6.32816013107057 0 0 0
131 44 1 0.5897 2.0783635215426495 6.917173311609709 5.566998143093455 0 0 0
355 119 2 -1.1794 1.045115451172697 2.0408712723204143 9.034146771179614 0 0 0
464 155 1 0.5897 0.995025637262229 8.730455457990583 8.529181036263076 0 0 0
339 113 1 0.5897 4.301063260883882 5.812713591654681 7.592708146338257 0 0 0
345 115 1 0.5897 0.6402214002928616 6.662790021749996 8.917578571240675 0 0 0
463 155 2 -1.1794 0.27528502723082277 8.364047039433856 9.043040987625709 0 0 0
26 9 1 0.5897 2.2530714867616215 5.782863967668596 7.41424690003481 0 0 0
435 145 1 0.5897 1.7070417774492475 8.83737540872737 6.151926656334711 0 0 0
468 156 1 0.5897 3.7579761129517575 9.203179291578293 7.187851968532067 0 0 0
342 114 1 0.5897 4.281253043959535 4.786952574320403 9.712870145255657 0 0 0
466 156 2 -1.1794 4.708196885061372 9.13664033010919 7.283042282589582 0 0 0
436 146 2 -1.1794 4.1563150516703375 7.920804179839721 10.260868620212921 0 0 0
328 110 2 -1.1794 3.8980827517363026 1.5876020996018387 10.26228656813663 0 0 0
438 146 1 0.5897 3.8170103641289668 8.724410975901037 9.866724333485978 0 0 0
102 34 1 0.5897 0.18248895914524482 0.5446390865141004 5.357565560751584 1 0 0
467 156 1 0.5897 4.942167284329769 8.341000620164882 6.80505796010641 0 0 0
81 27 1 0.5897 0.4751351215683085 4.665922208489413 5.586718587225461 1 0 0
341 114 1 0.5897 3.919567044691946 3.440628356150034 10.303260222062407 0 0 0
132 44 1 0.5897 0.7346613450737893 7.522694514441837 5.220493266939994 0 0 0
649 217 2 -1.1794 2.62703528399093 2.792889460840094 14.165030281463645 0 0 0
650 217 1 0.5897 2.4265593052507826 2.230660149987016 13.416742302345742 0 0 0
651 217 1 0.5897 1.9841070047309133 2.5458674427745143 14.829795230656272 0 0 0
792 264 1 0.5897 4.618753995938071 9.157670715294131 14.09103428057033 0 0 0
668 223 1 0.5897 1.1443979509944586 6.10111534394737 15.28132453396925 0 0 0
336 112 1 0.5897 2.4045250150410804 4.329454797797554 11.243893174968289 0 0 0
683 228 1 0.5897 4.388567620262397 3.1159222970619527 14.326364906026472 0 0 0
334 112 2 -1.1794 1.4513774934061723 4.272801745371256 11.175980183471095 0 0 0
456 152 1 0.5897 2.3531771299404984 6.488071379383945 12.417303748230935 0 0 0
350 117 1 0.5897 3.2564542896460384 5.884714926644675 14.309025343363212 0 0 0
351 117 1 0.5897 2.5227259937903916 4.593694870546663 14.014153417940646 0 0 0
454 152 2 -1.1794 2.1574682700874313 7.345826684891273 12.040214987854851 0 0 0
349 117 2 -1.1794 2.397748783193191 5.541439991174788 14.061878038397296 0 0 0
348 116 1 0.5897 2.1827252571475606 0.1812743466921125 12.511082205434732 0 0 0
347 116 1 0.5897 0.9887191734748355 1.0645123030325765 12.217246768081191 0 0 0
455 152 1 0.5897 2.844123051270971 7.483408646208829 11.387620185793265 0 0 0
757 253 2 -1.1794 2.772218802570462 8.871001244098128 14.121867441407645 0 0 0
759 253 1 0.5897 2.4339392441096033 8.34170943803977 13.399638429802543 0 0 0
346 116 2 -1.1794 1.9443280126805687 1.0415078862164235 12.165536210780461 0 0 0
340 114 2 -1.1794 4.102546118973404 4.3486036852818275 10.544832384629348 0 0 0
329 110 1 0.5897 3.1539730793373 1.2432449301185473 10.756313158397367 0 0 0
661 221 2 -1.1794 4.739060764501712 5.756177365833096 15.511607989828915 0 0 0
533 178 1 0.5897 0.38435214120042355 7.4695478945794145 11.865024211538902 1 0 0
330 110 1 0.5897 4.651676068270864 1.4501429025013695 10.836313038910781 0 0 0
335 112 1 0.5897 1.2977959561542642 3.622204205778202 10.490865632377405 0 0 0
680 227 1 0.5897 -0.07274323680736416 2.501284161571963 15.546453120721143 0 0 0
758 253 1 0.5897 2.4673739168247377 9.758351171658717 13.93234270105136 0 0 0
664 222 2 -1.1794 3.8194386416751325 4.2945885690680825 17.678744632259438 0 0 0
671 224 1 0.5897 2.1102895527996517 1.4613771975003917 19.505581733711512 0 0 0
681 227 1 0.5897 0.6643180972395362 2.8741676829139364 16.815198123978206 0 0 0
652 218 2 -1.1794 3.9786679176241373 1.720300579969165 17.376204229761157 0 0 0
653 218 1 0.5897 3.245333851159887 1.3007492743980191 17.826248172998994 0 0 0
659 220 1 0.5897 0.5117855728653121 4.293815583537421 18.517215461869828 0 0 0
665 222 1 0.5897 2.899762678480436 4.514544769729648 17.827685623901893 0 0 0
658 220 2 -1.1794 1.1948204592259168 4.312842994740933 17.846825108393134 0 0 0
788 263 1 0.5897 0.946015979517981 9.744972451716096 16.898732032682567 0 0 0
666 222 1 0.5897 3.817105125693176 3.3515682496192465 17.51454148926088 0 0 0
654 218 1 0.5897 4.027783915523401 1.2747565390179565 16.53043550368169 0 0 0
760 254 2 -1.1794 4.603428072151525 8.159038029745657 17.15551283758183 0 0 0
672 224 1 0.5897 0.893909091585781 1.0632575776016369 18.696828862364224 0 0 0
679 227 2 -1.1794 0.5810289412982502 2.1761790215867336 16.16549424624907 0 0 0
663 221 1 0.5897 4.456504626804126 6.589415219612375 15.888566075831271 0 0 0
660 220 1 0.5897 0.9404119691091943 5.02936863353328 17.26535426303508 0 0 0
779 260 1 0.5897 2.6765618966277684 8.214505022285941 19.366442587213403 0 0 0
858 286 1 0.5897 0.7133741059171996 7.347699631226404 18.770888801706786 1 0 0
761 254 1 0.5897 4.624284341727494 9.11601897155696 17.15328946894282 0 0 0
670 224 2 -1.1794 1.8360968356399077 0.9113627209924184 18.771718431623796 0 0 0
675 225 1 0.5897 2.819265183499607 6.17648347020933 19.920708007240123 0 0 0
780 260 1 0.5897 2.890514505819594 7.791650633389169 17.92861677587281 0 0 0
778 260 2 -1.1794 2.4443783385562297 7.533426359917636 18.73518623970758 0 0 0
662 221 1 0.5897 4.598486753961209 5.1168818558069775 16.210011723528265 0 0 0
787 263 2 -1.1794 0.768434274336779 8.986648099116884 16.342273008096182 0 0 0
109 37 2 -1.1794 2.607084824742116 9.364255302894598 20.735046538849325 0 0 -1
669 223 1 0.5897 0.4923132145383464 7.1925048884078455 16.103312249799025 0 0 0
1 1 2 -1.1794 2.7631545888588818 2.7186718045977942 20.696812782766365 0 0 -1
667 223 2 -1.1794 0.5583720409496993 6.240777681317916 16.02521526681884 0 0 0
789 263 1 0.5897 1.41285451708653 9.050148980900808 15.63729037516032 0 0 0
885 295 1 0.5897 0.46034096707082295 0.3305456218735983 15.966340468325782 0 1 0
2 1 1 0.5897 2.7558047405480814 3.675564813774971 20.673272621188733 0 0 -1
673 225 2 -1.1794 2.914717182605216 5.576232799670769 20.660163095511823 0 0 0
119 40 1 0.5897 2.353526311224727 10.806536336133082 3.8101685040552837 0 0 0
120 40 1 0.5897 1.2443197973121394 11.68606488586225 3.273322801157469 0 0 0
229 77 2 -1.1794 4.08523268378403 19.14349735519886 1.2997712928709013 0 0 0
783 261 1 0.5897 1.9530218915770523 12.379979511723297 0.10842093611469289 0 0 1
228 76 1 0.5897 0.5059976167529627 17.665850569039613 4.316205597042679 0 0 0
127 43 2 -1.1794 0.8387415796624095 12.560331266001624 1.6591968848049012 0 0 0
222 74 1 0.5897 3.768748597626795 14.4253636915611 2.522672965504974 0 0 0
123 41 1 0.5897 3.9206216175316566 12.56189743134577 0.4406387423416124 0 0 0
249 83 1 0.5897 1.5486719866322431 15.530539995691335 1.2541890033939336 0 0 0
221 74 1 0.5897 4.067627401796361 15.68029493933549 3.3150038356652947 0 0 0
240 80 1 0.5897 2.263299352145992 14.416901882041758 4.4994604568489756 0 0 0
233 78 1 0.5897 3.086352154195297 17.54252739057015 3.825417458929652 0 0 0
234 78 1 0.5897 3.9676088842814377 17.948850877168802 2.6633862535091515 0 0 0
220 74 2 -1.1794 3.8946517167672505 14.744308870061136 3.416354451753261 0 0 0
227 76 1 0.5897 0.9900796326781365 18.501063593786547 3.150014223963958 0 0 0
235 79 2 -1.1794 0.6079256091974461 19.523625950211652 1.5659190885989078 0 0 0
230 77 1 0.5897 3.7464666260892154 19.171726784659604 0.4049624500373506 0 0 0
129 43 1 0.5897 1.0079744452060089 13.496357308254833 1.766253104808698 0 0 0
124 42 2 -1.1794 4.170899350542341 10.855836600589303 3.495707675951783 0 0 0
226 76 2 -1.1794 1.1903890666252734 17.708722326180528 3.6483290078424293 0 0 0
122 41 1 0.5897 4.22701773775407 12.001456310579766 1.8132076152135626 0 0 0
247 83 2 -1.1794 0.9087865710878056 15.369571153676722 1.94766438732053 0 0 0
248 83 1 0.5897 0.9322100204894377 16.161774955038652 2.4844075671515577 0 0 0
232 78 2 -1.1794 3.991356958059238 17.512250925869957 3.514889591087004 0 0 0
118 40 2 -1.1794 1.4115586159729974 10.962965979558772 3.87781251462115 0 0 0
890 297 1 0.5897 1.777738875253854 18.654600499040576 0.10418448237622091 0 0 1
121 41 2 -1.1794 4.297621048834059 12.79861899826046 1.2880438285803681 0 0 0
125 42 1 0.5897 4.715208426912241 10.904924306831477 4.281587217037098 0 0 0
238 80 2 -1.1794 1.5296100626731235 14.28214272888511 5.099358145291595 0 0 0
188 63 1 0.5897 -0.05403027460513243 11.14269015084441 4.927957361404978 1 0 0
133 45 2 -1.1794 1.8502704184736978 12.055511071616692 6.645181817971948 0 0 0
134 45 1 0.5897 1.364173225656436 12.377656989982711 7.404273200422049 0 0 0
135 45 1 0.5897 2.764142988019063 12.049681411120599 6.930136435684481 0 0 0
450 150 1 0.5897 3.959788432066685 11.247658930778345 9.399385926133519 0 0 0
451 151 2 -1.1794 0.17080451663771085 12.612970990397752 8.64803423292954 0 0 0
544 182 2 -1.1794 3.9209244088923567 14.165518590278372 10.138805848526701 0 0 0
453 151 1 0.5897 0.41407757749481366 11.943023361855827 9.286948266759515 0 0 0
571 191 2 -1.1794 0.38711594458473797 15.545292545801411 8.864297510240434 0 0 0
445 149 2 -1.1794 4.319978484792353 12.545193647785396 7.891620742001196 0 0 0
559 187 2 -1.1794 0.9571859748840459 19.177806153179645 8.463190113265107 0 0 0
543 181 1 0.5897 2.159121916873723 15.588728509645827 6.329562466907084 0 0 0
542 181 1 0.5897 2.7680258243476605 16.881088630415242 6.830572300459583 0 0 0
558 186 1 0.5897 3.7677354029220744 17.66058481706873 9.832334331786829 0 0 0
572 191 1 0.5897 1.1925455045096027 15.787212588008567 8.406999425908474 0 0 0
561 187 1 0.5897 0.9484463831527903 18.577103101662765 9.208387901975499 0 0 0
243 81 1 0.5897 3.758875597259741 18.77428554903853 7.256145226423386 0 0 0
242 81 1 0.5897 2.245667720984107 18.745727783002096 7.29766292460997 0 0 0
541 181 2 -1.1794 2.48433174319111 16.014797010052227 7.1226165196576 0 0 0
241 81 2 -1.1794 2.986900184569325 18.72496003575727 6.692289317825908 0 0 0
446 149 1 0.5897 4.032508567695653 13.107603421735401 8.610869932363412 0 0 0
573 191 1 0.5897 0.3838236094487134 14.58813370177048 8.854493432189802 0 0 0
557 186 1 0.5897 3.5587073925251924 16.18317418109504 10.088251983279553 0 0 0
239 80 1 0.5897 1.7244410352328055 13.451853403438905 5.534009543753173 0 0 0
553 185 2 -1.1794 4.840785663767527 18.947875270405383 9.004274823914319 0 0 0
434 145 1 0.5897 1.8146636477583606 10.272949770470905 6.620406831177822 0 0 0
552 184 1 0.5897 0.5650359988618863 16.692736621222743 10.20569080877209 0 0 0
576 192 1 0.5897 4.383310705775255 15.3427873419039 6.881317901851495 0 0 0
448 150 2 -1.1794 3.5119896099636123 10.75979491207413 10.09057730785987 0 0 0
554 185 1 0.5897 4.5326594009033085 19.76110885024393 9.40417722462766 0 0 0
23 8 1 0.5897 2.5463341582891794 19.853854905542143 5.435017715492506 0 -1 0
457 153 2 -1.1794 2.5337296286099074 11.671969680170756 13.934074850653085 0 0 0
458 153 1 0.5897 1.7949031094812302 11.79150954938105 14.530870227596315 0 0 0
459 153 1 0.5897 3.2720479440378956 12.087344506215773 14.379801234293796 0 0 0
563 188 1 0.5897 2.0535305199642857 12.771104269630845 12.645660138552477 0 0 0
562 188 2 -1.1794 1.898611516508604 13.58920005143676 12.173457526216161 0 0 0
567 189 1 0.5897 1.3619097674503058 18.75780477215072 14.180570532270433 0 0 0
442 148 2 -1.1794 0.6619809922712364 10.493889958400917 10.467146479684187 0 0 0
550 184 2 -1.1794 0.8403702942291632 17.455170954582876 10.714757195056578 0 0 0
565 189 2 -1.1794 2.0950680991415 18.69436161797556 13.568384381956427 0 0 0
551 184 1 0.5897 1.788589569986959 17.356283923379635 10.801356275396214 0 0 0
545 182 1 0.5897 3.155984264019336 13.786649882778827 10.572024117292504 0 0 0
546 182 1 0.5897 4.660387364104661 13.909684145990404 10.69024913221482 0 0 0
867 289 1 0.5897 1.9949014493374322 15.960493783992751 14.657181445547328 0 0 0
564 188 1 0.5897 2.1318901334699163 14.275204980074324 12.798947153680258 0 0 0
444 148 1 0.5897 1.6170497524308667 10.5585130992639 10.459747888212338 0 0 0
877 293 2 -1.1794 4.337850386104256 19.217862750649637 15.164826649752543 0 0 0
865 289 2 -1.1794 2.3959333658944173 15.908309202561407 13.78959641167329 0 0 0
566 189 1 0.5897 2.2527756345598133 17.75443234408921 13.479406292908118 0 0 0
866 289 1 0.5897 3.316067403077885 15.708308660937876 13.962079246203414 0 0 0
641 214 1 0.5897 0.2202888518199546 13.870316010075532 12.091826629735186 1 0 0
548 183 1 0.5897 4.643564339326962 17.629393237883036 11.748316921505705 0 0 0
879 293 1 0.5897 3.5544143973873763 19.13154428728825 14.621575965450393 0 0 0
449 150 1 0.5897 4.154255518019271 10.701733604935571 10.797945151908047 0 0 0
556 186 2 -1.1794 3.4651971550002947 17.04306695836793 10.498221798735377 0 0 0
888 296 1 0.5897 1.9526916194619943 13.337080558745049 18.86995440326909 0 0 0
873 291 1 0.5897 4.839972248572077 17.852870270729824 18.891061536613677 0 0 0
886 296 2 -1.1794 1.6659685278053065 14.149271639395293 18.452336895446166 0 0 0
768 256 1 0.5897 1.1661086091554307 11.736438250408273 17.113336307934688 0 0 0
773 258 1 0.5897 3.322614176998794 11.119352326134731 17.758490684236094 0 0 0
891 297 1 0.5897 1.9778794806815636 19.013686864610925 19.521116745777103 0 0 0
767 256 1 0.5897 0.9507156960740577 11.060215816844007 18.45058350734679 0 0 0
772 258 2 -1.1794 4.271169107888841 11.052762308815735 17.648109966938403 0 0 0
889 297 2 -1.1794 2.216165662202994 18.36098466646446 20.179485391608008 0 0 0
868 290 2 -1.1794 3.8824660837929694 14.551379449735656 16.85268617653642 0 0 0
875 292 1 0.5897 0.0012338353773097832 17.601922193804846 18.362838861067413 0 0 0
895 299 2 -1.1794 0.4775734171971634 15.203923892017812 15.806610094938893 0 0 0
869 290 1 0.5897 3.0818511915186435 14.484696343108642 17.3731973019051 0 0 0
882 294 1 0.5897 3.7480313423137104 16.603203991982646 17.19701042543702 0 0 0
887 296 1 0.5897 1.7631881236919584 14.816023950269349 19.132215927430835 0 0 0
766 256 2 -1.1794 1.5872062830149571 11.149279338335312 17.741176558689755 0 0 0
897 299 1 0.5897 0.35136743078213856 15.723903434398439 16.600296056690333 0 0 0
217 73 2 -1.1794 2.473015038564197 15.701449302672316 20.5313905128847 0 0 -1
881 294 1 0.5897 2.757071468884313 17.628910959198407 17.704976863470193 0 0 0
874 292 2 -1.1794 0.5101714629545472 17.327163377652795 17.600098412539353 0 0 0
876 292 1 0.5897 0.42198504193992914 18.05052881622634 16.979489854065143 0 0 0
880 294 2 -1.1794 3.6430660962085657 17.541748538026397 17.353124733866352 0 0 0
878 293 1 0.5897 4.16888089802213 18.6553985035508 15.920693662591507 0 0 0
774 258 1 0.5897 4.468863835805803 11.634832020932372 16.914374200378095 0 0 0
870 290 1 0.5897 4.5908809789600316 14.434937854983195 17.48587056169961 0 0 0
781 261 2 -1.1794 2.536689216641743 12.161891006710642 20.25569669536003 0 0 0
782 261 1 0.5897 2.3993454236437652 11.225820913945 20.110210394956894 0 0 0
218 73 1 0.5897 2.4257372834977917 16.637840966247524 20.33859295333843 0 0 -1
965 322 1 0.5897 0.0162511211633678 14.151277989955082 18.555760531566854 1 0 0
219 73 1 0.5897 3.4013368703217335 15.537206184466957 20.69760563549812 0 0 -1
777 259 1 0.5897 0.6195682254123545 13.386139055745744 15.757917298002852 0 0 0
775 259 2 -1.1794 0.4989136044687279 12.436571370585854 15.76220739107338 0 0 0
883 295 2 -1.1794 0.323609286598429 19.300748035888425 15.638211829152018 0 0 0
711 237 1 0.5897 8.833555458497017 5.519958952962172 0.5633450571635322 0 0 1
710 237 1 0.5897 9.54334251896302 4.328339465414275 -0.04347572277142092 0 0 1
46 16 2 -1.1794 8.26675530815117 4.160847814485225 4.066274472039807 0 0 0
67 23 2 -1.1794 7.505114498707844 2.224454823942661 2.264204485330905 0 0 0
149 50 1 0.5897 9.827574178727414 7.7858159622521015 3.8171937212632447 0 0 0
57 19 1 0.5897 7.8399170357023165 5.362714933870961 2.703980039563321 0 0 0
48 16 1 0.5897 7.548700992628203 4.330911717385949 4.676036365385445 0 0 0
47 16 1 0.5897 7.9440299372350385 3.454598762557344 3.5065316882426547 0 0 0
68 23 1 0.5897 8.253293647344117 2.310096159480204 1.6732502929682163 0 0 0
69 23 1 0.5897 6.745787950822773 2.441527618853421 1.7232373541857433 0 0 0
175 59 2 -1.1794 7.697321943312368 8.66176445447986 1.9037899946630081 0 0 0
56 19 1 0.5897 6.641793258915079 5.855591623730622 1.9206110930402187 0 0 0
155 52 1 0.5897 7.96148626637855 9.821949226328579 3.1517007758862956 0 0 0
176 59 1 0.5897 7.683225249845067 7.70485908742082 1.9232916295185487 0 0 0
143 48 1 0.5897 6.270710627223236 9.381247067257249 1.0048260448792756 0 0 0
55 19 2 -1.1794 7.584933997068117 5.708451993071545 1.8486228220249152 0 0 0
177 59 1 0.5897 8.464271968595504 8.879736551251765 1.3740798874793398 0 0 0
6 2 1 0.5897 4.973949705500489 0.8693448705173338 3.647219546429988 0 0 0
142 48 2 -1.1794 5.585494914801346 9.77474905535897 0.4644927184616634 0 0 0
58 20 2 -1.1794 8.68438639911695 0.7690337421477945 4.827696835707468 0 0 0
166 56 2 -1.1794 8.435241548719695 7.449169626953927 4.766136764492452 0 0 0
34 12 2 -1.1794 5.482238921441228 2.5252721188813907 0.2788642307178905 0 0 0
273 91 1 0.5897 6.932165608206681 0.5167105342765476 2.1271161301505273 0 1 0
29 10 1 0.5897 6.92563831648842 0.6865690834053585 4.953388244276742 0 0 0
28 10 2 -1.1794 5.982424712587639 0.652190396698297 5.113307542218523 0 0 0
138 46 1 0.5897 6.443659694203777 7.438061691937641 4.948828790043117 0 0 0
709 237 2 -1.1794 9.5242159934903 5.285233677673114 -0.05650835587181327 0 0 1
9 3 1 0.5897 5.33135215965787 4.102872752291993 4.769952488171821 0 0 0
37 13 2 -1.1794 9.450672452749167 2.4433868251439392 0.18776921724468582 0 0 0
393 131 1 0.5897 7.640193732148094 1.3219504300193134 9.241702900769514 0 0 0
358 120 2 -1.1794 5.382300582364667 2.4334521895931633 7.175683077902144 0 0 0
361 121 2 -1.1794 9.099543656808436 2.797409522381222 7.033661410201204 0 0 0
362 121 1 0.5897 9.211667075531393 3.693937447358284 6.7176048461072515 0 0 0
391 131 2 -1.1794 7.436376345440243 2.231512961031523 9.024063217607106 0 0 0
338 113 1 0.5897 5.711578392445635 5.844091323309922 8.142017674491287 0 0 0
8 3 1 0.5897 5.760720084228332 3.885212215471224 6.205284304511118 0 0 0
500 167 1 0.5897 7.2790549096465815 9.395115613314726 9.299550543097151 0 0 0
136 46 2 -1.1794 5.5941799232442015 7.22028366487317 5.332616511905481 0 0 0
392 131 1 0.5897 7.993056224965322 2.428492489430631 8.270679498701828 0 0 0
360 120 1 0.5897 5.747212605557545 1.755073688424027 6.607427569801078 0 0 0
359 120 1 0.5897 5.900197606548801 2.377877754294454 7.978776474473021 0 0 0
61 21 2 -1.1794 9.617573847824982 5.743559099549577 6.504217061555694 0 0 0
137 46 1 0.5897 5.683187355833945 6.3087525026631335 5.610832077936074 0 0 0
62 21 1 0.5897 8.976885665587616 5.858544320041915 7.206068520908474 0 0 0
501 167 1 0.5897 6.089261385956095 8.771025189984952 8.601636635297492 0 0 0
469 157 2 -1.1794 8.715516932465338 9.470220652446613 6.6497461437211225 0 0 0
371 124 1 0.5897 8.195280844475803 3.4956781167654825 10.010852284484542 0 0 0
379 127 2 -1.1794 7.583940688843389 5.9228042769603135 8.260842994412817 0 0 0
470 157 1 0.5897 8.213311390268828 9.123094091654794 7.387028301037838 0 0 0
499 167 2 -1.1794 7.042828253826014 8.717118692880675 8.666496788452754 0 0 0
380 127 1 0.5897 7.518786392572184 6.796172178038659 8.647152789097314 0 0 0
168 56 1 0.5897 8.313074406547774 8.259340757388168 5.26105970777544 0 0 0
381 127 1 0.5897 7.922553003590783 5.3726065739181745 8.967158991086567 0 0 0
59 20 1 0.5897 8.809459462437598 1.5780402250082386 5.323801892099672 0 0 0
7 3 2 -1.1794 5.991115421767505 4.367334245224962 5.411113218141174 0 0 0
471 157 1 0.5897 9.629224903204378 9.305039909153429 6.882665482232134 0 0 0
363 121 1 0.5897 9.98966337478937 2.4913148758225607 7.20797164681603 0 0 0
60 20 1 0.5897 8.766706098427969 0.0727399588076878 5.479333214671974 0 0 0
167 56 1 0.5897 8.946030761496358 6.886853701011491 5.348531798020358 0 0 0
370 124 2 -1.1794 8.466749178938977 4.288151347364032 10.474055159133625 0 0 0
461 154 1 0.5897 6.214431576793728 7.934481517859181 12.502298787393002 0 0 0
382 128 2 -1.1794 8.419471234666101 0.8468106511560657 12.056153432685177 0 0 0
331 111 2 -1.1794 6.075011567826256 4.883445481713691 12.60708118921151 0 0 0
462 154 1 0.5897 5.641268220964037 7.4014525468910275 11.206431855752447 0 0 0
791 264 1 0.5897 6.052259676489368 9.225753438227375 14.573451973229503 0 0 0
386 129 1 0.5897 9.150301394467844 4.63357050683273 13.780530409340404 0 0 0
372 124 1 0.5897 7.89632189337287 4.3245876531648575 11.241901300298832 0 0 0
354 118 1 0.5897 5.602858883003136 1.4826400665618045 13.121757322378897 0 0 0
383 128 1 0.5897 8.639427866152174 1.4352899764337592 12.778317902430858 0 0 0
686 229 1 0.5897 8.662336192801583 2.686295405902089 14.58056871478912 0 0 0
352 118 2 -1.1794 5.645741592482504 0.9964994735189836 12.298308558593884 0 0 0
333 111 1 0.5897 6.12800922367481 5.831187901493277 12.483670641766905 0 0 0
353 118 1 0.5897 6.545472584783449 1.1176479710234817 11.994664116373432 0 0 0
387 129 1 0.5897 9.18307990847543 6.128204602163121 13.541899285286199 0 0 0
685 229 2 -1.1794 9.146111735529507 2.802875164583872 13.762871912112242 0 0 0
794 265 1 0.5897 9.507053675168699 8.622322896815128 13.80873157577871 0 0 0
332 111 1 0.5897 5.489371838345572 4.583279565801866 11.9119349181313 0 0 0
793 265 2 -1.1794 9.853102420926927 9.097192481883965 14.564389539783507 0 0 0
684 228 1 0.5897 5.7432524120855675 3.669259496626322 13.937902608647214 0 0 0
682 228 2 -1.1794 5.32735534031505 2.9778039954775415 14.4528765092118 0 0 0
491 164 1 0.5897 9.735861584428475 7.452036133024946 11.60153587430213 0 0 0
460 154 2 -1.1794 6.421042715360431 7.36587653225686 11.760512417818443 0 0 0
492 164 1 0.5897 8.320141177914945 7.346129246395276 12.127642850048629 0 0 0
490 164 2 -1.1794 9.217863789940314 7.53322306703951 12.40237625462443 0 0 0
384 128 1 0.5897 9.113470673931742 0.9875160592965672 11.412045303754093 0 0 0
790 264 2 -1.1794 5.522769367823024 9.182785324142555 13.77716823950402 0 0 0
385 129 2 -1.1794 9.17693639334599 5.4730249212888635 14.239713187689942 0 0 0
824 275 1 0.5897 8.083042421869854 9.136990275892808 15.543208080961685 0 0 0
696 232 1 0.5897 7.665775422934892 5.075906305478491 17.504242995892923 0 0 0
703 235 2 -1.1794 7.288732150386501 6.371301422413946 16.282381723167802 0 0 0
676 226 2 -1.1794 6.236329063742691 0.9827340390753564 18.912914885904872 0 0 0
815 272 1 0.5897 8.928914539634807 6.546677309671249 19.586238837382062 0 0 0
716 239 1 0.5897 7.24516909196848 1.5191027688748262 16.078237544734847 0 0 0
702 234 1 0.5897 9.72628249901348 4.4138099994745525 17.78881184120842 0 0 0
657 219 1 0.5897 6.61510670646002 4.669941958105375 19.09522191247349 0 0 0
38 13 1 0.5897 9.261227173468505 1.9691795578633828 20.252101104579342 0 0 -1
695 232 1 0.5897 7.8374114483023325 3.5750297774998416 17.603557132993366 0 0 0
694 232 2 -1.1794 7.927048192596006 4.382334056865303 18.10999708674724 0 0 0
706 236 2 -1.1794 8.979244730535838 1.0706944564525394 18.870641011360522 0 0 0
823 275 2 -1.1794 7.210315646032815 9.08972107197848 15.933694996780272 0 0 0
814 272 2 -1.1794 8.714316018039327 7.396397546864452 19.201287413335837 0 0 0
655 219 2 -1.1794 5.812291040354883 4.908968619339895 19.55856664397226 0 0 0
708 236 1 0.5897 8.028403071135237 1.181089121252031 18.86014126856378 0 0 0
715 239 2 -1.1794 7.239753982453861 2.470848187128725 16.18021979365151 0 0 0
825 275 1 0.5897 7.117408946507831 8.17612687195169 16.203816574898784 0 0 0
785 262 1 0.5897 5.6015785556531865 6.870812592219302 19.4395816804971 0 0 0
35 12 1 0.5897 5.722966970783464 1.9384121690601557 20.435946194545792 0 0 -1
717 239 1 0.5897 6.505921053361692 2.7658115995825763 15.640974864605779 0 0 0
816 272 1 0.5897 9.15566807140095 8.032966920894246 19.763639226351934 0 0 0
784 262 2 -1.1794 5.924884971373836 7.771398097693854 19.46567321170193 0 0 0
786 262 1 0.5897 6.8780820457308725 7.68395165567794 19.47900344314231 0 0 0
656 219 1 0.5897 5.106296004940389 4.598834542416516 18.991380517387658 0 0 0
677 226 1 0.5897 5.5454950704636286 1.3888093213540778 18.389290189278146 0 0 0
707 236 1 0.5897 9.118767932707108 0.23335931803034052 19.312971528655634 0 0 0
704 235 1 0.5897 6.473972884542022 6.117656205752201 15.84858022716336 0 0 0
762 254 1 0.5897 5.220458927289934 7.9071396006516075 17.8426328305801 0 0 0
36 12 1 0.5897 5.574550614957403 3.40408309895488 20.78482541191155 0 0 -1
145 49 2 -1.1794 9.653339173475278 9.36704744141598 20.76195818650023 0 0 -1
144 48 1 0.5897 5.48289958754496 9.170439054020369 20.60325902146576 0 0 -1
705 235 1 0.5897 7.963059559085838 6.2564963284493285 15.612744635309438 0 0 0
271 91 2 -1.1794 6.7604165388693875 19.5203158432129 1.733249324390904 0 0 0
156 52 1 0.5897 8.919045727442386 10.738156832353527 3.8836201564025474 0 0 0
165 55 1 0.5897 7.133281604811123 11.999624922857254 2.4819663494319633 0 0 0
262 88 2 -1.1794 7.513551749156727 17.53090458122393 3.4271059530745926 0 0 0
285 95 1 0.5897 6.937864847471689 14.556982860282867 1.8987550004612606 0 0 0
264 88 1 0.5897 8.460312061893086 17.660084804121112 3.4850443351812164 0 0 0
163 55 2 -1.1794 7.093468595090072 12.719304374012568 1.8521058519043265 0 0 0
164 55 1 0.5897 6.183102410663375 12.72923596555079 1.5562863094121093 0 0 0
263 88 1 0.5897 7.208173328212726 17.584139169955314 4.332734256981465 0 0 0
819 273 1 0.5897 8.330251821262689 12.286914780276573 0.486334966585785 0 0 1
154 52 2 -1.1794 7.987776268942261 10.596932567843131 3.7129166921721324 0 0 0
283 95 2 -1.1794 7.24394850743631 15.40524057034807 1.5777556602125506 0 0 0
250 84 2 -1.1794 5.146572055119059 16.02811042459457 0.20070510149155885 0 0 0
276 92 1 0.5897 9.499559808531444 14.566433457489174 4.329375539858113 0 0 0
284 95 1 0.5897 7.402165108470815 15.91873279353929 2.3699029349182568 0 0 0
251 84 1 0.5897 5.853385022319849 15.754617546634321 0.7854615027967414 0 0 0