LAMMPS data file via write_data, version 30 Jul 2021, timestep = 10500000

864 atoms
2 atom types
576 bonds
1 bond types
288 angles
1 angle types

0.5711687728522481 17.636403627153108 xlo xhi
1.7642926392239016 21.864885160790763 ylo yhi
0.6968245687821604 21.516371231206804 zlo zhi

Masses

1 1.00794
2 15.9994

Pair Coeffs # lj/cut/tip4p/long/omp

1 0 0
2 0.21084 3.1668

Bond Coeffs # harmonic/omp

1 450 0.9572

Angle Coeffs # harmonic/omp

1 55 104.52

Atoms # full

803 1 1 0.5897 1.0156609849506988 2.1437923545552238 2.1840242645465544 5 4 -5
402 1 1 0.5897 5.800680343438641 1.8848717147917822 3.1964462829942586 -3 -3 1
390 1 1 0.5897 4.7639613045120095 4.698936482401567 1.6739505012688267 -5 6 8
475 1 2 -1.1794 2.1840782023772407 2.6728974927423703 3.876201065010445 7 -5 -3
392 1 1 0.5897 3.1649775662973085 5.505182537327126 2.6348759250477034 5 -3 0
69 1 1 0.5897 3.5471126549675347 4.363868159412524 5.546880648805534 7 0 -6
393 1 1 0.5897 2.224357624486678 4.972030427848962 1.5750531744104368 5 -3 0
477 1 1 0.5897 2.4165967629212313 3.5770961416454066 3.664722272872914 7 -5 -3
198 1 1 0.5897 6.7226599637437054 5.2754754839059785 2.936512679789345 3 -1 2
6 1 1 0.5897 3.2271288748117963 3.064546589317828 0.9885353489870408 7 1 1
67 1 2 -1.1794 3.813612937173284 4.9789688509879975 4.863499343892076 7 0 -6
196 1 2 -1.1794 6.936371737722999 5.678004377801692 3.778347095947012 3 -1 2
748 1 2 -1.1794 9.051088604774069 2.878255691809545 3.9742093622423598 2 2 3
197 1 1 0.5897 6.729747424440525 5.0040116954519975 4.425973557000292 3 -1 2
68 1 1 0.5897 4.3288670859994225 5.641200400093872 5.324299396665675 7 0 -6
401 1 1 0.5897 7.181519404155708 2.490826108986388 3.3319557822490737 -3 -3 1
400 1 2 -1.1794 6.532521634535031 2.2238769582733364 2.6808446058263105 -3 -3 1
72 1 1 0.5897 8.545243060154322 6.277646816403808 3.548427086882092 7 2 -4
476 1 1 0.5897 1.6813907205998462 2.738002495519256 4.688256859044535 7 -5 -3
391 1 2 -1.1794 3.0347743136901655 4.765804947252622 2.0409570357809352 5 -3 0
388 1 2 -1.1794 5.693383208207891 4.648576963719373 1.4503111994347537 -5 6 8
389 1 1 0.5897 5.978119066881934 3.8028591789422763 1.7968156449944495 -5 6 7
139 1 2 -1.1794 1.5232866508988883 6.007200375404803 5.867170667858759 -5 -4 4
140 1 1 0.5897 2.219990528330423 5.559421325741732 5.387086312730211 -5 -4 4
750 1 1 0.5897 9.094452741791885 1.9872442247070838 4.321459570108652 2 2 3
57 1 1 0.5897 3.922966315410524 5.600931888618478 9.858013896977239 -4 -1 -1
44 1 1 0.5897 6.2961370358018005 2.8363254678659775 6.072609463677779 8 8 -2
672 1 1 0.5897 7.772398428042763 5.043547395811695 9.374490764689552 6 2 -1
55 1 2 -1.1794 3.0810816064025075 5.413006702052181 9.442929128672013 -4 -1 -1
788 1 1 0.5897 3.9895819919976607 2.660730393381152 10.566915336606666 4 1 4
688 1 2 -1.1794 5.725516606509357 2.3882602978493903 10.410691295329654 0 1 5
382 1 2 -1.1794 3.366656348406776 3.5989513289151525 7.120456547647134 -12 -1 0
505 1 2 -1.1794 5.352009496477876 5.992678098768014 10.765731452852819 3 2 -7
43 1 2 -1.1794 6.28100120895656 3.755729922243839 6.338765593932513 8 8 -2
689 1 1 0.5897 6.365901300315545 2.9933601891953785 10.036356840574678 0 1 5
670 1 2 -1.1794 7.03117288309395 4.503873170045022 9.099358219580575 6 2 -1
383 1 1 0.5897 3.2739498679015147 2.778180353201355 7.604301747429299 -12 -1 0
45 1 1 0.5897 5.380479644693922 3.9077269834675934 6.625712391150456 8 8 -2
751 1 2 -1.1794 7.892588768357743 6.605374569772075 7.0119301615875935 0 0 0
56 1 1 0.5897 2.8793027735922787 4.514792051222363 9.705339028126618 -4 -1 -1
507 1 1 0.5897 5.904312986247748 5.376342215210579 10.284625062663562 3 2 -7
671 1 1 0.5897 7.098732590675766 4.471901433474116 8.145012147669727 6 2 -1
384 1 1 0.5897 2.9716688079318154 4.259226998561624 7.690008645218621 -12 -1 0
606 1 1 0.5897 1.7212887615152113 1.85237426512943 6.990564761103783 -5 5 -1
753 1 1 0.5897 8.460583214405395 6.024001399303942 6.506198287950733 0 0 0
32 1 1 0.5897 6.1200972370529 6.626558846157805 6.526355588490418 3 7 -2
847 1 2 -1.1794 0.5718035057071327 2.868942170130376 6.066860883277322 1 0 5
787 1 2 -1.1794 3.046875461451341 2.787454123790082 10.459174136899133 4 1 4
542 1 1 0.5897 1.6676904065475748 6.715979241184387 9.266631832907256 -4 3 2
789 1 1 0.5897 2.6762116536692533 1.9081894108867694 10.535818575520121 4 1 4
675 1 1 0.5897 9.048380992183908 1.9196942096029628 7.7935732747481445 -3 0 -3
31 1 2 -1.1794 5.175861674889703 6.679965072526817 6.674449047059463 3 7 -2
519 1 1 0.5897 8.337045016185906 6.702816645459354 8.733301992905517 -1 -3 -2
690 1 1 0.5897 5.529805279328662 1.776557175338617 9.700842415846134 0 1 5
411 1 1 0.5897 7.916626309892574 2.385548900119147 12.427628873532301 2 1 -5
116 1 1 0.5897 4.262140029263157 5.417677230665385 11.864273277212165 -3 -4 2
575 1 1 0.5897 4.434400276251978 4.878590903204721 15.723139205769563 4 0 1
587 1 1 0.5897 7.253063401105573 5.202662164431249 12.511613104297293 0 4 5
410 1 1 0.5897 8.426443864769315 3.567661171692132 13.224550810886946 2 1 -5
571 1 2 -1.1794 1.0387835038483604 3.476026632363462 13.055945985050718 -2 -5 -7
572 1 1 0.5897 0.7915125092131146 2.581512976421903 12.821197598430015 -2 -5 -7
800 1 1 0.5897 1.9344573922269144 4.919664314403294 15.966809136921297 -1 0 2
117 1 1 0.5897 3.107756733068242 4.722234895963323 12.554225006553962 -3 -4 2
343 1 2 -1.1794 6.540575049855775 5.753058982351602 15.473548713748889 -2 0 -2
449 1 1 0.5897 3.6730845011522675 3.0881609585518075 14.39940662049956 4 -2 -4
115 1 2 -1.1794 3.884951019103609 5.253239958962071 12.728594434753742 -3 -4 2
588 1 1 0.5897 6.441333847572194 6.480576446011067 12.49518175505723 0 4 5
586 1 2 -1.1794 7.240536214919893 6.09598864195506 12.855379081751648 0 4 5
344 1 1 0.5897 6.830222534879888 6.12461371909978 14.64022928071344 -2 0 -2
345 1 1 0.5897 6.337031823619147 4.839794960320216 15.27128460312314 -2 0 -2
311 1 1 0.5897 2.545017979698848 6.433801961594408 13.20306524540478 0 4 2
574 1 2 -1.1794 3.595971420130778 4.811233862929152 15.266062747755168 4 0 1
90 1 1 0.5897 6.745023048545664 2.6595966554601276 15.465714847743877 7 -4 6
88 1 2 -1.1794 6.181500011049661 3.1733061623283603 14.8869718452864 7 -4 6
576 1 1 0.5897 3.780663853541921 5.120173369185956 14.379027662668422 4 0 1
89 1 1 0.5897 6.647624560556136 3.1901398181739804 14.051000353018665 7 -4 6
409 1 2 -1.1794 7.73698145667778 3.3072550373945035 12.613627121986193 2 1 -5
50 1 1 0.5897 8.882808558636558 3.8445806033328016 11.302520962465346 6 -1 -2
450 1 1 0.5897 2.775485418456635 2.623785470602857 13.27206046235292 4 -2 -4
448 1 2 -1.1794 3.4514464701687033 2.3174269835175476 13.876711084633094 4 -2 -4
582 1 1 0.5897 5.2472377066521885 6.725327224813341 16.13282918675812 -4 0 -2
829 1 2 -1.1794 1.5284262830811723 3.98806384885315 19.02775825793732 5 3 2
551 1 1 0.5897 4.8302732899106795 4.7959567973704615 18.591007531891485 -6 6 -7
516 1 1 0.5897 5.54021978887715 2.1914143724868036 20.55242992272065 -4 -3 -1
550 1 2 -1.1794 5.21347551712347 4.381757571129242 17.81772882815629 -6 6 -7
830 1 1 0.5897 1.8625948824813812 3.097799266562523 19.137970709620078 5 3 2
515 1 1 0.5897 7.013098656905824 2.3397838393739874 20.234839004270853 -4 -3 -1
285 1 1 0.5897 2.9118185011487423 5.009963150238736 19.592135909277694 5 3 -5
801 1 1 0.5897 1.3290173260249074 4.570443574697798 17.309833328735216 -1 0 2
284 1 1 0.5897 3.932551559198875 5.246577987518054 20.684996948417428 5 3 -5
224 1 1 0.5897 7.000356288811449 4.519030917767891 17.945328825034295 3 -4 -6
817 1 2 -1.1794 8.581078703044382 2.97898901600411 20.39621229381872 2 1 0
552 1 1 0.5897 4.704862645829794 3.5796379462361894 17.69822158310972 -6 6 -7
223 1 2 -1.1794 7.947014169322979 4.407184394449244 18.033241455060633 3 -4 -6
855 1 1 0.5897 6.483240718210411 5.546519105260523 20.990402607638437 -1 3 3
560 1 1 0.5897 8.13617774961292 2.9075810933822193 17.26216977867783 4 0 4
365 1 1 0.5897 8.714180265830333 5.733603684500178 20.99400626684662 -1 6 4
225 1 1 0.5897 8.064173802676006 4.030430634121476 18.905427191259065 3 -4 -6
514 1 2 -1.1794 6.231371013854333 1.8457425325046102 19.987457867232415 -4 -3 -1
283 1 2 -1.1794 3.790448470287365 5.357894800659867 19.74489064127554 5 3 -5
853 1 2 -1.1794 7.0543058313668014 6.183818943000562 20.561334591165505 -1 3 3
559 1 2 -1.1794 8.437923239051043 2.1925196004395144 16.70181442561784 4 0 4
799 1 2 -1.1794 1.0990809124494456 4.73111747538994 16.39457906015882 -1 0 2
5 1 1 0.5897 3.127919385803262 1.975599232505729 20.76088577216715 7 1 0
4 1 2 -1.1794 3.7442243993276265 2.3933435752205003 21.362588827527865 7 1 0
831 1 1 0.5897 1.1982657292404704 4.229331973594796 19.893318750913565 5 3 2
819 1 1 0.5897 8.919357505396905 3.55238846309954 21.08407504757956 2 0 0
233 1 1 0.5897 5.087711190906805 1.8636465389336694 18.637141243418384 -2 -2 -3
662 1 1 0.5897 5.307955407931247 11.124221813648964 4.91422817942835 0 -3 0
122 1 1 0.5897 4.175058231290583 7.616938880467523 5.434616584681598 -2 -3 -2
851 1 1 0.5897 2.9882351535239002 7.784692199865447 3.2378502923108177 -1 0 0
108 1 1 0.5897 5.856770715348045 8.325424140228886 2.312292472660713 1 1 5
501 1 1 0.5897 4.519050300664773 9.867812657197586 1.0455939836353316 -6 -1 -4
717 1 1 0.5897 3.9585873685728115 10.602144537208192 3.125616515520011 -1 -8 -1
852 1 1 0.5897 1.7058609124408213 7.639286489484567 2.446262240618533 -1 0 0
155 1 1 0.5897 0.8692516559478298 11.02139767495823 3.698935377196089 2 3 -4
499 1 2 -1.1794 3.712297810774192 10.035678691164653 1.5328097472557842 -6 -1 -4
106 1 2 -1.1794 5.990067106489402 8.444407169534703 3.2527511174492956 1 1 5
102 1 1 0.5897 0.8617349288038519 10.110176649500612 1.3729967822741997 4 -3 0
154 1 2 -1.1794 1.2548797290397289 11.592474328943725 4.363423573745678 2 3 -4
715 1 2 -1.1794 3.946220418442992 11.03692622248926 3.9783775496343843 -1 -8 -1
716 1 1 0.5897 3.025278276382973 11.254083657674999 4.123683061128775 -1 -8 -1
123 1 1 0.5897 4.350980351111698 8.64413707632451 4.336337700844115 -2 -3 -2
850 1 2 -1.1794 2.6571922140457986 7.675775955482986 2.346264393762488 -1 0 0
173 1 1 0.5897 6.801289620725039 10.264413690549468 3.219942700232124 -2 2 -2
107 1 1 0.5897 6.204676323341917 7.569769443241639 3.5772873632145767 1 1 5
172 1 2 -1.1794 7.553080028086607 10.807915181626205 2.983734601942845 -2 2 -2
121 1 2 -1.1794 3.688894190929315 8.106448108516291 4.770966112524602 -2 -3 -2
500 1 1 0.5897 3.2789624226271856 9.183423259190228 1.5804700339197324 -6 -1 -4
174 1 1 0.5897 7.760860260364934 11.290914037703397 3.783753415961665 -2 2 -2
661 1 2 -1.1794 6.116907368949349 11.308957265111358 5.391549519508944 0 -3 0
261 1 1 0.5897 8.791266426150075 9.799805196871601 2.534534977334072 -3 3 5
141 1 1 0.5897 1.7031653754546505 6.9385821797794645 5.7381641882099625 -5 -4 4
15 1 1 0.5897 2.044212998866888 11.450225178128514 8.804707670270396 3 -5 -2
188 1 1 0.5897 4.13582881985803 10.340998353943998 8.042076332310309 -4 3 2
541 1 2 -1.1794 1.1491829104294176 7.51648291062483 9.184473992578306 -4 3 2
735 1 1 0.5897 1.7313815883716122 8.42898050646516 7.650992402167606 -2 1 1
195 1 1 0.5897 7.731293018316261 11.757647053388867 9.68616261562456 0 -4 -3
194 1 1 0.5897 7.5369165461877055 10.721113283178019 10.772463196347177 0 -4 -3
13 1 2 -1.1794 1.4553401165338258 11.16341526299217 9.502805275736513 3 -5 -2
398 1 1 0.5897 8.589873504567974 9.699396121824972 6.890484589505076 4 -1 -9
193 1 2 -1.1794 7.880484300311139 11.601275714885201 10.618721999136499 0 -4 -3
399 1 1 0.5897 7.334130166678077 9.91527481790831 6.072700164666437 4 -1 -9
783 1 1 0.5897 7.903470301062302 8.136198939558705 10.983036423485292 0 -1 -1
733 1 2 -1.1794 1.791198590310759 8.936957565149026 6.841825966492897 -2 1 1
14 1 1 0.5897 1.493133729676561 10.207420320595407 9.47103239584827 3 -5 -2
771 1 1 0.5897 6.773218966875846 7.781225132680418 8.882890260457001 3 -1 0
770 1 1 0.5897 5.706913804259098 8.760327235256396 8.439521022121525 3 -1 0
769 1 2 -1.1794 5.8904601169052695 8.08577640273844 9.093476507582398 3 -1 0
189 1 1 0.5897 4.991933219319857 10.090992276875745 6.8186377772528335 -4 3 2
397 1 2 -1.1794 7.673005249319581 9.431799960832937 6.826219189810085 4 -1 -9
33 1 1 0.5897 5.091515110250241 6.993039207685514 7.575133464445019 3 7 -2
187 1 2 -1.1794 4.430061830082652 9.646014199447059 7.453190796521862 -4 3 2
734 1 1 0.5897 2.6717555401501087 9.312069240502936 6.858468692242995 -2 1 1
242 1 1 0.5897 5.375204506284177 9.113778380676562 10.82215088251802 -2 -6 4
752 1 1 0.5897 8.230102504537111 7.483664628691869 6.835633644429015 0 0 0
815 1 1 0.5897 2.0484227262691093 11.444587233090047 6.411053770438203 -2 10 -3
165 1 1 0.5897 7.300820392885375 11.0469050190081 7.801494841756704 -8 0 0
506 1 1 0.5897 5.470905352959395 6.826749394486073 10.311249963091532 3 2 -7
517 1 2 -1.1794 8.380761451898326 6.990507624994199 9.64527439088161 -1 -3 -2
150 1 1 0.5897 1.9828477731315883 8.402178823654484 10.38968505456913 -5 -1 3
243 1 1 0.5897 4.946937886119902 9.081805966149794 12.273994576807473 -2 -6 4
782 1 1 0.5897 7.601466278794979 8.480358384163818 12.426148787796322 0 -1 -1
148 1 2 -1.1794 2.0876675193640315 8.802044147872955 11.253126020943192 -5 -1 3
34 1 2 -1.1794 5.998839864198903 11.482884116306229 14.929272417863668 -9 2 -1
54 1 1 0.5897 2.785074356078775 9.694987624923016 15.599565248524502 0 -2 5
407 1 1 0.5897 6.273615024291491 8.733757009462355 14.018486442822553 -4 0 6
40 1 2 -1.1794 2.055258660902595 8.103788320162128 15.787049582799632 2 -1 3
245 1 1 0.5897 4.570117837672281 11.324012834680431 11.935448810619214 -7 2 -1
626 1 1 0.5897 8.865625645850285 6.938906658205375 16.16604812315537 -5 -3 1
747 1 1 0.5897 1.0708641165972073 10.179111848543686 12.054102301272017 4 6 -11
241 1 2 -1.1794 4.713824420504854 9.455415792180695 11.42401565240706 -2 -6 4
41 1 1 0.5897 1.9836126378447378 7.8135284232056055 14.877650646144268 2 -1 3
558 1 1 0.5897 8.586766469994163 9.309257680658845 14.023795749771363 1 1 1
408 1 1 0.5897 5.145539966217116 8.048352629589681 14.760047920664118 -4 0 6
312 1 1 0.5897 1.999088290046428 7.732238735952504 12.64785653658951 0 4 2
42 1 1 0.5897 2.904765257557712 7.772489048512461 16.07851694602023 2 -1 3
781 1 2 -1.1794 7.474562393678664 8.793890549235488 11.530628501788875 0 -1 -1
746 1 1 0.5897 1.299643176671631 11.409456265723511 12.906274991793232 4 6 -11
149 1 1 0.5897 3.019705965488472 9.013321900787695 11.308232148073953 -5 -1 3
745 1 2 -1.1794 0.6064396850940448 10.87918016541893 12.512993830725309 4 6 -11
52 1 2 -1.1794 3.353222159751651 10.46541194193618 15.604137556232438 0 -2 5
406 1 2 -1.1794 5.3574430454551765 8.471469602381042 13.9279092559865 -4 0 6
557 1 1 0.5897 8.32756030382143 7.978807187767713 14.698284623410624 1 1 1
53 1 1 0.5897 4.2321301512497955 10.11635255566647 15.455649459823208 0 -2 5
556 1 2 -1.1794 7.880490841497017 8.721289398029135 14.291822117402177 1 1 1
373 1 2 -1.1794 8.72698020072878 11.520545500244545 13.968500087753144 4 4 -3
35 1 1 0.5897 6.839878854378808 11.379882055069245 14.483839317276017 -9 2 -1
310 1 2 -1.1794 1.9635323347526519 7.163507435737782 13.417039297854293 0 4 2
580 1 2 -1.1794 4.723945087557673 7.510842045788499 16.29250061188698 -4 0 -2
74 1 1 0.5897 8.938844807242265 10.302938463557865 16.290916969995628 0 -2 4
12 1 1 0.5897 2.583737381256168 11.793663885506668 14.602417728668815 -6 1 10
387 1 1 0.5897 3.795785860037613 10.866099575998543 18.810627554527635 -3 0 1
569 1 1 0.5897 0.8138872573563515 8.65639489752015 20.09566570177345 -2 2 -3
730 1 2 -1.1794 4.753257094063716 7.91218987963522 18.921028218410775 1 -1 -6
30 1 1 0.5897 8.19476529939752 11.55087589392416 20.30066648449015 -9 2 3
621 1 1 0.5897 5.599492860800187 8.584401062876122 20.368212101939115 -2 -3 5
826 1 2 -1.1794 8.170341118765556 7.738739603769638 17.653799115508072 0 2 1
619 1 2 -1.1794 6.121917901016578 8.821109975359091 21.13467136446203 -2 -3 5
759 1 1 0.5897 6.120235274572714 11.355400304603265 19.743728367296235 4 1 2
854 1 1 0.5897 6.810833950032913 7.024111481053263 20.94992052128108 -1 3 3
731 1 1 0.5897 4.044351689428957 8.550972236484803 18.84503081601796 1 -1 -6
827 1 1 0.5897 8.903282136854106 7.838293729294443 18.261482171932407 0 2 1
386 1 1 0.5897 3.1479640965988107 10.443598193957724 17.50905228934044 -3 0 1
738 1 1 0.5897 6.65890839580209 10.397524217365904 16.55072410616965 2 -1 1
736 1 2 -1.1794 7.2800367051299215 10.325060704336066 17.27552271866034 2 -1 1
570 1 1 0.5897 1.7511714798070388 9.770569838365727 19.68047449679335 -2 2 -3
385 1 2 -1.1794 3.3068366635819015 10.149397312985489 18.406068691789407 -3 0 1
737 1 1 0.5897 7.428739329203875 9.384226760531586 17.37097614616649 2 -1 1
147 1 1 0.5897 2.9087342945711607 11.45416141782344 21.2786919096569 -3 -3 -4
28 1 2 -1.1794 7.828498240418227 10.698466395141246 20.064841086205377 -9 2 3
29 1 1 0.5897 7.841880383436029 10.687974552322128 19.10771239062563 -9 2 3
620 1 1 0.5897 6.755797803153044 9.458459124003234 20.805505210512187 -2 -3 5
568 1 2 -1.1794 1.0565920442731884 9.558611339499183 20.30418720073051 -2 2 -3
732 1 1 0.5897 4.312475479285391 7.0879769774034775 19.12785820483375 1 -1 -6
581 1 1 0.5897 4.800223259730073 7.662638393494449 17.234578443748674 -4 0 -2
828 1 1 0.5897 7.592675526635627 7.103202828182358 18.076605902794377 0 2 1
270 1 1 0.5897 1.7394991751124345 12.80543743413932 3.1160223364955364 2 7 5
276 1 1 0.5897 6.337109932343656 14.7790102717257 2.596568933686768 -3 2 -2
268 1 2 -1.1794 1.786039366760132 13.507433631047745 2.466841355144131 2 7 5
793 1 2 -1.1794 9.045113420853442 12.123940157480346 4.886626020934319 -2 1 6
269 1 1 0.5897 0.9114291444683251 13.533676422253633 2.078588051191198 2 7 5
146 1 1 0.5897 2.4050041855836204 12.791134862301133 0.9601467790982017 -3 -3 -3
205 1 2 -1.1794 2.77927694785959 15.43602297508127 4.66956216781388 -5 0 -4
422 1 1 0.5897 5.085117568552816 12.484794547076158 3.3243428599647213 0 0 1
207 1 1 0.5897 2.34536242250573 15.58816283705941 5.509168370148225 -5 0 -4
222 1 1 0.5897 9.023123853684822 13.573641341657234 2.1322762308461973 3 -3 -2
206 1 1 0.5897 2.067049101007691 15.223163360686973 4.066395891324616 -5 0 -4
483 1 1 0.5897 5.001621252785796 13.757442968606691 1.064621346012161 3 3 -1
412 1 2 -1.1794 8.959517030622731 16.039048274454636 3.885990925068853 2 -5 -1
414 1 1 0.5897 8.035686972866365 16.088709211734674 3.6401087183058123 2 -5 -1
228 1 1 0.5897 2.0342113453965465 15.481331317488245 1.3649752558608124 4 -6 2
275 1 1 0.5897 5.635698862471047 16.07569179964331 2.941350737117669 -3 2 -2
729 1 1 0.5897 3.626192982852935 16.675617265596593 1.936701350651719 1 2 0
274 1 2 -1.1794 6.501130815201251 15.70723396466047 2.7634819811673585 -3 2 -2
421 1 2 -1.1794 5.699658378668329 13.021155997620756 2.8233249760708268 0 0 1
423 1 1 0.5897 6.46404411842881 12.458289670220998 2.6997764958538686 0 0 1
839 1 1 0.5897 4.188438563711101 14.123157113003773 5.328030808680796 0 -2 -2
663 1 1 0.5897 5.969406059470538 12.166278087288607 5.791063993144168 0 -3 0
795 1 1 0.5897 8.71570133848521 12.819019745656043 5.456468730523273 -2 1 6
83 1 1 0.5897 9.014179197811275 14.934627534117508 5.729121664360426 -6 0 -5
226 1 2 -1.1794 2.7081040844545896 15.838363284603515 0.7863793936554324 4 -6 2
728 1 1 0.5897 3.657976403106816 16.42401283128035 3.429332437828421 1 2 0
95 1 1 0.5897 6.612989733672608 16.585306679682176 1.2042968251306645 -4 -5 1
394 1 2 -1.1794 2.657383152139267 14.170222969430696 9.454697577963872 1 0 6
816 1 1 0.5897 1.6870362380874069 12.7404232782534 7.105752103345787 -2 10 -3
601 1 2 -1.1794 5.4465695029499575 15.122490324900483 10.039038037327444 3 7 -2
82 1 2 -1.1794 8.639497131845225 14.405748882608027 6.433584157450237 -6 0 -5
678 1 1 0.5897 4.113300990247751 11.92781366913807 9.986793206227016 -4 -3 -4
780 1 1 0.5897 5.508823116480637 14.695663427250311 6.865214469851303 0 -2 3
603 1 1 0.5897 4.49203577152913 15.056614708107109 10.068976128244774 3 7 -2
840 1 1 0.5897 3.6414158928824856 12.9937032677628 6.174979892637735 0 -2 -2
676 1 2 -1.1794 4.458382595301516 11.881701955474538 9.095067496188417 -4 -3 -4
779 1 1 0.5897 5.82916680917713 16.14538822072872 6.5687026058447655 0 -2 3
677 1 1 0.5897 4.021927429187937 12.596565867036796 8.63153279085595 -4 -3 -4
778 1 2 -1.1794 6.033683394041708 15.433696224423695 7.175374660379047 0 -2 3
594 1 1 0.5897 0.8845714754505553 15.730779675332615 6.663668641885584 2 -3 -4
395 1 1 0.5897 2.275306974888612 13.790699903231841 10.246117529049123 1 0 6
592 1 2 -1.1794 1.2824873714174854 16.60114075463543 6.68641200906157 2 -3 -4
396 1 1 0.5897 2.4579672894383995 15.104476971013044 9.516150645334864 1 0 5
602 1 1 0.5897 5.6728071495938215 14.919388154035579 9.13130909811969 3 7 -3
341 1 1 0.5897 6.894512830080357 16.480537932773117 10.441963091618025 2 6 0
163 1 2 -1.1794 7.0507512063498226 11.929488773920317 8.075148647183278 -8 0 0
814 1 2 -1.1794 2.3731303245866084 12.07478425541842 7.054325177400678 -2 10 -3
84 1 1 0.5897 7.807817772259871 14.833256404230896 6.6383252211897785 -6 0 -5
593 1 1 0.5897 1.6856637747962042 16.658144135267598 7.552762152594315 2 -3 -4
838 1 2 -1.1794 4.44098146210856 13.49026891206551 6.000369348027944 0 -2 -2
164 1 1 0.5897 6.149063327378133 11.83870445773718 8.383513714406877 -8 0 0
431 1 1 0.5897 7.7279856827303925 14.723593573373531 13.912028218640494 -5 -2 -3
246 1 1 0.5897 5.140561644668964 12.722716744007746 12.03762718281758 -7 2 -1
244 1 2 -1.1794 4.313141462039443 12.2414048280171 12.028815813093098 -7 2 -1
755 1 1 0.5897 5.646543934526498 15.006741592780902 15.01756841890576 0 -1 -2
137 1 1 0.5897 1.2658674704462147 13.66899914027814 14.191248127931795 3 -9 0
643 1 2 -1.1794 0.6860117431743518 13.807415466320924 11.480363393108169 4 -2 1
858 1 1 0.5897 2.0031567639268104 15.571920133719596 14.96025380769677 7 -1 -4
756 1 1 0.5897 4.140139285911416 15.148264185490602 15.071856702030878 0 -1 -2
645 1 1 0.5897 0.7687017553733365 13.973047117618618 12.419564132942362 4 -2 1
36 1 1 0.5897 5.711079859848302 12.365977531130637 14.697530500519019 -9 2 -1
316 1 2 -1.1794 6.828407981163566 13.738160851134138 11.993736501128254 -5 -6 1
668 1 1 0.5897 7.690155360599066 13.586956468524416 16.06147201823739 -6 -2 1
430 1 2 -1.1794 8.368431886899575 14.300206462764525 14.483816143507765 -5 -2 -3
10 1 2 -1.1794 2.3523281319168 12.35082640882854 13.859166315862959 -6 1 10
318 1 1 0.5897 6.233745843798759 14.176339738411302 11.38485387862183 -5 -6 1
11 1 1 0.5897 3.152029297965873 12.396031814162779 13.334891041674256 -6 1 10
754 1 2 -1.1794 4.838137103831654 14.494282377114704 15.033011116413803 0 -1 -2
317 1 1 0.5897 7.1522815848104155 12.979171756985398 11.508549313631692 -5 -6 0
240 1 1 0.5897 8.368858429207435 14.44564188639858 11.312830188001659 -3 -2 -3
856 1 2 -1.1794 2.525589254331468 16.07215315031857 15.587342226187461 7 -1 -4
529 1 2 -1.1794 3.4188460554053757 16.802744634095596 12.096080467708923 -4 0 -4
136 1 2 -1.1794 0.8426146170397311 14.520702550040193 14.082470015970198 3 -9 0
375 1 1 0.5897 8.80179630736051 12.411927569569935 14.309407349034327 4 4 -3
321 1 1 0.5897 5.674492317330498 16.826298387527103 16.190762304767176 6 1 0
25 1 2 -1.1794 7.356688939503282 15.259482133013007 18.817861822097456 -1 7 6
545 1 1 0.5897 2.355062965236158 13.381893439240054 18.104981211724436 -5 4 3
482 1 1 0.5897 4.497713178253608 14.894582702770196 21.020879731593546 3 3 -2
291 1 1 0.5897 0.8975108001903702 15.034195776414025 18.028486232750005 1 -5 -8
47 1 1 0.5897 4.512575736093373 12.902229039795856 18.022808567395828 -1 -4 1
509 1 1 0.5897 8.118032711272281 16.59316112670167 17.871566520254575 4 -2 3
96 1 1 0.5897 6.455002831944889 16.054598679053974 20.614723724632192 -5 -5 0
27 1 1 0.5897 7.321453056090004 14.554289014060517 18.171462499298677 -1 7 6
857 1 1 0.5897 2.022293714093477 16.037215270101115 16.400889058935718 7 -1 -4
647 1 1 0.5897 7.5455203283654955 13.84425294210701 20.913093404801252 -9 1 -1
212 1 1 0.5897 0.913927088165452 12.279884630738517 17.3794098458893 5 3 2
46 1 2 -1.1794 3.958406324411904 13.601171187121844 17.675334816714027 -1 -4 1
546 1 1 0.5897 1.8155498877786 12.974780549081762 19.459765703638823 -5 4 3
639 1 1 0.5897 4.404321973091099 15.521075608363546 18.10374553767 -7 1 -1
646 1 2 -1.1794 8.240965292049662 13.307481627810272 21.29336135421738 -9 1 -1
544 1 2 -1.1794 1.5451145097841605 13.32883467292432 18.61246648956486 -5 4 3
667 1 2 -1.1794 7.329744566767113 13.323820772607673 16.908377836535642 -6 -2 2
26 1 1 0.5897 6.573692786266315 15.782497523008756 18.645390793913734 -1 7 6
757 1 2 -1.1794 5.379676003261528 11.889298793071221 19.45579009286829 4 1 2
227 1 1 0.5897 2.2255235589504165 16.378680419073284 20.98018700963957 4 -6 1
758 1 1 0.5897 5.435377914779309 12.68350237058263 19.98735535790862 4 1 2
481 1 2 -1.1794 5.1964909638319465 14.243176162782731 21.08262078628163 3 3 -2
637 1 2 -1.1794 4.902296430927553 16.33856258074377 18.09356913607742 -7 1 -1
48 1 1 0.5897 4.349615724128411 13.819489863784394 16.829369941300364 -1 -4 1
145 1 2 -1.1794 2.533637611757992 12.28235797358955 20.979087623312374 -3 -3 -4
648 1 1 0.5897 9.027179303521983 13.552234708042608 20.805166704629677 -9 1 -1
669 1 1 0.5897 6.789073939132336 12.55868370593678 16.711861471305333 -6 -2 2
290 1 1 0.5897 0.7519748218073745 16.464816278591723 18.50223512556955 1 -5 -8
211 1 2 -1.1794 0.701884566963182 11.952680096231667 16.505126914463624 5 3 2
289 1 2 -1.1794 0.5725422184535347 15.89245657666048 17.756176157021876 1 -5 -8
278 1 1 0.5897 4.356445116037536 18.439526014607132 1.9341799259010168 0 3 0
277 1 2 -1.1794 4.238259314096625 19.34257601978498 1.6393564901014477 0 3 0
247 1 2 -1.1794 6.833062202509723 19.219216145916405 3.7451662053396553 0 0 -2
768 1 1 0.5897 4.180502195762267 20.343829274112828 3.0172220452027263 -4 -2 2
766 1 2 -1.1794 4.248859491721021 20.9610788772493 3.7457185806233086 -4 -2 2
378 1 1 0.5897 3.833339259499342 19.788616823516854 5.048450903118462 3 3 5
813 1 1 0.5897 0.8123414577642543 17.927455375619132 3.68432349830158 -5 3 -1
812 1 1 0.5897 1.625457717465018 18.702817186061495 4.699150842673252 -5 3 -1
120 1 1 0.5897 2.4381413490784367 19.715442040683868 1.1977307062289686 5 -4 1
727 1 2 -1.1794 4.058442670921746 16.957703323212897 2.7429066928012578 1 2 0
811 1 2 -1.1794 1.0122761314446012 18.817991454643114 3.9730964469946244 -5 3 -1
248 1 1 0.5897 7.670943769425216 19.5783456440899 4.03733225615033 0 0 -2
461 1 1 0.5897 6.890725954126695 21.099052697846567 1.620269049424756 1 4 -2
119 1 1 0.5897 1.4324057037653963 19.391635112250192 2.2821092951844832 5 -4 1
804 1 1 0.5897 0.5863750254891241 20.954496245335015 1.5175713629794383 5 3 -5
354 1 1 0.5897 6.060663559904183 18.002297360324917 4.840916171937058 6 2 0
460 1 2 -1.1794 7.098550977114007 20.338387268001895 1.077532029315523 1 4 -2
249 1 1 0.5897 6.738677606553949 19.53174782337986 2.8452870223737645 0 0 -2
467 1 1 0.5897 5.856904613551386 20.48092592883394 5.325871889427813 5 -1 1
614 1 1 0.5897 8.842463201522596 20.182726490345296 2.0974741966197286 -4 4 3
118 1 2 -1.1794 1.51800316300361 19.489090179918698 1.3336601933801027 5 -4 1
376 1 2 -1.1794 3.3570397662541884 19.23526142161831 5.667562461640958 3 3 5
523 1 2 -1.1794 8.89714696731266 20.144684331741125 5.626339055541383 1 -1 6
353 1 1 0.5897 4.723630507691357 17.878566437183025 5.540387205823703 6 2 0
352 1 2 -1.1794 5.595406374687762 17.485336794992634 5.498681229428877 6 2 0
767 1 1 0.5897 3.4723011523033276 21.51496962378677 3.6646493855149647 -4 -2 2
279 1 1 0.5897 4.91653547587804 19.469062668565485 0.975717696643396 0 3 0
436 1 2 -1.1794 4.6518503959572355 18.560799656709804 9.860295865589995 -2 4 0
340 1 2 -1.1794 7.297617520469312 17.342439353595108 10.337071167859104 2 6 0
796 1 2 -1.1794 4.86425205427161 20.758863472073728 8.462318626650163 0 -5 1
179 1 1 0.5897 8.024398801912035 20.779261910270208 9.698121318106022 -7 3 -5
524 1 1 0.5897 9.09690747921561 20.854565797389895 6.236692633930138 1 -1 6
377 1 1 0.5897 2.8386653044827965 19.848857532208463 6.188282516798105 3 3 5
798 1 1 0.5897 5.525541689815879 20.814083585795693 7.7723835541339445 0 -5 1
178 1 2 -1.1794 8.009016617983953 20.71387723508765 8.743212261255497 -7 3 -5
605 1 1 0.5897 1.590326849753733 21.06159375047819 8.207340765509432 -5 4 -1
325 1 2 -1.1794 7.5012972160682105 18.337618805835405 7.613680118700912 3 -1 1
797 1 1 0.5897 4.029811078062931 20.736481136402233 7.993730843024411 0 -5 1
180 1 1 0.5897 7.567794537859605 19.882913114162882 8.566619911645038 -7 3 -5
604 1 2 -1.1794 2.2099696085353306 21.33030812373425 7.528954806330836 -5 4 -1
493 1 2 -1.1794 2.3502497919808487 16.995596813366113 9.196743447747425 -2 -2 1
437 1 1 0.5897 5.531393874183549 18.221412244342282 10.026473875869504 -2 4 0
438 1 1 0.5897 4.795071780812038 19.36244634634098 9.35707707831624 -2 4 0
327 1 1 0.5897 6.7225851988359 18.094286896846988 7.112901918516792 3 -1 1
495 1 1 0.5897 3.05299742566256 17.638706651598945 9.291180783416001 -2 -2 1
466 1 2 -1.1794 6.250245977034909 20.99174859374871 6.0334812241157225 5 -1 1
468 1 1 0.5897 7.169480083849433 20.724665243869126 6.039983308104693 5 -1 1
342 1 1 0.5897 7.618123424329744 17.349332471327898 9.435077162899258 2 6 0
326 1 1 0.5897 8.231716102944334 17.972634659830952 7.114029709826606 3 -1 1
494 1 1 0.5897 1.5861411010708253 17.415245193296386 9.592212106007713 -2 -2 1
654 1 1 0.5897 7.41264021194224 20.00085529381367 14.708165762941814 -3 0 -2
744 1 1 0.5897 3.370418007736353 17.786553134313785 15.505290814391975 1 0 -1
452 1 1 0.5897 1.5342595651584023 20.314609567907375 12.111984398914718 4 2 3
264 1 1 0.5897 5.401921694921437 19.67490661086211 15.940646954052665 5 -7 4
473 1 1 0.5897 8.052090409119657 20.5913941268186 12.275838197728993 -2 0 -2
652 1 2 -1.1794 8.144639277716543 19.799453709323302 14.125064190357273 -3 0 -2
566 1 1 0.5897 4.10563182574226 20.52693410581393 12.44709978825383 3 3 -6
488 1 1 0.5897 5.842286141423984 17.635238722093845 13.793160352853192 0 -6 1