#include		in.partitions
include		in.temp
variable        temperature equal 261.91
variable	tempDamp equal 100.0
include		in.pressure
variable        pressure equal 3375.0
variable        pressureDamp equal 1000.0 # This is 1 ps
include		in.seed
variable        seed equal 745823

units		real
atom_style	full
read_restart	restart.lmp.${pid}
read_restart	restart.lmp.1
Reading restart file ...
  restart file = 30 Jul 2021, LAMMPS = 30 Jul 2021
  restoring atom style full from restart
  orthogonal box = (0.39853281 1.5609503 0.48620910) to (17.809040 22.068228 21.726987)
  2 by 4 by 4 MPI processor grid
  restoring pair style lj/cut/tip4p/long/omp from restart
  restoring bond style harmonic/omp from restart
  restoring angle style harmonic/omp from restart
  864 atoms
  576 bonds
  288 angles
Finding 1-2 1-3 1-4 neighbors ...
  special bond factors lj:    0        0        0       
  special bond factors coul:  0        0        0       
     2 = max # of 1-2 neighbors
     1 = max # of 1-3 neighbors
     1 = max # of 1-4 neighbors
     2 = max # of special neighbors
  special bonds CPU = 0.002 seconds
  read_restart CPU = 0.006 seconds
include 	in.setup
variable	out_freq equal 1000
variable	out_freq2 equal 10000
variable	out_freq3 equal 1000

timestep	2.0

neigh_modify    delay 7 every 1

include		in.tip4p
# This is TIP4P/Ice

# create groups ###
group ox type 2
288 atoms in group ox
group hy type 1
576 atoms in group hy

# set charges - beside manually ###
set group ox charge -1.1794
Setting atom values ...
  288 settings made for charge
set group hy charge 0.5897
Setting atom values ...
  576 settings made for charge

# ### TIP3P Potential Parameters ###
pair_style lj/cut/tip4p/long/omp 2 1 1 1 0.1577 8.5
pair_coeff 1 1*2 0.000 0.000
pair_coeff 2 2 0.21084 3.1668
bond_style  harmonic
bond_coeff  1 450 0.9572
angle_style harmonic
angle_coeff 1 55 104.52
kspace_style pppm/tip4p/omp 1.0e-5
pair_modify tail yes

thermo          ${out_freq}
thermo          1000
thermo_style    custom step temp pe etotal epair emol press lx ly lz vol pxx pyy pzz pxy pxz pyz enthalpy

restart 	${out_freq3} restart.lmp.${pid} restart2.lmp.${pid}
restart 	1000 restart.lmp.${pid} restart2.lmp.${pid}
restart 	1000 restart.lmp.1 restart2.lmp.${pid}
restart 	1000 restart.lmp.1 restart2.lmp.1


include         in.dump
dump            myDump all atom ${out_freq2} dump.water.${pid}
dump            myDump all atom 10000 dump.water.${pid}
dump            myDump all atom 10000 dump.water.1
dump            myDump2 all dcd ${out_freq2} dump.dcd
dump            myDump2 all dcd 10000 dump.dcd
dump_modify     myDump append yes
dump_modify     myDump2 append yes


variable natoms 	equal  "count(all)"                        # NUMBER ATOMS
variable H      	equal  "enthalpy/v_natoms"                 # ENTHALPY-per-atom
variable Vol      	equal  "vol/v_natoms"                 # volume-per-atom
fix AVG all 		ave/time ${out_freq} 1 ${out_freq} v_Vol v_H file vol_enthalpy.dat
fix AVG all 		ave/time 1000 1 ${out_freq} v_Vol v_H file vol_enthalpy.dat
fix AVG all 		ave/time 1000 1 1000 v_Vol v_H file vol_enthalpy.dat


timer           timeout 23:50:00 every 1000
New timer settings: style=normal  mode=nosync  timeout=23:50:00

fix 		1 all shake 1e-6 200 0 b 1 a 1
       0 = # of size 2 clusters
       0 = # of size 3 clusters
       0 = # of size 4 clusters
     288 = # of frozen angles
  find clusters CPU = 0.000 seconds
fix             2 all nph iso ${pressure} ${pressure} ${pressureDamp}
fix             2 all nph iso 3375 ${pressure} ${pressureDamp}
fix             2 all nph iso 3375 3375 ${pressureDamp}
fix             2 all nph iso 3375 3375 1000
fix             3 all temp/csvr ${temperature} ${temperature} ${tempDamp} ${seed}
fix             3 all temp/csvr 261.91 ${temperature} ${tempDamp} ${seed}
fix             3 all temp/csvr 261.91 261.91 ${tempDamp} ${seed}
fix             3 all temp/csvr 261.91 261.91 100 ${seed}
fix             3 all temp/csvr 261.91 261.91 100 745823

run             250000
PPPM initialization ...
  extracting TIP4P info from pair style
  using 12-bit tables for long-range coulomb (../kspace.cpp:340)
  G vector (1/distance) = 0.37373504
  grid = 24 24 25
  stencil order = 5
  estimated absolute RMS force accuracy = 0.0031307831
  estimated relative force accuracy = 9.4282603e-06
  using double precision FFTW3
  3d grid and FFT values/proc = 3822 576
Last active /omp style is kspace_style pppm/tip4p/omp
Neighbor list info ...
  update every 1 steps, delay 7 steps, check yes
  max neighbors/atom: 2000, page size: 100000
  master list distance cutoff = 10.8154
  ghost atom cutoff = 10.8154
  binsize = 5.4077, bins = 4 4 4
  1 neighbor lists, perpetual/occasional/extra = 1 0 0
  (1) pair lj/cut/tip4p/long/omp, perpetual
      attributes: half, newton on, omp
      pair build: half/bin/newton/omp
      stencil: half/bin/3d
      bin: standard
Per MPI rank memory allocation (min/avg/max) = 10.20 | 10.20 | 10.22 Mbytes
Step Temp PotEng TotEng E_pair E_mol Press Lx Ly Lz Volume Pxx Pyy Pzz Pxy Pxz Pyz Enthalpy 
 5500000    270.83421   -3815.2828   -3351.0823   -3815.2828            0    4259.3911    17.410507    20.507277    21.240778    7583.8516     4227.725    3536.1505     5014.298   -406.89221    1.8582659   -1009.9078   -2879.9821 
 5501000    267.35866   -3847.2869   -3389.0433   -3847.2869            0    2737.4526    17.420633    20.519205    21.253132    7597.0924    2358.4345    2023.5544    3830.3688    790.61593   -145.26799   -635.14532    -3085.745 
 5502000    248.05417   -3813.5998   -3388.4434   -3813.5998            0    4802.0519    17.436573     20.53798    21.272578     7617.965    4547.7664    3913.8281    5944.5613    1087.2394    36.765083    1704.1677   -2854.9345 
 5503000    264.61452   -3863.4166   -3409.8763   -3863.4166            0    3519.6933    17.440274    20.542339    21.277093    7622.8165    4650.2882    2343.1635    3565.6282    813.80347     1440.928     1148.866   -3018.5887 
 5504000    253.09473   -3873.3847    -3439.589   -3873.3847            0    3852.8051    17.432958    20.533722    21.268168    7613.2277    2852.9632    3446.9073    5258.5449    1048.3024    72.422682     183.2909   -3011.8078 
 5505000    268.40501   -3831.2394   -3371.2024   -3831.2394            0    3216.2557    17.405125    20.500938    21.234212    7576.8207    4235.4496    2111.5652    3301.7523   -439.29462   -1513.1776    531.46141   -3015.8056 
 5506000    265.27796   -3836.4324   -3381.7551   -3836.4324            0    2112.2088    17.495498    20.607386    21.344467    7695.4592    1401.1275    2166.3117    2769.1872   -698.35318    250.31221   -667.50765   -3144.7011 
 5507000    264.61059   -3856.3279   -3402.7944   -3856.3279            0    2240.5719    17.589377    20.717963    21.458999    7820.0039    3346.9847    196.88811     3177.843   -13.765388   -366.05786    150.06874   -3147.2644 
 5508000     266.2994   -3862.6006   -3406.1726   -3862.6006            0    2376.5811    17.547925    20.669138    21.408428    7764.8474    3166.1425    1397.0668    2566.5341    278.05488    1520.8018   -202.61162    -3137.043 
 5509000    270.03025   -3848.4478   -3385.6252   -3848.4478            0     2091.714    17.604655    20.735958    21.477638    7840.3988    851.88084    2513.6356    2909.6256   -633.52915   -67.839505   -501.28925   -3146.4499 
 5510000    265.29929   -3881.3879    -3426.674   -3881.3879            0    3546.5345    17.547954    20.669171    21.408462    7764.8848    6369.4416    3937.3135    332.84845    456.75114    630.91398   -296.42949   -3025.0542 
 5511000    268.70111   -3878.9437   -3418.3992   -3878.9437            0    4080.4384    17.531755    20.650091      21.3887    7743.4011    3770.6004    3339.1407     5131.574   -1093.3032   -336.13756    258.46529   -2957.5971 
 5512000    280.83652   -3851.8512    -3370.507   -3851.8512            0    4119.8248    17.493305    20.604802    21.341791    7692.5652     4234.364    3761.6364    4363.4741     1774.479   -243.93941    488.35564   -2908.3114 
 5513000    251.46051   -3806.5291   -3375.5344   -3806.5291            0    1824.8591    17.596174    20.725969    21.467291    7829.0731    1759.4449    1944.8195     1770.313    672.49381   -977.65508    -226.3191   -3167.1738 
 5514000    252.11799   -3875.9533   -3443.8317   -3875.9533            0     4612.664    17.523363    20.640207    21.378462    7732.2868    3217.5901    5813.5415    4806.8604    2280.0062     1217.048   -1046.4145   -2923.6732 
 5515000    268.13435   -3868.3477   -3408.7746   -3868.3477            0    4199.9722    17.519032    20.635106    21.373179    7726.5556    3606.3669    4014.5222    4979.0276    -1040.925   -142.42176   -248.61379   -2935.5054 
 5516000    269.20397   -3848.8207   -3387.4143   -3848.8207            0    4212.5086    17.511536    20.626276    21.364033    7716.6409    3475.0744    4332.9695    4829.4818   -912.93193    381.30695   -1036.9913   -2913.3416 
 5517000    265.10233   -3853.2598   -3398.8835   -3853.2598            0    3767.7237    17.569958     20.69509    21.435308    7794.1327    5390.8762    4328.0046    1584.2904   -455.42012    475.46524   -623.61666   -2970.6085 
 5518000    258.07764   -3894.4814   -3452.1452   -3894.4814            0    2033.6398    17.508319    20.622487    21.360108    7712.3887    1597.1739    2906.0188    1597.7267   -345.44204   -1600.8579     1793.935   -3223.4069 
 5519000    261.09746   -3853.9712   -3406.4591   -3853.9712            0    2060.2785    17.559252    20.682479    21.422246    7779.8925    1142.4623    1444.0595    3594.3136   -878.89296   -764.92749    717.72287   -3172.6963 
 5520000    263.59807   -3896.1478   -3444.3497   -3896.1478            0    2940.4967    17.508439    20.622628    21.360254    7712.5473    3123.1338    2401.3877    3296.9685   -1705.7157   -622.89755   -291.59115   -3113.6038 
 5521000    261.13643   -3895.5116   -3447.9327   -3895.5116            0    2844.2661    17.527022    20.644517    21.382926    7737.1322     2923.717    4707.4225     901.6588   -941.67112   -1017.0087   -683.86337    -3126.991 
 5522000    268.81579    -3865.308   -3404.5669    -3865.308            0    4059.6133    17.500426     20.61319    21.350478    7701.9629    5346.8571    2701.3289     4130.654    828.33616   -1322.3326    299.11788   -2948.5699 
 5523000    251.04256     -3881.48   -3451.2016     -3881.48            0    3301.3724    17.465595    20.572164    21.307985     7656.067    4064.9425    3763.5884    2075.5864    127.63092    1065.5375    269.93323    -3082.584 
 5524000    262.76038    -3801.525   -3351.1627    -3801.525            0    1746.5017    17.527109    20.644619    21.383032     7737.247     2355.854    1351.3479    1532.3032   -738.07109    782.50897   -680.76211   -3154.0878 
 5525000    255.32437   -3824.0568   -3386.4395   -3824.0568            0    2069.5199    17.517956    20.633838    21.371866    7725.1318    1628.8186    1934.0786    2645.6624   -60.985432    1689.9722    -1182.754   -3153.2809 
 5526000    263.20092   -3803.3137   -3352.1963   -3803.3137            0    3093.1973    17.465323    20.571843    21.307653    7655.7091    2642.3187    2614.1655    4023.1077    101.73754    1908.3275    504.67233   -3006.8388 
 5527000    271.42175   -3838.4205   -3373.2129   -3838.4205            0    3385.1291    17.425454    20.524883    21.259013    7603.4009     4618.505    2182.2142    3354.6682     -165.599    2045.6539    1190.5234   -2997.8434 
 5528000    265.38724   -3864.2112   -3409.3466   -3864.2112            0    4706.6037    17.392635    20.486226    21.218974     7560.521    5389.9272    4283.3802    4446.5038    538.28247   -305.93426   -201.69026   -2890.3849 
 5529000    248.00538   -3867.1336   -3442.0609   -3867.1336            0    2460.6945    17.485365    20.595451    21.332105     7682.096    3227.3065    1668.4704    2486.3067   -294.67778   -690.21568    1483.1145   -3166.3758 
 5530000    262.99411   -3848.6309    -3397.868   -3848.6309            0    4113.8005    17.521654    20.638194    21.376377    7730.0246    4892.2262    4039.7192    3409.4562   -1524.7227   -118.58559   -252.09295   -2934.1008 
 5531000    260.13461   -3849.9484   -3404.0865   -3849.9484            0    2106.1722    17.586331    20.714376    21.455283    7815.9425     1282.878    3468.5953    1567.0433    177.89925   -801.89341    1070.6066   -3164.0092 
 5532000    277.42712    -3903.649   -3428.1484    -3903.649            0    2467.8265    17.638616    20.775959     21.51907    7885.8602    1876.7573    3389.4085    2137.3137   -133.32706    549.90161   -663.75704   -3144.3307 
 5533000    255.84863   -3857.5506   -3419.0348   -3857.5506            0    3337.5499    17.534963     20.65387    21.392614    7747.6529    3808.6984    3483.8679    2720.0832   -858.69992    1710.1023    393.05638   -3041.9198 
 5534000    255.88773   -3887.9563   -3449.3735   -3887.9563            0    2719.3162    17.446336     20.54948     21.28449    7630.7692    2942.5884    4882.0378    333.32236   -83.836875    1575.2128      589.612   -3146.7491 
 5535000    260.46862   -3915.7315   -3469.2972   -3915.7315            0    4696.0361    17.424205    20.523412     21.25749    7601.7664    5248.7468    3837.6331    5001.7284   -1123.9093   -58.533192    861.72995    -2948.676 
 5536000    259.10694   -3919.8185    -3475.718   -3919.8185            0    4734.8962    17.518581    20.634574    21.372628     7725.958    4163.1843    6874.5038    3167.0004    746.15701    998.29227   -1007.2804   -2942.2128 
 5537000    258.12354   -3867.2886   -3424.8736   -3867.2886            0    3795.9625    17.588894    20.717394    21.458409    7819.3592    6323.6563    1983.3065    3080.9248    2294.9188    1463.2031    788.11525   -2991.9922 
 5538000     262.3463   -3858.6676    -3409.015   -3858.6676            0    4003.7761    17.432322    20.532972    21.267392    7612.3946     4256.386    4562.7125    3192.2299   -773.36228    59.045774   -637.21632   -2964.5199 
 5539000    268.48922   -3866.6004   -3406.4191   -3866.6004            0    3713.1232    17.364875    20.453529    21.185107     7524.377    4287.2057    2685.6624    4166.5015   -61.119668   -870.09341    156.44589   -2998.9583 
 5540000    261.73591   -3891.2417   -3442.6353   -3891.2417            0    2255.7119    17.430661    20.531016    21.265365    7610.2185    1282.2351    3132.2483    2352.6523    1008.3971    1509.2514   -1651.9988   -3192.2801 
 5541000    264.01737   -3872.7795   -3420.2627   -3872.7795            0    2236.1212    17.470567    20.578021    21.314051     7662.608      320.572    3275.1166    3112.6749    147.63698   -161.99813    1720.0426   -3170.3733 
 5542000    256.73296   -3843.3154   -3403.2839   -3843.3154            0    3069.3593    17.461171    20.566953    21.302588    7650.2509    3842.9945    1790.0906    3574.9928    1462.3859   -404.20997    574.24851   -3060.8322 
 5543000    267.00172   -3858.7374   -3401.1056   -3858.7374            0    2564.0642    17.505446    20.619103    21.356603    7708.5931    3922.2983    2697.2478    1072.6465    723.57643    348.24566   -434.73983   -3112.8486 
 5544000    268.39897   -3863.4912   -3403.4646   -3863.4912            0    3883.6222    17.418929    20.517198    21.251053    7594.8632    4216.6913    4078.7986    3355.3765    201.15937   -195.23485    925.25061   -2973.3018 
 5545000    245.98225    -3883.177   -3461.5718    -3883.177            0    3715.7829     17.49727    20.609472    21.346628    7697.7967     3884.714    3325.1602    3937.4746    140.08477   -635.01855   -1417.9766   -3044.4214 
 5546000      282.023   -3890.9083   -3407.5305   -3890.9083            0    3967.2056    17.502095    20.615156    21.352515    7704.1677    3292.9903    4577.5723    4031.0543    240.11863   -41.279948    1317.6557   -2961.7857 
 5547000    256.44715   -3877.4324   -3437.8908   -3877.4324            0    2561.6394    17.534517    20.653345     21.39207    7747.0622    796.16805    5109.6685    1779.0816   -643.18086   -325.34517   -570.53759   -3148.4692 
 5548000    267.32003   -3883.6586   -3425.4812   -3883.6586            0    5259.5572    17.450764    20.554695    21.289891    7636.5805    6826.6692    4604.3952    4347.6071   -838.75753   -973.34517   -89.840017   -2839.7154 
 5549000    270.20301   -3878.3615   -3415.2428   -3878.3615            0    1726.9465    17.576915    20.703284    21.443795    7803.3938    2105.6008    511.31819    2563.9206   -1279.0737   -287.81846   -906.08836   -3218.7085 
 5550000    262.71442   -3887.7634   -3437.4799   -3887.7634            0    3996.7161    17.536384    20.655544    21.394347    7749.5362    6062.5612    3464.4601     2463.127    287.16865    135.95984   -53.558705   -2985.7749 
 5551000    266.64044   -3860.2315   -3403.2189   -3860.2315            0     3368.206    17.531305    20.649562    21.388151    7742.8051    2046.7478    4743.1675    3314.7028    424.62299   -1256.1387   -260.15349   -3022.8781 
 5552000    260.96084    -3881.902   -3434.6241    -3881.902            0     973.7417    17.598603     20.72883    21.470255    7832.3159    895.29708   -369.11363    2395.0416   -1131.4283   -728.79085    -95.25306   -3323.3972 
 5553000    260.45633   -3857.2174   -3410.8042   -3857.2174            0    2748.8735    17.474216    20.582318    21.318502    7667.4095    1915.0376    3436.4672    2895.1155    158.18215   -1306.0094       199.31   -3103.4216 
 5554000      265.189   -3813.3829    -3358.858   -3813.3829            0    2872.3143    17.566217    20.690683    21.430743    7789.1539    1881.9798    2741.1419    3993.8213   -906.80612    753.62971   -2032.2032   -3032.5722 
 5555000    261.30412   -3844.7466   -3396.8803   -3844.7466            0    3175.1976    17.469027    20.576207    21.312172    7660.5819    1955.8601    4443.6088    3126.1239    951.76461    1046.2067    876.58151   -3042.1417 
 5556000    268.89669   -3813.2717    -3352.392   -3813.2717            0    4384.9832    17.466107    20.572767     21.30861    7656.7406    5217.5104    4122.7064    3814.7328    1627.3652   -2382.9863   -839.30802   -2862.7398 
 5557000     273.2061   -3885.6377   -3417.3718   -3885.6377            0    3150.0507    17.431789    20.532345    21.266742    7611.6966     2534.516     4323.015    2592.6211    119.48841   -400.82823    339.73371   -3067.6885 
 5558000    257.03679   -3858.2427   -3417.6904   -3858.2427            0     4750.687    17.429665    20.529843    21.264151    7608.9147    4467.4497    6199.0363    3585.5751   -457.60617    1339.2521   -1027.1505   -2890.5151 
 5559000     264.6306   -3871.6246   -3418.0568   -3871.6246            0    4161.2328    17.445488     20.54848    21.283454    7629.6557    3739.6415    4641.3671    4102.6898   -233.14855    778.76751   -1323.1218   -2955.0335 
 5560000    259.73787   -3894.1355   -3448.9537   -3894.1355            0    5542.6386    17.416283    20.514081    21.247825    7591.4026    5050.7826    6563.7752     5013.358   -1179.9783   -97.664578   -968.63053   -2835.3126 
 5561000    249.68713   -3830.3861   -3402.4309   -3830.3861            0    5121.6754    17.497152    20.609334    21.346485    7697.6416    5712.2007    5618.4839    4034.3416    1451.8943    2915.0696   -220.32668   -2827.4603 
 5562000    252.95271   -3833.0267   -3399.4744   -3833.0267            0     3537.108    17.501012    20.613881    21.351194    7702.7374    2495.7584      3204.92    4910.6455    882.03235    1612.5648   -1231.1526    -3002.128 
 5563000    264.69898   -3819.0244   -3365.3394   -3819.0244            0    2713.0132    17.546922    20.667956    21.407204    7763.5153    1807.1554     3314.746    3017.1382     1012.911   -631.83326    223.80626   -3058.1641 
 5564000    270.62413   -3842.7114   -3378.8709   -3842.7114            0    2557.6045    17.492049    20.603323    21.340259    7690.9081     1110.634    2794.2212    3767.9583    1076.7347    -1906.163   -1479.7082   -3091.9998 
 5565000    260.10454   -3858.6181   -3412.8078   -3858.6181            0    3600.2294    17.536172    20.655294    21.394089    7749.2556    3043.9928    2528.9846     5227.711    316.19935    979.95335    -20.21058   -3005.9281 
 5566000    269.84586   -3836.8274   -3374.3209   -3836.8274            0    2260.4706    17.625284    20.760256    21.502805    7867.9925    2184.5849    2831.0052    1765.8217   -473.70964    -512.5369    218.41262   -3114.9395 
 5567000    256.35781   -3891.4548   -3452.0663   -3891.4548            0     4118.101    17.433185     20.53399    21.268446    7613.5261     3215.019    5045.0639      4094.22    414.62515   -977.71881    798.26125    -2994.811 
 5568000    257.37092   -3852.0314   -3410.9065   -3852.0314            0     3066.822    17.515684    20.631162    21.369093     7722.126    3367.5975    4804.9237     1027.945     -352.904    387.77637    280.40954   -3065.5231 
 5569000    251.54973   -3854.6996   -3423.5519   -3854.6996            0    3061.1647    17.504749    20.618282    21.355753    7707.6723    4557.9414    2391.8855    2233.6673   -185.37124   -227.93296    1044.8031    -3079.451 
 5570000    260.49618   -3856.5347   -3410.0532   -3856.5347            0    1977.7426    17.583963    20.711586    21.452394    7812.7855    2944.7205    912.09221    2076.4152   -109.32204   -1244.9179    740.46556   -3184.7063 
 5571000    256.65866   -3862.0343   -3422.1301   -3862.0343            0    4235.5169    17.513162    20.628191    21.366016    7718.7907     6066.373    4467.5186     2172.659    284.15192   -1497.6724   -1.2296256   -2945.3353 
 5572000    272.34413   -3817.9514   -3351.1629   -3817.9514            0    4167.6202    17.468783    20.575919    21.311875     7660.261    6156.2915     2400.329    3946.2402     849.4047    247.54144    449.34667   -2885.5687 
 5573000    244.47812   -3842.8437   -3423.8165   -3842.8437            0     4150.123     17.44969     20.55343    21.288581    7635.1708    2500.8832    5991.1864    3958.2993    467.15615   -652.77215   -818.35985   -2961.6956 
 5574000     261.7857   -3867.5482   -3418.8565   -3867.5482            0    2750.4709    17.473469    20.581438    21.317591    7666.4264    1935.7857    1322.4526    4993.1745   -1053.8993    -673.7809    678.49663   -3111.3347 
 5575000     264.4937   -3858.3015   -3404.9684   -3858.3015            0      3886.64    17.347956      20.4336    21.164465     7502.405    3764.1919     4460.216    3435.5123    1188.6984    191.86291    190.87207   -2979.7121 
 5576000    251.10455   -3838.2757   -3407.8911   -3838.2757            0    3479.6047    17.488952    20.599676    21.336481    7686.8245    3213.3314    2246.4282    4979.0543    1001.5713    680.24457    549.53192    -3017.812 
 5577000    249.73889   -3872.1991   -3444.1552   -3872.1991            0    1821.8507    17.566893     20.69148    21.431569    7790.0542    1190.4828    2178.0093      2097.06    1259.9772   -613.02657    1627.4841   -3237.1749 
 5578000    275.79744   -3839.2541   -3366.5467   -3839.2541            0    3781.0006    17.576722    20.703057     21.44356    7803.1371     4615.397    2770.4274    3957.1776    293.99242    1092.0457   -799.79598    -2936.266 
 5579000    269.59411   -3864.7668   -3402.6917   -3864.7668            0     3219.114     17.48775    20.598259    21.335014    7685.2389    2818.2757    1121.1292     5717.937     1758.495    336.80192    959.76695   -3041.8891 
 5580000    275.86248   -3840.0887   -3367.2699   -3840.0887            0      2677.88    17.598365    20.728549    21.469964    7831.9974    1859.4945    3326.6858    2847.4596     274.0004    354.30537    448.27403    -3061.398 
 5581000    262.86602   -3846.3263    -3395.783   -3846.3263            0    3982.2764    17.566404    20.690903    21.430972     7789.403    4606.3096    2476.8005    4863.7192    508.12539   -1163.2521    700.64576   -2943.3946 
 5582000    263.12889   -3856.0633   -3405.0694   -3856.0633            0    2830.4769     17.62615    20.761276    21.503862    7869.1526    3926.6893    3120.1965     1444.545    330.18146    734.95605   -995.77857   -3080.2339 
 5583000     257.3647   -3840.4562   -3399.3419   -3840.4562            0     3884.714    17.502977    20.616195    21.353591    7705.3318    3148.0478    3282.8273    5223.2671   -151.47002   -560.57019    1031.4121   -2962.7997 
 5584000    275.21306    -3811.495   -3339.7893    -3811.495            0    2612.4954    17.582457    20.709812    21.450557    7810.7783    2332.7642    2769.2988    2735.4233    42.546123    761.47146    1091.1978   -3042.1942 
 5585000    259.84242   -3850.2047   -3404.8437   -3850.2047            0    3351.8976    17.494095    20.605733    21.342755    7693.6078    4951.3099    3729.0788    1375.3042    154.15917    1901.8528    530.11547   -3028.7495 
 5586000    265.66549   -3872.9991   -3417.6575   -3872.9991            0    1059.1577    17.637962    20.775189    21.518272    7884.9832    2452.5976    228.15218    496.72341   -387.23089   -206.99388    1029.3846   -3295.8603 
 5587000    246.90032   -3859.5921   -3436.4134   -3859.5921            0    5204.1786    17.551355    20.673178    21.412612    7769.4014    4703.0847    5827.6069    5081.8441    1075.6657    399.46312   -2000.3563   -2846.7344 
 5588000    276.73202   -3872.6052    -3398.296   -3872.6052            0    1747.7154    17.572714    20.698336     21.43867       7797.8    1649.9168    1736.7382    1856.4913    61.021017    619.49799    94.495783   -3199.5407 
 5589000    248.21618   -3869.3329   -3443.8988   -3869.3329            0     4071.049    17.453462    20.557872    21.293182    7640.1223    3897.8117    4614.6256    3700.7098   -393.88548    161.01489    287.65535   -2990.2889 
 5590000    276.97857   -3891.9749   -3417.2431   -3891.9749            0    2024.4968    17.481659    20.591085    21.327583    7677.2121    1904.3646    2251.8423    1917.2835   -577.71479   -150.89404    722.23853   -3190.5718 
 5591000    248.52827   -3865.5348   -3439.5659   -3865.5348            0    4307.9488    17.370925    20.460655    21.192488    7532.2446    3991.6294    4953.9994    3978.2177    336.22006    1674.5934   -101.99518   -2966.3375 
 5592000    257.03176   -3848.3502   -3407.8066   -3848.3502            0    3669.2631    17.500297    20.613039    21.350322    7701.7935     2830.026    4506.9183    3670.8451   -601.16974    825.52132   -794.49994   -2995.6648 
 5593000    250.81386   -3870.3157   -3440.4293   -3870.3157            0    3206.0168    17.408996    20.505497    21.238934    7581.8769    4541.8102    1548.6057    3527.6345   -1523.1042   -912.06625   -1174.5616   -3085.9276 
 5594000    259.06882   -3873.8821    -3429.847   -3873.8821            0    3866.1893    17.407846    20.504143    21.237532    7580.3754    4500.6739    3695.5438    3402.3504   -206.52697   -65.035079    771.66511    -3002.432 
 5595000     257.7568   -3891.5881   -3449.8017   -3891.5881            0    5464.3082    17.375381    20.465904    21.197925    7538.0433     4521.939    7445.9523    4425.0334   -567.37271   -62.102684    503.68675    -2849.085 
 5596000    274.41468   -3858.7948   -3388.4574   -3858.7948            0    3084.3913    17.455017    20.559704     21.29508     7642.165    2808.5449    3421.1475    3023.4814    771.41558    761.48196    79.880236   -3044.6924 
 5597000    269.37945   -3858.4818   -3396.7746   -3858.4818            0    3282.1149    17.396264    20.490501    21.223401    7565.2543    4674.6854    1863.4616    3308.1977   -356.84859   -854.44275   -845.65532    -3034.654 
 5598000     260.9787   -3894.9369   -3447.6283   -3894.9369            0     2605.417    17.468265    20.575308    21.311242    7659.5785    2696.5074     2166.648    2953.0956    1531.4971    -767.2946   -1145.0196   -3156.5847 
 5599000    265.72582   -3860.6257   -3405.1807   -3860.6257            0    1279.5603    17.445242    20.548191    21.283155    7629.3336    1155.7364     2074.622    608.32254   -1755.1484   -969.13567   -1634.6437   -3262.8091 
 5600000    255.06945   -3863.1435   -3425.9632   -3863.1435            0    4176.0678    17.430237    20.530517    21.264849    7609.6642    5416.2057     4153.239    2958.7585    922.93223   -233.80138   -556.71931   -2962.5068 
 5601000    260.60896   -3864.8594   -3418.1845   -3864.8594            0    3553.7404    17.486324     20.59658    21.333275    7683.3597    5314.5672    3836.2183    1510.4357    685.27706    -803.2913    1577.3425    -3019.974 
 5602000    273.14516   -3860.9923   -3392.8308   -3860.9923            0    3659.0504     17.46983    20.577152    21.313152    7661.6379    4808.5816    3493.7613    2674.8082    733.51265    -435.3939    2117.6264    -2983.979 
 5603000    261.95009   -3881.9999   -3433.0264   -3881.9999            0    2855.0986    17.505262    20.618886    21.356378    7708.3497    2575.7207     3021.131    2968.4439    19.322792   -271.10497   -1398.1237   -3112.0608 
 5604000    258.51677   -3878.2545   -3435.1656   -3878.2545            0    2758.3863    17.519162    20.635259    21.373337     7726.727    2281.3402     2601.021    3392.7976    576.37101   -274.59828    203.04762    -3124.333 
 5605000    270.27676   -3874.3645   -3411.1194   -3874.3645            0    1819.4631    17.491899    20.603147    21.340076    7690.7113    3624.0512    1180.6639    653.67406     377.7857    1170.8123   -1384.6088   -3207.0463 
 5606000    252.47218   -3887.5032   -3454.7745   -3887.5032            0    2324.1676    17.426842    20.526518    21.260707    7605.2184    3374.6542    1812.1656     1785.683    1131.6952   -217.50453   -683.80793   -3196.9911 
 5607000    269.36468    -3910.058   -3448.3761    -3910.058            0     2186.653       17.484    20.593843     21.33044    7680.2971    2956.1567    2304.4364    1299.3658    399.12742   -691.57136    1060.3451   -3203.4508 
 5608000    259.40154   -3867.1893   -3422.5839   -3867.1893            0       4445.1    17.385038    20.477278    21.209705     7550.618    3110.5167     6113.229    4111.5543    197.73495   -274.01583    315.88532   -2933.0983 
 5609000    251.25508   -3865.6355   -3434.9929   -3865.6355            0    2618.3668    17.502042    20.615094    21.352451    7704.0977    1537.0334    2745.8048    3572.2623    345.39672    9.4356777    200.11055   -3140.8027 
 5610000    270.49231   -3866.3802   -3402.7656   -3866.3802            0    2468.3177    17.523802    20.640724    21.378998    7732.8683    1851.5183    2737.1862    2816.2484   -162.47125   -607.47905   -1466.3766   -3124.3988 
 5611000    259.46261   -3830.5889   -3385.8789   -3830.5889            0    3582.6267    17.509479    20.623853    21.361523    7713.9219    4290.6063    2820.7934    3636.4805    172.55082   -333.00597   -1286.1105   -2982.8347 
 5612000     261.2302   -3855.3761   -3407.6364   -3855.3761            0    3105.8034    17.597046    20.726995    21.468354    7830.2362     3746.617    2827.0504    2743.7427    974.56147   -510.33385   -1438.9381   -3052.9662 
 5613000    258.23127   -3874.5804   -3431.9809   -3874.5804            0    2675.9982    17.471838    20.579517    21.315601    7664.2799    2446.8751    3117.5689    2463.5508   -348.27589   -36.407356    300.97518   -3132.8694 
 5614000    279.91967   -3855.8396   -3376.0668   -3855.8396            0     3231.482    17.555983    20.678629    21.418258    7775.5484    3912.2989    2991.9977    2790.1493   -435.58359    -490.8169    637.59229   -3009.6219 
 5615000    271.99675   -3879.1545   -3412.9614   -3879.1545            0    1952.5437    17.574514    20.700456    21.440866    7800.1972    2391.6478    887.72462    2578.2588   -1.3942207     -638.874    139.51204   -3190.8442 
 5616000    259.79648   -3891.6116   -3446.3294   -3891.6116            0    2841.1304    17.435306    20.536487    21.271032    7616.3045    4076.4371    2440.9352    2006.0187    901.92185    508.63809    212.35665    -3130.748 
 5617000    241.33918   -3891.3337   -3477.6866   -3891.3337            0    3281.7486    17.488445    20.599078    21.335862    7686.1554    5719.5766    1120.0846    3005.5846    121.91606   -1382.6918    13.467512     -3109.82 
 5618000    256.20924   -3909.9347   -3470.8008   -3909.9347            0    4043.8541    17.441966    20.544332    21.279157    7625.0355     5461.075    3179.0315    3491.4557   -496.18159    961.71472    381.75332   -3021.1108 
 5619000    269.01316   -3887.6285   -3426.5491   -3887.6285            0    4634.0358    17.410239    20.506962    21.240451    7583.5015    3795.0376    5712.0925    4394.9772    1183.1396    491.84153   -268.31501    -2914.036 
 5620000    256.38325    -3880.078   -3440.6459    -3880.078            0    4322.0719    17.445367    20.548338    21.283308    7629.4978     5355.561    3520.0532    4090.6015   -940.33461   -792.79119    65.254311   -2959.7359 
 5621000    267.73357   -3909.1557   -3450.2695   -3909.1557            0     4094.971    17.492745    20.604143    21.341108    7691.8269    3028.8422    4352.1092    4903.9617   -306.55119   -18.902219   -401.21068   -2990.9063 
 5622000    271.99264    -3851.231   -3385.0449    -3851.231            0    1968.2327    17.511918    20.626726    21.364499    7717.1464    1392.2768    2028.9061    2483.5153   -476.00415   -516.74063   -1167.1611   -3163.5269 
 5623000     251.5426   -3887.4162   -3456.2808   -3887.4162            0    2196.0827    17.468327    20.575382    21.311318     7659.661    1676.0205    1967.6735     2944.554   -428.00756   -1276.9026    641.60295   -3210.9602 
 5624000    265.15516   -3842.5179    -3388.051   -3842.5179            0     3052.461    17.474186    20.582283    21.318467    7667.3711     1436.227    3541.7221    4179.4339    14.589638     193.5839   -572.80785   -3046.7226 
 5625000    273.76717    -3855.483   -3386.2555    -3855.483            0    2260.8491    17.498944    20.611445    21.348671    7700.0074     2056.535      1402.97    3323.0423   -664.14891    322.55505   -54.545095   -3132.3696 
 5626000    253.92378   -3855.8227   -3420.6061   -3855.8227            0    4752.2264     17.36065    20.448553    21.179953    7518.8868    4727.3517    5325.4537    4203.8739    1128.1099    -573.0093   -630.82309   -2899.4995 
 5627000    261.51655   -3876.7249   -3428.4945   -3876.7249            0    1642.0453    17.468066    20.575074    21.310999    7659.3169    1754.4045    1399.4219    1772.3094   -694.31727    835.45074   -4.3940368   -3245.0726 
 5628000    262.89111   -3866.9915   -3416.4051   -3866.9915            0    3966.9438    17.453623    20.558062    21.293379    7640.3337    4219.0003    3270.5974    4411.2336   -1998.4205    538.74331    770.09423   -2974.3827 
 5629000     281.0664   -3867.5951   -3385.8569   -3867.5951            0    3126.1059    17.460159     20.56576    21.301353    7648.9204    5791.8093    3171.1452    415.36332   -1513.5502   -1136.7521    42.701779   -3037.1346 
 5630000    256.91273   -3896.3411   -3456.0015   -3896.3411            0    2900.1494    17.386146    20.478583    21.211057    7552.0619    2828.8259    2526.2465    3345.3757    269.45106    -366.4117    108.02031   -3136.5817 
 5631000     244.7035   -3872.5103   -3453.0969   -3872.5103            0    3315.8143    17.422314    20.521184    21.255182    7599.2911    4150.2753    2368.9521    3428.2154    1597.4489     934.6293    1491.7823   -3085.6123 
 5632000    254.81027   -3829.7971   -3393.0611   -3829.7971            0    4228.5121    17.506469    20.620309    21.357852    7709.9454     4636.145    4694.7449    3354.6465    1406.0629   -648.98279    344.72309   -2917.6002 
 5633000    255.79105   -3863.5254   -3425.1083   -3863.5254            0    3074.7745    17.518198    20.634124    21.372161    7725.4523     2475.678    3320.6251    3428.0204    -74.98017   -741.81542     1135.783   -3078.6802 
 5634000    254.98886   -3864.5876   -3427.5454   -3864.5876            0    3464.0772    17.397158    20.491554    21.224492     7566.421    3447.7794    4127.0885    2817.3638    364.80735    409.62721   -718.38032   -3045.2897 
 5635000    248.53081   -3868.6514   -3442.6781   -3868.6514            0    4718.3085    17.381661    20.473301    21.205586    7546.2198    1696.4817    7065.1965    5393.2472   -669.65914     475.1953    206.50562     -2923.41 
 5636000     260.2139    -3849.375   -3403.3772    -3849.375            0    3332.0163    17.384015    20.476073    21.208457    7549.2851    2110.7944    3764.6279    4120.6266  -0.24785055    201.01995   -1123.2871    -3036.527 
 5637000    248.00457   -3845.3847   -3420.3133   -3845.3847            0     3833.234    17.488487    20.599128    21.335913     7686.211    3292.8636    5082.0496    3124.7887    90.183426    309.67681   -104.49756    -2990.625 
 5638000    263.69214   -3851.6597   -3399.7004   -3851.6597            0    4401.5921     17.46049    20.566151    21.301757    7649.3563    5351.3918    4584.8291    3268.5555   -852.35494   -399.69891   -38.055954   -2908.6675 
 5639000    244.60837   -3876.0673   -3456.8169   -3876.0673            0    3793.7669    17.428101    20.528001    21.262243    7606.8667    3153.7505    5303.2127    2924.3374   -355.09271    499.18274    613.15867   -3035.9427 
 5640000     253.1901   -3849.7255   -3415.7664   -3849.7255            0    3375.8179    17.481067    20.590388    21.326861    7676.4318    1432.6457    6672.6438    2022.1642   -377.57171   -143.48228    1043.7838   -3037.8338 
 5641000    246.23479   -3881.4459   -3459.4079   -3881.4459            0    3957.1977    17.447692    20.551076    21.286143    7632.5477    3904.9254    3907.3127    4059.3549   -767.51789   -159.69958    84.857625   -3018.9209 
 5642000    253.34441   -3883.1301   -3448.9065   -3883.1301            0    3060.5926    17.507295    20.621281    21.358859    7711.0362    3517.6854    2715.5675    2948.5249   -1508.1413    433.34494   -199.52527   -3104.7197 
 5643000    250.65567   -3869.2908   -3439.6756   -3869.2908            0    4083.5932    17.478842    20.587767    21.324146    7673.5012    3766.6632    4781.8496    3702.2668     670.5511   -1304.3207    155.53203   -2982.6801 
 5644000     260.8478    -3869.208   -3422.1238    -3869.208            0    5562.9762     17.45071    20.554632    21.289826    7636.5098    5148.9078    3884.5216    7655.4991    1159.3077    -1744.586   -26.408457   -2802.5715 
 5645000    271.20582   -3833.2144    -3368.377   -3833.2144            0    4931.5013    17.424765    20.524072    21.258173    7602.4997    3312.2527    4908.8015    6573.4498    266.68177    478.51783    233.74116   -2821.5984 
 5646000    254.78178   -3856.2879   -3419.6007   -3856.2879            0    2786.0272    17.445945    20.549019    21.284013    7630.2562    2589.3422    2018.9047    3749.8347    401.50177    272.21458   -269.68828   -3109.5731 
 5647000    244.71048    -3854.347   -3434.9216    -3854.347            0    2643.2166    17.476302    20.584776    21.321048    7670.1568    2994.1783    3170.0698    1765.4015    518.98104    410.03807    799.51412   -3139.2478 
 5648000    251.71837   -3860.3614   -3428.9247   -3860.3614            0    4118.8087    17.521639    20.638176    21.376359    7730.0051    5811.4021    1393.2502    5151.7737    241.41848    1046.8716   -1572.4984   -2964.5941 
 5649000    266.94384     -3835.69   -3378.1574     -3835.69            0    3124.7435    17.634472    20.771078    21.514014    7880.3036    3655.7131    1436.3809    4282.1366   -322.16477   -1298.9906   -432.68141   -3019.0426 
 5650000    253.11883   -3877.6215   -3443.7845   -3877.6215            0    3923.4561     17.52097    20.637389    21.375543    7729.1198    2288.1075    2726.3037    6755.9573   -29.078189   -425.50882    2034.2621   -3001.5275 
 5651000    266.64148   -3846.1221   -3389.1078   -3846.1221            0    2472.4356    17.573528    20.699295    21.439664    7798.8846    2988.2022    2959.1769    1469.9276    414.71864   -634.82361    730.64934   -3107.8961 
 5652000    241.92377   -3842.5893   -3427.9403   -3842.5893            0    2615.0952    17.562838    20.686703    21.426621    7784.6598    2614.2689    2799.6917    2431.3249    97.947108    285.09144     1065.845   -3131.0452 
 5653000    249.75672   -3848.6364    -3420.562   -3848.6364            0    2503.2803    17.565443    20.689772    21.429799    7788.1249    2659.9396    2231.0217    2618.8796    1954.3606   -205.32708    1345.1714   -3136.2349 
 5654000    253.15066   -3872.3716   -3438.4801   -3872.3716            0    2952.9645    17.466144    20.572811    21.308655    7656.7897    1913.8078    3024.6189    3920.4667     1263.436    743.16286    674.62159   -3108.7331 
 5655000      251.395    -3856.408   -3425.5256    -3856.408            0    1613.4882    17.491685    20.602894    21.339814    7690.4279    1355.0051    1384.4308    2101.0286   -284.11693    285.65596    357.25765   -3244.5616 
 5656000     240.7689   -3879.2031   -3466.5334   -3879.2031            0    1555.0154    17.511844    20.626639    21.364408    7717.0481    1283.5333    2019.9967    1361.5163    425.33707     88.03099   -1145.1975   -3291.5239 
 5657000    258.90166   -3883.9079   -3440.1593   -3883.9079            0    2102.1126    17.519987     20.63623    21.374343    7727.8182    3158.5971    2040.1498    1107.5908    609.27271    1454.5123    564.78008   -3203.2464 
 5658000    259.69776   -3878.9061    -3433.793   -3878.9061            0    2927.5869    17.469644    20.576934    21.312925    7661.3938    1718.7987    2871.1013    4192.8609    408.70136    -302.6216   -1527.1248   -3106.6833 
 5659000     244.4717   -3827.3184   -3408.3023   -3827.3184            0    4058.9604    17.424247    20.523461     21.25754    7601.8208    3939.4131    4446.4656    3791.0024    1722.7772   -693.37543   -1315.6571   -2958.3066 
 5660000     274.2359    -3834.743   -3364.7121    -3834.743            0    1277.7743    17.512266    20.627136    21.364924    7717.6066    1682.6148    762.89578    1387.8125    661.12601   -604.37299    4.3680286   -3220.8942 
 5661000    251.61027   -3871.0722   -3439.8208   -3871.0722            0    3627.7433    17.433041    20.533819    21.268269    7613.3367    4574.3544    2745.3675     3563.508    413.81028   -1023.1409    938.54672   -3037.0227 
 5662000    261.58925   -3890.1262   -3441.7711   -3890.1262            0    3267.1374    17.425148    20.524523     21.25864    7603.0011    2699.7307    5433.5015    1668.1802   -162.12548   -413.21117    1102.9229   -3079.5045 
 5663000    252.85993    -3853.531   -3420.1377    -3853.531            0    4653.2558    17.492325    20.603648    21.340595    7691.2722     2928.933    6115.2814     4915.553    -636.2947   -858.32918   -697.16341   -2898.1852 
 5664000    258.30851   -3882.1409    -3439.409   -3882.1409            0    3759.4499    17.458845    20.564214     21.29975    7647.1946     2256.475    4299.5589    4722.3158   -643.12546   -278.27197    -508.6727   -3020.1307 
 5665000    258.59217   -3878.8204   -3435.6022   -3878.8204            0    3236.9466    17.450793    20.554729    21.289927    7636.6186    4166.6007    1755.4001    3788.8391   -548.32107   -1216.4638    849.06148   -3075.0962 
 5666000    259.94373   -3861.5984   -3416.0638   -3861.5984            0    2397.7653    17.575829    20.702005    21.442471    7801.9484    4073.6701    908.66497    2210.9608    550.75147   -16.340134     449.9929   -3143.2379 
 5667000    263.65295   -3898.6669   -3446.7748   -3898.6669            0    1938.2546    17.486766    20.597101    21.333814    7683.9423    1681.6878    1916.3688    2216.7072   -43.533047   -171.16916   -243.94328   -3229.5693 
 5668000    264.50549   -3822.5416   -3369.1883   -3822.5416            0    4337.2703    17.514612      20.6299    21.367786     7720.709    4149.3142     3047.885    5814.6117   -1111.0541      506.301   -343.95428   -2880.8176 
 5669000    268.45943   -3840.5778   -3380.4475   -3840.5778            0    4264.8566    17.437864    20.539501    21.274154    7619.6579    4903.7119    3566.7762    4324.0818   -960.14564    488.95999    2498.9339   -2906.5157 
 5670000    259.21488   -3854.3167   -3410.0312   -3854.3167            0     4268.726     17.45267     20.55694    21.292217    7639.0828    3869.4465    4534.8489    4401.8827   -601.86086     1082.563    607.23421   -2934.4602 
 5671000    267.03751   -3862.8301    -3405.137   -3862.8301            0    1626.5302    17.590725    20.719551    21.460644    7821.8023    690.00235    2774.3585    1415.2298    881.19056   -558.88101    1412.7581   -3219.5939 
 5672000    257.99177   -3883.1485   -3440.9595   -3883.1485            0    2938.9239    17.542331    20.662549    21.401603     7757.424    2500.1732    2819.9678    3496.6305       1834.8   -916.13968    -325.3909   -3108.4671 
 5673000    258.60053   -3882.8732   -3439.6408   -3882.8732            0    3761.5152    17.537093    20.656379    21.395213    7750.4768    4621.5232    1905.8666    4757.1558    312.26184   -118.00135   -1755.9242   -3014.4664 
 5674000    256.60479   -3886.1669   -3446.3551   -3886.1669            0    2725.9298    17.520673    20.637039    21.375181     7728.727    1568.2023    4363.3133     2246.274    2009.4537   -112.49048    326.82827   -3139.1004 
 5675000    260.80804   -3891.1131   -3444.0971   -3891.1131            0    3978.9999     17.46897    20.576139    21.312102     7660.506    4325.2871    3921.8184    3689.8941   -274.25863    753.08328      112.838   -2999.5607 
 5676000     255.8734   -3908.0608   -3469.5025   -3908.0608            0     3999.913    17.509027    20.623321    21.360972    7713.3245      5121.85    3089.2589    3788.6302    502.53878   -299.90077    582.40665   -3019.5486 
 5677000    266.60082   -3873.7389   -3416.7942   -3873.7389            0    4363.2202    17.425541    20.524986     21.25912    7603.5152    3754.1804    4672.9473    4662.5328    830.25837     672.2199   -787.24904   -2932.9591 
 5678000     266.3898   -3869.5007   -3412.9177   -3869.5007            0    3851.7706    17.485308    20.595383    21.332035    7682.0199    4251.5873    4165.5561    3138.1684    415.15708   -241.24721    -1774.317   -2981.3869 
 5679000    263.21509   -3887.6157   -3436.4741   -3887.6157            0    4036.5897    17.515931    20.631453    21.369395    7722.4531     3052.914    4376.5405    4680.3146    702.29479   -443.61914   -819.87078    -2981.857 
 5680000    254.70423   -3886.6905   -3450.1362   -3886.6905            0     1394.248     17.47264    20.580461    21.316579     7665.335    822.01424    2279.1831    1081.5466   -275.03628   -961.61833     829.9302   -3294.2718 
 5681000    274.62993   -3899.8392   -3429.1329   -3899.8392            0    5044.3088    17.499055    20.611575    21.348806    7700.1534    3956.4936     5707.491    5468.9418   -537.45496   -1043.1302   -516.76237   -2862.6629 
 5682000    264.88544   -3875.6051   -3421.6005   -3875.6051            0    1851.4924    17.586082    20.714081    21.454978    7815.6092    2299.3692    1631.1129     1623.995   -747.66768    2856.8731    702.60698   -3210.5625 
 5683000    267.35444    -3932.373   -3474.1367    -3932.373            0    4976.4025      17.4552     20.55992    21.295303    7642.4055    4185.1117    4945.5972    5798.4985      447.018   -952.91439   -825.27101   -2919.4835 
 5684000    254.40059    -3916.276   -3480.2421    -3916.276            0    6130.5005    17.415241    20.512854    21.246553    7590.0399    6032.9861    8287.8115    4070.7038    579.73713    1120.2442   -1695.7594   -2801.6389 
 5685000    269.44298   -3905.1104   -3443.2944   -3905.1104            0    2411.0263    17.473439    20.581404    21.317555    7666.3878    2917.0018    2663.8635    1652.2137   -857.55798   -1054.8586   -1484.1363   -3173.7262 
 5686000    260.19381   -3865.8073    -3419.844   -3865.8073            0    5233.1818    17.446218    20.549341    21.284345     7630.614     5303.211    4466.5043    5929.8301    -76.92575    296.77473    248.00979    -2837.471 
 5687000    257.33015   -3890.7967   -3449.7416   -3890.7967            0    1450.5967    17.563474    20.687453    21.427398    7785.5068    741.70776    1966.7813     1643.301    478.79572    1075.7673    -545.3627   -3285.0356 
 5688000    275.43845   -3866.6678   -3394.5757   -3866.6678            0     5364.948    17.471941    20.579639    21.315727    7664.4157    4273.9305    5328.9743    6491.9391    279.14262     1100.408   -247.88957   -2794.8945 
 5689000    256.06119   -3915.1973   -3476.3172   -3915.1973            0    2860.6325    17.615713    20.748983    21.491128    7855.1817    2645.4281    4122.7544    1813.7149    29.929534   -618.42834   -1092.3781   -3148.6038 
 5690000    286.51865   -3889.7371   -3398.6539   -3889.7371            0    3920.7911    17.481513    20.590913    21.327404    7677.0188    4650.2191    2228.1925    4883.9616   -686.28833    1693.7799   -593.43007   -2959.6765 
 5691000    259.10512   -3875.0134   -3430.9161   -3875.0134            0    3640.8815    17.524758     20.64185    21.380164    7734.1341    6759.1879    1904.5485    2258.9082   -406.77997    514.46855    414.22551    -3020.245 
 5692000    269.21233   -3890.0048   -3428.5841   -3890.0048            0    2927.0087    17.469681    20.576977     21.31297     7661.442    2364.7323    3700.6358    2715.6581   -62.891692   -356.22648     1058.994   -3101.5369 
 5693000    261.93183   -3837.9888   -3389.0466   -3837.9888            0    3610.4012    17.506892    20.620806    21.358367    7710.5031    862.91138    5938.6539    4029.6383    785.57551   -636.66798   -68.648765   -2983.0578 
 5694000    273.61356   -3854.3414   -3385.3771   -3854.3414            0    5302.9843    17.476801    20.585363    21.321656    7670.8127    3185.1695    5977.3037    6746.4796   -443.30905   -1311.7959   -867.42077   -2792.1273 
 5695000    253.33816   -3853.9131   -3419.7001   -3853.9131            0    3156.1718    17.501848    20.614865    21.352214    7703.8409    2981.9253    3057.2798    3429.3104   -535.81056    -1009.396    814.34029    -3065.096 
 5696000     253.3908   -3854.3505   -3420.0474   -3854.3505            0    2051.7146    17.514094    20.629289    21.367153    7720.0228    1927.9061    1974.7824    2252.4552    493.62422    1089.6362    1272.8249   -3189.0477 
 5697000    250.54687   -3843.6236   -3414.1948   -3843.6236            0    2169.0034    17.471571    20.579203    21.315276    7663.9289    1323.2009    2875.3647    2308.4447   -446.28019    10.799851     38.85964   -3171.7641 
 5698000    261.10429   -3878.7871   -3431.2633   -3878.7871            0    1493.7376     17.56518    20.689461    21.429478    7787.7746    3018.7345   -336.38465     1798.863    1647.5093   -2339.6723    209.07148   -3261.6095 
 5699000    273.01576   -3871.4948   -3403.5551   -3871.4948            0    4128.1897    17.471863    20.579547    21.315632     7664.313     4264.802    3977.0344    4142.7326    567.37726    245.70043   -1411.1217    -2942.122 
 5700000    262.57675   -3882.1175   -3432.0699   -3882.1175            0    1970.5091    17.497769     20.61006    21.347237    7698.4555    1733.2295    2402.3159    1775.9817    704.33275    446.48659    1472.2212   -3210.8328 
 5701000    254.52693   -3855.2206   -3418.9702   -3855.2206            0    2905.0226    17.482177    20.591696    21.328215    7677.8947     3819.079    3069.7319    1826.2569   -318.82036    508.55746    153.31243   -3093.6825 
 5702000    264.88924   -3857.0748   -3403.0638   -3857.0748            0    2547.9653    17.535346    20.654322    21.393082    7748.1611    2407.5362    2247.4824    2988.8775    691.70287    1694.5393    602.31613   -3115.1463 
 5703000    247.47988   -3891.2406   -3467.0685   -3891.2406            0    3554.0038    17.457596    20.562742    21.298226    7645.5528    3220.0096    4560.3236    2881.6781    394.07168   0.44501504    551.46214   -3070.7881 
 5704000    243.33357   -3868.0021   -3450.9367   -3868.0021            0    3873.8341    17.559041    20.682231    21.421989    7779.6129    3464.2152    3622.4969    4534.7903    25.388152   -2037.3233   -653.70153   -3011.4205 
 5705000    246.93799   -3891.6864   -3468.4431   -3891.6864            0    4199.0965    17.550804    20.672529     21.41194      7768.67    4264.5952    3895.6368    4437.0573   -672.77282    565.64722   -804.51576   -2992.6935 
 5706000    257.92648   -3894.7655   -3452.6883   -3894.7655            0    3881.0009    17.495117    20.606937    21.344002    7694.9565    3056.9671    5581.8183    3004.2175    452.03651   -381.65759    1025.3733   -3017.1506 
 5707000    259.04573   -3873.5809   -3429.5854   -3873.5809            0    3312.4354    17.538225    20.657713    21.396594    7751.9779    1041.6221    4630.6172    4265.0669     1099.169    882.18322   -1148.1931   -3055.0992 
 5708000    263.13683   -3842.0413   -3391.0338   -3842.0413            0    3063.6479    17.535106    20.654039    21.392789     7747.843    3905.6562    3062.9414    2222.3459    931.84964   -154.84565   -536.49015   -3044.8589 
 5709000    260.65009    -3874.867   -3428.1217    -3874.867            0    5739.1436     17.43385    20.534772    21.269256    7614.3966    4803.3886    6673.3016    5740.7407   -1541.3669   -988.21348   -1476.9123   -2790.8004 
 5710000    267.97816   -3836.9395   -3377.6341   -3836.9395            0    4583.1979    17.501598     20.61457    21.351908    7703.5107    3341.6961    4018.1613    6389.7363    2269.3011    571.68062    727.97196   -2862.7219 
 5711000    263.73735   -3872.2596   -3420.2228   -3872.2596            0    3988.7257    17.411643    20.508615    21.242164    7585.3364    4759.2313    3263.1038     3943.842    395.77746   -1265.8873   -1058.7904   -2978.9726 
 5712000    263.52264   -3897.7131   -3446.0443   -3897.7131            0    3828.9633    17.437609      20.5392    21.273842    7619.3229    6348.9803    2303.0652    2834.8445   -571.98008    670.94461   -95.109718   -3020.5699 
 5713000    272.33357   -3892.3596   -3425.5891   -3892.3596            0    2996.0171    17.555148    20.677645    21.417239     7774.439     3776.395    3579.5762    1632.0802   -594.96898    599.59948   -874.14535   -3085.8941 
 5714000    260.36278   -3903.7993   -3457.5464   -3903.7993            0    3915.7078    17.539905    20.659692    21.398644     7754.206    3857.8263    3699.6169    4189.6801   -1153.7345   -113.06025   -527.08649   -3014.7302 
 5715000    249.45128   -3928.2002   -3500.6492   -3928.2002            0    3222.8874    17.393991    20.487824    21.220629    7562.2901    5814.1559     2305.692    1548.8142   -581.69545    1924.7981   -979.98062   -3145.2026 
 5716000     249.9611   -3866.6444   -3438.2197   -3866.6444            0    1436.0585    17.537167    20.656466    21.395302    7750.5743    796.52565    998.71454    2512.9353    688.85077    69.258143    -329.3817    -3275.896 
 5717000    267.09247   -3901.0619   -3443.2745   -3901.0619            0    4659.3669    17.401799     20.49702    21.230154    7572.4777    3577.7589    6171.4095    4228.9324    182.51383      407.908   -1390.0368   -2928.7088 
 5718000    268.47196   -3876.7207   -3416.5689   -3876.7207            0    3365.2296    17.434939    20.536055    21.270585    7615.8239    3059.6404    3400.9342    3635.1142   -274.46715    851.03176    874.50337   -3042.7963 
 5719000    261.37562   -3857.7088   -3409.7199   -3857.7088            0     4120.141    17.487813    20.598334    21.335091    7685.3226     4978.703    3477.1661     3904.554    -1228.834   -140.23821   -1207.1716    -2947.924 
 5720000    254.70954   -3897.0777   -3460.5142   -3897.0777            0    4506.7018    17.414481    20.511959    21.245627    7589.0467    6080.0429    3204.6259    4235.4365   -1242.2199    1079.0129    506.28551   -2961.7194 
 5721000    255.77363   -3878.6869   -3440.2997   -3878.6869            0    3252.3342    17.504196    20.617631    21.355078    7706.9417    1958.7819    4327.7263    3470.4945    103.89222   -472.17343   -404.14578   -3074.7443 
 5722000    249.94265   -3878.7522   -3450.3591   -3878.7522            0    3253.8256    17.462903    20.568994    21.304701    7652.5284    3626.1498    1728.0424    4407.2846   -265.07915    374.35753    13.165886   -3087.2182 
 5723000    261.44031   -3901.6811   -3453.5814   -3901.6811            0    2380.7125    17.506417    20.620246    21.357787    7709.8754    1423.8219    2383.2569    3335.0588    438.47821     943.5944    184.90959   -3185.8926 
 5724000    263.97679   -3877.0154   -3424.5682   -3877.0154            0    5999.7685    17.393304    20.487014     21.21979    7561.3935    6615.5583    5353.0535    6030.6937    303.70809   -728.36924   -2104.9387   -2762.9427 
 5725000    264.80259   -3888.8804   -3435.0179   -3888.8804            0    3930.6641    17.444258    20.547031    21.281954    7628.0419    2757.5296    4937.5417     4096.921    1007.8517    266.30599    818.59199   -2997.7426 
 5726000    259.89167     -3859.83   -3414.3846     -3859.83            0    2175.1363    17.518916    20.634969    21.373037    7726.4015    2163.7715    879.97457    3481.6628    328.58767    117.03643    734.23127   -3169.2867 
 5727000    264.35941   -3799.7914   -3346.6884   -3799.7914            0    2882.2916    17.585816    20.713768    21.454654     7815.255     1584.747    5487.1863    1574.9416   -309.18539    851.99271   -43.814102   -3018.1721 
 5728000    265.52402   -3848.2777   -3393.1786   -3848.2777            0    3259.9856    17.567736    20.692472    21.432597    7791.1754    3479.6375    4439.6513    1860.6681    994.48331   -877.14633    -701.2727   -3022.7585 
 5729000    270.96626   -3863.5942   -3399.1673   -3863.5942            0     4148.825    17.390394    20.483587     21.21624    7557.5996     4049.572    3093.5366    5303.3663   -106.17077   -261.80562   -488.04244   -2941.8845 
 5730000    258.56416   -3830.6314   -3387.4612   -3830.6314            0    4601.8195     17.41421    20.511639    21.245296    7588.6922    5014.7577     5361.341    3429.3599   -470.64197    1853.2993    2082.1862   -2878.1627 
 5731000    270.83535    -3876.819   -3412.6165    -3876.819            0    3778.4982    17.486736    20.597066    21.333777     7683.903    4265.7381    3135.5589    3934.1975   -1180.0402   -754.76078   -252.84084    -2989.191 
 5732000    253.15517   -3858.3794   -3424.4801   -3858.3794            0    4162.9095    17.370927    20.460657     21.19249    7532.2474    4972.6711    3432.0795    4083.9779   -761.54517    316.36485   -845.71906    -2967.184 
 5733000     258.3776   -3872.7348   -3429.8845   -3872.7348            0    4701.8142    17.452228    20.556419    21.291677    7638.5023    4062.8415    3659.0939    6383.5072    434.45846   -247.53368    182.75443   -2906.1037 
 5734000    266.69153   -3851.6207   -3394.5206   -3851.6207            0    3538.7224    17.477565    20.586263    21.322588    7671.8189    4154.3112    3395.6887    3066.1672    1010.6173   -495.92406   -70.230902   -2998.5885 
 5735000    251.41368   -3872.8389   -3441.9244   -3872.8389            0    3715.4094    17.542141    20.662326    21.401372    7757.1719    3690.1826    3544.8475     3911.198    729.86226   -700.31638   -581.60554   -3021.5987 
 5736000    265.00013   -3893.4969   -3439.2957   -3893.4969            0    3528.9765    17.468583    20.575683    21.311631    7659.9975    4027.4516    2231.9293    4327.5488   -19.594146    344.65551    1883.0984   -3045.0624 
 5737000    269.11983   -3894.8505   -3433.5883   -3894.8505            0    3599.6788    17.453076    20.557418    21.292712    7639.6157    4136.1579    2644.8158    4018.0627    -132.7597    186.24592   -404.82899   -3032.5267 
 5738000    251.58928   -3854.9973   -3423.7819   -3854.9973            0    2699.6336    17.527254     20.64479    21.383209    7737.4392     3634.782    2426.2128    2037.9061   -154.36953    329.54126    1798.3741   -3119.1482 
 5739000    265.96076   -3878.3516   -3422.5039   -3878.3516            0    3870.0866     17.41666    20.514524    21.248284    7591.8947    2395.0113    4637.3836    4577.8647   -443.13608   -832.44831    916.78618   -2994.0079 
 5740000    259.05989   -3870.7236   -3426.7038   -3870.7236            0    1768.9829    17.639773    20.777322    21.520482    7887.4124    561.33634    1423.3491    3322.2632    -964.8204   -415.47259    1146.6793    -3223.218 
 5741000    243.94693   -3853.4553   -3435.3386   -3853.4553            0    4110.4235    17.514811    20.630134    21.368029     7720.972    3918.0989    3042.6904    5370.4811   -115.38627     927.0423   -968.30341   -2972.4948 
 5742000    263.41074   -3850.4674   -3398.9904   -3850.4674            0    2321.9012    17.503646    20.616983    21.354408    7706.2161     802.5356    5359.4579    803.71007   -1272.8468   -990.83266    1183.1108   -3138.0383 
 5743000    277.29632   -3819.4893   -3344.2129   -3819.4893            0    3400.8941    17.521468    20.637974    21.376149    7729.7781    3347.9652    4689.9731    2164.7441   -1608.4903   -398.09775   -1197.3218   -2960.8271 
 5744000    262.80705   -3830.9759   -3380.5336   -3830.9759            0    5721.1935    17.394585    20.488523    21.221353    7563.0644    5633.0531    4819.9613    6710.5662   -6.9808778    424.86349   -425.19749   -2749.4886 
 5745000    271.61872    -3842.218   -3376.6728    -3842.218            0    2423.5049    17.562538    20.686351    21.426256    7784.2622    1327.9003    3155.5263    2787.0881     499.5568   -991.65199    83.339919   -3101.5432 
 5746000    253.70854   -3858.3989   -3423.5511   -3858.3989            0    3004.4454    17.530256    20.648326    21.386871    7741.4151    1476.2872    4248.2458    3288.8031   -950.05775    563.21786    1702.0387   -3084.3474 
 5747000    253.33916   -3893.2479   -3459.0333   -3893.2479            0    1000.8704    17.503454    20.616757    21.354173    7705.9621    2041.3182   -308.54848    1269.8415   -1088.1354    141.14615   -1512.4634   -3346.5519 
 5748000    274.11179   -3873.3598   -3403.5415   -3873.3598            0    4928.2614     17.45598    20.560838    21.296254    7643.4294    3365.1361    5693.0391    5726.6091   -384.65925   -410.96947    366.36376   -2854.1805 
 5749000    250.61382   -3894.3864   -3464.8428   -3894.3864            0    2196.2238    17.531241    20.649487    21.388074    7742.7208     1034.568    1517.2009    4036.9026    326.25904    86.695001   -830.22145    -3216.846 
 5750000    259.31996   -3838.0281   -3393.5625   -3838.0281            0    2432.9583    17.624717    20.759589    21.502114    7867.2341    2714.7305    2565.7413    2018.4029    16.568946    1279.0979   -1046.6488   -3114.4158 
Loop time of 358.823 on 64 procs for 250000 steps with 864 atoms

Performance: 120.394 ns/day, 0.199 hours/ns, 696.723 timesteps/s
195.5% CPU use with 32 MPI tasks x 2 OpenMP threads

MPI task timing breakdown:
Section |  min time  |  avg time  |  max time  |%varavg| %total
---------------------------------------------------------------
Pair    | 24.246     | 31.159     | 39.187     |  61.7 |  8.68
Bond    | 0.92931    | 1.1735     | 2.2666     |  23.3 |  0.33
Kspace  | 163.46     | 170.23     | 178.78     |  32.8 | 47.44
Neigh   | 3.394      | 3.8814     | 4.5571     |  18.8 |  1.08
Comm    | 65.727     | 73.052     | 79.038     |  43.0 | 20.36
Output  | 0.55397    | 0.55428    | 0.55603    |   0.0 |  0.15
Modify  | 66.369     | 68.693     | 76.816     |  24.7 | 19.14
Other   |            | 10.08      |            |       |  2.81

Nlocal:        27.0000 ave          33 max          21 min
Histogram: 4 2 2 5 1 6 3 2 5 2
Nghost:        2398.72 ave        2444 max        2356 min
Histogram: 3 3 2 4 4 6 2 5 1 2
Neighs:        7853.66 ave       10149 max        5504 min
Histogram: 2 4 2 3 5 3 6 1 3 3

Total # of neighbors = 251317
Ave neighs/atom = 290.87616
Ave special neighs/atom = 2.0000000
Neighbor list builds = 14068
Dangerous builds = 0

unfix		3
unfix		2
unfix		1

write_data	data.final.${pid}
write_data	data.final.1
System init for write_data ...
PPPM initialization ...
  extracting TIP4P info from pair style
  using 12-bit tables for long-range coulomb (../kspace.cpp:340)
  G vector (1/distance) = 0.37272387
  grid = 24 24 25
  stencil order = 5
  estimated absolute RMS force accuracy = 0.0032467835
  estimated relative force accuracy = 9.7775919e-06
  using double precision FFTW3
  3d grid and FFT values/proc = 3822 576
Last active /omp style is kspace_style pppm/tip4p/omp
WARNING: Not all mixed pair coeffs generated from mixing. Use write_data with 'pair ij' option to store all pair coeffs. (../write_data.cpp:312)

write_restart   restart.lmp.${pid}
write_restart   restart.lmp.1
System init for write_restart ...
PPPM initialization ...
  extracting TIP4P info from pair style
  using 12-bit tables for long-range coulomb (../kspace.cpp:340)
  G vector (1/distance) = 0.37272387
  grid = 24 24 25
  stencil order = 5
  estimated absolute RMS force accuracy = 0.0032467835
  estimated relative force accuracy = 9.7775919e-06
  using double precision FFTW3
  3d grid and FFT values/proc = 3822 576
Last active /omp style is kspace_style pppm/tip4p/omp
Total wall time: 0:05:58
