LAMMPS data file via write_data, version 30 Jul 2021, timestep = 30500000

864 atoms
2 atom types
576 bonds
1 bond types
288 angles
1 angle types

0.657874669593836 17.54969773040599 xlo xhi
1.8664207326562732 21.762757067346115 ylo yhi
0.80260556028583 21.41059023970516 zlo zhi

Masses

1 1.00794
2 15.9994

Pair Coeffs # lj/cut/tip4p/long/omp

1 0 0
2 0.21084 3.1668

Bond Coeffs # harmonic/omp

1 450 0.9572

Angle Coeffs # harmonic/omp

1 55 104.52

Atoms # full

162 1 1 0.5897 1.5911737457385524 4.778971543854212 5.489941309844091 5 5 1
697 1 2 -1.1794 5.910330343224256 2.8164115117520843 3.883449215241703 -3 5 -2
517 1 2 -1.1794 5.132000127389473 5.224357502672434 3.049793794835467 0 1 -5
81 1 1 0.5897 6.539398050407262 3.4785084442297993 5.740145663852808 8 4 -2
519 1 1 0.5897 5.444601589429329 5.0373759360845956 2.1646197119743658 0 1 -5
142 1 2 -1.1794 2.590049441319054 5.90084778479128 2.8431094402673875 8 1 9
287 1 1 0.5897 8.59464945548958 6.17613553419757 2.7636587403853587 2 3 0
469 1 2 -1.1794 6.8885556634208225 6.720376201645873 5.318235503728848 3 3 4
518 1 1 0.5897 4.192782790377306 5.376662460307857 2.9454464610540083 0 1 -5
471 1 1 0.5897 7.484209043026351 6.315071767913902 4.688044085171693 3 3 4
699 1 1 0.5897 5.794944994619173 3.7371671012744185 3.6486881538612113 -3 5 -2
144 1 1 0.5897 2.3310290149845745 5.4246654554091815 2.0542000203478006 8 1 9
286 1 2 -1.1794 8.548983022690628 5.606711240263395 3.531709663646646 2 3 0
822 1 1 0.5897 1.2585483551446632 5.941349119922411 4.006561045751212 0 2 6
161 1 1 0.5897 2.7580280971899116 3.8556474418677236 5.76886240026059 5 5 1
375 1 1 0.5897 3.512369552812664 6.278316714221155 5.683888438247575 7 4 2
14 1 1 0.5897 5.320283791213035 2.12024788421675 2.179659044810543 4 -6 -6
698 1 1 0.5897 5.06128689038705 2.550552251880751 4.236523128438181 -3 5 -2
288 1 1 0.5897 8.6738246191065 4.723825305077894 3.1836516083984367 2 3 0
374 1 1 0.5897 4.926465552476385 6.679828625011331 5.321955674229068 7 4 2
13 1 2 -1.1794 4.88577013065497 1.8865031684358193 1.359421918138019 4 -6 -6
598 1 2 -1.1794 3.620514100713328 2.1948612077478806 5.369192219472263 -2 1 -4
143 1 1 0.5897 2.6141217406747925 6.818653175195742 2.572408696639771 8 1 9
764 1 1 0.5897 8.785687625444039 3.851521346105283 6.613603252496116 -13 -2 -4
464 1 1 0.5897 5.638891893109351 3.34142251070897 9.308536618894308 7 0 4
465 1 1 0.5897 5.6094813801253975 3.457983332533127 7.799429854901832 7 0 4
52 1 2 -1.1794 7.126246874527172 5.805675299523203 9.224896176322577 -4 1 0
565 1 2 -1.1794 3.4804719868079497 5.887951416916029 8.496494142550478 -3 2 -7
463 1 2 -1.1794 5.04709141596507 3.498973126953312 8.572899187963744 7 0 4
90 1 1 0.5897 3.6679963745857878 2.66148940964217 8.512811222071058 1 -7 -3
89 1 1 0.5897 2.1990757204243243 2.6556162612247824 8.14655967702112 1 -7 -3
23 1 1 0.5897 1.1103047005364388 5.875733625506391 10.731045088302857 -5 -3 1
566 1 1 0.5897 3.0260574890452774 5.487520389415735 7.755286599808573 -3 2 -7
347 1 1 0.5897 3.1613403670730027 3.1644153056825077 10.2730967114973 -2 1 -5
53 1 1 0.5897 6.819472887963671 6.400517842134861 8.540597622264922 -4 1 0
88 1 2 -1.1794 2.858911958942438 2.165289757569831 8.636915828928736 1 -7 -3
348 1 1 0.5897 4.371014539077832 3.5638656793001786 11.091036957145162 -2 1 -5
346 1 2 -1.1794 3.414037552541215 3.584078477013156 11.095438618674217 -2 1 -5
94 1 2 -1.1794 6.0703889283967225 2.559846687224464 10.842275990800458 -6 -3 -2
567 1 1 0.5897 4.200088886722025 5.287107202479623 8.689811813337812 -3 2 -7
351 1 1 0.5897 8.124905650391822 4.120367540405513 9.070705288976807 -13 6 0
350 1 1 0.5897 8.721136556253283 3.321754910175529 10.210274210180046 -13 6 0
54 1 1 0.5897 6.530648704751345 5.956695628748326 9.95887652947129 -4 1 0
349 1 2 -1.1794 8.37354700593248 3.2311389204380037 9.323019502912343 -13 6 0
96 1 1 0.5897 6.994618402753416 2.342206530484247 10.963305713655636 -6 -3 -2
438 1 1 0.5897 8.345160781107735 1.8915732842928648 8.151009258062814 -6 2 -2
513 1 1 0.5897 8.693897695004443 6.240732700306778 9.574282853657051 6 4 3
80 1 1 0.5897 6.81642751034312 4.929436955559728 6.0717637210215925 8 4 -2
79 1 2 -1.1794 6.810349919312345 4.05289788365651 6.456315063423946 8 4 -2
160 1 2 -1.1794 2.395435170598326 4.7096509036431495 6.004306648927873 5 5 1
132 1 1 0.5897 7.228269608351242 6.187207128708578 12.321507478844476 -2 2 -3
746 1 1 0.5897 0.746398520964866 2.921104437677649 15.450479103149272 1 5 -8
182 1 1 0.5897 4.230911279588001 3.561704671698302 13.224486525015584 -3 -1 -3
130 1 2 -1.1794 8.164380481511895 6.353185256142504 12.432686524575159 -2 2 -3
618 1 1 0.5897 6.363121960129969 4.121905531289553 14.275959460739072 -6 6 -1
742 1 2 -1.1794 2.752806753912186 5.77165668009607 14.507768659631296 -1 -1 -1
616 1 2 -1.1794 7.1813185189883635 3.65493255721195 14.44539802665905 -6 6 -1
744 1 1 0.5897 2.5560607984124264 5.442564291805473 15.384814800133638 -1 -1 -1
181 1 2 -1.1794 4.728859024765376 4.366279372789004 13.369240658433982 -4 -1 -3
183 1 1 0.5897 4.094099477603996 4.977351167884086 13.74325360155636 -4 -1 -3
62 1 1 0.5897 5.356979660500962 5.517116464972508 12.139696190629566 1 3 3
582 1 1 0.5897 8.73319302394852 4.610062176291045 11.938473483326735 3 3 4
61 1 2 -1.1794 5.653934351088585 6.243883690892956 11.592115161479223 1 3 3
585 1 1 0.5897 2.887212626431383 2.4809417596527292 14.877150661421586 1 -6 -1
583 1 2 -1.1794 2.4871124004688268 2.980082066617962 15.589185584889668 1 -6 -1
617 1 1 0.5897 7.690400647782433 3.7635253996613853 13.64211624565192 -6 6 -1
743 1 1 0.5897 1.898515290205656 5.993976391604639 14.137644636494892 -1 -1 -1
804 1 1 0.5897 8.288560822835148 3.017207840945409 15.926373178023686 4 2 -3
584 1 1 0.5897 3.226956627091766 3.279933023534489 16.117328061469266 1 -6 -1
22 1 2 -1.1794 1.5941101569580671 5.680112550832488 11.533466266832216 -5 -3 1
580 1 2 -1.1794 8.648358506701644 3.672168251534215 12.109875424156574 3 3 4
497 1 1 0.5897 5.345789667441363 6.321210106029771 15.76568916559802 4 2 2
131 1 1 0.5897 8.23647107971972 6.748690307292822 13.301361141391435 -2 2 -3
398 1 1 0.5897 1.3018268203354615 3.1702744478658547 11.43071180729169 8 0 -3
248 1 1 0.5897 6.480417228867051 2.0387525504493293 13.870828940589899 -2 2 -3
24 1 1 0.5897 2.321214692571776 5.1275891272434615 11.246652420015295 -5 -3 1
458 1 1 0.5897 4.162720553075547 2.9199400925513084 20.44450252812042 -3 2 0
802 1 2 -1.1794 8.9309687326063 3.542471278157464 16.403472223647 4 2 -3
480 1 1 0.5897 2.577827959498486 6.4578492751674235 17.440884579644617 -5 8 -5
114 1 1 0.5897 7.04185328810749 3.5850277424054786 20.334568735183204 -5 3 1
457 1 2 -1.1794 3.6382918258740977 3.478005287024436 19.870252180559827 -3 2 0
479 1 1 0.5897 2.4286610575799568 4.993362046703455 17.794315313639565 -5 8 -5
110 1 1 0.5897 4.142228348039463 3.484177675040651 17.950667519727354 -6 4 -15
353 1 1 0.5897 2.0779665336432815 4.358158394704942 20.50277014823368 6 3 -4
109 1 2 -1.1794 4.6344533426222 3.1304284208892046 17.209862248902105 -6 4 -15
113 1 1 0.5897 8.072728627833534 2.476389720568598 20.32286528602771 -5 3 1
354 1 1 0.5897 1.2837002246176006 5.6304232585797065 20.708580786438553 6 3 -4
112 1 2 -1.1794 7.463175186154225 2.9492360388307466 19.756213888579826 -5 3 1
252 1 1 0.5897 3.7959256033322637 6.659045277375643 19.3161866879301 -3 -11 6
241 1 2 -1.1794 6.564382720195064 5.10674377718056 17.153247320948754 3 -2 4
243 1 1 0.5897 7.403670483774473 4.724251734116072 16.89727452210072 3 -2 4
478 1 2 -1.1794 3.0755704406191953 5.64430208514179 17.52225855541493 -5 8 -5
250 1 2 -1.1794 4.140781988017757 6.512732121100942 20.197030748161502 -3 -11 6
627 1 1 0.5897 8.32060833155425 5.94920376227651 18.840385389983936 -2 -4 6
111 1 1 0.5897 5.090147210047194 2.368016632034736 17.566634726455362 -6 4 -15
459 1 1 0.5897 3.9300113176850813 4.367829432928726 20.068561559077846 -3 2 0
314 1 1 0.5897 0.8217632750634394 2.8271253636099116 19.740173707265132 2 -5 -2
259 1 2 -1.1794 0.9424495653246007 4.081783147595061 18.121653069659693 7 -1 8
626 1 1 0.5897 8.394189719884114 4.477445544782635 19.187315557904853 -2 -4 6
625 1 2 -1.1794 8.932181368443905 5.265780186419304 19.114470691693754 -2 -4 6
242 1 1 0.5897 5.986137070148581 4.354338490257364 17.278884276442067 3 -2 4
824 1 1 0.5897 5.752867603848237 5.78081818209694 20.497337533725712 1 6 4
352 1 2 -1.1794 1.3248044684730151 4.712163484671673 20.975676702507357 6 3 -4
823 1 2 -1.1794 6.336750430823125 5.299611410345357 21.083666953801124 1 6 4
825 1 1 0.5897 7.139532979938231 5.820593072139436 21.103558680870908 1 6 4
430 1 2 -1.1794 1.1157858449622649 8.594824657880974 4.039527402780224 -14 4 -2
779 1 1 0.5897 6.568871679818363 10.80718113420785 4.992547347881087 -4 4 5
280 1 2 -1.1794 7.880048907370177 8.992959835131536 3.160700063555978 -3 -2 -3
82 1 2 -1.1794 5.056357392855763 9.671771679471982 5.159139814915505 -6 3 -3
156 1 1 0.5897 4.5009652487877245 10.776584551923 4.025331048837474 6 7 -6
359 1 1 0.5897 2.2614656755444713 9.356767647015193 5.583670898767202 9 6 -6
778 1 2 -1.1794 7.136157395067621 11.565355739366684 5.132510350298883 -4 4 5
411 1 1 0.5897 7.990782178331459 7.961573089267783 1.7999425839033574 7 -3 -2
281 1 1 0.5897 7.0111978324878335 8.72411602772975 3.459103374897404 -3 -2 -3
409 1 2 -1.1794 8.196376356227653 7.255020543717461 1.1877854244565342 7 -3 -2
154 1 2 -1.1794 4.25211900314331 11.43323538832822 3.374867752470609 6 7 -6
245 1 1 0.5897 4.397002286421296 7.982964212354074 2.37095580044524 -6 5 3
83 1 1 0.5897 5.034017826564774 8.745850125103749 5.400789775417046 -6 3 -3
467 1 1 0.5897 3.2135050128798985 9.297086936202163 1.5151856387286884 1 5 8
468 1 1 0.5897 2.249851896438032 8.798885109063376 2.5711650509416124 1 5 8
244 1 2 -1.1794 5.335562550147167 7.869743560287812 2.5211787690985465 -6 5 3
84 1 1 0.5897 4.3191189392731175 10.06049099024641 5.62988477326657 -6 3 -3
282 1 1 0.5897 8.479628758999798 8.63837190693691 3.8171973470798717 -3 -2 -3
723 1 1 0.5897 7.292783351774976 10.400599916420058 2.242725039458283 4 -2 -1
466 1 2 -1.1794 2.8692199877506144 8.494823424009912 1.9077213288303934 1 5 8
246 1 1 0.5897 5.4390035595361255 6.935015126043006 2.699597636088307 -6 5 3
721 1 2 -1.1794 6.9377539338357055 11.008721993598812 1.594360871971778 4 -2 -1
373 1 2 -1.1794 4.142837136611929 6.992910339393232 5.773784505260702 7 4 2
815 1 1 0.5897 4.060556441095316 11.343536428922953 1.513322053765953 0 6 -6
470 1 1 0.5897 7.46389656819683 7.166931958459498 5.939369379441273 3 3 4
722 1 1 0.5897 7.473817494238579 10.867461961387749 0.8140410611822091 4 -2 -1
46 1 2 -1.1794 0.7081631309643438 11.765279234243287 7.036123740639881 1 -5 1
543 1 1 0.5897 2.5567096546108212 10.653618341010182 9.763420449858582 -19 7 0
355 1 2 -1.1794 7.322887735723803 8.529639206298047 10.85909559289833 9 2 1
32 1 1 0.5897 1.2638584251314864 7.877787756098282 7.653165128274146 3 6 3
31 1 2 -1.1794 1.9442546477830034 8.118240458502441 8.282028014601686 3 6 3
708 1 1 0.5897 4.543494560810217 11.153441752953242 8.205789124997896 -4 -3 -6
256 1 2 -1.1794 5.230160206320984 8.056386745286208 8.891087173000136 6 -2 3
258 1 1 0.5897 4.427108401340459 7.643769298347086 8.573103358229254 6 -2 3
653 1 1 0.5897 7.237913257603825 10.426273969494083 7.665882031921998 -7 -1 3
541 1 2 -1.1794 3.036718521483148 11.26292917320488 9.202543978265933 -19 7 0
357 1 1 0.5897 6.690188581506608 8.101959451708227 10.282011741145169 9 2 1
33 1 1 0.5897 2.37269057655347 7.290568519035435 8.50023656155447 3 6 3
652 1 2 -1.1794 8.172183484749462 10.355319433121267 7.861718819715544 -7 -1 3
706 1 2 -1.1794 5.472327165150446 11.154801526141533 7.9744856553989925 -4 -3 -6
325 1 2 -1.1794 8.48730942814679 7.6581034196563635 7.197442548899048 -2 5 0
326 1 1 0.5897 8.417315262727964 8.560196028566267 7.509873508082077 -2 5 0
758 1 1 0.5897 6.1323376537068 10.838685612921727 9.69819061550034 1 4 4
360 1 1 0.5897 2.4175584966463752 9.65686651037164 7.0592857258224715 9 6 -6
257 1 1 0.5897 5.348473094582421 8.819113220296163 8.324992597926734 6 -2 3
380 1 1 0.5897 1.820318898420317 8.882424005811348 9.841502956900914 2 -4 -3
759 1 1 0.5897 6.876129650809412 10.1999926093079 10.851752620286641 1 4 4
379 1 2 -1.1794 2.018714685839382 9.211092018637657 10.718355498566634 2 -4 -3
757 1 2 -1.1794 6.373954892524168 10.979314707899164 10.613650287326077 1 4 4
654 1 1 0.5897 8.607274475187776 10.567317376057522 7.035901797495685 -7 -1 3
47 1 1 0.5897 1.340751233008834 11.35962455118701 6.443237118264958 1 -5 1
358 1 2 -1.1794 2.682112320725208 9.964167301294239 6.1922244058193145 9 6 -6
327 1 1 0.5897 9.098300854593292 7.240603744031956 7.804564345961306 -2 5 0
2 1 1 0.5897 1.438411368979978 10.30927121039232 13.86890535064632 1 -6 5
97 1 2 -1.1794 6.919416450142655 9.803187371794472 14.229655210266186 2 -10 -1
559 1 2 -1.1794 2.4124203765582415 8.798785859000423 14.66998607769728 7 2 0
98 1 1 0.5897 6.141039703868347 9.957002775901136 13.694163144268948 2 -10 -1
1 1 2 -1.1794 1.0406692740768593 11.124298315172554 13.562683060502993 1 -6 5
564 1 1 0.5897 4.205238904491763 11.34608130381962 14.741438290457273 0 -7 3
337 1 2 -1.1794 4.762347324871347 10.842978530242679 12.776268849759685 -6 -5 0
560 1 1 0.5897 3.0303996495559393 9.338117749074012 15.163386747894773 7 2 0
435 1 1 0.5897 1.7754773909473838 7.9473006935622585 16.092967850827364 5 4 -7
99 1 1 0.5897 7.651166424241406 10.061244475334435 13.66913643192212 2 -10 -1
63 1 1 0.5897 5.199341096355516 7.009832771309981 11.942667535692587 1 3 3
275 1 1 0.5897 6.872530841436095 11.405865316483458 14.861069491020299 -8 1 5
563 1 1 0.5897 3.414436343363423 11.699756583920205 15.982966116356447 0 -7 3
339 1 1 0.5897 5.290575857544147 10.870029923800287 11.978463266899 -6 -5 0
338 1 1 0.5897 3.9579450141722723 11.308555347280043 12.547377828132712 -6 -5 0
561 1 1 0.5897 2.917670063900532 8.476939183946037 13.923419637783278 7 2 0
548 1 1 0.5897 3.230541475686522 8.129790837593202 11.602592034363965 13 -1 0
496 1 2 -1.1794 5.3805458753896005 7.174992004410757 15.334333164667546 4 2 2
129 1 1 0.5897 7.446972332322469 9.537478426667018 16.013487026547665 -5 2 -9
562 1 2 -1.1794 3.9614940597730968 11.011495455316421 15.604489489668003 0 -7 3
547 1 2 -1.1794 3.8057272938248343 8.193697639123497 12.365020356690456 13 -1 0
549 1 1 0.5897 4.094073837819995 9.106397949223929 12.372273874197333 13 -1 0
498 1 1 0.5897 4.529690785888334 7.261504407845934 14.90447355634502 4 2 1
486 1 1 0.5897 7.35910737195745 7.353021184637115 15.198960558230093 -3 6 -2
484 1 2 -1.1794 8.299937606721965 7.2424748248714925 15.06171018337406 -3 6 -2
3 1 1 0.5897 1.5784198870374073 11.814439480338814 13.950939145383934 1 -6 5
485 1 1 0.5897 8.679137565610917 7.303350773205205 15.93850496542399 -3 6 -2
356 1 1 0.5897 7.474988889322154 7.8958645107656835 11.560112450165139 9 2 1
381 1 1 0.5897 1.2161999859259551 9.061240514998607 11.218109934395995 2 -4 -3
740 1 1 0.5897 8.38886935378898 11.703213045868388 19.363847815992195 1 3 4
157 1 2 -1.1794 7.221819591546804 7.453353783773676 18.537983625795466 -1 5 2
714 1 1 0.5897 1.628323789741962 7.836781741618509 20.28655869319315 -4 2 -1
215 1 1 0.5897 6.21620944676855 8.307223539419914 19.857263792129682 0 -5 6
739 1 2 -1.1794 8.031242260400223 10.848107486224258 19.602845351223774 1 3 4
439 1 2 -1.1794 5.6427818572974635 11.01191521735187 17.859942499508396 -1 4 -4
127 1 2 -1.1794 7.811849082403913 9.531832876013075 16.89839298242764 -5 2 -9
128 1 1 0.5897 7.228250820933044 10.099083949325534 17.402246418641948 -5 2 -9
814 1 2 -1.1794 4.090071671477151 11.062486251481891 21.206778910288385 0 6 -7
251 1 1 0.5897 4.503807527224094 7.359597764959094 20.45635717740397 -3 -11 6
637 1 2 -1.1794 4.281821340705167 8.511663661282222 17.661911971140395 -10 -10 3
73 1 2 -1.1794 2.3928305111613213 9.410489441292516 19.47156323621302 6 -4 2
441 1 1 0.5897 5.160857893725996 10.832844045738174 17.05254124220629 -1 4 -4
433 1 2 -1.1794 1.3188473858074459 7.741737072281506 16.908716465404304 5 4 -7
75 1 1 0.5897 3.070704507662555 10.001003742436467 19.800185624600157 6 -4 2
638 1 1 0.5897 4.701257110614149 8.13045708100217 16.89056227403773 -10 -10 3
74 1 1 0.5897 2.7543996219111473 9.059269071934047 18.657846110010308 6 -4 2
214 1 2 -1.1794 5.6224949799893125 8.723002746962777 20.482479484227678 0 -5 6
159 1 1 0.5897 6.724474577612675 6.847144674655561 17.989005863957132 -1 5 2
639 1 1 0.5897 4.892540900941504 9.186491364799624 17.958301928024227 -10 -10 3
840 1 1 0.5897 8.998528306433347 9.242434447393048 19.69002725923656 -3 1 -2
158 1 1 0.5897 7.459031339152363 8.170304530902731 17.94982541830544 -1 5 2
410 1 1 0.5897 8.865520764084492 7.624043699763431 21.21932448456766 7 -3 -3
816 1 1 0.5897 4.91135589472583 10.576618235830821 21.131432939940293 0 6 -7
741 1 1 0.5897 7.115146311051621 10.885765183795309 19.327928732527138 1 3 4
216 1 1 0.5897 5.832768084469418 8.313698299593842 21.321820574789108 0 -5 6
35 1 1 0.5897 1.1470401250239428 10.775071190708088 19.608961778833642 2 -1 -3
712 1 2 -1.1794 0.861316594375583 7.350555502300604 20.58907291323343 -4 2 -1
440 1 1 0.5897 5.175277988287325 11.744588502441548 18.260999529776257 -1 4 -4
404 1 1 0.5897 6.072903903824753 14.742672770884486 3.520212114951141 10 -3 -4
620 1 1 0.5897 4.433543708859903 16.1033492053493 2.668692850532529 -2 -3 6
78 1 1 0.5897 1.2202060954591225 13.327437131317248 2.431511677911762 0 -6 -4
475 1 2 -1.1794 1.5146888699394812 16.539425384303648 3.477556637406156 3 -4 -5
477 1 1 0.5897 1.94054848928954 15.8824321157546 2.926878285620513 3 -4 -5
780 1 1 0.5897 6.7209830094428815 12.270619743156562 4.6360585247093455 -4 4 5
533 1 1 0.5897 7.001722720583035 15.427672192930059 5.565360780449389 -5 -2 -3
165 1 1 0.5897 8.708039397493614 13.462283520015514 1.8064546761390592 -11 1 -3
299 1 1 0.5897 3.443591416654025 14.472787668541251 4.083910187695679 -3 -2 -2
619 1 2 -1.1794 4.439962834325284 15.8869479984916 3.6010807464593237 -2 -3 6
298 1 2 -1.1794 3.047857091565831 13.697092295830515 4.481298067945438 -3 -2 -2
19 1 2 -1.1794 2.2424194829985176 14.714754550625457 1.474378807280964 2 -7 4
621 1 1 0.5897 4.835733787830287 16.65018015849583 4.021865112580754 -2 -3 6
20 1 1 0.5897 3.1483003593341787 14.505702785452213 1.246533655973931 2 -7 3
164 1 1 0.5897 7.912740447565197 12.30666966814437 2.3755782536344254 -11 1 -3
76 1 2 -1.1794 0.7170591827204976 13.134123513638992 3.222546756568614 0 -6 -4
155 1 1 0.5897 3.8536356701153487 12.137943826941841 3.8855683945513886 6 7 -6
300 1 1 0.5897 2.1941691574070825 13.61837259241533 4.055558761496771 -3 -2 -2
400 1 2 -1.1794 5.1623077688616155 13.805481879139988 1.6199950158648928 1 -2 3
403 1 2 -1.1794 6.773561197473033 14.34284338046744 4.0354205864589385 10 -3 -4
405 1 1 0.5897 7.305017685867104 13.872223331212457 3.393304489532842 10 -3 -4
401 1 1 0.5897 5.247022067421649 12.952705491778989 2.0463890717660815 1 -2 3
163 1 2 -1.1794 8.521260153909903 13.0022325555712 2.624793736013251 -11 1 -3
539 1 1 0.5897 2.00700030432236 16.764386918655834 5.194781867100876 -11 0 2
575 1 1 0.5897 8.077728567377285 12.901947644669788 5.9124352836836795 0 1 0
270 1 1 0.5897 5.163884421352756 14.293794465126481 9.464979977034766 -3 3 2
574 1 2 -1.1794 8.656299804125002 13.25534894044594 6.588146800923092 0 1 0
12 1 1 0.5897 6.0414104840168275 14.500659227071338 7.4529160290929335 -4 -3 0
707 1 1 0.5897 5.667148555308033 12.069173956105505 7.769049709822553 -4 -3 -6
273 1 1 0.5897 2.784369099648474 14.178119235889133 6.30347751227143 -2 4 6
224 1 1 0.5897 8.21859182997217 14.209813186295825 8.147823846987716 4 -1 -4
542 1 1 0.5897 2.956964450395008 12.108726872697343 9.64355827818984 -19 7 0
491 1 1 0.5897 2.368899434556227 16.506936610673556 10.265006708405563 -1 2 1
271 1 2 -1.1794 2.7809061502818584 14.496188287580914 7.206285374980312 -2 4 6
223 1 2 -1.1794 8.369748204980382 14.67621256400154 8.969916246488205 4 -1 -4
720 1 1 0.5897 6.578628004362642 15.803771908214129 11.051248122473389 -2 3 2
269 1 1 0.5897 4.192965308353832 15.177386072136306 10.218927918320011 -3 3 2
11 1 1 0.5897 4.6063910638459475 14.018410943965536 7.458036086105765 -4 -3 0
225 1 1 0.5897 7.797247055861974 14.240915486273655 9.601560701865703 4 -1 -4
718 1 2 -1.1794 6.6499738588536035 16.753226267687005 10.952938684839447 -2 3 2
524 1 1 0.5897 1.3587346892470546 14.086882443351291 8.368623394335891 -1 2 4
10 1 2 -1.1794 5.4714378659822 13.824385368362586 7.818975835335763 -4 -3 0
490 1 2 -1.1794 2.376138767089601 15.671806572922344 10.732702688266 -1 2 1
492 1 1 0.5897 1.890393714710992 15.07418923619728 10.16422953495438 -1 2 1
272 1 1 0.5897 2.564678999199952 15.425720417481774 7.132406988150331 -2 4 6
268 1 2 -1.1794 4.909794354720833 14.556658605285412 10.349609298882037 -3 3 2
48 1 1 0.5897 1.198542964097347 11.914864603123851 7.84445692275014 1 -5 1
523 1 2 -1.1794 0.9570006624919415 13.784947577287507 9.183277011682197 -1 2 4
532 1 2 -1.1794 7.028088766867257 15.96762808363132 6.355285809844324 -5 -2 -3
534 1 1 0.5897 7.507796248970322 16.75332601150612 6.093013220093792 -5 -2 -3
540 1 1 0.5897 1.3122896486607378 16.70740978612238 6.538655124814459 -11 0 2
5 1 1 0.5897 7.244989609630998 12.562071061231734 10.969114759980075 3 1 1
789 1 1 0.5897 5.882485960844284 13.730584474863733 12.644738486266567 6 0 3
546 1 1 0.5897 8.253318232383029 15.687161536088238 14.72805783248013 -4 8 5
544 1 2 -1.1794 8.026043871893865 15.64424145836651 13.799222008832652 -4 8 5
276 1 1 0.5897 6.447206820696605 12.801247326268694 14.456130769914774 -8 1 5
788 1 1 0.5897 6.310174171694729 14.692260778298309 13.732914204374106 6 0 3
844 1 2 -1.1794 2.8904857779983852 13.270831010114195 14.574637337579578 -7 -6 7
294 1 1 0.5897 4.240497698754048 15.239001905785454 13.103996654255347 2 -4 -5
108 1 1 0.5897 2.7939296634958612 13.339368924058066 12.376308853222417 0 -2 7
106 1 2 -1.1794 2.98897473005036 12.941040507945091 11.528068333551627 0 -2 7
292 1 2 -1.1794 3.6244853370252033 15.963725019161858 12.996582231186906 2 -4 -5
787 1 2 -1.1794 5.589869193287118 14.119891628178092 13.468776885897578 6 0 3
612 1 1 0.5897 4.484623247582123 16.12158375014986 15.99317479061843 7 -2 -3
274 1 2 -1.1794 6.948382757054 12.324794974935743 15.118034741973982 -8 1 5
845 1 1 0.5897 3.5510762717981903 13.911370843656675 14.838354503108853 -7 -6 7
846 1 1 0.5897 2.060944079246241 13.646111142361043 14.870004102509778 -7 -6 7
711 1 1 0.5897 8.496873710979344 12.552405014276895 15.616364729794364 4 4 1
545 1 1 0.5897 8.732528916656307 15.134555562455008 13.402590020592692 -4 8 5
293 1 1 0.5897 3.2475575836975383 15.83138174516636 12.126731647801755 2 -4 -5
6 1 1 0.5897 8.202199757194668 13.225637072786919 11.936241698542739 3 1 1
200 1 1 0.5897 0.8657418625742703 15.252691319901231 11.928533852159568 2 -12 -2
609 1 1 0.5897 1.0644347837280204 15.040249765977274 15.56314893419679 7 -4 5
4 1 2 -1.1794 7.4090234417686105 13.38736660281772 11.425421578330365 3 1 1
610 1 2 -1.1794 4.126251622295303 15.238174184748418 16.07909266930871 7 -2 -3
336 1 1 0.5897 2.227027124741679 16.58398791059554 14.183014775802603 -1 -3 6
107 1 1 0.5897 3.7847784002837637 13.383320981556915 11.232541623285607 0 -2 7
817 1 2 -1.1794 1.8025291325599924 15.335728576165376 17.478461841697754 -2 -4 1
41 1 1 0.5897 6.562539745200312 13.414054589846154 16.558839630522947 -5 -1 5
675 1 1 0.5897 4.5011686766678025 16.50740256081367 20.83784028999242 -4 -3 -8
447 1 1 0.5897 3.045045853107767 12.424016413408975 18.63057528095255 0 5 -4
592 1 2 -1.1794 8.462361429604965 15.862425719686838 16.537014832061963 -5 2 -6
40 1 2 -1.1794 6.400541105903131 14.155376886430377 17.142295970391068 -5 -1 5
42 1 1 0.5897 7.170387988285421 14.714745672761907 17.039039983739656 -5 -1 5
489 1 1 0.5897 4.065928978091653 14.617447354529745 19.030301439054124 2 -6 0
766 1 2 -1.1794 6.679439433708268 13.780887092705767 19.79654182507398 -1 0 9
446 1 1 0.5897 3.753461459023359 12.167441343570568 19.943663304173803 -1 5 -4
487 1 2 -1.1794 4.143673276581795 15.569640048318563 19.08952431360148 2 -6 0
488 1 1 0.5897 3.291963508212155 15.898305532568548 18.801768660194004 2 -6 0
819 1 1 0.5897 1.2139955855711315 16.054448511869943 17.247621476325403 -2 -5 1
550 1 2 -1.1794 1.7014091814723866 12.450637909635354 17.264623401422096 5 2 -7
818 1 1 0.5897 2.5996793102291686 15.50793134621003 16.97735130579788 -2 -4 1
552 1 1 0.5897 1.344001232557619 13.338499006643225 17.27809212625402 5 2 -7
611 1 1 0.5897 4.819509911871523 14.738894784379475 16.510746975861256 7 -2 -3
173 1 1 0.5897 0.7801890304933471 14.812116746876292 18.898726911709844 8 -4 -2
784 1 2 -1.1794 8.369572935575437 16.607323225680645 19.904805527926634 4 7 5
768 1 1 0.5897 6.495576395353096 13.922768857595853 18.867952023317915 -1 0 9
445 1 2 -1.1794 3.795556296895105 12.706018960182657 19.153485161665653 -1 5 -4
767 1 1 0.5897 6.964831176254037 14.63610431925784 20.118089019428023 -1 0 9
402 1 1 0.5897 5.651751792693846 13.714682926641228 21.410412443087182 1 -2 2
21 1 1 0.5897 1.813708084460469 14.872632974809356 21.241225532425347 2 -7 3
551 1 1 0.5897 0.934234662944402 11.882080468428418 17.33123364929467 5 2 -7
553 1 2 -1.1794 2.746638727208086 18.751253289377107 2.5997957595364074 -3 -6 6
572 1 1 0.5897 3.0452386156482136 21.259918538583225 1.2581007996710556 7 0 -3
717 1 1 0.5897 8.2344977094259 20.932763216527835 1.8086480857634144 2 -13 -1
735 1 1 0.5897 6.697167557523565 17.212463024137268 1.9018139746198186 1 5 -1
728 1 1 0.5897 8.760122889997723 20.681831635883803 4.122435507264026 -7 -3 3
733 1 2 -1.1794 7.573056730711558 17.531365294238654 1.6841478204014833 1 5 -1
554 1 1 0.5897 3.6166366806300942 18.934109831353414 2.9546012183946564 -3 -6 6
202 1 2 -1.1794 1.4327815255921765 20.478765967078886 5.105009584812324 3 3 0
603 1 1 0.5897 5.396654654206054 18.91653125937532 4.32562100931778 7 1 1
729 1 1 0.5897 7.3115783640324725 21.10972413917597 4.020029482819259 -7 -3 3
476 1 1 0.5897 1.9811344334850307 17.352830490180374 3.2849910272115874 3 -4 -5
715 1 2 -1.1794 8.768097708458717 21.308952568209975 1.1086651405643604 2 -13 -1
203 1 1 0.5897 1.4173854899230882 19.624253634492817 4.673955969272586 3 3 0
601 1 2 -1.1794 5.4171079650772445 19.105588030237882 3.387496898957071 7 1 1
727 1 2 -1.1794 7.915229400867422 20.413305203616577 3.761513184459981 -7 -3 3
571 1 2 -1.1794 2.1358132379951567 21.260887799673 1.5567129930163675 7 0 -3
204 1 1 0.5897 0.7053946953363264 20.959772662727268 4.7103427332026016 3 3 0
602 1 1 0.5897 6.241787126377192 19.573043042174895 3.254816282415241 7 1 0
600 1 1 0.5897 2.7701662678023014 21.695312166836263 5.178380614745969 -2 0 -4
674 1 1 0.5897 3.8984019741762217 17.514794976133754 1.1857251646750893 -4 -3 -7
555 1 1 0.5897 2.45300630132871 19.588591806114895 2.2408145438562657 -3 -6 6
734 1 1 0.5897 8.132612145397898 17.19148323820612 2.3824287404831317 1 5 -1
673 1 2 -1.1794 4.664315708290795 16.954557680243937 1.0603196722973742 -4 -3 -7
319 1 2 -1.1794 8.24826463664607 18.344913676717955 5.919469346159265 4 0 3
15 1 1 0.5897 5.384820316749602 21.036402328142913 1.0277259062019286 4 -7 -6
320 1 1 0.5897 8.28682783000625 18.926158217277905 5.159937744615441 4 0 3
643 1 2 -1.1794 4.826122124259018 17.86423304478305 5.919915615747478 2 -4 -4
771 1 1 0.5897 6.760710008124328 19.02438370300869 1.0106000380725213 7 0 2
829 1 2 -1.1794 8.171056364664155 19.21314994063202 9.335693749503264 5 7 -1
317 1 1 0.5897 5.344083133733222 19.614944174418287 10.49434789619121 -1 -2 -2
51 1 1 0.5897 7.884415044253706 19.805496324387203 10.848992256857027 5 -7 -2
529 1 2 -1.1794 1.317785058940995 19.774449381150156 7.837828219218831 1 -7 -6
645 1 1 0.5897 5.3366713826258145 17.516545179143023 6.651174379653186 2 -4 -4
133 1 2 -1.1794 6.059891331146245 17.47898437858804 8.43106554974744 -2 -9 -3
436 1 2 -1.1794 8.385764539656577 21.11338834532781 7.4730738206713685 -6 1 -2
17 1 1 0.5897 3.8271811897540498 18.29017624199528 8.94786573384279 -2 5 9
644 1 1 0.5897 3.9414617078139362 17.52817236636401 6.063679406300145 2 -4 -4
18 1 1 0.5897 2.4010910998065587 18.532727511955596 8.501393543494139 -2 5 9
856 1 2 -1.1794 5.415619754501535 20.610780611858505 7.007433936917473 -4 0 0
531 1 1 0.5897 1.2841900027604276 19.89960484339767 6.889435628147236 1 -7 -6
831 1 1 0.5897 8.266062570583655 19.877733788708454 8.653383602528164 5 7 -1
857 1 1 0.5897 5.340049177712981 20.508847476294815 7.956187377706779 -4 0 0
316 1 2 -1.1794 4.945972430237157 20.065753941984532 9.749705613454482 -1 -2 -1
858 1 1 0.5897 5.339272030158149 19.720723353130314 6.663624106686874 -4 0 0
16 1 2 -1.1794 2.9594398165159297 17.886395948383093 8.93352526939205 -2 5 9
530 1 1 0.5897 1.9346948647279851 20.438372506951158 8.145800224406788 1 -7 -6
599 1 1 0.5897 3.98102786617121 21.556237970228594 6.076349236040961 -2 0 -4
830 1 1 0.5897 7.56009738466025 18.57557704798057 8.966275868097675 5 7 -1
318 1 1 0.5897 4.10991452049808 20.389995692643396 10.08450165912109 -1 -2 -1
437 1 1 0.5897 7.470172300351958 20.91010893757594 7.281646456798783 -6 1 -2
538 1 2 -1.1794 2.1126438233812808 17.014387044569105 6.112693694874768 -11 0 2
134 1 1 0.5897 6.5845476253906705 16.859172519163735 7.924327776304522 -2 -9 -3
95 1 1 0.5897 5.641448451245641 21.612061121914493 10.70196744582881 -5 -4 -2
393 1 1 0.5897 1.8874956067550415 20.83376456294435 10.753341510342327 3 -8 -5
135 1 1 0.5897 6.138526611276357 17.176488337299766 9.335790970899302 -2 -9 -3
321 1 1 0.5897 9.08569174958651 18.475447573830667 6.364319050139561 4 0 3
334 1 2 -1.1794 1.55664243026872 16.916808761476275 14.779717228738248 -1 -3 6
335 1 1 0.5897 1.8733418148941823 17.782477376278848 15.037674463321277 -1 -3 6
50 1 1 0.5897 8.772497794209524 20.351741848493507 11.946613350582771 5 -7 -2
796 1 2 -1.1794 0.8721110156105283 18.411791351327818 12.227702075346794 -5 -3 -8
842 1 1 0.5897 2.6534954228103427 20.20960765418069 14.801857874077005 -7 6 -2
659 1 1 0.5897 6.710676750229844 20.86981365735889 15.48378774518301 -1 -1 -2