LAMMPS data file via write_data, version 30 Jul 2021, timestep = 35500000

972 atoms
2 atom types
648 bonds
1 bond types
324 angles
1 angle types

0.020660041678015162 19.979340958293886 xlo xhi
0.03435450772168913 19.965646492262024 ylo yhi
0.03517813165987782 20.66481986833338 zlo zhi

Masses

1 1.008
2 15.999

Pair Coeffs # lj/cut/tip4p/long/omp

1 0 0
2 0.21084 3.1668

Bond Coeffs # harmonic/omp

1 450 0.9572

Angle Coeffs # harmonic/omp

1 55 104.52

Atoms # full

10 4 2 -1.1794 1.2631812454404652 3.979123002895598 3.8808476420973754 0 0 0
11 4 1 0.5897 1.180428619305711 3.2317183154629725 3.2886915825487257 0 0 0
12 4 1 0.5897 2.2051522165160535 4.067009707985149 4.026162602803609 0 0 0
33 11 1 0.5897 1.667369238851916 2.2419751550178217 1.415157160419565 0 0 0
31 11 2 -1.1794 1.0020107394678421 2.046184855338387 2.0747865206160894 0 0 0
18 6 1 0.5897 4.10504078082458 3.237526667025082 3.4538097525784344 0 0 0
4 2 2 -1.1794 4.18373538104544 1.4593299349874262 3.3178945804012834 0 0 0
16 6 2 -1.1794 4.009080566419057 4.144593308535769 3.7438594857324135 0 0 0
23 8 1 0.5897 2.6172784642206146 0.9989501584219125 4.1682147499452995 0 0 0
5 2 1 0.5897 4.358478190621887 0.8865717272867182 2.571207759313008 0 0 0
17 6 1 0.5897 4.195394460854985 4.666954629985782 2.9637652868680444 0 0 0
113 38 1 0.5897 4.8796415070590005 7.5389049436115965 3.9000817468879685 0 0 0
20 7 1 0.5897 1.1128198404538023 5.22186535786216 2.6167162564728006 0 0 0
22 8 2 -1.1794 1.981297348766432 0.7428641807290256 4.8361149222738 0 0 0
110 37 1 0.5897 2.0359602259844434 9.231815304429274 0.6364180952530579 0 0 0
111 37 1 0.5897 3.5038533898789535 9.401012453877684 0.3072495851368652 0 0 0
674 225 1 0.5897 1.9629168754558244 5.691967490541865 0.5115745728375016 0 0 1
114 38 1 0.5897 3.3876327354285305 7.787213542940259 3.8374783066686367 0 0 0
236 79 1 0.5897 0.9546609533404493 0.23373940824196743 1.8605802147561246 0 1 0
3 1 1 0.5897 3.6304388709464606 2.6626115222746773 0.33063159464293734 0 0 0
14 5 1 0.5897 3.9012190991493005 5.767037169440207 0.9904432987156986 0 0 0
139 47 2 -1.1794 0.8862376565042495 8.670014183650624 1.8727793313943064 0 0 0
126 42 1 0.5897 4.356456613877048 9.656309963050571 3.4106955659788127 0 0 0
141 47 1 0.5897 0.8450877217880058 7.750249786433189 2.1343949955819124 0 0 0
112 38 2 -1.1794 4.1944707238439145 7.8936706987809275 3.333673735605969 0 0 0
140 47 1 0.5897 1.0242516352661883 9.146394977398025 2.691401944912631 0 0 0
15 5 1 0.5897 4.3552652282095625 6.642750436767978 2.1387517926277724 0 0 0
19 7 2 -1.1794 0.8855574134422168 5.854855977330539 1.9356871152065838 0 0 0
13 5 2 -1.1794 4.561234976296511 5.82781223244584 1.6809700106803014 0 0 0
32 11 1 0.5897 0.16912137205346156 2.1726117734466226 1.6204175287671205 0 0 0
130 44 2 -1.1794 2.043960781269266 7.401820753691019 5.018380867301567 0 0 0
6 2 1 0.5897 4.808865684552038 1.1794572813221633 3.98649496679958 0 0 0
1 1 2 -1.1794 2.707675213677597 2.76953036943637 0.09992080327086852 0 0 0
132 44 1 0.5897 1.0876498391386054 7.369344427229533 4.9946632611154556 0 0 0
102 34 1 0.5897 0.15741046582963467 0.7302833722028497 4.928334392404819 1 0 0
325 109 2 -1.1794 2.6515992447924024 2.517865862622522 6.844236254308993 0 0 0
326 109 1 0.5897 2.471862391190598 1.8792583376984628 6.154310769305164 0 0 0
327 109 1 0.5897 3.568383326861694 2.3694047675068055 7.075760011003995 0 0 0
355 119 2 -1.1794 0.8570264689853448 2.1999255571676217 8.921956631553513 0 0 0
356 119 1 0.5897 1.5259608926823538 2.358061976525638 8.255873167235071 0 0 0
27 9 1 0.5897 2.2986637074380964 4.333916306321813 6.538482846162125 0 0 0
329 110 1 0.5897 3.9577352672450523 1.0582367960174726 9.463155697759287 0 0 0
342 114 1 0.5897 4.026179805454451 5.055327260900365 10.0690442553347 0 0 0
335 112 1 0.5897 1.0885315228436274 3.478940581853431 10.19023156734339 0 0 0
438 146 1 0.5897 4.331177923019074 9.031240520026687 9.97909551285132 0 0 0
344 115 1 0.5897 0.7174829702738241 5.414209814700382 9.28297839349012 0 0 0
328 110 2 -1.1794 3.863604936670191 1.7239653280094658 10.144382374460061 0 0 0
25 9 2 -1.1794 2.417750639805986 5.268337392806528 6.708092715137087 0 0 0
433 145 2 -1.1794 2.6963205032504263 9.150134089136223 7.029799413879341 0 0 0
345 115 1 0.5897 0.6110266559492685 6.854093733103502 8.828030507374208 0 0 0
435 145 1 0.5897 2.5408513988650436 8.63131058086292 6.240634579801131 0 0 0
468 156 1 0.5897 4.567869307509849 9.13552792858694 7.3635922128035345 0 0 0
339 113 1 0.5897 3.860027278245419 5.8057328194028655 7.850595705777781 0 0 0
437 146 1 0.5897 4.418785427782739 7.585609684739598 9.538591876846054 0 0 0
463 155 2 -1.1794 0.8674796706588241 8.638258735966957 9.020191309435244 0 0 0
464 155 1 0.5897 1.6112154834420136 8.752966118270388 8.42871586723526 0 0 0
343 115 2 -1.1794 0.579239107423917 5.953816097891153 8.504627112167173 0 0 0
26 9 1 0.5897 1.7525663224973462 5.480047782130526 7.362960824182172 0 0 0
337 113 2 -1.1794 4.46133196495008 5.997201155245044 8.570255634632781 0 0 0
131 44 1 0.5897 2.3002041291499573 6.598416747746879 5.4711459330272865 0 0 0
465 155 1 0.5897 0.09775741406727434 8.746173921714597 8.46160209759233 0 0 0
561 187 1 0.5897 0.8171184888224877 0.46291470391095507 8.625393839561973 0 1 0
357 119 1 0.5897 0.026653138901927775 2.323385428746516 8.462190855996345 0 0 0
443 148 1 0.5897 0.9870074147997178 9.953449033559865 10.194421555703054 0 0 0
436 146 2 -1.1794 4.3678759304384345 8.137286594449318 10.319094485856706 0 0 0
649 217 2 -1.1794 2.640384510769169 2.4408794129353897 14.089890533133183 0 0 0
650 217 1 0.5897 2.3379338503045504 1.8965607327227214 13.363000044218001 0 0 0
651 217 1 0.5897 1.9886454590309819 2.306309134720153 14.777839915411334 0 0 0
348 116 1 0.5897 2.360912375529632 1.1964826721843125 11.124096510701603 0 0 0
346 116 2 -1.1794 1.8170653571274415 0.888711758313219 11.849111065847358 0 0 0
350 117 1 0.5897 2.5615227698535565 4.329732036536344 13.543616036211217 0 0 0
347 116 1 0.5897 0.9219579098132646 1.1004741681300827 11.584386828063614 0 0 0
683 228 1 0.5897 4.337739718716973 2.684101966447252 14.494539112023546 0 0 0
336 112 1 0.5897 2.086610391226361 4.387044179096362 10.876404943402285 0 0 0
533 178 1 0.5897 0.40064952169171086 7.622775481835206 12.118638538964273 1 0 0
668 223 1 0.5897 1.218722854008434 5.7264962579472085 14.710175251130494 0 0 0
340 114 2 -1.1794 3.7996217037911313 4.442414864613712 10.768427862041229 0 0 0
334 112 2 -1.1794 1.1544852191727297 4.300470846995268 10.676905275473212 0 0 0
455 152 1 0.5897 2.939232828600016 7.822244948103449 11.381150344762585 0 0 0
789 263 1 0.5897 1.5435989253006646 8.9254678176286 15.306350075919564 0 0 0
456 152 1 0.5897 2.456428541907257 6.733484711985246 12.31555917213211 0 0 0
454 152 2 -1.1794 2.2136475391675057 7.58826960611385 11.959879876012273 0 0 0
792 264 1 0.5897 4.468239321023741 9.300672561141694 14.146790484812742 0 0 0
349 117 2 -1.1794 2.5555220328456345 5.285909524313616 13.585931805801735 0 0 0
757 253 2 -1.1794 2.659426019885233 9.404501162895212 14.022996450282648 0 0 0
759 253 1 0.5897 2.4376663487225514 8.802340149079047 13.312819518332365 0 0 0
351 117 1 0.5897 3.289570259851666 5.505339767390996 14.159658661682029 0 0 0
330 110 1 0.5897 4.450627598223668 1.4365120366980717 10.843599423146454 0 0 0
661 221 2 -1.1794 4.544307588407158 5.909658395139117 15.30851263971321 0 0 0
667 223 2 -1.1794 0.5731060269100796 5.941751377656417 15.383219593841815 0 0 0
341 114 1 0.5897 3.8408743277669912 3.5803197454826945 10.354670370503168 0 0 0
653 218 1 0.5897 3.4015100412264156 1.0804107327841788 17.576328583238414 0 0 0
652 218 2 -1.1794 4.211470257641621 1.2777875038876805 17.106065938354654 0 0 0
664 222 2 -1.1794 4.073087702139389 4.094151914699764 17.334770831875936 0 0 0
671 224 1 0.5897 2.2901420791620337 1.6553657467907708 19.366407095963424 0 0 0
666 222 1 0.5897 4.160548845301021 3.152168319341781 17.18944223225408 0 0 0
670 224 2 -1.1794 2.0648916637086763 1.010269977137858 18.69615656032149 0 0 0
665 222 1 0.5897 3.141010558218691 4.224559591570854 17.509041505541624 0 0 0
681 227 1 0.5897 0.8058046634547658 2.90782971744813 16.46628546993246 0 0 0
672 224 1 0.5897 1.1081008883335317 0.9840814059778757 18.700212675128917 0 0 0
658 220 2 -1.1794 1.3443068113141334 4.303534361130312 17.469741143751897 0 0 0
659 220 1 0.5897 0.7672091971036052 4.383229469955832 18.229184333224836 0 0 0
654 218 1 0.5897 4.273772798674568 0.5949004994376871 16.43830296889478 0 0 0
2 1 1 0.5897 2.6212236280941883 3.697024246644601 20.509593331481085 0 0 -1
660 220 1 0.5897 1.043462303200379 4.983740233249078 16.86729930938894 0 0 0
663 221 1 0.5897 4.362464634493604 6.731969168985732 15.763309340147545 0 0 0
858 286 1 0.5897 0.4643964789229253 7.519631629252713 18.728477727854752 1 0 0
662 221 1 0.5897 4.361156348252728 5.2307336678645475 15.957850982028752 0 0 0
679 227 2 -1.1794 0.5957424566156951 2.1439212448733134 15.929236545807157 0 0 0
779 260 1 0.5897 2.4375367664829484 8.285325740373839 19.342204882675844 0 0 0
675 225 1 0.5897 2.4867966980492975 6.098837798139892 19.780468672382064 0 0 0
787 263 2 -1.1794 0.898729543131191 8.667797877443384 15.965054715601935 0 0 0
760 254 2 -1.1794 4.285248555843369 8.073393990321769 17.013739712858076 0 0 0
780 260 1 0.5897 2.9162383511087544 7.714874692332247 18.024218821196605 0 0 0
788 263 1 0.5897 1.0208418436019262 9.294222433850058 16.678359166113374 0 0 0
761 254 1 0.5897 4.345506878199889 9.02704570901093 16.95885185043329 0 0 0
778 260 2 -1.1794 2.3311205001483386 7.5333950846677 18.759634452360366 0 0 0
884 295 1 0.5897 0.5502229892442355 0.2514715814458112 15.75687382046769 0 1 0
669 223 1 0.5897 0.766128205515025 6.848945877294621 15.61948381040229 0 0 0
762 254 1 0.5897 4.9237888513999115 7.830794087068437 17.684222803609153 0 0 0
673 225 2 -1.1794 2.614693619685571 5.458530204451914 20.48030480854741 0 0 0
109 37 2 -1.1794 2.626885226502146 9.547366247300811 20.582411080772953 0 0 -1
120 40 1 0.5897 1.2190601810440784 11.39549557674616 3.1249560872236355 0 0 0
129 43 1 0.5897 1.0493058938565492 13.657031044426576 2.3103250237429758 0 0 0
118 40 2 -1.1794 1.4454140674705676 10.669478579807755 3.706147464394799 0 0 0
119 40 1 0.5897 2.393269286811714 10.739314933337669 3.819447988711334 0 0 0
240 80 1 0.5897 2.7339992969346523 14.141635250917638 4.336780570769524 0 0 0
127 43 2 -1.1794 0.8663681355791671 12.781946971319577 1.9684691462742667 0 0 0
123 41 1 0.5897 4.377012374347731 12.409323604359233 0.9326410530615776 0 0 0
222 74 1 0.5897 4.4020637753647005 13.989034842389676 2.600969339202819 0 0 0
124 42 2 -1.1794 4.266416309055269 10.605688458958225 3.4923141114479006 0 0 0
783 261 1 0.5897 2.0673679778789817 12.531412255676429 0.582620709051859 0 0 1
220 74 2 -1.1794 4.20129019319304 14.437794566551942 3.4222120008027708 0 0 0
233 78 1 0.5897 4.2185868701827225 17.958940564303006 2.629471600938603 0 0 0
122 41 1 0.5897 4.673661845675752 11.760824667906254 2.267966316010669 0 0 0
890 297 1 0.5897 1.9339965121482336 18.941130277523186 0.2813169057286714 0 0 1
125 42 1 0.5897 4.906816172453298 10.850957202479943 4.1600496049792355 0 0 0
227 76 1 0.5897 1.2633981417005322 18.26938326328282 3.2374606889039597 0 0 0
235 79 2 -1.1794 0.8348227632616233 19.244164454750276 1.6287432732822278 0 0 0
234 78 1 0.5897 3.2505077842292205 17.440366706328177 3.6713819590402785 0 0 0
221 74 1 0.5897 4.196556232277196 15.367050214773377 3.192938829411459 0 0 0
249 83 1 0.5897 1.7807154187589163 15.709804458668183 1.3720031505929413 0 0 0
229 77 2 -1.1794 4.498332943402648 19.349017239754062 1.5049792581752912 0 0 0
230 77 1 0.5897 3.9727028465877163 19.168529569693206 0.7256966268902092 0 0 0
247 83 2 -1.1794 1.227660495822923 15.520345488249811 2.129879649277306 0 0 0
248 83 1 0.5897 1.3962925306212015 16.24142840342065 2.736280721902399 0 0 0
226 76 2 -1.1794 1.5383531355253186 17.658239664756024 3.9208471073592457 0 0 0
228 76 1 0.5897 0.8383098007024948 17.696125723028253 4.5724922925772225 0 0 0
232 78 2 -1.1794 4.089208917683968 17.24491891942578 3.253614579923246 0 0 0
188 63 1 0.5897 0.08516838072226533 10.869108237361466 5.016500182764235 1 0 0
317 106 1 0.5897 0.1769917199433948 13.843707980716626 4.82944664940732 1 0 0
238 80 2 -1.1794 2.037581018194993 14.02191187839025 4.982388625480439 0 0 0
133 45 2 -1.1794 2.550459894232191 11.862076116327584 6.532461145947243 0 0 0
134 45 1 0.5897 1.83325039390689 11.979219849846912 7.155385269813098 0 0 0
135 45 1 0.5897 3.334435935302158 12.11818803081501 7.018184508312822 0 0 0
453 151 1 0.5897 0.8940688721831145 11.759280280458524 9.265039170665892 0 0 0
451 151 2 -1.1794 0.7922745755399304 12.316424369378895 8.493445645142028 0 0 0
450 150 1 0.5897 4.1263637830804605 11.513942704480055 9.54444384974117 0 0 0
446 149 1 0.5897 4.378888988541832 13.446239958110473 8.768554143855772 0 0 0
573 191 1 0.5897 0.896777678703911 14.540206057740592 9.463023733811657 0 0 0
445 149 2 -1.1794 4.514580509402927 12.658803696408388 8.241630618447621 0 0 0
239 80 1 0.5897 2.2786600299142656 13.222285781138988 5.449920964466497 0 0 0
543 181 1 0.5897 2.2775548395901897 15.27694101915381 6.3435544903213135 0 0 0
572 191 1 0.5897 0.8402352698103552 16.001513763978124 9.85412573619295 0 0 0
553 185 2 -1.1794 4.460922884928775 19.248007659733815 8.725225315452104 0 0 0
555 185 1 0.5897 3.963704529974645 19.070999272547432 7.926738310097775 0 0 0
571 191 2 -1.1794 0.7299455864574566 15.41301006182085 9.107383363255522 0 0 0
241 81 2 -1.1794 2.731739118273493 18.681496655081745 6.633861237231412 0 0 0
558 186 1 0.5897 4.027428363586731 18.03952666560656 9.78750986740017 0 0 0
542 181 1 0.5897 1.770757409512249 15.740485450523154 7.692596531666526 0 0 0
541 181 2 -1.1794 2.4445207958606754 15.9163719837645 7.035896722195695 0 0 0
576 192 1 0.5897 4.326745360266938 15.717530630800045 7.432987569234356 0 0 0
559 187 2 -1.1794 0.7066935234144713 19.454410358741463 8.481545768830296 0 0 0
242 81 1 0.5897 2.6734401569785806 17.726842493963403 6.597313256468704 0 0 0
243 81 1 0.5897 1.9881167577580283 18.94678735704325 7.174961149777732 0 0 0
544 182 2 -1.1794 4.070147213091373 14.695696894240204 9.972168224725143 0 0 0
551 184 1 0.5897 0.8066330349873235 18.323716737586373 10.043263363395782 0 0 0
448 150 2 -1.1794 3.918693293169664 10.87906781152269 10.229952332188425 0 0 0
434 145 1 0.5897 2.5823411166180383 10.057350686134978 6.746859938008213 0 0 0
557 186 1 0.5897 3.919638831046497 16.55801679779843 10.079204880701074 0 0 0
24 8 1 0.5897 2.3281945767072285 19.858629549450004 5.1976293458189415 0 -1 0
457 153 2 -1.1794 2.448707878930729 12.079478915186924 13.344418313908491 0 0 0
458 153 1 0.5897 1.8045479273429534 12.236529654345112 14.034736010370676 0 0 0
459 153 1 0.5897 3.291276476851485 12.278433801826692 13.752639173922686 0 0 0
562 188 2 -1.1794 1.9195780841804373 14.195109230167146 11.66551275804109 0 0 0
563 188 1 0.5897 2.134729989499643 13.343433654877495 12.045603794909406 0 0 0
449 150 1 0.5897 4.514921127972928 11.096035396434488 10.946596053362049 0 0 0
564 188 1 0.5897 2.20640786925273 14.83010202873355 12.3217442844152 0 0 0
556 186 2 -1.1794 3.720540962874767 17.418506520959895 10.448022707319979 0 0 0
442 148 2 -1.1794 1.1909249410908003 10.74037859101167 10.69966054311192 0 0 0
546 182 1 0.5897 4.763862994108631 14.523924437140943 10.608875907585997 0 0 0
444 148 1 0.5897 2.144423401005884 10.812409466971431 10.657252042131939 0 0 0
758 253 1 0.5897 2.4893933697139685 10.274433669887113 13.66186719042663 0 0 0
769 257 2 -1.1794 4.782794449855341 12.514517192492958 14.957207396625849 0 0 0
545 182 1 0.5897 3.2578265179310013 14.570556504986802 10.462702185208629 0 0 0
567 189 1 0.5897 2.221439843089344 19.444643532187605 12.856083097145842 0 0 0
550 184 2 -1.1794 0.9882519363759378 17.69044593183242 10.73760118148225 0 0 0
866 289 1 0.5897 3.5088257469581547 15.893238818726502 13.863677494840063 0 0 0
867 289 1 0.5897 2.101310016466351 15.781100185745748 14.409578816839174 0 0 0
885 295 1 0.5897 1.1396379606557907 19.199586511010168 14.768149305317095 0 0 0
566 189 1 0.5897 2.3169613054354317 17.996756396451467 13.28745001270847 0 0 0
865 289 2 -1.1794 2.592010706967633 16.034564541962055 13.627841784390924 0 0 0
879 293 1 0.5897 3.907076615625424 18.958510366214455 14.711831302750612 0 0 0
552 184 1 0.5897 1.9379669767533558 17.57378150252086 10.713582968534693 0 0 0
565 189 2 -1.1794 2.400390561086071 18.891653064219632 13.616549064564417 0 0 0
883 295 2 -1.1794 0.4241963840021105 19.30565072160291 15.395077888601536 0 0 0
642 214 1 0.5897 0.12789052235301912 14.358754156734179 11.87559143319023 1 0 0
877 293 2 -1.1794 4.600923993786811 19.039206218566676 15.366210633844302 0 0 0
548 183 1 0.5897 4.8652120029924415 17.770517488298175 11.83600883392772 0 0 0
512 171 1 0.5897 0.06952583432740767 11.114929639144245 12.014775929084497 1 0 0
768 256 1 0.5897 1.2572881844607666 11.366876365346588 16.85202350913078 0 0 0
888 296 1 0.5897 2.246662910556277 13.38170208209511 19.099708936721335 0 0 0
766 256 2 -1.1794 1.5687688752164188 10.849802571447439 17.59481201567319 0 0 0
773 258 1 0.5897 3.387571814257105 10.98150063688775 17.374236076123097 0 0 0
886 296 2 -1.1794 2.1781778207654936 14.212786287340306 18.629898190494202 0 0 0
774 258 1 0.5897 4.430666759125979 11.362428524570765 16.345390125939346 0 0 0
772 258 2 -1.1794 4.300679893747252 10.830296721138811 17.130288671375844 0 0 0
869 290 1 0.5897 3.3859423895501046 14.227000629193052 17.3855747189084 0 0 0
767 256 1 0.5897 0.9440203758899216 11.036002076650208 18.295642002445824 0 0 0
868 290 2 -1.1794 4.132097698366364 14.379884087668636 16.805898897293098 0 0 0
777 259 1 0.5897 0.8942216558976339 13.481127300153844 15.708730960396439 0 0 0
775 259 2 -1.1794 0.7589073245843712 12.547037904809157 15.549773680121795 0 0 0
782 261 1 0.5897 2.6584062491501363 11.342128237117084 20.485706132383612 0 0 0
887 296 1 0.5897 2.4457102902556276 14.872722182496119 19.269457449159162 0 0 0
891 297 1 0.5897 2.4493088016084763 19.49898298503019 19.601420706131748 0 0 0
880 294 2 -1.1794 3.939583025075968 17.163400182839915 17.229106653314055 0 0 0
965 322 1 0.5897 0.4195008859610291 14.492309379033792 18.673356715328715 1 0 0
875 292 1 0.5897 0.5902129789462283 17.70285013794276 18.016845842076364 0 0 0
895 299 2 -1.1794 0.7955238082381443 15.305291736826254 15.665217536975682 0 0 0
878 293 1 0.5897 4.432615969299033 18.327318313655894 15.983470281704276 0 0 0
876 292 1 0.5897 1.0428266303876692 18.179018372943325 16.653000639850134 0 0 0
881 294 1 0.5897 3.0130121867905246 17.33306831142888 17.398875918343585 0 0 0
882 294 1 0.5897 3.9696596691071635 16.24628696461383 16.956887222118112 0 0 0
897 299 1 0.5897 0.9018793919848221 16.013681558022824 16.300033712395432 0 0 0
874 292 2 -1.1794 1.2019848449700514 17.500519093846926 17.309072549332626 0 0 0
889 297 2 -1.1794 2.5539399061784165 18.762641131053776 20.203889435890716 0 0 0
218 73 1 0.5897 2.7124720594440017 16.9551202890515 20.447396308495982 0 0 -1
771 257 1 0.5897 4.5140459993111435 13.228991980678869 15.534621407679774 0 0 0
781 261 2 -1.1794 2.6636552818165713 12.2991266402244 20.500483708684136 0 0 0
217 73 2 -1.1794 2.783960828669798 16.006783035319096 20.55528300509389 0 0 -1
870 290 1 0.5897 4.899123039660138 14.267376120697726 17.36728789518682 0 0 0
219 73 1 0.5897 3.7243034667744026 15.84377904369192 20.628285773179098 0 0 -1
166 56 2 -1.1794 8.675474136343437 7.404147154949099 4.989822841852556 0 0 0
177 59 1 0.5897 8.233046065769427 8.916520854384595 1.3385279205786822 0 0 0
69 23 1 0.5897 6.750017555096869 2.343222134051739 1.7310212030671728 0 0 0
47 16 1 0.5897 7.68941905752674 3.2761624923133947 3.543845537255303 0 0 0
34 12 2 -1.1794 5.454465502591058 2.5511451263495295 0.5720700702138273 0 0 0
46 16 2 -1.1794 7.917649996819006 4.091368212144192 3.990459758831342 0 0 0
67 23 2 -1.1794 7.524935763429542 2.025955798375602 2.1946878528701443 0 0 0
48 16 1 0.5897 7.231640916450454 4.204818219424385 4.648235387165024 0 0 0
68 23 1 0.5897 8.255485142481751 2.2365329778779772 1.6132228290040196 0 0 0
58 20 2 -1.1794 8.653394378969905 0.7017344630389817 5.09667287659376 0 0 0
53 18 1 0.5897 9.77146468786423 4.047753986015435 3.82402934251305 0 0 0
143 48 1 0.5897 6.017623767877025 8.957631647288615 1.1096164398338322 0 0 0
57 19 1 0.5897 7.519415619839315 5.504567582094949 2.716337273510402 0 0 0
9 3 1 0.5897 5.066410877466123 4.393973866127653 5.174165604254605 0 0 0
55 19 2 -1.1794 7.361146058651765 5.980680469100073 1.9012286455831897 0 0 0
175 59 2 -1.1794 7.610178807003665 8.74634210994194 2.0450780633785883 0 0 0
56 19 1 0.5897 6.435966142168113 5.827488351476841 1.7095885062020832 0 0 0
142 48 2 -1.1794 5.329180975139504 9.08588928724601 0.4571266159870995 0 0 0
711 237 1 0.5897 8.560124466172752 5.689955936820238 0.5742719894121908 0 0 1
176 59 1 0.5897 7.576810436539906 7.792058331637278 2.1108958832819535 0 0 0
273 91 1 0.5897 7.521633569782007 0.35052088794150915 1.7942213332174985 0 1 0
29 10 1 0.5897 6.873921232776147 0.636120918576773 5.034731495741692 0 0 0
36 12 1 0.5897 5.644929096461831 3.337417303972501 0.0605914034473158 0 0 0
37 13 2 -1.1794 9.431279837404917 2.600668334503348 0.3079528176958326 0 0 0
138 46 1 0.5897 6.880933266503817 7.2760547298441045 5.144164315156601 0 0 0
155 52 1 0.5897 7.956412209361746 9.99399834266663 3.399868287561954 0 0 0
28 10 2 -1.1794 5.941322775148668 0.4887826227803767 5.191894290382257 0 0 0
710 237 1 0.5897 9.253982013618051 4.441871922127744 0.07182920839235152 0 0 1
59 20 1 0.5897 8.800326971582876 1.3544597940759253 5.781126049416168 0 0 0
338 113 1 0.5897 5.330541878962725 5.822122460932519 8.209755565038096 0 0 0
136 46 2 -1.1794 5.945763744479417 7.164685476111063 5.315054855617303 0 0 0
391 131 2 -1.1794 7.4008191608703155 2.1608461171667224 9.05342654482484 0 0 0
361 121 2 -1.1794 9.321397340367119 2.6419172461094447 7.064811365490753 0 0 0
360 120 1 0.5897 5.641543478741892 1.5602288141310865 6.697326047438491 0 0 0
359 120 1 0.5897 5.914103806710281 2.243082121524187 8.02060274991305 0 0 0
8 3 1 0.5897 5.640494299537096 3.7284124717263216 6.406685897062401 0 0 0
362 121 1 0.5897 9.14413471115872 3.5742183961373852 6.9403785925929204 0 0 0
392 131 1 0.5897 8.086362864819566 2.3639640281663934 8.417110128143475 0 0 0
7 3 2 -1.1794 5.770955072222807 4.471281955215064 5.817414618124286 0 0 0
358 120 2 -1.1794 5.302518386167743 2.2359281497325747 7.284355535039147 0 0 0
393 131 1 0.5897 7.371689479366076 1.204470458774773 9.07771768567844 0 0 0
379 127 2 -1.1794 7.1769898662667915 5.81655189851678 8.632878152862547 0 0 0
381 127 1 0.5897 7.3614449300167495 5.353212448700189 9.44983827352702 0 0 0
380 127 1 0.5897 7.4164168808276205 6.7255388360790915 8.813214639496588 0 0 0
467 156 1 0.5897 5.658432926132449 8.326595561743298 6.694295906339238 0 0 0
500 167 1 0.5897 7.703309827804024 9.202803933964873 9.639815938491408 0 0 0
470 157 1 0.5897 8.932679504813455 9.073611235162032 7.627690797904405 0 0 0
168 56 1 0.5897 8.89532913762914 8.098036458161973 5.611352434927664 0 0 0
499 167 2 -1.1794 7.658569551387513 8.554215554576311 8.937353029788836 0 0 0
62 21 1 0.5897 8.43991333144863 5.515901177127857 7.367554479924954 0 0 0
469 157 2 -1.1794 9.462692203055306 9.237982903730876 6.847813894303151 0 0 0
61 21 2 -1.1794 9.124947547241122 5.275243354443964 6.743889947594154 0 0 0
501 167 1 0.5897 6.929602512313734 8.844203732559382 8.389034782128654 0 0 0
466 156 2 -1.1794 5.517768470519885 9.020640811208578 7.338217910257665 0 0 0
167 56 1 0.5897 8.820412470658466 6.592215359845393 5.475489149465553 0 0 0
137 46 1 0.5897 5.864121040397548 6.262650713168085 5.6245221397266265 0 0 0
63 21 1 0.5897 9.943305650831501 5.418566153317769 7.219166877545507 0 0 0
824 275 1 0.5897 8.051958203444233 9.025610296328107 15.435588746292964 0 0 0
386 129 1 0.5897 9.006884570159578 4.285933786303312 13.768113593041072 0 0 0
385 129 2 -1.1794 9.000672331493499 5.207862889275659 14.025222352562066 0 0 0
331 111 2 -1.1794 5.908887551313743 4.754777241793883 12.568592335506871 0 0 0
372 124 1 0.5897 7.259015871182847 4.508655138429171 11.514835642098541 0 0 0
682 228 2 -1.1794 5.284110810788403 2.6936429768757293 14.351620647861925 0 0 0
382 128 2 -1.1794 8.233387397433491 0.78176108813062 11.817492595626147 0 0 0
684 228 1 0.5897 5.442916214868668 3.4927834598495178 13.849354655549218 0 0 0
354 118 1 0.5897 5.384727567418349 1.3548082976981033 13.00904529999089 0 0 0
384 128 1 0.5897 8.927255996527196 0.8715528644696457 11.16432295103913 0 0 0
353 118 1 0.5897 6.460146415093006 0.9881023909058807 12.00871103423548 0 0 0
686 229 1 0.5897 8.60379255547838 2.407626690149021 14.715141831042093 0 0 0
383 128 1 0.5897 8.488542497679864 1.3772432017459164 12.522065453485153 0 0 0
352 118 2 -1.1794 5.52754238129383 0.876041768444359 12.192640147730149 0 0 0
685 229 2 -1.1794 9.074246620997009 2.4056824353114976 13.881585522517614 0 0 0
460 154 2 -1.1794 6.308627186244451 7.369956577344005 12.087689841506089 0 0 0
705 235 1 0.5897 7.742320467077785 5.7688742960705675 15.260613561675227 0 0 0
793 265 2 -1.1794 9.251107540380996 9.262619353828946 14.287040259957939 0 0 0
462 154 1 0.5897 5.649108272934205 7.533875615869516 11.413665198560066 0 0 0
492 164 1 0.5897 8.15993600283946 7.544722085510109 11.875473068610514 0 0 0
490 164 2 -1.1794 9.055559390849961 7.436027360496879 12.195138380957099 0 0 0
491 164 1 0.5897 9.603409286378879 7.555899594388763 11.419490919003527 0 0 0
794 265 1 0.5897 9.133793308974463 8.656077773501337 13.555963998399534 0 0 0
461 154 1 0.5897 6.056675040197532 7.9404628846454886 12.813753529420424 0 0 0
790 264 2 -1.1794 5.403462493602569 9.179700522957312 13.982867944574107 0 0 0
791 264 1 0.5897 5.783849466259333 9.04554338807996 14.850879130324811 0 0 0
387 129 1 0.5897 9.096566124080761 5.687141472694033 13.202298318513957 0 0 0
333 111 1 0.5897 5.983516432494789 5.707740413685947 12.51967590027404 0 0 0
370 124 2 -1.1794 7.885377757299885 4.351009225949222 10.80846328359578 0 0 0
332 111 1 0.5897 5.115535016292845 4.550477497020755 12.073618211122659 0 0 0
687 229 1 0.5897 9.99908425734431 2.4166543354663106 14.127967837524277 0 0 0
377 126 1 0.5897 9.797498255291544 4.182227344381537 10.782908693417703 0 0 0
371 124 1 0.5897 7.601298019668751 3.5257494975551595 10.415579904555084 0 0 0
816 272 1 0.5897 8.919990083834806 8.135369916674202 19.446483470590074 0 0 0
696 232 1 0.5897 7.777113441335089 4.829889588419477 17.22117855302423 0 0 0
145 49 2 -1.1794 9.453549388616619 9.366794533425596 20.6471985140794 0 0 -1
704 235 1 0.5897 6.3099883315252026 5.865340224874373 15.741019630154742 0 0 0
695 232 1 0.5897 7.756238757731837 3.3214308311335086 17.346427668420795 0 0 0
708 236 1 0.5897 7.662283564121184 0.9009902776816995 18.912119660822732 0 0 0
715 239 2 -1.1794 7.310304128951332 2.105865586230584 16.087992905879176 0 0 0
144 48 1 0.5897 5.418897709977351 8.340172575874883 20.493498376348143 0 0 -1
655 219 2 -1.1794 5.83571720940914 4.5475503791094845 19.41053466795357 0 0 0
657 219 1 0.5897 6.674343997280277 4.399362215195362 18.973622679604937 0 0 0
706 236 2 -1.1794 8.617582369635514 0.9524344779003329 18.881983179326433 0 0 0
716 239 1 0.5897 7.324796072534599 1.1488622794607362 16.082004929480156 0 0 0
676 226 2 -1.1794 5.818040742142943 0.6525344014455049 19.193800178067434 0 0 0
694 232 2 -1.1794 8.005181943819224 4.116656506485402 17.81733520932751 0 0 0
38 13 1 0.5897 9.135784274567133 2.112897167188401 20.168898996895607 0 0 -1
677 226 1 0.5897 5.310923598657261 0.9282903061648748 18.43030968056152 0 0 0
784 262 2 -1.1794 5.959325711578868 7.294184130960566 19.145273306983626 0 0 0
786 262 1 0.5897 6.8993664142730315 7.352863282705303 18.974889298623616 0 0 0
707 236 1 0.5897 8.91467326160047 0.2021144896255022 19.396640705669228 0 0 0
814 272 2 -1.1794 8.701324925065748 7.430370767747008 18.8371525778589 0 0 0
825 275 1 0.5897 7.432951695762041 7.9263509654738495 16.272291959442022 0 0 0
815 272 1 0.5897 8.889439405025577 6.626993346334928 19.32224076799138 0 0 0
785 262 1 0.5897 5.80973565219388 6.371297551817864 19.350226357429484 0 0 0
703 235 2 -1.1794 7.215129813297481 5.9737831829448576 16.03275722137925 0 0 0
823 275 2 -1.1794 7.346436442753914 8.855544032479472 16.059654784932967 0 0 0
709 237 2 -1.1794 9.266109035153251 5.396121917064864 20.628250228803388 0 0 0
35 12 1 0.5897 5.527755933374645 1.832689006011312 20.573570214988486 0 0 -1
702 234 1 0.5897 9.824709385223489 4.190478693670716 17.847978090175914 0 0 0
656 219 1 0.5897 5.181993482704267 4.430052600521849 18.72134853453256 0 0 0
717 239 1 0.5897 6.5283758571067745 2.337159547670489 15.586767438236338 0 0 0
246 82 1 0.5897 5.437821474977944 13.970179908428905 4.747552756689537 0 0 0
164 55 1 0.5897 6.687275853997411 12.614645238334592 1.895228125142551 0 0 0
231 77 1 0.5897 5.404363780577373 19.2952571064027 1.2010628294396206 0 0 0
276 92 1 0.5897 9.330428071800037 14.336837906806105 4.525904277993011 0 0 0
285 95 1 0.5897 7.732072247479284 14.621141084793573 1.9487931408778634 0 0 0
819 273 1 0.5897 8.69527408989915 12.361675216633785 0.5773342630531026 0 0 1
163 55 2 -1.1794 7.616184230572003 12.748805782044174 2.0830525067770513 0 0 0
156 52 1 0.5897 9.188392014848295 10.777409024339336 3.8000306832455966 0 0 0
154 52 2 -1.1794 8.238954652412508 10.747756588655982 3.917669441436369 0 0 0
165 55 1 0.5897 7.798252320542336 12.167128007274664 2.821043049886796 0 0 0
284 95 1 0.5897 7.674298229985806 16.041560639257746 2.4690359311885257 0 0 0
271 91 2 -1.1794 7.426232087109495 19.40787863546482 1.4157577728364337 0 0 0
272 91 1 0.5897 7.621979476328527 18.810981161025545 2.1379194713286744 0 0 0
283 95 2 -1.1794 7.5857851324930845 15.524523947402686 1.6684293720294272 0 0 0
927 309 1 0.5897 8.704238286318148 19.12900982377394 0.3652337310571697 0 0 1
262 88 2 -1.1794 7.818606800905984 17.53286172616159 3.40501888401489 0 0 0