LAMMPS (30 Jul 2021)
Processor partition = 0
  using 2 OpenMP thread(s) per MPI task
using multi-threaded neighbor list subroutines
variable        pid world 0 1
variable        phase world IceV IceIII

shell cd ${phase}
shell cd IceV
include Restart.lmp
echo both
log log.lammps
#include		in.partitions
include		in.temp
variable        temperature equal 196.47
variable	tempDamp equal 100.0
include		in.pressure
variable        pressure equal 7457.3
variable        pressureDamp equal 1000.0 # This is 1 ps
include		in.seed
variable        seed equal 745823

units		real
atom_style	full
read_restart    restart.lmp.${pid}
read_restart    restart.lmp.0
Reading restart file ...
  restart file = 30 Jul 2021, LAMMPS = 30 Jul 2021
  restoring atom style full from restart
  triclinic box = (-3.1401961 -0.093756663 -0.051684977) to (14.750195 22.673756 19.281683) with tilt (-0.12186683 -6.2771452 -0.034729811)
  2 by 4 by 4 MPI processor grid
  restoring pair style lj/cut/tip4p/long/omp from restart
  restoring bond style harmonic/omp from restart
  restoring angle style harmonic/omp from restart
  1008 atoms
  672 bonds
  336 angles
Finding 1-2 1-3 1-4 neighbors ...
  special bond factors lj:    0        0        0       
  special bond factors coul:  0        0        0       
     2 = max # of 1-2 neighbors
     1 = max # of 1-3 neighbors
     1 = max # of 1-4 neighbors
     2 = max # of special neighbors
  special bonds CPU = 0.002 seconds
  read_restart CPU = 0.007 seconds

include 	in.setup
variable	out_freq equal 1000
variable	out_freq2 equal 10000
variable	out_freq3 equal 1000

timestep	2.0

neigh_modify    delay 7 every 1

include		in.tip4p
# This is TIP4P/Ice

# create groups ###
group ox type 2
336 atoms in group ox
group hy type 1
672 atoms in group hy

# set charges - beside manually ###
set group ox charge -1.1794
Setting atom values ...
  336 settings made for charge
set group hy charge 0.5897
Setting atom values ...
  672 settings made for charge

# ### TIP3P Potential Parameters ###
pair_style lj/cut/tip4p/long/omp 2 1 1 1 0.1577 8.5
pair_coeff 1 1*2 0.000 0.000
pair_coeff 2 2 0.21084 3.1668
bond_style  harmonic
bond_coeff  1 450 0.9572
angle_style harmonic
angle_coeff 1 55 104.52
kspace_style pppm/tip4p/omp 1.0e-5
pair_modify tail yes

thermo          ${out_freq}
thermo          1000
thermo_style    custom step temp pe etotal epair emol press lx ly lz vol pxx pyy pzz pxy pxz pyz enthalpy

restart 	${out_freq3} restart.lmp.${pid} restart2.lmp.${pid}
restart 	1000 restart.lmp.${pid} restart2.lmp.${pid}
restart 	1000 restart.lmp.0 restart2.lmp.${pid}
restart 	1000 restart.lmp.0 restart2.lmp.0


include         in.dump
dump            myDump all atom ${out_freq2} dump.water.${pid}
dump            myDump all atom 10000 dump.water.${pid}
dump            myDump all atom 10000 dump.water.0
dump            myDump2 all dcd ${out_freq2} dump.dcd
dump            myDump2 all dcd 10000 dump.dcd
dump_modify     myDump append yes
dump_modify     myDump2 append yes


variable natoms 	equal  "count(all)"                        # NUMBER ATOMS
variable H      	equal  "enthalpy/v_natoms"                 # ENTHALPY-per-atom
variable Vol      	equal  "vol/v_natoms"                 # volume-per-atom
fix AVG all 		ave/time ${out_freq} 1 ${out_freq} v_Vol v_H file vol_enthalpy.dat
fix AVG all 		ave/time 1000 1 ${out_freq} v_Vol v_H file vol_enthalpy.dat
fix AVG all 		ave/time 1000 1 1000 v_Vol v_H file vol_enthalpy.dat



fix 		1 all shake 1e-6 200 0 b 1 a 1
Finding SHAKE clusters ...
       0 = # of size 2 clusters
       0 = # of size 3 clusters
       0 = # of size 4 clusters
     336 = # of frozen angles
  find clusters CPU = 0.001 seconds
fix             2 all nph tri ${pressure} ${pressure} ${pressureDamp}
fix             2 all nph tri 7457.3 ${pressure} ${pressureDamp}
fix             2 all nph tri 7457.3 7457.3 ${pressureDamp}
fix             2 all nph tri 7457.3 7457.3 1000
fix             3 all temp/csvr ${temperature} ${temperature} ${tempDamp} ${seed}
fix             3 all temp/csvr 196.47 ${temperature} ${tempDamp} ${seed}
fix             3 all temp/csvr 196.47 196.47 ${tempDamp} ${seed}
fix             3 all temp/csvr 196.47 196.47 100 ${seed}
fix             3 all temp/csvr 196.47 196.47 100 745823


run             250000
PPPM initialization ...
  extracting TIP4P info from pair style
  using 12-bit tables for long-range coulomb (../kspace.cpp:340)
  G vector (1/distance) = 0.37946088
  grid = 24 27 32
  stencil order = 5
  estimated absolute RMS force accuracy = 0.0024318763
  estimated relative force accuracy = 7.3235231e-06
  using double precision FFTW3
  3d grid and FFT values/proc = 5355 672
Last active /omp style is kspace_style pppm/tip4p/omp
Neighbor list info ...
  update every 1 steps, delay 7 steps, check yes
  max neighbors/atom: 2000, page size: 100000
  master list distance cutoff = 10.8154
  ghost atom cutoff = 10.8154
  binsize = 5.4077, bins = 5 5 4
  1 neighbor lists, perpetual/occasional/extra = 1 0 0
  (1) pair lj/cut/tip4p/long/omp, perpetual
      attributes: half, newton on, omp
      pair build: half/bin/newton/tri/omp
      stencil: half/bin/3d/tri
      bin: standard
Setting up Verlet run ...
  Unit style    : real
  Current step  : 13000000
  Time step     : 2
Per MPI rank memory allocation (min/avg/max) = 10.31 | 10.32 | 10.33 Mbytes
Step Temp PotEng TotEng E_pair E_mol Press Lx Ly Lz Volume Pxx Pyy Pzz Pxy Pxz Pyz Enthalpy 
13000000    196.60541    -4929.834   -4536.5989    -4929.834            0    7363.6377    17.890391    22.767512    19.333368    7874.8617     6924.641    7989.1249    7177.1471   -1050.2224    526.73392    668.26194   -3690.9088 
13001000    190.82602    -4968.626   -4586.9504    -4968.626            0    7114.6506    17.910673    22.820983     19.34812    7908.3342    7589.5825    6506.4867    7247.8827   -1030.8752    -860.4929    7.7370587   -3766.3825 
13002000    194.97573   -4972.1382   -4582.1626   -4972.1382            0    7267.1331     17.96076    22.981535    19.183199    7918.1689    7238.5732    6809.7575    7753.0685    411.65698   -1531.6824   -201.74433   -3742.9659 
13003000    195.84289    -4977.372    -4585.662    -4977.372            0    8345.6963    17.887796    22.984356    19.136267     7867.675    9816.0592    6686.7573    8534.2724    1502.7445   -535.81164    -128.4277   -3628.0604 
13004000    194.39787   -4997.6292   -4608.8095   -4997.6292            0    8025.9347    17.899271    22.776919    19.276275    7858.7497    6828.8831    8554.2511      8694.67    1147.1163   -537.38196    2645.1994   -3688.9426 
13005000    194.55363   -4966.7841   -4577.6528   -4966.7841            0    6695.4636    18.008848    22.813634    19.248505    7908.1956    6736.6023    6265.3819    7084.4066    373.38091   -694.38663    1278.8284   -3805.4454 
13006000    204.74471   -4973.4826   -4563.9678   -4973.4826            0     7896.635     18.07306     22.64987    19.175698    7849.6189    7595.2779    8276.9471    7817.6798   -532.49501   -1054.4273   -249.87981   -3659.9718 
13007000    189.18432    -4965.889   -4587.4969    -4965.889            0    8112.0872    18.068622    22.686106    19.222595    7879.4699    8407.9783     7544.515    8383.7684    481.96463    90.441276    198.01624   -3655.3047 
13008000    195.97774   -4972.9025   -4580.9228   -4972.9025            0    6693.2603    18.038104    22.649811    19.344936    7903.5605    5239.3669    6837.2229    8003.1911    836.88863    757.12095   -878.98529    -3809.422 
13009000    202.37299   -4960.9339   -4556.1629   -4960.9339            0    7502.0002    17.863153    22.890855    19.269856     7879.499    9443.9517    6504.2878    6557.7612    1124.5932    244.60227    8.4350312    -3694.075 
13010000    209.08619   -4983.7941   -4565.5959   -4983.7941            0    7753.2898    17.815844    23.100632    19.098053    7859.9423    6708.0609    6868.6526    9683.1559    154.12089    354.42177    645.22344   -3676.8426 
13011000    198.41796   -4979.1419   -4582.2814   -4979.1419            0    7673.8183      17.9433    22.970753    19.035088    7845.7132    7861.9784    6527.3896     8632.087   -368.21846   -190.77686   -1327.0789   -3704.2303 
13012000    202.36772   -4954.1068   -4549.3464   -4954.1068            0    6184.9807    18.044985    22.692888    19.361809    7928.5216    5316.4897     8085.135    5153.3172   -572.65942    1038.3307   -1104.8567   -3834.1811 
13013000    202.83476   -4952.3208   -4546.6262   -4952.3208            0     8899.764    17.965422     22.60383    19.344756    7855.6606    8948.0755    8942.2724     8808.944    1009.4874   -22.248386   -158.75361   -3527.0092 
13014000    185.30337   -4956.3749   -4585.7453   -4956.3749            0    6698.4029    18.006385    22.954641    19.107101    7897.5402    6110.0974     6497.967    7487.1442   -248.92293   -284.16317   -700.18396   -3814.2398 
13015000    200.37117   -4977.2505   -4576.4834   -4977.2505            0    6368.6941    17.853988    23.128899    19.110538    7891.5644    4989.6086    6226.8596    7889.6141    1228.8752   -660.73292    1398.9127   -3843.5081 
13016000    197.33429   -4967.1132   -4572.4202   -4967.1132            0    8092.7795    17.903077    22.736558    19.330896    7868.7252    8297.9043    7270.0865    8710.3477   -1501.0065   -204.05561   -717.61335   -3643.7148 
13017000    192.44965   -4966.3496   -4581.4265   -4966.3496            0    7659.7253    17.983232    22.689024    19.357831    7898.4203    7259.2666    8929.3118    6790.5975   -425.15477    531.11494   -2032.8143      -3699.1 
13018000    184.19969    -4960.506   -4592.0838    -4960.506            0    7219.6955     17.98483    22.627097    19.347409    7873.3217    5984.9353    8166.2222     7507.929   -596.48681   -231.24251   -1209.3815   -3763.0872 
13019000    198.30701   -4970.4044   -4573.7658   -4970.4044            0    9167.8321    17.900355    22.799714    19.138859    7811.0082     7827.948    9185.1346    10490.414    409.04437   -399.74542     307.7023   -3529.4073 
13020000    193.84504   -4971.6531   -4583.9391   -4971.6531            0    7241.2919    17.943874    22.957857    19.128149    7879.8963    6476.3315     6510.976    8736.5681    259.38892   -1919.3639     -433.794   -3751.7683 
13021000    191.05946   -4982.6624   -4600.5199   -4982.6624            0    8017.3698    17.886354    22.804749    19.279688    7864.0655    7238.3053    8820.8591    7992.9448   -1398.1695    523.20785   -432.92337   -3681.0131 
13022000    195.97918    -4972.288   -4580.3054    -4972.288            0    7475.7745    17.877707    22.832857     19.34041    7894.7384    8401.4713    6638.3852    7387.4671   -522.77579    92.882527    186.33865   -3719.5697 
13023000    188.84276   -4980.1224   -4602.4136   -4980.1224            0    8081.9103    17.968942     22.66039     19.29676    7857.3176    7943.9017    7872.3326    8429.4966   -349.00279   -643.88177    355.10456   -3676.3001 
13024000    206.73224   -4953.9343   -4540.4442   -4953.9343            0      8798.26    18.042208    22.663402    19.173402    7839.9619    8523.8806    9301.6845    8569.2151    374.11199   -17.235813   0.17768678   -3534.4705 
13025000     190.3261   -4938.8237    -4558.148   -4938.8237            0     6952.828    17.894991    22.887779    19.303957     7906.449    7795.4148    6836.8273     6226.242    762.98431    545.17625    1780.8301   -3756.4351 
13026000    203.79762   -4972.1203   -4564.4999   -4972.1203            0    7641.4205    17.823478    22.913383    19.267008    7868.5725    8760.0031    6061.5362    8102.7223    234.56423   -317.22559    1212.3064   -3687.6082 
13027000    204.45908   -4968.2303   -4559.2869   -4968.2303            0    7827.4783    17.887922    22.871023    19.281849    7888.4955    8148.2677    7100.0354    8234.1318    127.22682    337.19885   -264.41136   -3658.7699 
13028000     192.6191   -4981.2899   -4596.0279   -4981.2899            0    5446.4911    18.079687     22.60893    19.416776    7936.8477    5020.8698    5411.7797    5906.8239    -1964.843   -175.16588   -858.50532   -3965.5923 
13029000    200.06542   -4971.8147   -4571.6592   -4971.8147            0    9172.2091    17.921709     22.66317    19.292876    7836.0469    8773.0605    10703.961    8039.6056   -315.26207    968.01245   -357.48625   -3523.4526 
13030000    201.65451   -4960.7958   -4557.4619   -4960.7958            0    7587.8712    17.875714    23.009598    19.139505    7872.3271     6776.328    6583.0612    9404.2243    1048.3273   -697.19525    891.66298   -3686.2998 
13031000    201.33782   -4956.1945    -4553.494   -4956.1945            0    8798.2425    17.832115    22.993854    19.166505    7858.8237    8823.0009    8977.9696    8593.7569    2450.3974    829.77147    269.07651   -3545.1021 
13032000    196.16907   -4959.3985   -4567.0362   -4959.3985            0    8088.7838    17.903588     22.61884    19.485002    7890.6149     8463.353    8363.9059    7439.0924    200.74625      628.845    -508.3088    -3636.207 
13033000    199.68256   -4975.8226   -4576.4328   -4975.8226            0    7502.6396    17.937442    22.503915    19.511603    7876.1057    9197.7334    7700.8574     5609.328    266.42149   -34.030872    1631.2619   -3714.6427 
13034000    183.33645    -4964.241   -4597.5455    -4964.241            0    6822.8712    17.872988    22.994952    19.211168    7895.5693    8578.6676    6021.8856    5868.0604   -1248.5511    1672.3241   -271.68874   -3811.9002 
13035000    192.18296   -4995.1824   -4610.7928   -4995.1824            0    6411.5986    18.013186     22.97996    19.112057    7911.2884    4932.1408    6394.2713    7908.3837    181.85423    1363.3462    1645.6235   -3871.0352 
13036000    187.31608   -4974.3583    -4599.703   -4974.3583            0    7196.7605    18.120597    22.561547    19.295953    7888.7395    5071.0417    8619.2004    7900.0395    342.91459    918.17606    1696.4032   -3771.7217 
13037000    205.11766   -4985.4846    -4575.224   -4985.4846            0    6916.0242     17.95347    22.815738    19.263805     7890.872    8469.2272    6350.3072    5928.5383    626.24219    24.634652    1762.6295    -3779.326 
13038000    196.74968   -4977.5305   -4584.0068   -4977.5305            0    7322.7115    17.713964    23.201368    19.149976    7870.4136    7782.6226    6350.9408    7834.5712    569.12429    392.97859   -91.947763    -3743.492 
13039000     192.2491   -4969.9762   -4585.4542   -4969.9762            0    7031.3004    17.855702    22.837526    19.339249      7886.16    7677.7585    6525.5149    6890.6278   -637.09805    -187.1429    443.36569   -3776.7734 
13040000    200.27814   -4973.0272   -4572.4462   -4973.0272            0    8868.8619    18.000788    22.660862    19.225195     7842.214    7924.0215    9309.2551     9373.309    865.17138    408.74979    933.79421   -3558.1087 
13041000    195.30734   -4969.7307   -4579.0919   -4969.7307            0    6869.3883    18.236912    22.496366    19.281272    7910.4165    6675.6409    7743.6167    6188.9073   -730.58044   -421.45893    -1483.638   -3786.6028 
13042000    188.46074   -4957.3232   -4580.3785   -4957.3232            0    6521.0195    18.044046    22.758008    19.242671    7901.9365    5113.1608    7189.8022    7260.0955    641.66562   -523.03681    1065.7467   -3828.8855 
13043000     196.4004   -4956.9077   -4564.0826   -4956.9077            0    6838.1029    17.782195    23.005635    19.305172    7897.5659    7410.4954      6104.15    6999.6632   -520.95116   -762.54765   -322.46539   -3776.4843 
13044000    188.39295   -4980.9455   -4604.1364   -4980.9455            0     6749.736    17.725449    22.958758    19.378392    7886.1198    9234.6527    5822.1476    5192.4078    1025.9403   -433.04091    1233.2969   -3827.8427 
13045000    196.86124   -4998.9106   -4605.1638   -4998.9106            0     6197.234    17.947133    22.812452    19.289746    7897.5716    8481.9721    5516.1476    4593.5822    1516.0718    -919.2528    807.66569   -3891.3789 
13046000    192.77072    -4975.468   -4589.9027    -4975.468            0     8212.375    17.971608    22.755275    19.130005    7823.1939    6682.1023    9480.7574    8474.2653   -1117.7315   -282.62994    1674.2315   -3652.9261 
13047000    198.76403   -4975.9921   -4578.4395   -4975.9921            0    7668.9872    18.050835    22.963189     19.01271    7880.8585    5799.5702    7280.5097    9926.8815    1188.3823   -576.89757   -631.53306   -3697.0103 
13048000    189.03978   -4980.6081   -4602.5051   -4980.6081            0    6330.2692    18.010789    22.776204    19.317076     7924.201    5782.1215    6316.6197    6892.0663   -189.74527    407.44219   -242.81334   -3870.9391 
13049000    204.41378   -4974.4824   -4565.6295   -4974.4824            0    7493.5387    17.921359     22.68969    19.359169    7872.0201    6988.3649    8095.6701    7396.5811   -856.06056   -121.53586     107.7862   -3705.3313 
13050000     194.5364   -4992.0718    -4602.975   -4992.0718            0    5797.1426     17.96344    22.580648    19.545959    7928.3511    7689.1547    5379.8973    4322.3757   -78.789089   -572.29408    781.16257   -3932.6695 
13051000    203.94631   -4941.7854   -4533.8676   -4941.7854            0    6354.8742    17.998688    22.952636    19.229758    7944.1464    7462.3576    7105.1499    4497.1152    212.31246   -230.96165   -443.52742   -3797.6095 
13052000    192.09976   -4972.4682   -4588.2449   -4972.4682            0    9597.2274    17.883653    23.047948    18.950122    7810.8899    8548.1653    9116.0303    11127.487    334.38283   -582.57242    635.75989   -3494.9881 
13053000    192.73617   -4997.4493   -4611.9532   -4997.4493            0    7951.2847    17.877791    22.861976    19.272789    7877.2054     8067.567    7053.2892    8732.9979    918.67415   -994.21714    93.469634    -3698.502 
13054000    203.14172   -4968.2102   -4561.9017   -4968.2102            0    7189.6693    18.019017    22.859017     19.18522    7902.3349    8504.6437    5829.1794     7235.185   -507.74021   -328.86805   -88.255606   -3733.3107 
13055000    202.12579   -4967.0153   -4562.7387   -4967.0153            0     7844.995     18.08114    22.679261    19.136249     7847.142    7161.1476    8265.9693    8107.8681    650.95057   -238.00497   -513.86182   -3664.9377 
13056000    208.70088    -4968.568   -4551.1404    -4968.568            0    6543.1941    18.062551    22.753438    19.248998    7911.0519    5676.9164    6787.1455    7165.5203   -222.83477    254.38538   -176.49269   -3796.2222 
13057000    185.97595   -4987.9425   -4615.9676   -4987.9425            0    5833.2968    17.991989    22.964908    19.233689    7947.0594    5905.6729    4847.0088    6747.2087    380.06913    296.02346    201.97969   -3939.8902 
13058000     199.4065    -4980.152   -4581.3143    -4980.152            0    6890.1238    17.959798    22.974318    19.109895    7885.0123    6537.4613      6534.18    7598.7299    607.41796    499.52751    379.04148   -3788.9858 
13059000    196.27264   -4975.0811   -4582.5116   -4975.0811            0    7420.5137     17.85104    22.820931    19.302463    7863.3862    7334.4127    7978.3416     6948.787    -1461.262    1311.0039    667.68499   -3731.5314 
13060000     195.2508    -4970.816   -4580.2902    -4970.816            0       7590.4      18.0255    22.524255    19.346009    7854.6913    6210.7401    10120.643    6439.8165   -725.87453    162.54603   -3615.3142   -3710.7901 
13061000    203.26155   -4976.2892    -4569.741   -4976.2892            0    6077.5169    18.052605    22.696599    19.369913    7936.4874    5943.7933    6552.1416    5736.6158   -978.53322    568.02603   -775.27599   -3866.2956 
13062000     211.2679   -4962.0265   -4539.4646   -4962.0265            0    6936.6353    17.848201    23.068551     19.19571    7903.4909    6728.9027    7164.9389    6916.0643     264.8558    89.575341   -110.73115   -3739.9181 
13063000    210.13711   -4982.5386   -4562.2384   -4982.5386            0    6849.8148    17.845825    22.891744    19.355509    7907.1528    7621.5276     7183.075    5744.8419    891.70136    1425.0588    1203.0603   -3772.3335 
13064000    198.75178   -4983.4517   -4585.9235   -4983.4517            0     9090.219    17.837272    22.629252    19.407987    7833.9202    10549.017    8454.7425    8266.8973   -118.53623   -495.69826   -490.90317   -3547.3688 
13065000    200.31713   -4999.2384   -4598.5793   -4999.2384            0    6775.0649    17.908637    22.807861    19.309798    7887.2356    6023.5988    7118.7547    7182.8413    985.25107    74.928896    421.33071   -3819.2623 
13066000    202.34567   -4964.2325   -4559.5161   -4964.2325            0    5795.6348    17.946652    23.099153    19.169968    7946.9576    7052.0233     4752.759     5582.122     936.6385   -288.01757   -528.07979   -3887.8124 
13067000    194.26286   -4970.5717    -4582.022   -4970.5717            0    8219.7276    17.897418    22.741948    19.257676    7838.3007    9672.3547    7583.0089    7403.8192    770.27645    171.26765    283.47818   -3642.3955 
13068000    197.60908   -4978.0181   -4582.7756   -4978.0181            0    7646.3222    18.006808    22.705555    19.341464    7907.8458    7206.5208    8020.2237     7712.222    635.92308    191.47619   -728.58477   -3700.9419 
13069000    184.97174   -4975.2119   -4605.2456   -4975.2119            0    8439.2182    18.057984    22.679287    19.183965    7856.6431    8768.4729    8024.8912    8524.2906   -243.35326   -992.32461   -1889.7374   -3638.2709 
13070000    194.70511   -4970.2067   -4580.7724   -4970.2067            0    4035.5804    17.959446     22.80056    19.506286    7987.5399    4928.4408     4354.839    2823.4613    1323.8167   -689.76638   -26.171811   -4110.6673 
13071000    201.32931   -4980.7009   -4578.0174   -4980.7009            0    6651.3289    17.912757    22.824479    19.284654    7884.5181    7442.3953      6250.53    6261.0612   -117.10899   -618.15764   -677.66005    -3813.197 
13072000    211.60953   -4961.0047   -4537.7595   -4961.0047            0    8521.1036    17.911423    22.908788    19.203208    7879.6329     8051.354    8275.7879    9236.1689   -369.61379   -79.564139     444.2505   -3558.5452 
13073000    194.59097   -5002.3224   -4613.1165   -5002.3224            0    6306.7345    17.929523    23.007949    19.128781    7891.0341    6779.7876    5415.6386    6724.7772   -638.47096    1128.2354    686.65742   -3887.3208 
13074000    187.09926   -4988.4504   -4614.2288   -4988.4504            0    5907.2842    18.048548    22.797687    19.267957    7928.0931    6317.8386    4538.8363    6865.1776    140.77727   -596.85726    1702.1849   -3931.2102 
13075000    196.29447   -4975.7714   -4583.1582   -4975.7714            0    7676.0621    18.097294    22.652523    19.182927    7864.0288    8265.0095    7808.5285    6954.6483    676.15471   -350.68288    190.53006   -3702.7999 
13076000    205.44995   -4984.0415   -4573.1163   -4984.0415            0    7810.6193    17.916559    22.871067    19.218214    7875.0635    8627.5205    7568.8022     7235.535    552.46798   -247.83821    689.82907   -3676.0688 
13077000    189.26715   -5000.0131   -4621.4554   -5000.0131            0    6425.2168    17.812285    22.864294    19.391981    7897.6813    6653.3683    6581.1352    6041.1468   -599.94005    569.30812   -532.91088   -3881.4016 
13078000     204.8277   -4959.9522   -4550.2714   -4959.9522            0    7228.8799    17.681864    23.017053    19.401373    7896.0562    7714.9367    7134.8647    6836.8383    221.06026    300.49013    26.984562   -3717.8234 
13079000    201.21871   -4996.3055   -4593.8433   -4996.3055            0    6241.7448    17.745932    23.138624    19.206308    7886.4258    7708.0578    5738.8299    5278.3467   -436.39137   -1115.0157   -670.39852   -3875.9463 
13080000    202.01629    -4960.004   -4555.9465    -4960.004            0    7366.6456     17.89754      22.9315    19.218631    7887.6614     8363.703    5654.8848    8081.3489   -1117.2155   -1549.1836   -112.57434   -3708.5359 
13081000    206.67188   -4987.4854   -4574.1161   -4987.4854            0    6848.1864    18.006407    22.431555    19.481523    7868.8149    7269.8927    7653.7029    5620.9635   -340.15867   -874.38574    805.03313   -3788.2279 
13082000    192.30428   -4984.4635   -4599.8312   -4984.4635            0    8340.5555    17.996125    22.672569     19.27634    7865.1008    7884.6905    8448.1618    8688.8143    317.23893    200.24794    777.13916   -3643.1325 
13083000    197.60301   -4961.4566   -4566.2262   -4961.4566            0    7953.1502    17.864708    23.056731    19.091896    7863.9856    8369.3044    6393.3568    9096.7895    458.28313    196.16249   -41.290217    -3654.094 
13084000    202.26559   -4949.4052   -4544.8491   -4949.4052            0    7926.7595    17.957898    22.990546    19.078575    7876.8161    7344.9636    7213.6612    9221.6536    599.53503    213.35028    916.31732   -3634.2603 
13085000     189.7681   -4974.0571   -4594.4974   -4974.0571            0    7437.4964     17.97171    22.640438    19.340872    7869.5569    8029.5951    7909.5751    6373.3191    754.37809    645.24356      221.459   -3740.9003 
13086000    188.66543   -4969.0924   -4591.7382   -4969.0924            0    7609.0972    18.003964    22.626286    19.323176    7871.5437    6894.3752    7310.7483    8622.1682    992.49548   -301.75051     252.6359   -3718.2261 
13087000    191.70623   -4973.5044   -4590.0682   -4973.5044            0    7958.0116    17.868111      22.7999    19.259669    7846.2185    8027.6201    7989.4604    7856.9544    -325.0214    356.62499   -500.60421   -3679.4405 
13088000    191.21355   -4962.1089   -4579.6582   -4962.1089            0     6982.176    17.742431    23.127277    19.227625    7889.7508    8737.1011    6333.4408    5875.9861   -822.41389   -1347.7137    849.90769   -3776.2616 
13089000    188.51859   -4990.9371   -4613.8766   -4990.9371            0    9042.9692    17.864025    22.916869    19.131883     7832.354    9875.7124    7460.6556    9792.5396    961.38087   -762.70613    61.940106   -3580.9267 
13090000    184.49012   -4954.7245   -4585.7215   -4954.7245            0    7494.0006    18.004619    22.648899    19.305604    7872.5316    9191.1092    7375.7033    5915.1893   -594.37491   -697.45831   -305.71261   -3725.3143 
13091000    195.13097   -4982.1171   -4591.8311   -4982.1171            0    6619.7434    17.930556    22.719757    19.311219    7866.9635    7558.3265     6215.371    6085.5328    516.23101   -95.693984    1217.5957   -3832.3373 
13092000    196.22385   -4978.4213   -4585.9493   -4978.4213            0     7036.422    17.904454    22.898496    19.193395    7869.0051    7738.0866    6165.8784     7205.301    515.20082   -1029.4745   -120.65897   -3778.4399 
13093000    197.41149    -4947.754   -4552.9066    -4947.754            0    9783.1431    17.859525    23.000199    19.014779    7810.7505    8621.8932    10096.508    10631.029   -569.12937   -420.18691    462.88237   -3438.4913 
13094000     194.8844   -4974.5041   -4584.7113   -4974.5041            0    7224.2911    17.860027    23.011402    19.213812    7896.5748    7523.6803     6880.403    7268.7901   -1061.5575   -753.41027     198.9292    -3752.737 
13095000     185.6183   -4981.7437   -4610.4842   -4981.7437            0    6807.8689    17.829102    22.766352    19.399093    7874.1622    8329.7533     6359.402    5734.4515   -817.77443    423.45262    190.20518   -3828.6918 
13096000    192.08987   -4959.5226   -4575.3191   -4959.5226            0    7946.9259    17.795866    22.930553    19.277299     7866.469    7827.6829     8265.405    7747.6897    380.76279   -269.47729   -1137.0614    -3663.613 
13097000    204.12247   -4996.4108   -4588.1407   -4996.4108            0    7595.8739     17.92808     22.92072    19.131446    7861.5795     7375.421    7279.3824    8132.8182   -722.46134    1094.0988   -1514.3396   -3717.2504 
13098000    189.64797   -4966.2677   -4586.9483   -4966.2677            0    6935.5977    17.973115    22.921256    19.176739    7900.1717    6944.6132    6740.7683    7121.4116   -1093.6698    1021.8481    114.90571   -3787.8572 
13099000    196.25301   -4975.0381   -4582.5078   -4975.0381            0    7939.4616     17.92182     22.75406    19.293897    7867.9386      8025.69     7821.254    7971.4408      690.665   -826.51061   -238.65628   -3671.4878 
13100000      197.689   -4979.5082   -4584.1058   -4979.5082            0    7255.1963    17.949759    22.667392    19.313627     7858.217    7087.7356    7110.5624    7567.2911    1012.2641    244.87867    -692.3695    -3752.631 
13101000    193.34862   -5001.1447   -4614.4235   -5001.1447            0    7355.3024     18.03085    22.729399    19.195313    7866.8226     6549.566    7288.7791     8227.562    585.15512   -358.45711   -569.98446   -3770.5531 
13102000    193.72723   -4965.0286   -4577.5502   -4965.0286            0     7639.797    18.001322    22.727016    19.275722    7886.0125    7208.1539    8216.2437    7494.9934   -705.25002    70.787537   -137.95393   -3698.9017 
13103000    199.87626   -4959.5475   -4559.7703   -4959.5475            0     8047.818    17.890464    22.869254    19.219233    7863.3873    7722.7489    8898.3946    7522.3104    -1655.547    1039.2033   -884.00013    -3636.851 
13104000    196.90079   -4968.8222   -4574.9963   -4968.8222            0    6966.6025    17.878306     22.81443    19.308476    7875.6062    6541.7375    7632.7998    6725.2701    204.37124    1003.1882   -1000.0826   -3774.8288 
13105000    198.00621   -4948.1812   -4552.1443   -4948.1812            0    6786.1103    17.979923    22.906183    19.258403    7931.6007    7343.1183    7016.3563    5998.8561    269.63629   -663.75187    1132.5937    -3767.166 
13106000    188.46863   -4967.9437   -4590.9832   -4967.9437            0    9399.3844    18.025343    22.635748    19.105871    7795.5223    7189.3859    10079.202    10929.566   -906.55291    588.66523    -1956.359     -3522.37 
13107000    206.93015    -4992.907   -4579.0212    -4992.907            0    7034.8579    17.955921    22.801436    19.303748    7903.3558     6987.848    7213.1972    6903.5285    503.41619    141.53242   -116.81091    -3768.167 
13108000    199.85948   -4962.3803   -4562.6367   -4962.3803            0    8195.0995    17.783126    22.851807    19.336333    7857.8324    7272.9216    9309.6298     8002.747   -827.09271    839.62775   -1159.2738   -3623.4912 
13109000    191.07071   -4974.2334   -4592.0683   -4974.2334            0    7649.5582     17.85822    22.756759    19.374389     7873.659    8910.0019     8757.962    5280.7108    321.62486   -300.63829    395.84244   -3713.6754 
13110000    190.44025   -4940.7801    -4559.876   -4940.7801            0    9043.9339    17.836101    22.955841    19.169147    7848.6672    9189.6247    8659.1474    9283.0295    80.807982    182.94235   -1331.4648   -3524.6643 
13111000    205.94594   -4959.9744   -4548.0571   -4959.9744            0    6430.0296    17.992032    22.954989    19.133759    7902.3742    7464.0161    5565.8354    6260.2372   -716.66534   -756.34392   -508.79635   -3807.0089 
13112000    198.69661   -4977.8726   -4580.4548   -4977.8726            0    5579.0686    17.986193    22.934262    19.179924    7911.7198    5256.0029    5482.0553    5999.1475   -705.35184   -1961.5177    194.89882   -3936.7178 
13113000    194.77343   -4986.2135   -4596.6426   -4986.2135            0    7518.6044    17.983416    22.526906    19.453584    7880.8555    7406.7804    8042.4438     7106.589     302.1952    285.33289    1289.2013   -3732.4979 
13114000     205.1267   -4981.5575   -4571.2787   -4981.5575            0    6933.0247    17.981473    22.633673    19.392046    7892.3063    6917.3894    7149.8666    6731.8183    1365.4306    369.66169    296.76149   -3773.2793 
13115000    193.11354   -4962.7799    -4576.529   -4962.7799            0    8204.5709    17.775337    23.020689    19.198282    7855.9466    8974.0612    8194.2171    7445.4345    801.80783    1728.2774    1287.3156   -3636.5237 
13116000    187.76148   -4977.3592    -4601.813   -4977.3592            0    8102.7606    17.863918    22.929602    19.173132    7853.5548     9021.021    7627.8848    7659.3759    501.06341    802.53042   -1865.6627   -3673.7549 
13117000     182.0916   -4977.1288   -4612.9231   -4977.1288            0     6775.737    18.002237     22.74248    19.298217    7900.9896    7070.7112    6823.6927     6432.807    -122.6168   -262.30305   -1214.0652   -3832.1696 
13118000    193.42589   -4991.7158   -4604.8402   -4991.7158            0    6069.8279     17.83627    22.950739    19.325977    7911.1967    7258.6492     5833.009    5117.8256    896.09007    519.45684    788.58444   -3904.5235 
13119000    189.03766    -4979.797   -4601.6983    -4979.797            0    7432.1572    17.911269    22.814621    19.275975    7876.9118    7911.5344    6629.6711    7755.2661   -317.19773    44.678176   -480.60732   -3747.9168 
13120000    198.58025   -4986.9487   -4589.7637   -4986.9487            0    6467.2491    18.005318    22.783588    19.238765    7892.2368    7475.9929    6187.1514    5738.6031   -664.21851   -832.43733   -2376.8488   -3845.3822 
13121000    195.93225   -4986.3942   -4594.5055   -4986.3942            0    8329.1157    18.046434    22.575997    19.222304    7831.4789    7245.2077    8517.1949    9224.9444    657.39557    174.07872   -985.89962   -3643.2032 
13122000    195.22415   -4955.0282   -4564.5557   -4955.0282            0    5792.0129    18.005472    23.007914    19.181584     7946.323    6405.2372    4750.0096    6220.7918    2113.9439   -977.25401     210.3364   -3893.3253 
13123000    193.39663   -4966.5806   -4579.7634   -4966.5806            0    7257.3416    17.640489     23.21162    19.229508    7873.7976    7945.5532    7140.8373    6685.6343   -537.28509    594.38087    1450.6032   -3746.3938 
13124000    195.56601   -4962.1753   -4571.0191   -4962.1753            0     7942.637    17.894059    22.706033    19.375295    7872.2423    8706.7436    7792.8558    7328.3118    382.82148   -206.70574    663.67076   -3659.1362 
13125000    198.71435   -4958.2032     -4560.75   -4958.2032            0    7288.5459    18.028037    22.520013    19.508256    7920.1888    8338.0713    8354.3429    5173.2235    281.35653   -638.05627   -256.64176   -3718.8659 
13126000    200.99459   -5001.5597   -4599.5457   -5001.5597            0    5471.1073     18.02665     22.82859    19.222421    7910.4687    4788.7606    6198.8618    5425.6995   -1576.5525   -651.70492   -1311.0544   -3968.3656 
13127000    193.12482   -4977.1462   -4590.8727   -4977.1462            0    9073.2984    17.932764    22.861535    19.111605    7835.1944    8398.8437    9597.8347    9223.2169     22.79492   -464.91716    930.02735   -3554.0826 
13128000    184.82183   -4964.5261   -4594.8596   -4964.5261            0    7918.6557    17.877333    22.885899    19.250917    7876.2979     8166.111    7113.6214    8476.2348    843.27125    -1004.339    1106.7657   -3685.2616 
13129000    204.31657   -4958.1428   -4549.4844   -4958.1428            0    7670.7233    17.969148    22.670808     19.36479    7888.7333    6886.2046    7219.2969    8906.6684   -210.24381    238.40388   -2684.5005   -3666.9747 
13130000    182.40743   -4976.6201   -4611.7827   -4976.6201            0    7590.5809     18.05951    22.805054    19.158306    7890.3121    6858.0453    7301.7544     8611.943    671.70103   -113.34244   -158.01369   -3738.3185 
13131000    194.27033   -4997.0425   -4608.4778   -4997.0425            0    7091.5482    17.873267    23.027161    19.140629    7877.7199    7428.1658    6199.2249    7647.2541    310.55875   -196.84811    1559.6207   -3793.7407 
13132000    198.97658   -4957.9131   -4559.9353   -4957.9131            0    6611.5752    17.968959    22.727049    19.350485    7902.3784    5890.5001    7443.4376    6500.7879   -250.54114   -138.85412   -422.25457    -3797.964 
13133000      205.359    -4981.045   -4570.3016    -4981.045            0    7568.8158    17.959838    22.722448    19.335826    7890.7859    7844.4521    7136.3272     7725.668   -1849.3252    263.91627   -419.59653   -3699.2897 
13134000    190.88559   -4986.4978    -4604.703   -4986.4978            0    7156.2411    17.905112       22.708    19.400748    7888.1366    7804.5728    7171.4312    6492.7191    731.35755    482.73784   -603.12947   -3781.4463 
13135000    183.88081   -4961.7115   -4593.9272   -4961.7115            0     7276.773      17.9671    22.427759    19.551525    7878.5174    7213.7108    8576.5812     6040.027    1093.5006    679.61906    20.631345   -3757.8253 
13136000    205.15774   -4979.9697   -4569.6289   -4979.9697            0    8818.6686    17.934233    22.739005      19.2762     7860.962    7667.3575    10448.762    8339.8861   -260.86152    1252.6499    2308.2906   -3558.6208 
13137000    194.10306   -4983.9204   -4595.6903   -4983.9204            0     6653.827    17.934041    23.021584    19.155746    7908.8331     7122.965    6583.3366    6255.1794    -746.2845    566.56547   -211.06904   -3828.2232 
13138000    199.13797   -4980.6826    -4582.382   -4980.6826            0    7904.0922    17.734177    23.120555     19.16043    7856.2363    9268.5197    6474.9765    7968.7805   -644.08743   -926.32922   -791.98678   -3676.7695 
13139000    194.59728   -4993.0709   -4603.8523   -4993.0709            0    8256.1384    17.881188    22.784964    19.287683    7858.2309    8151.2002    8074.8686    8542.3464   -1594.0257   -512.35541    136.05058   -3657.6639 
13140000    195.24657   -4966.9717   -4576.4545   -4966.9717            0     5783.054    17.999976    22.715858    19.396765    7931.0447    4853.1754    6788.1994    5707.7871   -530.74815    336.75841    1052.5549   -3907.5509 
13141000    196.96677   -4989.0029    -4595.045   -4989.0029            0    6080.2278    18.028044    22.654895      19.3969    7922.1487    6622.4575    5963.7591    5654.4669   -562.14674   -890.63018    548.34376   -3892.5573 
13142000    197.60513   -4969.8935   -4574.6588   -4969.8935            0    8992.0352    18.009792    22.588041    19.207395     7813.682     9472.868    9210.3033    8292.9345    1110.3911   -548.56671    222.36357   -3549.9756 
13143000     199.6682   -4992.8318   -4593.4708   -4992.8318            0    6480.5713    17.885694    22.934794    19.205815    7878.3157    7140.1324    5854.2693    6447.3123   -330.76479   -523.46962   -713.97312   -3848.8716 
13144000    189.70253   -4961.8432   -4582.4147   -4961.8432            0    5535.6937    17.909631    22.960577    19.318903     7944.232    5501.7803    6201.3074    4903.9935   -1056.5374    139.73593   -534.93828   -3941.0577 
13145000    199.42865   -4973.5928   -4574.7109   -4973.5928            0    9092.6709    17.848467     23.01887    19.057397    7829.7611    10149.407    8484.7833    8643.8221   -1198.0948    141.10822    -778.7248   -3536.4276 
13146000    189.03687    -4970.138   -4592.0409    -4970.138            0    6909.1198    17.983246    22.763058     19.26741    7887.1852    6475.0294    6963.7742    7288.5556   -292.54239   -447.33473   -398.74488    -3797.309 
13147000    192.58444   -4991.4699   -4606.2773   -4991.4699            0       7333.7    18.049757    22.593957    19.326389    7881.5997     7683.337    7898.3341     6419.429    1072.0066   -78.654449    1827.2531   -3763.3048 
13148000    198.49545   -4987.1068   -4590.0913   -4987.1068            0    8126.3655    17.818104    22.758305    19.360622     7850.923    8676.4528    8050.5875    7652.0562    1590.6933   -1247.0878    342.11596   -3659.6415 
13149000    205.38602    -4974.332   -4563.5346    -4974.332            0    7027.3644    17.796466    22.985431    19.310189    7899.0149    7389.5605    7073.6655    6618.8671     317.4611    621.13934    -1121.029   -3753.9891 
13150000    194.37205   -4981.8584   -4593.0902   -4981.8584            0    6665.8106    17.887167     22.82236    19.293165    7875.9981    6884.2241    7196.9102    5916.2975   -1410.8285   -387.62079    -304.3748   -3827.4329 
13151000    207.44735   -4963.1488   -4548.2284   -4963.1488            0    6335.2327    18.055398    22.854411    19.202933    7924.0035    6047.6919    5569.2451     7388.761   -1655.4679   -1370.0982   -1594.8528    -3816.107 
13152000    190.02136   -4967.6248   -4587.5586   -4967.6248            0    6659.9757    18.086103    22.758657    19.217675    7910.2909    5085.3691    7451.0396    7443.5184    523.15641     402.2146   -475.09567   -3819.2406 
13153000    194.04474     -4959.54   -4571.4266     -4959.54            0    7289.5108    17.958141    22.848202     19.21208    7882.9321    6878.4387    8455.9331    6534.1607    1924.3542    778.45707    1274.5266   -3733.3918 
13154000    196.67541   -4975.3702   -4581.9951   -4975.3702            0    8468.6977    17.819929     22.85942    19.286825     7856.551    8582.2829     8073.773    8750.0373   -886.69695      408.428   -981.53774   -3611.6539 
13155000     192.2596   -4976.3418   -4591.7988   -4976.3418            0    8571.9047    17.775604    22.796051    19.306485    7823.2497     9551.899    9043.5175    7120.2976    409.08191    105.12007   -1714.4519   -3613.7953 
13156000    190.06925   -4992.9183   -4612.7563   -4992.9183            0     4819.612    18.025304    22.667717    19.481407    7959.9565    5933.9875    4454.7373    4070.1112    253.29373    -483.8745    374.10469   -4053.2581 
13157000    187.26836   -4951.8007   -4577.2408   -4951.8007            0    10315.705    18.019265    22.461822    19.265735    7797.7198    9810.2333    12052.487    9084.3932    -182.6466    351.10748    616.21027   -3404.1209 
13158000    178.80765   -4968.0637   -4610.4264   -4968.0637            0    6588.4226    18.040945     22.60205    19.370892    7898.7202    7134.9421    6986.0281    5644.2976    215.05374   -316.30699    24.934149   -3851.4748 
13159000    190.96141   -4979.0123   -4597.0659   -4979.0123            0    8279.2502     17.88927    22.884156    19.178962    7851.4999    7618.1617    8044.2396    9175.3493   -1386.8125   -200.00645   -2271.7049   -3649.0414 
13160000    197.48333   -4971.7684   -4576.7773   -4971.7684            0    6970.2362    17.760183    23.243538    19.144294    7902.9464    7106.9461    6287.6222    7516.1402    827.46155   -206.82773     2458.725   -3773.4132 
13161000    185.24664   -4968.9302    -4598.414   -4968.9302            0    8619.7521    18.029382     22.60289    19.234262     7838.272    7002.7583    10406.619    8449.8789   -105.41432    169.12327    976.46439   -3613.0629 
13162000     195.4812   -4963.5314   -4572.5448   -4963.5314            0    8630.8587    18.000492    22.683916    19.200154    7839.8385    7655.4537    8985.0257    9252.0966    681.23454    92.076033    380.18194   -3585.7269 
13163000    188.92318   -4961.2454   -4583.3757   -4961.2454            0    8105.6786     18.00033    22.643195    19.254504    7847.8464     8089.018    7614.2739    8613.7437   -337.23101    17.134693    760.04073   -3655.6582 
13164000     195.0532   -4990.8065    -4600.676   -4990.8065            0    6686.0753    18.133781    22.813385    19.115286    7907.8585     5055.611    6750.7668     8251.848   -1164.3903    1046.4987   -318.29079   -3829.5843 
13165000    195.52187   -4984.5037   -4593.4358   -4984.5037            0    7760.1209     18.00595    22.759506    19.180599    7860.3345    8125.8948    7613.5443    7540.9237   -1144.6343    421.61241    384.62801    -3703.855 
13166000    206.47317   -4963.7674   -4550.7956   -4963.7674            0    7148.4654     17.92391    22.896798    19.258404    7903.6517    7123.4799    7664.4129    6657.5035    584.62916    1020.3504    808.61589   -3726.8159 
13167000    191.42922   -4971.0453   -4588.1632   -4971.0453            0    6912.0965    17.825138    22.962731    19.229755    7871.0051    8509.4605    6239.6539    5987.1753    600.48651    464.36248   -376.34082     -3794.72 
13168000     196.5735   -4949.0206   -4555.8493   -4949.0206            0    10225.876    17.938354    22.726069    19.115932    7792.9588    6696.3979    11885.198    12096.033    202.43623    781.10603     1748.184   -3393.6548 
13169000    203.59134   -4960.7203   -4553.5125   -4960.7203            0    8046.6994    17.991335     22.73969    19.207993    7858.3238    8622.8392    7153.2999     8363.959    879.22464    -9.320932   -449.56378   -3631.3158 
13170000    196.63551   -4972.9933    -4579.698   -4972.9933            0    6914.9217    17.884585    22.936683    19.246714    7895.2537    6006.2414    8114.3691    6624.1546   -1669.5788    1029.3246    319.35714   -3783.4851 
13171000    194.36655   -4952.7599   -4564.0028   -4952.7599            0    8904.0311    17.741289    22.791611    19.382433    7837.3364    10598.235    8093.3246    8020.5339   -603.57373    -439.2623   -1000.8931   -3546.2764 
13172000    198.96047   -4997.2671   -4599.3216   -4997.2671            0    6238.7255    17.990562    22.616641    19.408472    7897.0375    7094.5247    7097.8017    4523.8501     566.4811    63.731888    1525.8478   -3880.8064 
13173000    195.58681   -4990.8902   -4599.6925   -4990.8902            0    8212.0024    18.042678    22.547663    19.302563    7852.6731    8942.3909    7690.0937    8003.5226    166.43395    308.24194    1476.2192   -3659.2278 
13174000    202.88848   -4987.6638   -4581.8617   -4987.6638            0    10206.324    18.035848    22.751001    18.992365    7793.2056    8665.0143    10316.171    11637.787     746.5647    777.91981    188.12763   -3421.8527 
13175000    196.18117   -4984.8443   -4592.4577   -4984.8443            0    7922.1058    17.936564    22.778676     19.21475    7850.5928    7836.2331    8270.0915    7659.9928   -168.46858    792.99059   -1408.1745   -3685.4333 
13176000    190.66182   -4969.7153   -4588.3681   -4969.7153            0    6470.5299    17.908848     22.96752    19.165424    7883.1572    7137.4722    6076.6681    6197.4493   -1305.0711    808.07025    636.44222   -3844.4657 
13177000    210.25332   -4988.0472   -4567.5146   -4988.0472            0     6644.278    17.919465    22.888062    19.238231    7890.4034    6600.3933    7389.8155    5942.6251     847.7971     500.5339   -505.03814   -3802.9347 
13178000    201.57946   -4979.8999   -4576.7161   -4979.8999            0    6082.4035    17.906885    22.882716    19.294962    7906.2683     7244.681    5824.4517    5178.0778    1971.1036    1042.7692   -1255.2411   -3875.3857 
13179000    199.05966   -4970.2463   -4572.1023   -4970.2463            0    6734.1559    18.094797    22.681295    19.292702     7917.984    4901.4793    7717.6789    7583.3096    -50.03965    395.74622   -1601.8278   -3794.4711 
13180000    198.56793    -4973.821   -4576.6606    -4973.821            0    6073.7709    18.195894    22.478583    19.350007    7914.4998    4987.9194    7318.4658    5914.9274   -229.08142   -61.197997    407.74002   -3875.5964 
13181000    197.10546   -4988.6119   -4594.3766   -4988.6119            0    8844.8401    17.929946    22.776848    19.174608    7830.6732    10081.885    7859.7245    8592.9109   -59.533087   -365.88839    70.615566   -3584.2752 
13182000    200.14371   -4982.9579   -4582.6457   -4982.9579            0    6837.0714     17.76513    23.262681    19.079606    7884.9248    9011.9744    5048.2428    6450.9969   -565.36694   -384.23112   -1437.0682   -3796.4267 
13183000    187.82976   -4977.8955   -4602.2128   -4977.8955            0    7177.7071    18.000173    22.915434    19.128098    7889.9917    6155.2483    6673.0676    8704.8054   -507.00531   -982.87953    122.35339   -3776.2925 
13184000    190.27454   -4987.9428   -4607.3702   -4987.9428            0     7648.595    18.044809     22.49001    19.350016     7852.777    6456.7528    8004.9224    8484.1098   -226.98721    327.53295   -322.33222   -3731.4171 
13185000    206.96042   -4969.2122   -4555.2658   -4969.2122            0    9785.6322    17.937755    22.566384    19.316454    7819.1128    9383.7049    10517.337    9455.8552    1427.7422    338.07929    31.166143   -3439.3735 
13186000    203.02688   -4984.6917   -4578.6129   -4984.6917            0    6600.7449    18.083757    22.773288    19.224537     7917.176    5303.2009     6951.915    7547.1188   -1633.0944   -426.88089    -368.3027   -3816.4652 
13187000    192.10716   -4976.2445   -4592.0065   -4976.2445            0    8212.5956    17.936064    22.906861    19.114515    7853.3691    9378.6372    7395.4349    7863.7148    14.855504   -559.23021   -1600.9563   -3651.3905 
13188000    204.33101   -4981.6685   -4572.9812   -4981.6685            0    6469.7565    17.979851     23.00201     19.13781     7914.876    5876.1289    6423.2328    7109.9076    1649.5291    750.70831   -494.95286    -3826.175 
13189000    192.22733   -4991.2045   -4606.7261   -4991.2045            0    7121.8152    17.887816    22.888518    19.279341    7893.4554    6633.5344    7227.3085    7504.6028    766.70225   -56.030718    873.01172   -3786.8773 
13190000    204.20287   -4952.6778   -4544.2468   -4952.6778            0    7291.5549    17.718369    22.802048    19.529722    7890.3027    9825.9683    7961.3262    4087.3702    888.34926    56.608038    80.412936   -3705.1932 
13191000    205.35135   -4985.6651    -4574.937   -4985.6651            0    6370.5435    18.016695    22.601321    19.439533    7915.7993    6857.9276    6458.6903    5795.0125   -2211.1281   -14.786081   -2413.0681   -3839.4972 
13192000    200.17614   -4974.8567   -4574.4797   -4974.8567            0    6527.9741    18.109284    22.630211    19.253267    7890.3146    7524.0948    6228.2454    5831.5821   -91.976585   -503.05178    -3.073696   -3823.2918 
13193000     193.4842   -4979.1025   -4592.1102   -4979.1025            0    6609.9377    18.020173    22.934848    19.153988    7916.1502    7663.9685    5912.8867    6252.9579   -555.76099    67.034442   -736.65702        -3829 
13194000    194.22682   -4966.1795   -4577.7018   -4966.1795            0    7279.6866    17.784539    23.033762    19.228669    7876.9249     6072.674    7592.7924    8173.5935   -388.93307    342.85662     -559.676   -3741.4342 
13195000    194.39225   -4968.5057   -4579.6972   -4968.5057            0     7711.848    17.857543    23.014575    19.213921    7896.6093    8571.2249     7728.567     6835.752   -986.58003    1045.9281   -51.018412   -3691.5704 
13196000    189.53411   -4975.3183   -4596.2267   -4975.3183            0    6133.0408    18.075536    22.699167    19.300409    7918.9504    4701.1334    6674.1768    7023.8122   -485.24597    89.263727    1299.0346   -3887.9232 
13197000    205.42628   -4987.5253   -4576.6474   -4987.5253            0     6741.104    18.059107     22.69584    19.274272    7899.8806    6746.0383    6413.0815    7064.1921    363.36797   -219.90451    348.74471   -3799.9936 
13198000    195.41782   -4972.6928   -4581.8331   -4972.6928            0       7334.7    17.886699    22.816077    19.321708    7885.2722     7236.952    7444.6566    7322.4915   -1054.5508    294.44955   -542.31143   -3738.3528 
13199000    207.42746   -4970.1697   -4555.2891   -4970.1697            0    9225.2124    17.913718    22.812332    19.135897    7819.9545    9800.5546    7664.8176    10210.265   -1721.9315   -1004.0022   -1854.3943   -3503.1904 
13200000    198.55959   -4988.1105   -4590.9668   -4988.1105            0    6283.6298    17.937032    22.745059     19.33482    7888.1979    6972.3408    5941.7873    5936.7612   -23.470648    -1478.422   -1112.2424     -3868.09 
13201000    197.18571   -4974.1993   -4579.8035   -4974.1993            0    7042.4334    17.892779    22.735391    19.390994    7888.2432    7204.3048    7336.6389    6586.3564   -153.67169    327.23302    1665.9435   -3769.6283 
13202000    199.12549   -4979.1769   -4580.9014   -4979.1769            0    8020.8659    17.869664    22.890716    19.197189    7852.5988    8735.4113    7748.5058    7578.6806   -1140.3979   -1228.2855    533.32748    -3662.335 
13203000    190.08114   -4988.5345   -4608.3487   -4988.5345            0     7508.795    17.990887    22.815849    19.195213    7879.2002    5837.6033    7794.5643    8894.2173    667.30857    351.16703   -507.34475   -3745.5127 
13204000    184.98342   -4982.5164   -4612.5267   -4982.5164            0    6809.4252    18.083888    22.759341    19.106553    7863.8246    5624.7132     7364.517    7439.0456    1098.1725   -1338.4111    1328.0358   -3831.5823 
13205000    195.51188   -4996.8858   -4605.8379   -4996.8858            0    7241.6362    17.921869    22.863859    19.199787    7867.3639    7571.1613    6906.3835    7247.3639    450.39206    42.282244   -503.18819   -3774.9511 
13206000    196.02931   -4988.7503   -4596.6675   -4988.7503            0     6662.686    17.883925     22.73782    19.409914    7892.8758    6284.1316    7549.8869    6154.0396    677.42447    286.68723    231.81438    -3829.729 
13207000    197.24114   -4976.7915   -4582.2848   -4976.7915            0    7840.8721    17.980576    22.799934    19.206039    7873.6301    7868.8711    7830.6233    7823.1218    499.03726   -311.08372   -300.06974   -3681.9268 
13208000    196.99565   -4964.0803   -4570.0647   -4964.0803            0    6980.6291      18.0929    22.823202     19.08198    7879.6726    5668.7397    6525.7688    8747.3789   -99.276949    1272.3294   -33.491435   -3767.8721 
13209000    199.59876    -4982.759   -4583.5368    -4982.759            0    5934.7827     18.02308    22.899218    19.216687    7931.0042     5702.106     6133.827    5968.4152    -416.4928    788.94414   -2464.5482   -3897.0868 
13210000    193.80938   -4962.8764   -4575.2337   -4962.8764            0    6842.6431    17.968173    22.886081    19.261655    7920.7981    4866.1661    7308.7408    8353.0223    288.36652      1752.05    2064.6822    -3784.794 
13211000    194.83849   -4969.9975   -4580.2964   -4969.9975            0    7211.4248    17.932499    22.685338    19.421358    7900.7017    6973.4852    7469.2455    7191.5437   -781.04048    1411.5835    40.654735   -3749.3699 
13212000     191.4908   -4970.3674   -4587.3622   -4970.3674            0    7363.1224    17.907675    22.840771    19.352346    7915.5957    7914.5621    7103.4236    7071.3816    1081.8542    551.90288   -1616.7481   -3737.3571 
13213000    191.55802   -4962.5831   -4579.4434   -4962.5831            0    8378.7351    17.938048    22.764893    19.244388    7858.5949    8376.7616    8522.9609    8236.4827    1387.2647     1062.972   -501.64795   -3619.1604 
13214000    198.02057   -4985.3537   -4589.2881   -4985.3537            0    7188.7824    17.961087    22.908367    19.168835     7887.193     8780.902    5701.6144     7083.831    394.39241    -888.1141    1046.7391   -3762.3867 
13215000    186.99169   -4986.2224   -4612.2159   -4986.2224            0    8941.2277    17.775049     22.94488    19.154358    7812.0353    9898.5449    8808.5068    8116.6315   -303.46782     589.9702    933.35924   -3593.5372 
13216000    192.07091   -4966.4628   -4582.2973   -4966.4628            0    8831.5987    17.711352    22.905381     19.32729    7840.7968    10580.406    8929.5099    6984.8799   -705.72105    882.24181    555.37783   -3572.4042 
13217000    191.19585   -4990.5029   -4608.0876   -4990.5029            0    8569.8526    17.701356    22.865745    19.394948    7850.1961    9132.2658    9196.4948    7380.7971   -1220.5243    42.108757   -1265.1278   -3626.9504 
13218000    203.11242   -4972.0177   -4565.7678   -4972.0177            0    8238.9313    17.950835    22.702437    19.259871    7848.9308    8298.4285    8765.1966    7653.1688   -737.07269   -870.37965    -2568.279   -3622.6688 
13219000    194.87542   -4982.3985   -4592.6236   -4982.3985            0    5827.4258    17.961097     22.82411    19.293634    7909.3489    5263.3894    6066.9774    6151.9106   -792.72792   -1032.6854     308.5291   -3920.4315 
13220000    199.31108   -5005.6394   -4606.9926   -5005.6394            0     6728.005    17.871935    22.933956    19.222684    7878.8817    7483.4624    6479.3401    6221.2124     267.6605   -308.40603    2401.2161   -3833.9084 
13221000    196.30853   -4987.1819   -4594.5406   -4987.1819            0    5983.6775    17.936775    22.878394    19.378558    7952.2746    6953.3565    4693.3549    6304.3211   -1133.8026   -1272.4546    -752.7584    -3900.579 
13222000    191.70059   -4992.8194   -4609.3946   -4992.8194            0     7884.229      18.0509    22.770123    19.147088    7869.8594    7230.0348     8029.383    8393.2691   -250.25293   -131.32746   -1319.0013   -3704.4914 
13223000       183.38   -4979.4864   -4612.7037   -4979.4864            0    7328.5798    18.044583    22.876313    19.088388    7879.5628    5481.6867    7192.8096    9311.2431   -449.89654     842.2381    422.63235   -3770.5375 
13224000    196.22538   -4982.5741    -4590.099   -4982.5741            0    6327.3513    18.002178    22.750071    19.274116    7893.7301    4454.5107    7903.9125    6623.6305   -916.19136    -143.2129   -233.60695    -3861.682 
13225000    194.56983   -4988.5456   -4599.3819   -4988.5456            0    6173.8272    17.947064    22.890591    19.230857    7900.3999    6306.4099    6114.1993    6100.8722   -1688.3702   -357.94546    603.89888   -3888.0383 
13226000    189.81088   -4967.2672    -4587.622   -4967.2672            0    8334.0468     17.86539    22.911384    19.213451    7864.4655    8493.6836    7427.7114    9080.7453    138.13921   -814.16105   -1036.3766   -3631.7471 
13227000    209.37533   -4953.1729   -4534.3964   -4953.1729            0    7401.5237    17.863017    22.826481    19.323055    7878.9719    7443.2695    7424.6727    7336.6289    424.43931   -386.05375    1578.6935   -3683.9115 
13228000     193.8674   -4953.7444   -4565.9856   -4953.7444            0    7800.3933    17.995404    22.794045    19.229291    7887.6251    9190.5563    7158.2905     7052.333    277.79622   -1311.5546   -487.33692   -3668.6836 
13229000    196.47182   -4964.0343   -4571.0664   -4964.0343            0    6688.1005    18.114669    22.755265    19.218649    7922.0055    5116.0931    7162.1931    7786.0154   -554.30185   -735.71296   -1873.4311   -3798.3612 
13230000    214.23514   -4971.4288   -4542.9321   -4971.4288            0    8201.0674    18.142224    22.469493    19.245604    7845.4042    8114.2969    8266.7505    8222.1548   -1794.1019   -1258.1133   -1080.3861   -3604.5891 
13231000    202.54108   -4967.0802    -4561.973   -4967.0802            0    8462.3448    18.016231    22.618466    19.260401    7848.6036    9503.6731    7998.6621    7884.6993    420.65916   -604.70891   -656.83693   -3593.3406 
13232000    201.03407   -4989.0668   -4586.9738   -4989.0668            0    7183.6635    17.945205    23.043817    19.105852    7900.7668    7011.7929    6612.5819    7926.6157   -596.23802    541.04058     272.6548   -3759.2392 
13233000    199.45704   -4993.2811   -4594.3424   -4993.2811            0      7072.46    17.840405    23.058708    19.128415    7868.9845     6189.505    6631.1353    8396.7397    1574.0417   -318.00381    2070.5365   -3782.6993 
13234000    199.49841   -4966.7752   -4567.7537   -4966.7752            0    7953.8175    17.907464      22.9268    19.230756    7895.3955    7351.4499    8157.7604    8352.2423    1162.8562    454.59212   -795.01888   -3651.9015 
13235000    189.26058   -4978.5564   -4600.0118   -4978.5564            0    8201.9881      18.1554    22.609965    19.177324    7872.1563    6914.5822     8848.806    8842.5762    -504.6135   -45.056275   -1881.3945   -3658.3635 
13236000    192.63493   -4981.1325   -4595.8388   -4981.1325            0    7719.0776    17.964508    22.667082    19.345823    7877.6771    7405.2773    8150.0048    7601.9507    209.38507    287.23076   -681.33038   -3709.0107 
13237000    196.18632   -4986.7449    -4594.348   -4986.7449            0    6961.1195    17.824911    22.829135    19.395252    7892.4576    6838.5442    7179.1007    6865.7134   -951.11877    923.65019   -163.93233   -3793.0995 
13238000    199.95942   -4968.4946    -4568.551   -4968.4946            0    6414.7635    17.883294    23.077072    19.189042     7919.204    7842.9213    5486.9056    5914.4635    736.70748   -526.70456   -159.64707   -3827.6878 
13239000    197.07715   -4969.9012   -4575.7225   -4969.9012            0    8519.0521    17.998987    22.735596    19.184155    7850.4956    8256.1037    8249.8146    9051.2381   -161.47338    -84.78961   -589.42917   -3600.3641 
13240000    200.28991     -4970.58   -4569.9755     -4970.58            0    7600.0112    18.159014    22.466521    19.291466    7870.3368    5137.6897    9320.7556    8341.5882    1672.7946    29.366036    1356.3986   -3697.6402 
13241000    195.23817   -4991.9123   -4601.4118   -4991.9123            0    7224.1567    17.996755     22.67176    19.293259    7871.9991    6918.7856    7222.9153    7530.7692    1466.0631   -689.16852    1452.9691   -3772.0423 
13242000    196.94328   -4993.3446   -4599.4337   -4993.3446            0    5998.0964     17.94036    22.868222    19.303128    7919.3813    7361.2435    5063.6644    5569.3812    737.15817    25.552644    518.13371   -3906.6772 
13243000    208.32853   -4977.8492   -4561.1664   -4977.8492            0    6502.6435    17.931156    22.805509    19.317541    7899.5053    7797.9183    5904.6204     5805.392   -1122.7352   -1004.0249   -2719.2336   -3812.0216 
13244000    198.29937   -4972.5842   -4575.9609   -4972.5842            0    6664.5504    17.911071    22.745882    19.471777    7932.8624    7450.7494    7664.9327    4877.9692   -14.403699   -155.40379    153.69646   -3804.9213 
13245000    206.47974   -4968.8755   -4555.8905   -4968.8755            0    6956.0795    17.941869    22.780545    19.352183    7909.7318    6556.5964    7227.8123    7083.8296   -82.564523   -246.44469   -920.02206   -3753.4697 
13246000    193.76071   -4978.8265   -4591.2812   -4978.8265            0    6061.1611     18.13982     22.73731    19.275137    7950.0438    4798.9773    7065.9231    6318.5828   -1217.1025   -510.19762   -278.76873   -3888.5306 
13247000    201.46818   -4981.4072   -4578.4459   -4981.4072            0    8809.9524    18.039181    22.669807    19.124033    7820.6733    8722.2339    8525.7515    9181.8718    233.16751   -1541.2464    172.57766   -3573.6136 
13248000    201.25622   -4970.6901   -4568.1528   -4970.6901            0    6356.3397    17.983509    22.777397    19.312659    7910.8034    6828.3185    5746.3313    6494.3694    330.75841   -321.47392   -1000.5231   -3834.8158 
13249000    201.54295   -4999.2738    -4596.163   -4999.2738            0    5671.5618    17.805182     22.91327    19.377464    7905.5201    5874.2536    5605.8398    5534.5921    222.54939   -46.042233     712.8943   -3942.2665 
13250000     201.5303   -4960.6168   -4557.5313   -4960.6168            0    7901.5266    17.922108    22.781913    19.383024    7914.0871    7255.1333    8198.0861    8251.3604   -388.83325    622.35079   -452.37919   -3645.5463 
Loop time of 432.269 on 64 procs for 250000 steps with 1008 atoms

Performance: 99.938 ns/day, 0.240 hours/ns, 578.343 timesteps/s
195.1% CPU use with 32 MPI tasks x 2 OpenMP threads

MPI task timing breakdown:
Section |  min time  |  avg time  |  max time  |%varavg| %total
---------------------------------------------------------------
Pair    | 38.235     | 40.867     | 50.742     |  35.6 |  9.45
Bond    | 1.0365     | 1.2932     | 2.1006     |  17.0 |  0.30
Kspace  | 207.23     | 217.01     | 221.36     |  18.1 | 50.20
Neigh   | 2.2403     | 2.3405     | 2.4723     |   3.9 |  0.54
Comm    | 69.164     | 72.478     | 76.419     |  18.9 | 16.77
Output  | 0.45751    | 0.4578     | 0.45937    |   0.0 |  0.11
Modify  | 84.017     | 85.352     | 88.978     |  10.4 | 19.75
Other   |            | 12.47      |            |       |  2.88

Nlocal:        31.5000 ave          36 max          27 min
Histogram: 2 1 4 6 5 2 3 4 4 1
Nghost:        2916.66 ave        2939 max        2891 min
Histogram: 1 1 3 4 6 2 7 5 2 1
Neighs:        10559.1 ave       12138 max        9021 min
Histogram: 2 1 4 6 5 2 3 4 4 1

Total # of neighbors = 337891
Ave neighs/atom = 335.20933
Ave special neighs/atom = 2.0000000
Neighbor list builds = 5632
Dangerous builds = 0

unfix		3
unfix		2
unfix		1

write_data	data.final.${pid}
write_data	data.final.0
System init for write_data ...
PPPM initialization ...
  extracting TIP4P info from pair style
  using 12-bit tables for long-range coulomb (../kspace.cpp:340)
  G vector (1/distance) = 0.38041648
  grid = 24 27 36
  stencil order = 5
  estimated absolute RMS force accuracy = 0.0023018883
  estimated relative force accuracy = 6.9320683e-06
  using double precision FFTW3
  3d grid and FFT values/proc = 5670 1296
Last active /omp style is kspace_style pppm/tip4p/omp
WARNING: Not all mixed pair coeffs generated from mixing. Use write_data with 'pair ij' option to store all pair coeffs. (../write_data.cpp:312)

write_restart   restart.lmp.${pid}
write_restart   restart.lmp.0
System init for write_restart ...
PPPM initialization ...
  extracting TIP4P info from pair style
  using 12-bit tables for long-range coulomb (../kspace.cpp:340)
  G vector (1/distance) = 0.38041648
  grid = 24 27 36
  stencil order = 5
  estimated absolute RMS force accuracy = 0.0023018883
  estimated relative force accuracy = 6.9320683e-06
  using double precision FFTW3
  3d grid and FFT values/proc = 5670 1296
Last active /omp style is kspace_style pppm/tip4p/omp
Total wall time: 0:07:12
