LAMMPS data file via write_data, version 30 Jul 2021, timestep = 31750000

864 atoms
2 atom types
576 bonds
1 bond types
288 angles
1 angle types

0.6325043282267124 17.575068071771103 xlo xhi
1.836537821680274 21.792639978321173 ylo yhi
0.7716538030775375 21.441541996911628 zlo zhi

Masses

1 1.00794
2 15.9994

Pair Coeffs # lj/cut/tip4p/long/omp

1 0 0
2 0.21084 3.1668

Bond Coeffs # harmonic/omp

1 450 0.9572

Angle Coeffs # harmonic/omp

1 55 104.52

Atoms # full

30 1 1 0.5897 0.920801628543378 2.6198183660244374 5.782916913359009 -4 2 6
635 1 1 0.5897 7.242217050218304 2.4018661338284826 1.7324770746426035 -3 2 2
803 1 1 0.5897 3.7088752029125907 4.3114392787706635 3.492200772118711 5 2 -2
545 1 1 0.5897 5.769696261290095 6.64292983293628 1.2053966272479988 -5 9 5
161 1 1 0.5897 3.6377211813612393 2.6752963290320286 4.6785506355973006 5 4 1
580 1 2 -1.1794 0.6718529423420864 2.2200854017229164 4.0595894510043795 3 3 5
128 1 1 0.5897 7.220451845582328 6.250212416983096 3.2249933189792404 -5 2 -8
636 1 1 0.5897 7.434565763201744 3.854247010415262 1.3511285336033518 -3 2 2
162 1 1 0.5897 4.772497652173005 3.6350992373629594 4.966469444369981 5 4 1
515 1 1 0.5897 6.828958726933777 2.942528680274158 5.048569814830115 -4 -2 4
808 1 2 -1.1794 1.3885008281411484 6.71493213235789 4.935966999588256 3 -4 -1
516 1 1 0.5897 6.565472440142818 3.405658254168962 3.6315643491624385 -4 -2 4
127 1 2 -1.1794 7.71826238914715 6.139386567176114 4.034999440095887 -5 2 -8
160 1 2 -1.1794 3.8205356887812045 3.550713097867077 5.019779324403471 5 4 1
129 1 1 0.5897 7.346000486375168 5.3561633425962185 4.440183460137925 -5 2 -8
634 1 2 -1.1794 6.8709865030272 3.274382841382227 1.8633048235329963 -3 2 2
810 1 1 0.5897 0.7280502947552507 6.153126060000577 4.53052705199215 3 -4 -1
544 1 2 -1.1794 6.580863317564156 6.590329522554022 1.7108322848078894 -5 9 5
261 1 1 0.5897 5.015685519143402 6.763751149023862 5.06333791094132 7 -1 8
514 1 2 -1.1794 6.4460746095344765 3.661664793397155 4.546117030166515 -4 -2 4
346 1 2 -1.1794 0.914614296133041 5.046080421649814 2.572951286280269 -2 0 -5
348 1 1 0.5897 1.8112618984559248 4.9964274811712635 2.2416697505908108 -2 0 -5
260 1 1 0.5897 4.519598309500798 6.167469474938272 3.7632903958919517 7 -1 8
802 1 2 -1.1794 3.777963490637834 4.82724543908395 2.6888592347156277 5 2 -2
804 1 1 0.5897 3.9445486127806855 4.181248180172702 2.0024748578578087 5 2 -2
809 1 1 0.5897 2.2206998332223 6.4002005501891475 4.583004712051667 3 -4 -1
582 1 1 0.5897 0.7105638326175807 2.9383341971277965 3.4280631800902652 3 3 5
546 1 1 0.5897 7.249260809571864 6.3534709014961805 1.0679259290502126 -5 9 5
242 1 1 0.5897 6.195296393209226 6.580132624763857 10.040712105706845 3 -2 5
180 1 1 0.5897 2.350182332079039 5.859344675363489 10.735742989814067 -17 0 -6
706 1 2 -1.1794 5.265685752829168 4.950504892220876 9.895690767213777 -4 -3 -6
328 1 2 -1.1794 3.965086333466893 2.222904341291894 9.0707906101889 0 8 -3
565 1 2 -1.1794 6.458152110524502 3.7544206163966707 7.7010309224689175 -3 3 -8
708 1 1 0.5897 5.6173622101986345 4.516069718637915 10.672724783390482 -4 -3 -6
724 1 2 -1.1794 3.2433576721108057 4.49957389740071 7.672352646141192 9 -3 -1
859 1 2 -1.1794 5.975658290516414 6.220722208515175 6.6157405608310755 -5 0 5
329 1 1 0.5897 3.1642624046300822 1.8690833109887943 9.457668154424908 0 8 -3
586 1 2 -1.1794 8.760890318032809 4.3199056874625255 9.869342535973898 0 4 1
861 1 1 0.5897 5.329198238284055 6.51808407828133 7.255941297882297 -5 0 5
330 1 1 0.5897 3.6933697434545425 3.0483263553128435 8.669502810084103 0 8 -3
567 1 1 0.5897 7.350790213510288 3.706418737470951 8.043227981965188 -3 3 -8
566 1 1 0.5897 5.93396716088343 4.062484869658572 8.440321431529288 -3 3 -8
725 1 1 0.5897 3.307769783852678 4.3415454208135404 6.730505696986208 9 -3 -1
726 1 1 0.5897 2.3065390379076716 4.6122797212852715 7.833234983076818 9 -3 -1
860 1 1 0.5897 6.162393936886816 5.315848058855012 6.865791310829631 -5 0 5
707 1 1 0.5897 4.335689993054473 5.07024095754501 10.087934299622013 -4 -3 -6
386 1 1 0.5897 9.002194730149546 2.64168864774092 9.137979036980918 -9 6 2
179 1 1 0.5897 1.799945790937814 4.57613132147315 10.150601477149069 -17 0 -6
587 1 1 0.5897 8.474080916801054 4.477309514402215 10.768870839760192 0 4 1
178 1 2 -1.1794 2.4591780356539736 4.908694761114267 10.759701423498559 -17 0 -6
28 1 2 -1.1794 0.9229512413995111 2.5286102098127277 6.735732653036289 -4 2 6
579 1 1 0.5897 6.143230778298171 2.066098648928876 6.721538888554952 4 5 -2
588 1 1 0.5897 9.003307214680321 5.185275315165358 9.539849444058547 0 4 1
530 1 1 0.5897 3.6058107238418975 6.415340020045183 8.019149664947498 1 -6 -6
246 1 1 0.5897 0.6665077115999303 3.3565334498313564 8.26567506877376 -6 5 3
573 1 1 0.5897 1.0588959855237337 6.7699346008605 6.578313681487342 8 0 -3
29 1 1 0.5897 1.815238540617325 2.255338547436782 6.948639606762729 -4 2 6
388 1 2 -1.1794 7.339492452224014 6.504112721327745 16.01388162141219 -4 4 5
676 1 2 -1.1794 7.978969720785483 4.691336493794288 12.598703817337855 7 7 -1
665 1 1 0.5897 1.701516817871 4.821006808342974 13.778289001809265 0 5 9
430 1 2 -1.1794 5.619999471103513 3.3910457363492705 12.207264763001103 -14 5 -2
666 1 1 0.5897 2.6717607394728513 4.343658532950753 12.718792342635478 0 5 9
677 1 1 0.5897 7.121390617580673 4.29698205953361 12.43978903054937 7 7 -1
520 1 2 -1.1794 5.388238708083364 4.984589672987789 14.544742800749592 -7 -6 -6
521 1 1 0.5897 4.756387007179545 5.63838014442204 14.245533869665502 -7 -6 -6
202 1 2 -1.1794 0.9652337740958559 6.308123030580611 14.359783834638344 3 3 0
42 1 1 0.5897 8.611150325661827 4.247784708771801 14.20266742286872 -5 -1 6
431 1 1 0.5897 5.50579281775993 2.464079544586129 11.997732313773216 -14 5 -2
664 1 2 -1.1794 2.229281430336086 4.065202873567911 13.520581211065087 0 5 9
678 1 1 0.5897 7.805444701016263 5.631382184875589 12.647846835443715 7 7 -1
522 1 1 0.5897 5.998530297042579 5.475041958889796 15.09537507323083 -7 -6 -6
432 1 1 0.5897 5.199184399894093 3.497847502541946 13.060317847246774 -14 5 -2
288 1 1 0.5897 7.877645063540412 2.809602091938607 15.144143591532952 1 3 0
51 1 1 0.5897 3.5218736881090202 4.921848077483949 15.550126658942967 6 -7 -2
389 1 1 0.5897 7.797625916790409 5.720354071854313 15.710522128610167 -4 4 4
453 1 1 0.5897 2.5546249086878534 2.41288342878936 13.33113343423292 -3 3 1
40 1 2 -1.1794 8.896672823968018 4.254232638776118 15.116267316990866 -5 -1 6
286 1 2 -1.1794 7.483608925836835 1.945010289973884 15.259952122740634 1 3 0
668 1 1 0.5897 2.8072888098618423 6.531157233496736 13.931961188509131 -4 -3 -5
471 1 1 0.5897 4.511776379360512 5.956353550114055 20.010717613289707 4 3 4
679 1 2 -1.1794 1.7323625521442403 2.141753263087116 20.236103582912587 1 -5 -5
81 1 1 0.5897 8.973555375497787 4.601934849608684 20.70594764110639 8 4 -3
109 1 2 -1.1794 7.327363538031377 4.617779975773628 18.149938769745525 -7 4 -15
553 1 2 -1.1794 1.283631978633981 3.126390295960778 17.43436680173723 -3 -6 6
554 1 1 0.5897 1.9457049577440844 3.7564072269146553 17.149845408961195 -3 -6 6
619 1 2 -1.1794 4.647032850638153 4.356081168114773 18.454007063506136 -3 -2 5
111 1 1 0.5897 6.374563763330254 4.57580956864955 18.231162635747822 -7 4 -15
620 1 1 0.5897 4.883315968768761 3.606476256515313 17.907674002994078 -3 -2 5
80 1 1 0.5897 7.816435614239366 5.04727926710437 19.837298136927853 8 4 -3
621 1 1 0.5897 4.49858240474032 3.982579885789067 19.322726445644033 -3 -2 5
555 1 1 0.5897 1.287400524656807 3.1891887382291486 18.389507800823583 -3 -6 6
462 1 1 0.5897 3.6816475601105902 6.757030067967591 16.785474555937782 -2 2 -9
86 1 1 0.5897 1.4391816614826247 5.842284928799311 18.32413956621608 3 7 3
79 1 2 -1.1794 8.137664853484862 5.067118983080901 20.73875152440626 8 4 -3
49 1 2 -1.1794 2.993169160841801 5.0212100651174385 16.3418219629973 6 -7 -2
126 1 1 0.5897 8.831591726300879 3.210184842825534 17.63945994802079 2 1 8
85 1 2 -1.1794 1.918710531073701 5.640310854735235 19.127546095300943 3 7 3
110 1 1 0.5897 7.500315891746203 5.49291073419165 17.802929734430357 -7 4 -15
50 1 1 0.5897 3.6070483566649734 4.871240053632592 17.060742882745174 6 -7 -2
469 1 2 -1.1794 4.594466285497089 6.669783820912902 20.6434605873676 4 3 4
727 1 2 -1.1794 5.534731130695267 2.1991587854122927 17.13064991989014 -6 -2 4
853 1 2 -1.1794 4.475494743599908 3.591062977433314 20.937835448544966 0 4 2
107 1 1 0.5897 8.887523818567438 6.6517423235422735 17.126179741472182 -1 -2 6
143 1 1 0.5897 0.7786734197918508 6.115564222471657 16.46971247196248 7 1 9
87 1 1 0.5897 2.0352840608190714 6.487799385676686 19.556943144252855 3 7 3
729 1 1 0.5897 6.187260104948826 2.084206977735654 16.43986857930162 -6 -2 4
855 1 1 0.5897 4.2311521037894035 2.6659154387273416 20.91292229794502 0 4 2
854 1 1 0.5897 5.336538312793961 3.6007103201298474 21.355835350239303 0 4 2
851 1 1 0.5897 2.8247380727251037 9.086049582883968 3.0332461885326825 -12 0 -4
283 1 2 -1.1794 8.235938009217296 11.367132989298076 3.143002288589272 9 -1 -2
285 1 1 0.5897 8.108747216081376 10.450986729527473 3.3893750271741685 9 -1 -2
850 1 2 -1.1794 3.726179642199176 8.904094589419545 2.7677040644263218 -12 0 -4
626 1 1 0.5897 2.197557160301776 8.285788090524376 5.45790558740811 -3 -4 6
574 1 2 -1.1794 5.2452413261035975 11.182486376086455 2.2186254461495567 0 1 0
576 1 1 0.5897 6.089975414077162 10.811506992290225 1.9635891134492005 0 1 0
139 1 2 -1.1794 6.750165432098603 9.196873348045488 0.8394240508618789 -3 6 2
380 1 1 0.5897 5.025376213911937 10.32580384367648 5.779368917711444 2 -4 -3
575 1 1 0.5897 4.721233772218727 10.426433559994354 2.4832383276025247 0 1 0
140 1 1 0.5897 6.583689481562247 8.428986945858043 1.3860737056055956 -3 6 2
852 1 1 0.5897 4.00998657264269 8.198859395185192 3.3493441797971375 -12 0 -4
194 1 1 0.5897 0.9099736155026821 10.738355673389245 3.4907992682477715 -3 -9 -5
214 1 2 -1.1794 7.577667040190767 9.002016084734919 4.485284845414026 0 -5 6
259 1 2 -1.1794 4.3712149313176365 6.894591268600121 4.367835333012575 7 -1 8
216 1 1 0.5897 7.9375513241195925 8.138471083132476 4.6876830947426935 0 -5 6
284 1 1 0.5897 8.860652200689263 11.33628733308338 2.418448460854575 9 -1 -2
215 1 1 0.5897 6.822217975912407 9.089413493350364 5.066524169363438 0 -5 6
193 1 2 -1.1794 0.9505498032289574 9.787238740766025 3.5903714859358073 -3 -9 -5
381 1 1 0.5897 4.604244605104377 8.882159547179333 5.605274885866952 2 -4 -3
627 1 1 0.5897 2.2271977647345382 9.743441489112318 5.865508171765464 -3 -4 6
89 1 1 0.5897 8.278053439437933 11.061741647414511 6.414911656670335 0 -8 -3
152 1 1 0.5897 3.720976884924866 7.396631441368044 10.154233043124709 1 3 -2
45 1 1 0.5897 5.450842347939856 9.614093775345118 7.979867503725089 1 5 -1
529 1 2 -1.1794 3.9578472671618163 7.303513939889087 8.077633471151053 1 -6 -6
43 1 2 -1.1794 5.560008573314388 10.04352484236113 8.82832579392925 1 5 -1
154 1 2 -1.1794 8.011401006577785 7.703246600904922 7.665611329848099 6 7 -6
352 1 2 -1.1794 3.3673104655797026 11.545603901945391 8.31532047912625 6 3 -3
754 1 2 -1.1794 7.641865203077776 11.812343589109009 9.09198093217565 -8 -4 -1
172 1 2 -1.1794 1.309760382181853 9.519840769278503 8.8037723424971 9 -3 -1
243 1 1 0.5897 7.288981306662285 7.382807200776963 9.368891894527293 3 -2 5
353 1 1 0.5897 3.9731198529222005 10.97938388815235 8.793411688096914 6 3 -3
173 1 1 0.5897 1.8427418932356632 10.108150794306777 8.268977765380296 9 -3 -1
90 1 1 0.5897 8.433759689063656 9.70170147457771 7.061299836368384 0 -8 -3
151 1 2 -1.1794 3.2532846910367197 7.599546799807721 10.964342602206084 1 3 -1
241 1 2 -1.1794 6.853031927866835 7.254292946040083 10.211292611318987 3 -2 5
174 1 1 0.5897 1.757421753410631 9.492510835762221 9.649370075215725 9 -3 -1
531 1 1 0.5897 3.341491378698579 7.839305729408345 7.5784193606561105 1 -6 -6
44 1 1 0.5897 6.34287354587959 10.584395995420737 8.724562654373617 1 5 -1
88 1 2 -1.1794 8.938129417909366 10.447088338176906 6.73540198677657 0 -8 -3
572 1 1 0.5897 0.9662771017367385 7.746661105264057 7.7312206061631565 8 0 -3
97 1 2 -1.1794 1.2268480923450178 11.41715901880876 6.229167885938108 2 -10 0
571 1 2 -1.1794 0.824102462793279 6.827669789337875 7.5044476671126565 8 0 -3
663 1 1 0.5897 8.785960709439964 9.744037927740596 9.40821489053888 -9 -5 6
156 1 1 0.5897 8.788195453994918 7.348565074070991 7.233205297158694 6 7 -6
155 1 1 0.5897 7.285624565452984 7.184770451029296 7.318305574306097 6 7 -6
336 1 1 0.5897 1.9839758362682691 11.106247020406077 10.94478238224737 -1 -3 6
625 1 2 -1.1794 2.5764357968625937 8.884150868058544 6.101799063596466 -3 -4 6
584 1 1 0.5897 5.951413188041102 10.012466782598988 11.101769299809243 1 -7 1
379 1 2 -1.1794 5.304682663084239 9.428607246334828 5.961600177741834 2 -4 -3
10 1 2 -1.1794 1.2270015378391388 9.003678385784083 14.126544839470322 -4 -3 0
233 1 1 0.5897 4.302961041433384 10.1006936326151 14.032045271631306 -3 1 0
428 1 1 0.5897 8.855790060830047 7.777438719814834 12.964906065238532 0 -1 -1
450 1 1 0.5897 7.7984388811450005 10.078323423799098 12.116953670143506 9 -1 -6
427 1 2 -1.1794 8.00813755754711 7.332917740462708 12.9549480085964 0 -1 -1
839 1 1 0.5897 5.25394782140172 8.348115902916478 14.607784537835213 -2 1 -2
711 1 1 0.5897 1.1290580536297288 9.005835047943698 11.3722551127104 4 4 1
12 1 1 0.5897 0.7757419593645355 9.271140333885674 14.927185689460314 -4 -3 0
232 1 2 -1.1794 3.52615430254948 10.64734726232267 13.914040087122755 -3 1 0
838 1 2 -1.1794 5.720757898645559 9.183045209646394 14.642147792657598 -2 1 -2
334 1 2 -1.1794 2.523229708350161 10.372371770558885 11.23948788283076 -1 -3 6
669 1 1 0.5897 3.790785710435973 6.984348473418413 12.874053725581543 -4 -3 -4
390 1 1 0.5897 7.512580575683074 7.159823504926645 15.338404578334922 -4 4 5
335 1 1 0.5897 2.834421411139711 10.635810712893141 12.105493701455732 -1 -3 6
840 1 1 0.5897 6.177626713960023 9.237272955405764 13.802794955621195 -2 1 -2
583 1 2 -1.1794 6.141258172352451 9.29897295706574 11.710929429440736 1 -7 1
429 1 1 0.5897 7.5334089785398035 7.737739728037805 12.229036242298637 0 -1 -1
773 1 1 0.5897 8.459031235661964 10.951660434584275 15.605637876529697 -2 -2 3
667 1 2 -1.1794 3.6970882288680236 6.865410982897106 13.819196567949485 -4 -3 -4
153 1 1 0.5897 3.6388802327811844 8.422663148454003 11.264342328313695 1 3 -1
204 1 1 0.5897 0.9467951893775548 7.256863197136811 14.234340833947828 3 3 0
234 1 1 0.5897 2.8045540840672674 10.114095949124751 14.247389243788078 -3 1 0
448 1 2 -1.1794 8.667405863562612 10.430801020784934 12.308896300326275 9 -1 -6
449 1 1 0.5897 8.830462490790245 10.184689373617237 13.21940885257938 9 -1 -6
585 1 1 0.5897 6.369473193553381 8.558244596280058 11.149300798497258 1 -7 1
425 1 1 0.5897 3.499855212991742 9.775919132926667 18.53113473703652 16 2 2
461 1 1 0.5897 5.065997766946963 7.2365871362918845 17.16701021054156 -2 2 -9
460 1 2 -1.1794 4.233818402854826 7.538706565806724 16.80308051830561 -2 2 -9
314 1 1 0.5897 8.441249695932033 7.818289660916238 19.82972346063224 1 -5 -2
660 1 1 0.5897 1.358802837153625 9.43696459655412 17.225987851083413 -2 0 -2
771 1 1 0.5897 1.8272686297222556 8.829188227280586 20.31605178340905 7 1 1
426 1 1 0.5897 3.4869817060594936 9.128654044377807 17.162626806228644 16 1 2
638 1 1 0.5897 4.221518104893729 10.640293246666696 20.395020080244702 -10 -10 2
268 1 2 -1.1794 7.749659251043896 10.596798167481149 19.46906159591562 -3 4 2
489 1 1 0.5897 2.2400900554793224 11.719497698601867 19.62094938776279 3 -5 0
562 1 2 -1.1794 6.136088846815807 9.626156126101858 17.44277043452952 1 -7 3
769 1 2 -1.1794 2.1673932402097367 7.975431322075266 20.583662314625084 7 1 1
492 1 1 0.5897 6.577963033472364 8.197215022023368 18.600016000148532 -1 2 0
424 1 2 -1.1794 3.016829835562039 9.762022199008538 17.704866792635244 16 2 2
564 1 1 0.5897 5.575486524550956 10.365418026377668 17.67820832542815 1 -7 3
637 1 2 -1.1794 4.53952797944598 9.784489910668855 20.107520988859434 -10 -10 2
269 1 1 0.5897 7.466633530450375 10.01915407284907 20.17786788868411 -3 4 2
270 1 1 0.5897 7.295890231718821 10.265760363768099 18.694016854501093 -3 4 2
141 1 1 0.5897 5.919597403517251 9.35720568054177 21.061386335863112 -3 6 1
563 1 1 0.5897 5.996686937942537 9.508994273892984 16.503065060949957 1 -7 3
639 1 1 0.5897 3.945314852300367 9.157019082980224 20.519075504832102 -10 -10 2
505 1 2 -1.1794 1.0298766481347172 10.283674977235123 19.799757318732155 8 2 -2
491 1 1 0.5897 6.2797944208630545 7.109107786153623 19.609416579963753 -1 2 0
490 1 2 -1.1794 6.908277194395088 7.363083211675418 18.93362931606811 -1 2 0
470 1 1 0.5897 3.698101083560295 6.837868009302994 20.93412587952582 4 3 4
770 1 1 0.5897 1.6175095020015657 7.719397800903348 21.324112048139128 7 1 1
569 1 1 0.5897 2.3445708852149614 11.400435792570292 16.987930034631315 6 4 2
501 1 1 0.5897 5.828792443545615 14.7942216134526 4.311945171690985 4 -2 1
499 1 2 -1.1794 5.248750654622391 14.968280539035776 5.0531924779764745 4 -2 1
465 1 1 0.5897 1.9318603862258157 12.80768691096033 3.6570306230935006 7 0 5
373 1 2 -1.1794 3.7115645758599265 12.905562678721726 3.72156917207161 7 4 2
410 1 1 0.5897 8.428887801006226 14.893270056561136 2.7569338333020994 7 -4 -1
391 1 2 -1.1794 2.5154925816736666 16.300474400322894 4.8526119439003645 3 -8 -5
795 1 1 0.5897 3.267249133304778 16.352727664033512 2.194269611264687 -5 3 3
374 1 1 0.5897 3.6963934517564 13.697462186080546 3.1841216265547816 7 4 2
13 1 2 -1.1794 6.190932454747579 16.49232086126031 1.6900902417893011 3 -6 -7
486 1 1 0.5897 7.14493671962211 13.138219542473479 3.1263300093105997 -3 6 -1
484 1 2 -1.1794 6.865755074044626 14.051934341111249 3.068208924599048 -3 6 -1
793 1 2 -1.1794 3.5468802314788594 15.526869152809114 2.5891891790750186 -5 3 3
375 1 1 0.5897 4.1012637643588326 12.239020916030684 3.155850629037635 7 4 2
485 1 1 0.5897 6.4092089635958835 14.110447481494065 2.2289656746444324 -3 6 -1
500 1 1 0.5897 5.105502114899393 14.110213325992833 5.452458139338377 4 -2 1
78 1 1 0.5897 4.491833417016938 12.512991084219236 5.149772604083141 0 -6 -4
794 1 1 0.5897 4.496489701049638 15.513208667004184 2.4698536186231204 -5 3 3
150 1 1 0.5897 2.3878522056919143 14.869406871161733 1.2318688533133748 -2 5 4
393 1 1 0.5897 2.9253177179760144 15.799885088078971 4.147177919059495 3 -8 -5
392 1 1 0.5897 3.2498642724213367 16.674106467524336 5.3397407155425585 3 -8 -5
463 1 2 -1.1794 1.0206209160715964 12.622846116094667 3.429709299612203 7 0 5
365 1 1 0.5897 8.132542536009755 12.078958205693466 4.649624342335969 7 4 11
366 1 1 0.5897 8.421210220992723 13.10896405966195 5.720852340552836 7 4 11
77 1 1 0.5897 5.877477949525209 12.244474168306832 5.697185655588258 0 -6 -4
364 1 2 -1.1794 7.818811056173948 12.40026307172743 5.4949194311291345 7 4 11
14 1 1 0.5897 6.7718910694231385 16.462411792830796 2.4502064740740925 3 -6 -7
606 1 1 0.5897 5.359153362841291 12.645969363629053 1.2638004114029364 -6 -3 -1
294 1 1 0.5897 6.635384929969091 12.191023810234627 10.512270333460933 2 -4 -4
832 1 2 -1.1794 7.908741799915319 15.273858579217752 10.979446662569261 8 -7 -3
755 1 1 0.5897 8.342809209277334 11.860936987638263 9.742043750907214 -8 -4 -1
480 1 1 0.5897 1.328026999209837 14.334208970518523 10.173407102197682 -5 8 -4
39 1 1 0.5897 2.0329593955692395 12.376626037845302 9.58895975412752 -10 -5 -5
65 1 1 0.5897 4.942505056322965 14.770481556146711 9.01547304645715 -3 3 0
345 1 1 0.5897 7.013016383651782 15.073355717504432 9.413666797718356 -5 -1 -1
538 1 2 -1.1794 7.51944179646252 16.737979121140206 6.737292545624626 -12 0 2
845 1 1 0.5897 1.5547295256773679 15.990481730652318 7.634980067530742 -6 -6 7
844 1 2 -1.1794 0.9162468680853696 16.698119684871195 7.546789211749566 -6 -6 7
64 1 2 -1.1794 4.0354832536966505 15.073833274026867 8.977070259730352 -3 3 0
67 1 2 -1.1794 2.2746047778276415 14.299900818034033 6.795283722220872 10 -6 6
343 1 2 -1.1794 6.7605114484370175 14.559874138030855 8.646356969927393 -5 -1 -1
756 1 1 0.5897 7.473941449073912 12.723495624627011 8.851595631464201 -8 -4 -1
37 1 2 -1.1794 1.176984833972488 12.502084076271235 9.998541168272343 -10 -5 -5
69 1 1 0.5897 3.062478893991835 14.14746681228429 7.317025371382041 10 -6 6
354 1 1 0.5897 3.8641575298148205 11.83756688785415 7.551068333049457 6 3 -3
344 1 1 0.5897 6.767954492537772 15.188036958532313 7.924178804026129 -5 -1 -1
540 1 1 0.5897 8.108484994321255 15.999721806898409 6.58169764344461 -12 0 2
296 1 1 0.5897 3.8778502488784223 14.15605708159914 10.624974961366545 5 7 -5
66 1 1 0.5897 4.083183326854342 16.002431737735115 9.204249194966987 -3 3 0
478 1 2 -1.1794 1.0703147699178703 15.243051472586732 10.32759519202929 -5 8 -4
68 1 1 0.5897 2.5295405687797556 14.976074767123746 6.167598005592096 10 -6 6
99 1 1 0.5897 1.7430063076732225 12.222314985275805 6.267915661349307 2 -10 0
76 1 2 -1.1794 4.955279249818336 12.272574869702526 5.952021544441849 0 -6 -4
75 1 1 0.5897 1.0675304894076274 15.009749895188223 14.631440058183989 7 -4 2
652 1 2 -1.1794 4.66289462236561 16.23813781634518 15.1240248894335 -6 -1 3
26 1 1 0.5897 2.677179623240449 14.1208869850943 12.928764611775547 0 8 10
403 1 2 -1.1794 8.478212411531707 15.713131897780048 14.753032108870295 11 -3 -5
207 1 1 0.5897 1.2691108231386896 12.591990702403422 13.484119638364495 -6 5 -4
25 1 2 -1.1794 2.418708863587815 14.078303133480546 13.849414446635414 0 8 10
293 1 1 0.5897 6.508899333866195 12.538969772385189 11.980213931402409 2 -4 -4
292 1 2 -1.1794 6.040670165567671 12.11874964244456 11.25880559745439 2 -4 -4
657 1 1 0.5897 5.311252690267227 13.229664996862349 14.516956637780012 -2 6 4
656 1 1 0.5897 4.224591604325685 12.19998385097301 14.742179982061947 -3 6 4
758 1 1 0.5897 4.9296150186022265 15.087138959078858 12.320223438963604 1 3 4
834 1 1 0.5897 7.17537597155952 15.234048886999979 11.593276695410266 8 -7 -3
237 1 1 0.5897 7.316433636154335 14.311702271025476 13.921302987085914 -5 -5 -6
27 1 1 0.5897 3.2110266343236162 13.799579892423276 14.30846480131054 0 8 10
235 1 2 -1.1794 6.915547850902663 13.462180617089984 13.737449475704858 -5 -5 -6
757 1 2 -1.1794 5.5154242390522805 15.801064811510532 12.571874115247255 1 3 4
236 1 1 0.5897 7.479516677473802 12.82942946213756 14.182165169359239 -5 -5 -6
654 1 1 0.5897 5.2654651982017535 15.683919973901798 15.619945331851742 -6 -1 3
759 1 1 0.5897 5.114967706434928 16.174702855965503 13.356870760083261 1 3 4
655 1 2 -1.1794 4.624937822564773 12.976076723805983 15.134094394537719 -3 6 4
297 1 1 0.5897 4.579119484784549 13.058611840234509 11.396770067151705 5 7 -5
295 1 2 -1.1794 4.01437168395821 13.822829425048475 11.511834382834738 5 7 -5
772 1 2 -1.1794 8.402616577577557 11.890819856777428 15.429605527009558 -2 -2 3
405 1 1 0.5897 8.870719667477927 15.924713336245409 13.906062965465946 11 -3 -5
570 1 1 0.5897 1.2602637555094 12.03869308920375 16.146049777718325 6 4 2
833 1 1 0.5897 8.417458918685679 14.483831587574082 11.16178644237341 8 -7 -3
488 1 1 0.5897 2.722988033512658 13.0205907656796 20.22573427971767 3 -5 0
456 1 1 0.5897 8.32747074255529 14.64123870314769 20.485904903936675 7 -2 2
52 1 2 -1.1794 5.018277529667698 12.101417020456838 17.79780945050923 -4 0 -1
503 1 1 0.5897 4.850763101338698 14.700028820280817 20.06157643093112 -1 -1 5
149 1 1 0.5897 2.033338896036338 15.167583499557047 20.460512415639187 -2 5 3
738 1 1 0.5897 3.419187467723999 15.203025133156114 16.46811343183382 2 2 -3
737 1 1 0.5897 2.708112275394851 14.02750632050732 17.1039756580134 2 2 -3
504 1 1 0.5897 4.2763356976610964 15.072343240805452 18.711269328847635 -1 -1 5
454 1 2 -1.1794 7.974355909555535 13.752028674529843 20.51439747675593 7 -2 2
210 1 1 0.5897 6.722865022001003 12.88958672889834 17.79503187530772 0 -10 9
117 1 1 0.5897 6.618519887014484 16.445928506355145 17.58648480732579 -8 1 3
828 1 1 0.5897 1.437144308686209 15.702842343390753 18.115040967590847 -8 5 6
604 1 2 -1.1794 5.459885348383012 13.432535216010969 21.397632203720537 -6 -3 -2
502 1 2 -1.1794 4.657533052619996 15.452698678755377 19.502654787167927 -1 -1 5
736 1 2 -1.1794 3.022689712233726 14.91229597768597 17.289394724443476 2 2 -3
54 1 1 0.5897 4.2737712965423835 12.174020251498664 18.394989746323304 -4 0 -1
115 1 2 -1.1794 6.762005074596184 15.786320690973726 16.90787173572465 -8 1 3
605 1 1 0.5897 6.370220659315842 13.407102221544621 21.102902459448078 -6 -3 -2
455 1 1 0.5897 7.800673050632486 13.53333976694733 19.59886586260997 7 -2 2
719 1 1 0.5897 6.410712693173343 16.585587851587018 19.609954899031933 -2 3 1
208 1 2 -1.1794 7.584115676954329 13.304347764988025 17.74594385387692 0 -10 9
568 1 2 -1.1794 2.0199649951729404 12.2497433945118 16.688762350970936 6 4 2
209 1 1 0.5897 7.430565102277263 14.120735748387256 17.270425913727262 0 -10 9
487 1 2 -1.1794 3.0306932133234663 12.239066012730106 19.766685734242902 3 -5 0
53 1 1 0.5897 4.755607682085454 12.601265609127658 17.024923070362988 -4 0 -1
148 1 2 -1.1794 2.028817634928429 14.465902373574915 21.11152425031033 -2 5 3
123 1 1 0.5897 8.943750621180545 12.250345652276247 21.161910029782664 3 -2 -1
826 1 2 -1.1794 0.643631029079625 15.884354463429407 18.61861818906692 -8 5 6
774 1 1 0.5897 8.221428337679432 12.284480359038518 16.28306507992886 -2 -2 3
116 1 1 0.5897 7.626975715812742 15.991402017757801 16.552925763369444 -8 1 3
631 1 2 -1.1794 2.2720024225212296 17.885447145563425 1.8686066405840756 11 9 5
257 1 1 0.5897 6.318848392623324 20.22644695034097 4.92669778570394 5 -3 3
723 1 1 0.5897 7.792429125738251 17.002095760915115 4.937869846192288 4 -2 -1
560 1 1 0.5897 6.166131716557416 19.539688963927695 1.4745019877839742 7 2 0
732 1 1 0.5897 0.9727282796173737 19.472159901821264 1.9102951277857496 1 -6 -8
559 1 2 -1.1794 5.388810966923477 18.982926187822063 1.4301010706936608 7 2 0
721 1 2 -1.1794 7.837277676474972 17.24953183368708 4.0143170416221 4 -2 -1
722 1 1 0.5897 7.5368360415872795 18.158115099696094 3.9944363476016806 4 -2 -1
561 1 1 0.5897 5.00942447245633 19.030051635426155 2.3076136977261994 7 2 0
62 1 1 0.5897 8.727142415393423 17.9931718342326 2.5324837473296173 0 2 4
419 1 1 0.5897 4.150162768082879 18.324805356916496 4.4464252341513895 -6 -4 6
258 1 1 0.5897 7.56116106739441 20.4835929180442 4.100670367333446 5 -3 3
765 1 1 0.5897 3.3592450848807025 19.971601772680525 5.174500314686908 -13 -3 -5
230 1 1 0.5897 8.283624268237908 19.84085225212504 1.2704377026094824 0 -4 4
256 1 2 -1.1794 6.704463366543456 20.05800603389257 4.06697810162186 5 -3 3
543 1 1 0.5897 3.5860987324588907 20.79908266729783 3.0999850433767535 -19 6 1
420 1 1 0.5897 3.0198718343907998 18.434801110371815 3.4453335144428388 -6 -4 6
418 1 2 -1.1794 3.7323566556731147 18.937017742043846 3.8407355736297006 -6 -4 6
632 1 1 0.5897 1.4520880323915186 17.39367036103179 1.914457588191348 11 9 5
800 1 1 0.5897 1.146083890063081 17.94619367799278 4.9535746133513445 0 -1 7
15 1 1 0.5897 5.890913354826018 17.40050153967683 1.6529358190897219 3 -6 -7
229 1 2 -1.1794 7.851158295052655 20.64677730524812 0.988217905366815 0 -4 4
541 1 2 -1.1794 4.0420081325496415 21.578378625196645 2.7820973714119064 -19 6 1
633 1 1 0.5897 2.6162302748874886 17.697241849976475 0.9955186241469328 11 9 5
805 1 2 -1.1794 8.729609637791068 21.730703242433314 4.898945321563279 3 -2 -6
542 1 1 0.5897 4.947339504503308 21.460843338320196 3.0697975875931593 -19 6 1
593 1 1 0.5897 5.256561377877606 16.833535226536085 5.837823039375215 -5 2 -6
763 1 2 -1.1794 3.1609997817304967 20.701718270303033 5.760873918486307 -13 -3 -5
387 1 1 0.5897 7.895484645879568 21.588946896112926 9.359953723698963 -9 5 2
578 1 1 0.5897 6.018581091809599 20.56118279379086 7.097922493531128 4 4 -2
764 1 1 0.5897 3.9761678932700204 20.853675184529784 6.238991820501669 -13 -3 -5
745 1 2 -1.1794 5.9923468755974 19.08600454135035 8.11651663086494 0 4 -7
767 1 1 0.5897 3.45094573897753 18.213135929760504 9.132061890080788 -1 0 10
798 1 1 0.5897 1.7847284537834687 19.64757069817041 8.898242701600548 -4 -2 -7
556 1 2 -1.1794 6.361084762035139 21.249594656217763 10.525538376365606 0 2 2
498 1 1 0.5897 1.3224313535675352 18.32523526576542 10.79806178827511 4 1 1
797 1 1 0.5897 2.30698889719664 19.727077611049165 7.479545936767331 -4 -2 -7
796 1 2 -1.1794 2.152658277380154 19.11130858889941 8.195935791884244 -4 -2 -7
601 1 2 -1.1794 8.375413950655952 17.749068201902535 9.220684047408986 7 2 0
557 1 1 0.5897 5.726504711168636 21.57311221855735 9.886139062251122 0 2 2
768 1 1 0.5897 3.9130409812579656 18.209607274012374 10.573680502449552 -1 0 10
577 1 2 -1.1794 5.8348813319905135 21.17882471833859 6.390141475405832 4 4 -2
590 1 1 0.5897 1.1755351995265835 20.74260438422053 10.860549282772247 7 6 3
385 1 2 -1.1794 8.661830275659783 21.763973541971616 8.813772840380233 -9 5 2
766 1 2 -1.1794 4.105093377209743 17.829818251732576 9.716308707889258 -1 0 10
747 1 1 0.5897 6.889420463632239 18.93535318507013 8.414473707497006 0 4 -7
746 1 1 0.5897 5.446316764269631 18.64079487366254 8.764453410690672 0 4 -7
592 1 2 -1.1794 4.674801336505219 17.57152096369346 6.019806118687681 -5 2 -6
594 1 1 0.5897 4.852396828199268 17.79765090441282 6.9327738543967765 -5 2 -6
846 1 1 0.5897 1.356461764156811 17.46546591294839 7.912272409955996 -6 -6 7
589 1 2 -1.1794 1.3421349367655084 21.12341414198926 9.998322841981585 7 6 3
603 1 1 0.5897 7.917330319243102 17.657783771960347 10.056162306649604 7 2 0
497 1 1 0.5897 0.7826778177928326 16.990404341294607 10.330429430341226 4 1 2
539 1 1 0.5897 7.859738502927397 17.153626367498926 7.529541234748312 -12 0 2
558 1 1 0.5897 6.15042140285843 20.321102327199128 10.624065320613825 0 2 2
714 1 1 0.5897 6.46964825130396 18.79934778332843 15.198933642247125 -5 1 -1
712 1 2 -1.1794 5.586345939526375 19.077368154408823 15.44118484314727 -5 1 -1
510 1 1 0.5897 5.692012764422871 21.26597989343726 14.447442090880418 6 1 6
451 1 2 -1.1794 2.6794364112339752 21.42201963115589 13.393351441406029 -3 2 1
325 1 2 -1.1794 6.965105093685365 18.201063920926217 11.606044499596544 -1 5 0
326 1 1 0.5897 7.477929867188489 18.415953836739757 12.38517446986285 -1 5 0