LAMMPS data file via write_data, version 30 Jul 2021, timestep = 33750000

1296 atoms
2 atom types
864 bonds
1 bond types
432 angles
1 angle types

-10.620722911777776 12.600722911777776 xlo xhi
-9.112318462373459 12.102316462373459 ylo yhi
0.21643862707551165 21.643560372921577 zlo zhi
-9.087765675658598 1.9274844700823195 2.921172408852281 xy xz yz

Masses

1 1.008
2 15.999

Pair Coeffs # lj/cut/tip4p/long/omp

1 0 0
2 0.21084 3.1668

Bond Coeffs # harmonic/omp

1 450 0.9572

Angle Coeffs # harmonic/omp

1 55 104.52

Atoms # full

300 100 1 0.5897 -5.121821766064009 -7.474049743375633 3.923783314196208 1 1 0
298 100 2 -1.1794 -5.938643857289413 -7.012300296057159 4.113180638658587 1 1 0
280 94 2 -1.1794 -9.667056233730063 -4.563830886096119 1.7811486109019945 1 1 0
299 100 1 0.5897 -6.610299960503886 -7.694036202425819 4.091890563768162 1 1 0
270 90 1 0.5897 -8.399421939517978 -7.340410930210969 2.2149795582909095 1 1 0
163 55 2 -1.1794 -7.1574615530204255 -8.035450350808683 1.100883050137156 1 1 0
164 55 1 0.5897 -6.390077561812556 -8.495422550524266 1.4410392218535235 1 1 0
269 90 1 0.5897 -9.190360013622104 -6.077575081905719 2.482367463941358 1 1 0
268 90 2 -1.1794 -8.999797978136726 -6.942450336105495 2.8454461759045064 1 1 0
282 94 1 0.5897 -10.552009281436753 -4.233041399708451 1.627353368327763 1 1 0
324 108 1 0.5897 -6.961102176351292 -4.212564535014387 3.5208860638687223 1 1 0
75 25 1 0.5897 -8.979195885549586 -3.480203482398527 4.57300891577845 1 0 0
314 105 1 0.5897 -8.702664645203892 -6.568151108187756 4.5783251914631595 1 1 0
73 25 2 -1.1794 -8.084230269264218 -3.7431503125431256 4.787750253668943 1 0 0
275 92 1 0.5897 -10.330970141927253 -7.933469216117617 3.4283993570637263 1 1 0
281 94 1 0.5897 -9.112448953660504 -3.783867948272915 1.7616357488159957 1 1 0
74 25 1 0.5897 -7.805985706890581 -3.1208850673367143 5.459778184357839 1 0 0
261 87 1 0.5897 -6.707972704112063 -4.977699222837168 1.1837358337300818 1 1 0
323 108 1 0.5897 -6.24037756493778 -5.529106221136725 3.3231290661427155 1 1 0
260 87 1 0.5897 -6.88535932733477 -6.377613925675858 0.635348733052099 1 1 0
259 87 2 -1.1794 -6.788106709739772 -5.464939522126008 0.3637209737517504 1 1 0
165 55 1 0.5897 -7.365656777830886 -8.487950510610105 0.2834898465423435 1 1 0
313 105 2 -1.1794 -8.629997578950745 -6.279956141029875 5.488211230157933 1 1 0
315 105 1 0.5897 -8.389042582910683 -5.355489661889969 5.4286500312371535 1 1 0
429 143 1 0.5897 -6.451682366422012 -7.040643633624281 8.717134133669399 1 0 0
428 143 1 0.5897 -6.604048704032541 -6.712292684506005 10.18713741945049 1 0 0
427 143 2 -1.1794 -5.948366043238925 -6.801665892374947 9.495440941748496 1 0 0
419 140 1 0.5897 -8.988000820301925 -5.405322600842991 8.869658374246537 1 0 0
418 140 2 -1.1794 -9.70563383048694 -5.864390759200281 9.30627115891751 1 0 0
413 138 1 0.5897 -7.5624135399963155 -3.7739802799507896 7.888060444541407 1 0 0
616 206 2 -1.1794 -7.165355035643219 -7.940449663173603 7.280071070955895 1 1 0
420 140 1 0.5897 -9.31144413428725 -6.226145706567462 10.09991541223758 1 0 0
618 206 1 0.5897 -7.592517514518181 -7.279215389189973 6.735630341555053 1 1 0
350 117 1 0.5897 -7.035126987418099 -4.256739628862793 10.052461599136345 0 0 0
414 138 1 0.5897 -6.7062886310220104 -5.0126348355886545 7.73122636831639 1 0 0
412 138 2 -1.1794 -7.484551625764121 -4.682189913303413 8.180047706752827 1 0 0
627 209 1 0.5897 -10.21818253971218 -6.84096514771553 6.426918104919599 1 1 0
327 109 1 0.5897 -4.485415517552228 -7.779515156857045 9.86228777384492 0 0 0
351 117 1 0.5897 -7.0049706884904595 -2.930198883312147 10.781379300744799 0 0 0
349 117 2 -1.1794 -7.142455887691309 -3.867238250605247 10.92023388194868 0 0 0
633 211 1 0.5897 -5.61271797872817 -5.871435413458098 5.584287443050364 1 1 0
684 228 1 0.5897 -8.59666197547696 -6.182167879828618 14.698726700124073 0 0 0
740 247 1 0.5897 -10.93688899711652 -3.2819026798180975 12.15086814714534 1 0 0
652 218 2 -1.1794 -5.824887228886239 -5.3923048084545275 12.818585097929423 0 0 0
682 228 2 -1.1794 -8.154799386398189 -6.50315571230927 13.91258071489709 0 0 0
780 260 1 0.5897 -7.466026126987101 -3.6586783019945077 15.34025638396219 0 0 0
779 260 1 0.5897 -7.245790133472262 -2.664927194736185 14.219635333681596 0 0 0
778 260 2 -1.1794 -7.934688178520581 -3.1297117286780782 14.694769747294899 0 0 0
768 256 1 0.5897 -9.525504047593161 -2.2036553328972452 14.665758812714735 0 0 0
654 218 1 0.5897 -6.210442861480054 -4.776992851064884 12.195005982857062 0 0 0
653 218 1 0.5897 -6.576267276277962 -5.797046421447011 13.252159497935757 0 0 0
661 221 2 -1.1794 -9.405087739637805 -4.245906077580261 12.546938900490261 0 0 0
766 256 2 -1.1794 -10.430944187541344 -1.9088110100596563 14.763340906910992 0 0 0
662 221 1 0.5897 -8.879657215726805 -4.0322408983365925 13.317957874234091 0 0 0
663 221 1 0.5897 -8.800314326779386 -4.151971970737307 11.81089258126521 0 0 0
729 243 1 0.5897 -8.135520904890665 -6.865349046169394 12.146301871037833 1 0 0
789 263 1 0.5897 -4.76901167255773 -4.5790776439722585 14.15394225637053 0 0 0
788 263 1 0.5897 -4.813778952078686 -4.293820197162885 15.640056868906187 0 0 0
767 256 1 0.5897 -10.952728488702164 -2.7081664719415244 14.692047528880488 0 0 0
727 243 2 -1.1794 -8.169239246890372 -7.093859779307087 11.217390110205098 1 0 0
1130 377 1 0.5897 -7.386128558377628 -1.3332132671677144 18.518054493094624 0 0 0
1143 381 1 0.5897 -8.530478406355646 -4.927381922360357 21.109721437171412 0 0 0
1219 407 2 -1.1794 -10.318130756690216 -1.7857990583026222 20.272619573658126 0 0 0
1141 381 2 -1.1794 -8.540575805888631 -5.864294411636472 21.305411515264673 0 0 0
1152 384 1 0.5897 -6.606204699069979 -3.9589473913440933 19.78707113918353 0 0 0
1225 409 2 -1.1794 -8.024976543334407 -3.2406983933309146 20.73913699595674 0 0 0
1227 409 1 0.5897 -8.815971049885382 -2.8187409384474975 20.40381269352893 0 0 0
1109 370 1 0.5897 -8.745441774826372 -2.9503140467455538 17.550656731532673 0 0 0
1108 370 2 -1.1794 -9.274271124057051 -3.73376179712057 17.701871566731082 0 0 0
1089 363 1 0.5897 -6.5546907635202825 -4.500752038257831 17.319188484010315 0 0 0
1151 384 1 0.5897 -5.837188040740989 -5.179304541926102 19.32744163288583 0 0 0
1129 377 2 -1.1794 -7.683144443385775 -1.539893517618797 17.631905188666963 0 0 0
1150 384 2 -1.1794 -6.095146823483978 -4.29943967648784 19.05276382903498 0 0 0
1248 416 1 0.5897 -5.674220022131695 -1.4306867444112568 20.499215975051865 0 0 0
1097 366 1 0.5897 -8.760062835847924 -5.548265791823612 18.411181781142258 0 0 0
1096 366 2 -1.1794 -8.789222738349064 -6.486901065002632 18.5964283832394 0 0 0
1088 363 1 0.5897 -6.4887147889576084 -5.667528607548483 16.356778424975893 0 0 0
1087 363 2 -1.1794 -6.564320456438239 -4.713780162368074 16.3860452498374 0 0 0
1142 381 1 0.5897 -8.534421911588902 -6.288765562853511 20.447486138310992 0 0 0
1121 374 1 0.5897 -4.680489981989994 -3.391980153447573 18.554614621098537 0 0 0
1110 370 1 0.5897 -10.154944587765256 -3.3997117740954996 17.87253277001689 0 0 0
758 253 1 0.5897 -9.439172483875934 -5.0845820470760605 16.4461123020637 0 0 0
1226 409 1 0.5897 -7.801778708633258 -2.7420394178420704 21.525110845191772 0 0 0
256 86 2 -1.1794 -12.045166727188706 -3.331576586343173 1.999054593153979 1 1 0
69 23 1 0.5897 -11.030289718932634 -2.6697194184245703 3.4849644453407005 1 0 0
272 91 1 0.5897 -9.424517931053263 -1.266963871760094 1.3523653601796164 1 1 0
271 91 2 -1.1794 -10.175672290008858 -0.8020257972723375 0.9839168200477214 1 1 0
82 28 2 -1.1794 -9.145501822109578 -0.11218421416898217 4.058744449023871 1 0 0
301 101 2 -1.1794 -8.046192448846615 -2.235854284430208 1.7264984393136966 1 1 0
258 86 1 0.5897 -12.465977930188547 -2.7986259329970142 1.324522465935363 1 1 0
83 28 1 0.5897 -9.759225593744636 -0.8381690413192153 4.171084173771753 1 0 0
67 23 2 -1.1794 -10.560963580896013 -2.3603401701440783 4.259711895218185 1 0 0
44 15 1 0.5897 -9.836892843643648 0.8151229804888498 0.5064795686763004 1 0 0
68 23 1 0.5897 -11.165140886859122 -2.5182734513469613 4.985227717640615 1 0 0
52 18 2 -1.1794 -12.138254468918586 0.37253505515698926 2.8596594282852497 1 0 0
98 33 1 0.5897 -11.936732947919115 0.6405792833915331 4.538859429929518 1 0 0
53 18 1 0.5897 -12.228914772964407 1.2029929482347654 2.3924610568595694 1 0 0
54 18 1 0.5897 -11.552963409168841 -0.14909383127261755 2.3104432351820923 1 0 0
107 36 1 0.5897 -9.374628860152566 1.5219356186866406 3.3482134018081986 1 0 0
59 20 1 0.5897 -13.503182981007635 -0.8290574723875395 3.508510414354395 1 0 0
99 33 1 0.5897 -11.620521910609979 1.8547210707408919 5.38611246168023 1 0 0
97 33 2 -1.1794 -11.785162574308789 0.9135428676180322 5.4437013248784645 1 0 0
84 28 1 0.5897 -8.288735866843208 -0.5319317808740642 3.981068092416554 1 0 0
527 176 1 0.5897 -11.857013417132366 1.542555159494265 8.454841200281352 1 0 0
526 176 2 -1.1794 -12.572782946408527 1.2419133573715762 9.014892611532371 1 0 0
426 142 1 0.5897 -8.609512182460387 -1.6741844123298772 7.083513406742986 1 0 0
435 145 1 0.5897 -7.518737102912041 -0.8971181799896577 10.030435294812587 0 0 0
424 142 2 -1.1794 -7.7506155451598975 -2.0959489728724954 7.109055489097482 1 0 0
402 134 1 0.5897 -10.602588468086568 -0.2678443752463924 6.441505297768661 1 0 0
401 134 1 0.5897 -10.921362119542259 -1.245130819032008 7.552892035961788 1 0 0
400 134 2 -1.1794 -10.19567243002658 -0.9029269908398163 7.030742644845567 1 0 0
537 179 1 0.5897 -9.40896790027712 -0.001235797282488349 8.588614442931043 1 0 0
536 179 1 0.5897 -9.656559108951445 -0.09521773240047793 10.079170986037367 1 0 0
535 179 2 -1.1794 -8.960932391727427 0.03119018084071712 9.433822934279734 1 0 0
528 176 1 0.5897 -12.139300683474366 0.7686287940610317 9.724968921112422 1 0 0
522 174 1 0.5897 -9.87161390775361 2.43432014357483 7.303502790660491 1 0 0
411 137 1 0.5897 -13.621961714016866 0.4370224693432725 6.261867206511091 1 0 0
425 142 1 0.5897 -7.14135308444932 -1.3874426474316577 7.316736868224254 1 0 0
433 145 2 -1.1794 -6.722424174816016 -1.2520840837470217 10.425464427338621 0 0 0
430 144 2 -1.1794 -12.17720173195041 -2.0413570528946563 8.41455633124356 1 0 0
417 139 1 0.5897 -8.711993265812765 0.8326916405871394 5.709697732816769 1 0 0
790 264 2 -1.1794 -11.00348163290933 0.506635513692796 13.758288817345187 0 0 0
835 279 2 -1.1794 -11.154423255358653 -0.22030460883932435 11.05499447899591 1 0 0
762 254 1 0.5897 -9.064588108340716 2.152703005667254 11.876401135500787 0 0 0
761 254 1 0.5897 -9.529847993369817 1.2005068640621062 12.95751457001696 0 0 0
760 254 2 -1.1794 -8.741651251642587 1.5209237843088914 12.518808217771333 0 0 0
888 296 1 0.5897 -10.704975167229996 3.3670634995523834 15.002868649308214 0 0 0
792 264 1 0.5897 -11.720576489170192 0.8697568910097164 14.278134262715856 0 0 0
896 299 1 0.5897 -7.998673511133211 2.696670186644141 15.460447897495149 0 0 0
837 279 1 0.5897 -11.186613531297718 0.2031783695271585 11.912829716935606 1 0 0
791 264 1 0.5897 -10.93375648443601 -0.40295273112987395 14.048047500017702 0 0 0
769 257 2 -1.1794 -12.259500743418506 2.6931756041157726 12.203777780369379 0 0 0
836 279 1 0.5897 -11.33563135765597 -1.1426594969710706 11.235723746627997 1 0 0
770 257 1 0.5897 -11.836020967207297 2.9843118703393845 13.011313408082483 0 0 0
771 257 1 0.5897 -11.61428488429305 2.866991229830246 11.518325464283699 0 0 0
1101 367 1 0.5897 -10.200537544999236 -0.801824606883045 16.103855753248475 0 0 0
865 289 2 -1.1794 -12.812669786961926 1.4480656945542147 15.608839042933084 0 0 0
1195 399 2 -1.1794 -9.620586779197097 2.5056278521757953 16.234183675077393 0 0 0
1196 399 1 0.5897 -9.845186570895722 1.5754426261922543 16.25795771187902 0 0 0
1251 417 1 0.5897 -11.204743212972033 2.026612870972249 21.365686095905936 0 0 0
1260 420 1 0.5897 -9.819724342245559 3.144927899218418 19.639479806566413 0 0 0
1218 406 1 0.5897 -13.157181606021835 3.5232192395732422 17.681336546525465 0 0 0
1259 420 1 0.5897 -9.073373884515373 1.9867994541511074 19.012084113931824 0 0 0
1258 420 2 -1.1794 -9.26315110889251 2.9175811021035294 18.894588478339763 0 0 0
1205 402 1 0.5897 -11.894452479786814 1.411486176757668 18.420510619042993 0 0 0
1009 337 2 -1.1794 -10.967047535497471 3.7497361948355916 20.93739163992671 0 -1 0
1131 377 1 0.5897 -6.893579132415386 -1.4797639239771332 17.09399257681 0 0 0
1236 412 1 0.5897 -7.758730898857513 0.17898594645630794 20.16697876432097 0 0 0
1216 406 2 -1.1794 -12.269178060881366 3.171114875429989 17.620200028113945 0 0 0
1235 412 1 0.5897 -9.211371109209729 -0.24552287634887726 20.124374967855527 0 0 0
1234 412 2 -1.1794 -8.631200012955272 0.4891820530258322 19.924523660928152 0 0 0
1099 367 2 -1.1794 -9.94319331535267 -0.2286998338663917 16.826039157019437 0 0 0
1100 367 1 0.5897 -9.062866559588144 -0.5209495681134086 17.062323020014137 0 0 0
1206 402 1 0.5897 -11.143143012862934 0.1262884444336425 18.145445541319827 0 0 0
1249 417 2 -1.1794 -11.386045905211754 1.0896249683109112 21.439287980227288 0 0 0
1197 399 1 0.5897 -9.723045763485866 2.8004636455988177 17.139076622243056 0 0 0
1011 337 1 0.5897 -11.79967229450515 4.047865513766972 20.57127322651343 0 -1 0
1246 416 2 -1.1794 -6.128700554901901 -0.8106939075799104 19.92898263608245 0 0 0
1229 410 1 0.5897 -7.80458917715597 3.824118380198538 18.33492617613176 0 0 0
273 91 1 0.5897 -8.491843665947451 1.6079299331648436 21.639333694812944 1 1 -1
1250 417 1 0.5897 -11.356327688162782 0.7679145773590577 20.538250896334546 0 0 0
1204 402 2 -1.1794 -11.76432408063527 0.524309059198437 18.755395603364654 0 0 0
866 289 1 0.5897 -12.481128787385089 2.0208075802412395 16.30043030886979 0 0 0
40 14 2 -1.1794 -15.179785543171043 3.9205353783672905 2.0588061260030903 1 0 0
177 59 1 0.5897 -14.074801984862273 4.655204640225847 3.3603373489779833 1 0 0
42 14 1 0.5897 -15.669776019610513 4.373963556816966 1.372934782085297 1 0 0
190 64 2 -1.1794 -11.748770570163648 7.109586276670129 4.512474015069277 1 0 0
175 59 2 -1.1794 -13.630498590726466 4.840688165720765 4.1876094686156 1 0 0
55 19 2 -1.1794 -13.139010829617728 6.080552382546173 0.9970332727744147 1 0 0
56 19 1 0.5897 -12.300828014023775 5.769423190030167 1.3388582314775996 1 0 0
66 22 1 0.5897 -13.568403023431014 2.998642916794193 1.7609902030078475 1 0 0
65 22 1 0.5897 -12.135742322993258 3.4723575193104192 1.6372933554979834 1 0 0
64 22 2 -1.1794 -12.685173120621656 2.6929052422207036 1.5542672040809844 1 0 0
108 36 1 0.5897 -10.063181192836218 2.863095520070111 3.4860726242154434 1 0 0
43 15 2 -1.1794 -9.700335594770115 1.7619023329556995 0.4718464893718661 1 0 0
191 64 1 0.5897 -12.362947690105006 6.37560168300252 4.493467727647935 1 0 0
85 29 2 -1.1794 -10.927891478118312 4.740625931400311 1.7450938172529962 1 0 0
183 61 1 0.5897 -12.059705689017951 3.7967660337395337 4.655431934322516 1 0 0
181 61 2 -1.1794 -11.163590834165237 3.595228455914942 4.924840482723576 1 0 0
176 59 1 0.5897 -14.289293762011381 4.662826575741061 4.858958928133132 1 0 0
106 36 2 -1.1794 -9.34814214221696 2.4229880484191355 3.0263520468029332 1 0 0
162 54 1 0.5897 -14.576204493660471 6.571885296765531 2.255305361627857 1 0 0
160 54 2 -1.1794 -15.193889946921527 7.093828814632822 2.7674862261672253 1 0 0
45 15 1 0.5897 -9.613427526233089 2.02554255680287 1.3879088614699773 1 0 0
167 56 1 0.5897 -16.47744696937742 6.121522830012864 3.593175306332102 1 0 0
57 19 1 0.5897 -13.333559310731875 5.492713956901314 0.2670693651601783 1 0 0
508 170 2 -1.1794 -13.482164222616543 6.540729665675647 7.271501130013771 1 0 0
645 215 1 0.5897 -12.480018614828195 7.40162083923472 8.714306572887388 1 0 0
644 215 1 0.5897 -12.56973056781023 7.421620161343533 10.225410616327718 1 0 0
643 215 2 -1.1794 -11.960960583869616 7.567554449692835 9.50122256218779 1 0 0
509 170 1 0.5897 -14.127706809449336 6.046769083913022 7.77710382023123 1 0 0
519 173 1 0.5897 -16.39251354163371 7.540402752937915 6.405856922664611 1 0 0
532 178 2 -1.1794 -10.887480925213625 5.378907285455234 7.087834488970395 1 0 0
543 181 1 0.5897 -10.491587888102135 6.230217779310395 9.484936927653871 0 0 0
510 170 1 0.5897 -14.002334649049446 7.046363525157151 6.647104808645486 1 0 0
534 178 1 0.5897 -11.73487248477143 5.823600918737132 7.108174445645376 1 0 0
521 174 1 0.5897 -10.568893757063126 3.734722181126589 7.642056553573677 1 0 0
636 212 1 0.5897 -15.129824526593517 7.9071064265348845 9.866836222991285 1 0 0
182 61 1 0.5897 -10.990430811762845 4.195190780915556 5.650314189396696 1 0 0
458 153 1 0.5897 -10.185234859955854 3.031726372787281 9.751179198391908 0 0 0
520 174 2 -1.1794 -10.502856771823623 2.818737427011115 7.911845434880214 1 0 0
459 153 1 0.5897 -9.909934414089149 4.227838652778255 10.637459773986844 0 0 0
457 153 2 -1.1794 -10.145144680659238 3.300511471143995 10.66899318575771 0 0 0
518 173 1 0.5897 -16.576666727352794 7.615405136217895 7.9066536774148055 1 0 0
887 296 1 0.5897 -10.498210359791837 4.3435075256755376 13.864611042481728 0 0 0
874 292 2 -1.1794 -13.629905377229468 5.051487366331337 14.903957535234715 0 0 0
876 292 1 0.5897 -12.735441439855684 4.736718638368814 14.773059593020383 0 0 0
848 283 1 0.5897 -13.640342233105653 3.819771453834978 11.837482852917244 1 0 0
945 315 1 0.5897 -14.245101272186087 7.23381045393646 11.917516863517454 1 0 0
944 315 1 0.5897 -14.052283423459318 6.009881922330258 11.047584114918006 1 0 0
900 300 1 0.5897 -14.55472741382911 7.945694976068005 14.232209646358154 0 0 0
899 300 1 0.5897 -13.727011040469417 6.686060502020318 14.09071482224183 0 0 0
898 300 2 -1.1794 -13.892570071023485 7.533347612865484 13.677378662066353 0 0 0
847 283 2 -1.1794 -14.461405434139389 4.246881754385848 11.593293083210943 1 0 0
886 296 2 -1.1794 -11.1819933285111 3.911209968141966 14.376397928214061 0 0 0
869 290 1 0.5897 -12.566074859090286 8.428266419926445 13.094518911312688 0 0 0
875 292 1 0.5897 -14.178245958363698 4.277920920060428 14.77277883883764 0 0 0
943 315 2 -1.1794 -14.141239207583364 6.9619978701232625 11.005603446183194 1 0 0
1018 340 2 -1.1794 -11.722894082299524 7.486879646337574 20.165422673172948 0 -1 0
1019 340 1 0.5897 -12.391690083914499 6.808003617166367 20.075045752883362 0 -1 0
1020 340 1 0.5897 -10.892934750932316 7.010459587761407 20.144824827750682 0 -1 0
1003 335 2 -1.1794 -13.218934457062966 5.183948998690893 20.229366588924858 0 -1 0
1237 413 2 -1.1794 -10.571650811508357 5.385306515211228 17.681889565141155 0 0 0
1043 348 1 0.5897 -11.92122829993555 9.194049738961045 19.351305188042836 0 -1 0
1030 344 2 -1.1794 -9.222016258170909 6.133913241415451 19.8856362314126 0 -1 0
1032 344 1 0.5897 -8.861187248627006 5.580363482514997 20.57809565826569 0 -1 0
1034 345 1 0.5897 -14.609542246647415 7.965154945814188 20.498846939845418 0 -1 0
1207 403 2 -1.1794 -12.982772197649794 6.631879146395114 17.053896296846432 0 0 0
1208 403 1 0.5897 -12.099274071709946 6.366762515487823 17.309545834972525 0 0 0
1239 413 1 0.5897 -9.90858957279459 5.446539872698256 16.99417206885005 0 0 0
1238 413 1 0.5897 -10.07706533711588 5.451854680008227 18.49866552060348 0 0 0
990 330 1 0.5897 -14.307139128994306 7.3065403165055685 18.010136803388125 0 -1 0
1035 345 1 0.5897 -14.445040440074216 9.141193532812665 21.437906260660352 0 -1 0
988 330 2 -1.1794 -14.964723469146428 7.676040449299673 18.599523796893372 0 -1 0
980 327 1 0.5897 -12.590433321405923 8.336099429997894 16.350366012686077 0 -1 0
989 330 1 0.5897 -14.940837974292993 8.617047128534768 18.425912504055727 0 -1 0
1209 403 1 0.5897 -13.239081369236075 5.998104299479948 16.38390864593308 0 0 0
1033 345 2 -1.1794 -14.615449517865645 8.199345176536642 21.42693839722563 0 -1 0
1005 335 1 0.5897 -13.667432851728584 4.991372503427442 19.405988645935906 0 -1 0
1010 337 1 0.5897 -10.725789719841481 4.427900525139801 21.568368467733332 0 -1 0
1217 406 1 0.5897 -11.70149225465148 3.939349755527031 17.682353107255036 0 0 0
291 97 1 0.5897 -15.096815145044811 10.804556636386337 4.461031369969495 1 0 0
174 58 1 0.5897 -16.55988169908094 9.99688977050113 1.696580883388922 1 0 0
173 58 1 0.5897 -15.05505721387984 10.099813349695946 1.565865317529539 1 0 0
172 58 2 -1.1794 -15.775862873756326 9.47042218014806 1.5403725410761049 1 0 0
283 95 2 -1.1794 -16.653199377722707 11.807421222416984 3.9602941418751554 1 0 0
161 54 1 0.5897 -15.363687165211534 7.864455262442206 2.2257832119279577 1 0 0
216 72 1 0.5897 -12.970634732303244 9.89444712342365 3.8206081635813964 1 0 0
151 51 2 -1.1794 -12.761191620621457 8.766395762872666 0.4842366619604574 1 0 0
285 95 1 0.5897 -16.997426564595365 11.587571841899148 3.094630233697236 1 0 0
148 50 2 -1.1794 -18.17245016949022 10.819613226642197 1.701248458050647 1 0 0
289 97 2 -1.1794 -14.283264353610662 10.536900296987088 4.888426403057353 1 0 0
150 50 1 0.5897 -18.540147656691584 11.456455796881421 1.0885946850713526 1 0 0
284 95 1 0.5897 -17.36653877021223 11.596588419376772 4.562847473483162 1 0 0
193 65 2 -1.1794 -13.921828152115486 11.758795047486643 1.650394820164568 1 0 0
194 65 1 0.5897 -13.60008136484574 11.963156209578543 2.528405440943516 1 0 0
152 51 1 0.5897 -12.910613264717602 7.823998050180023 0.5603508066924923 1 0 0
153 51 1 0.5897 -12.738823854807523 9.079663027811279 1.3884465555445293 1 0 0
207 69 1 0.5897 -14.721192888478576 8.791910048987305 5.515208303389255 1 0 0
205 69 2 -1.1794 -14.987563778499151 7.873546694385752 5.4713841071913025 1 0 0
206 69 1 0.5897 -14.78532746005978 7.6075602071646315 4.574375419861433 1 0 0
290 97 1 0.5897 -14.112113679393545 11.225246214807822 5.531190058189817 1 0 0
215 72 1 0.5897 -12.006907110930525 8.73446635828952 3.688311733451683 1 0 0
640 214 2 -1.1794 -13.807544129111655 12.37533338968133 6.975110323899928 1 0 0
630 210 1 0.5897 -12.66045999279877 9.535084674613294 7.645354036037491 1 0 0
629 210 1 0.5897 -13.583127663298331 10.722969389150041 7.816965957583821 1 0 0
628 210 2 -1.1794 -13.460869928621102 9.813841070011346 8.090299820250117 1 0 0
566 189 1 0.5897 -13.375021127314081 10.121249150028557 10.084573357121611 0 0 0
635 212 1 0.5897 -14.900776993300896 8.92340563332439 8.768418989702285 1 0 0
642 214 1 0.5897 -14.703007022241218 12.703837791101826 7.055797700612006 1 0 0
567 189 1 0.5897 -13.000952018681696 11.40566300320872 10.793320533731023 0 0 0
634 212 2 -1.1794 -15.584203275231928 8.39373811836857 9.17920027061773 1 0 0
617 206 1 0.5897 -16.972422338686172 12.839417207237602 7.738279777646544 1 0 0
525 175 1 0.5897 -11.532118536538626 8.207864770901654 5.976832000980502 1 0 0
658 220 2 -1.1794 -16.4987262316574 12.066353616908405 14.679496503507414 0 -1 0
870 290 1 0.5897 -12.072888120133854 9.522075516368922 12.171309539023508 0 0 0
683 228 1 0.5897 -16.958463019564814 13.826547738291158 14.141355084214965 0 -1 0
671 224 1 0.5897 -13.409790035265235 11.390692356452213 14.109355455929094 0 -1 0
670 224 2 -1.1794 -14.03179792085312 10.783824218731631 14.510797330976438 0 -1 0
672 224 1 0.5897 -13.495198331175757 10.231252660622452 15.078981907821086 0 -1 0
956 319 1 0.5897 -17.099190399275656 11.079678591847948 12.10995829977002 1 0 0
660 220 1 0.5897 -15.612795201705005 11.712427588594224 14.757555203491588 0 -1 0
879 293 1 0.5897 -15.018675238551975 10.016006358612348 11.629439473397536 0 0 0
878 293 1 0.5897 -15.03620775123209 10.206451464630259 13.13120911048534 0 0 0
877 293 2 -1.1794 -15.600169116125425 9.987918158144744 12.389322746539573 0 0 0
680 227 1 0.5897 -10.783192524343178 9.486104414996685 15.496241749271649 0 -1 0
868 290 2 -1.1794 -11.765544837305754 8.826660982709754 12.752740167054103 0 0 0
659 220 1 0.5897 -17.069808886381338 11.343715768600717 14.940238034047393 0 -1 0
728 243 1 0.5897 -17.500135494004603 13.195016871407404 11.206629586305564 1 -1 0
650 217 1 0.5897 -15.596620322370118 8.973739754318586 15.99484621627717 0 -1 0
993 331 1 0.5897 -16.12190104611775 13.221161701962014 16.22279715142349 0 -1 0
565 189 2 -1.1794 -13.157292771509791 10.473963164382688 10.94735997861057 0 0 0
979 327 2 -1.1794 -12.375333968809901 9.249092545659511 16.159539774065674 0 -1 0
1140 380 1 0.5897 -11.72415664360618 12.637811516888487 20.605265009226358 0 -1 0
1138 380 2 -1.1794 -12.213562816695891 13.228049728984399 20.032364720986408 0 -1 0
1128 376 1 0.5897 -13.721946033661276 14.129557888707055 20.166981547898146 0 -1 0
1127 376 1 0.5897 -15.206642146590386 13.838809718429104 20.22482885242718 0 -1 0
1022 341 1 0.5897 -13.211571929512218 12.66710631476785 18.535703906015012 0 -1 0
1119 373 1 0.5897 -14.822491538908428 11.23648552036321 20.37144416121619 0 -1 0
1117 373 2 -1.1794 -14.0673815771434 10.831310426319355 20.797817333331967 0 -1 0
1044 348 1 0.5897 -12.699573588358813 10.45499842188202 19.661247136519037 0 -1 0
1042 348 2 -1.1794 -12.156350527077183 10.047251352469814 18.98673146064895 0 -1 0
981 327 1 0.5897 -12.268817262343703 9.65540913261393 17.019656343135754 0 -1 0
1113 371 1 0.5897 -16.81004431122978 12.146738741523627 19.447210167198364 0 -1 0
1002 334 1 0.5897 -16.209479195686185 10.728412245451807 17.67646680024866 0 -1 0
991 331 2 -1.1794 -15.8333276392586 13.875158078467617 16.859404826557483 0 -1 0
992 331 1 0.5897 -15.01115359190226 13.5274136027376 17.20478839405566 0 -1 0
1126 376 2 -1.1794 -14.575587015639172 14.558602093988366 20.22597545268549 0 -1 0
1023 341 1 0.5897 -12.841055023063886 12.752424332179729 17.070296925968098 0 -1 0
1021 341 2 -1.1794 -13.591792916387803 12.661962691357026 17.65731175870362 0 -1 0
1001 334 1 0.5897 -14.77046032772135 11.16617693552984 17.503763990854306 0 -1 0
1000 334 2 -1.1794 -15.340833437937164 10.399686238892514 17.444723607593897 0 -1 0
1111 371 2 -1.1794 -16.285150205318097 12.41274193483557 20.20215000754596 0 -1 0
1098 366 1 0.5897 -17.051547093514678 14.388996226827082 18.249690935812094 0 -1 0
1118 373 1 0.5897 -13.953272263137025 11.329070996661763 21.60742031640411 0 -1 0
305 102 1 0.5897 -1.5426917817475623 -5.914541965452589 2.2751741746113106 1 1 0
311 104 1 0.5897 -2.8800518135927895 -7.868109901756202 3.3806899362930656 1 1 0
241 81 2 -1.1794 -0.8801678374981261 -6.373641001746011 5.353937379429638 0 1 0
306 102 1 0.5897 -0.8057159325384866 -7.21730057201351 2.0481739017560794 1 1 0
318 106 1 0.5897 -2.74021683660687 -3.9792545751706534 1.6251104850037712 1 1 0
304 102 2 -1.1794 -1.4644134350497424 -6.8080484381077175 2.6093814003326314 1 1 0
316 106 2 -1.1794 -1.9030669919044811 -4.329250100259663 1.3201908130440427 1 1 0
242 81 1 0.5897 -1.0201867594548268 -6.723640771072432 4.474095862992812 0 1 0
310 104 2 -1.1794 -3.5990204112753448 -8.297212328102338 3.8447241033565094 1 1 0
243 81 1 0.5897 -0.7130529093960885 -5.441071699258496 5.217498542032542 0 1 0
293 98 1 0.5897 -4.940896963317916 -3.8167015443815986 2.3953456748763755 1 1 0
3 1 1 0.5897 -1.4487948232116192 -3.3495132594132 4.471896841182846 0 0 0
322 108 2 -1.1794 -6.300188247913933 -4.639290313577388 2.975524785956001 1 1 0
359 120 1 0.5897 -4.7029256878683245 -3.130354369125267 8.942020343854363 0 0 0
555 185 1 0.5897 -2.363281215590048 -6.3971263709924955 6.40288712102351 0 1 0
554 185 1 0.5897 -2.554325661098087 -6.29356459287228 7.901122329938599 0 1 0
553 185 2 -1.1794 -3.029143419708812 -6.462997845561878 7.0874683148837905 0 1 0
546 182 1 0.5897 0.2032859050399498 -7.1294674197042776 6.751954880848695 0 1 0
544 182 2 -1.1794 0.42838133223261465 -7.7153317540136594 7.474607356256357 0 1 0
632 211 1 0.5897 -4.618765352699933 -5.75679007568768 6.720365149216843 1 1 0
348 116 1 0.5897 -1.4248369778059047 -6.287672820300111 10.09243009347216 0 0 0
347 116 1 0.5897 -1.010063978792255 -5.415252368416366 8.926775681490103 0 0 0
346 116 2 -1.1794 -1.7808966793564895 -5.749217272991624 9.385745443032533 0 0 0
336 112 1 0.5897 -3.423638178175917 -5.055945471925941 9.686716676893743 0 0 0
334 112 2 -1.1794 -4.283856463326373 -4.636730592903152 9.66366130021806 0 0 0
335 112 1 0.5897 -4.900496189665892 -5.360135712461924 9.550725668049441 0 0 0
356 119 1 0.5897 1.136084673485934 -7.086767070658664 10.390049420810627 0 0 0
404 135 1 0.5897 -5.23123366780956 -3.6636445324681244 5.85534099120342 1 0 0
641 214 1 0.5897 -4.173851976379142 -8.053049154122462 6.98452356092867 1 1 0
631 211 2 -1.1794 -5.415402642625625 -5.359507791054783 6.368656633453426 1 1 0
657 219 1 0.5897 -0.39375937668058647 -7.024231255947367 12.129868642307777 0 0 0
793 265 2 -1.1794 -2.1375258432085893 -5.747541392402603 15.718056960135707 0 0 0
795 265 1 0.5897 -2.8656679199812967 -5.29226044441929 15.295348242918497 0 0 0
803 268 1 0.5897 -3.07054414720134 -2.866969097052886 14.816464703945599 0 0 0
689 230 1 0.5897 1.1527752065324446 -5.81834416281158 13.235688192601101 0 0 0
718 240 2 -1.1794 -0.21887963122139276 -6.748240925641769 14.007869387193583 0 0 0
678 226 1 0.5897 -4.221661291634822 -6.14370502773628 12.531483802538393 0 0 0
699 233 1 0.5897 -1.0741089834386628 -4.319656745947961 11.624958681562529 0 0 0
697 233 2 -1.1794 -1.6687898672541834 -4.350308100825341 12.374466404433349 0 0 0
677 226 1 0.5897 -2.7929136689016767 -5.726114963384666 12.25486020092027 0 0 0
676 226 2 -1.1794 -3.3380213346637317 -6.495052977354922 12.421913003804688 0 0 0
698 233 1 0.5897 -1.1218802625696007 -4.116434123972828 13.124397101059909 0 0 0
668 223 1 0.5897 -3.1900010314728586 -3.4360714717549934 12.09187370606366 0 0 0
667 223 2 -1.1794 -3.952287800260506 -2.972472140264502 11.74526499032961 0 0 0
802 268 2 -1.1794 -2.492621751783254 -2.1306617861407293 15.016881772575651 0 0 0
720 240 1 0.5897 -0.974999877973147 -6.498054666359931 14.53893694265744 0 0 0
816 272 1 0.5897 0.33452420836161245 -4.0417780505778325 15.119237219303848 0 0 0
814 272 2 -1.1794 -0.13996844266889852 -3.381076376313467 14.614809434863375 0 0 0
804 268 1 0.5897 -1.6187623065491685 -2.518101273705149 15.066960719876416 0 0 0
787 263 2 -1.1794 -4.246014688578271 -4.223681543518076 14.87254878264314 0 0 0
774 258 1 0.5897 -5.21606506791223 -2.284943073715092 12.985306327055321 0 0 0
326 109 1 0.5897 -3.525978809459362 -7.6267028125450755 11.023280878558841 0 0 0