LAMMPS data file via write_data, version 30 Jul 2021, timestep = 8000000

864 atoms
2 atom types
576 bonds
1 bond types
288 angles
1 angle types

0.028955278168284693 18.178617121833877 xlo xhi
0.14609276007994865 23.483085039922692 ylo yhi
0.08145922206831102 22.13173657793343 zlo zhi

Masses

1 1.00794
2 15.9994

Atoms # full

707 1 1 0.5897 3.1652965862121833 1.8658738179704533 3.903916750102315 0 0 0
706 1 2 -1.1794 3.0925402356550356 1.6298079863041601 2.979105925334984 0 0 0
30 1 1 0.5897 5.3117106839787525 3.823563881680893 2.343768747185693 0 0 0
708 1 1 0.5897 2.4304495144865994 2.2266075383645347 2.6304097332858785 0 0 0
29 1 1 0.5897 4.685266368950034 2.4457576887747883 2.367854795172447 0 0 0
28 1 2 -1.1794 5.3921615723566365 2.948839220037577 1.9637062256997657 0 0 0
136 1 2 -1.1794 5.199248174363842 5.48487178046776 2.8125027090155394 0 0 0
495 1 1 0.5897 8.529275238437064 2.3340930978970587 2.7808366217961913 0 0 0
137 1 1 0.5897 5.25515184132526 5.658850707699545 3.7521385775865177 0 0 0
494 1 1 0.5897 7.018765176744295 2.243864003548426 2.8232917186909607 0 0 0
493 1 2 -1.1794 7.808944582912548 1.9164315376956966 3.252874974348996 0 0 0
597 1 1 0.5897 0.710471134096594 5.801045987094955 3.918870110698345 0 0 0
846 1 1 0.5897 7.7334496175195335 1.8274050673521385 5.106592785042969 0 0 0
3 1 1 0.5897 0.8933918260175533 4.025957236828067 2.4398962744850317 0 0 0
1 1 2 -1.1794 0.8789831775848119 3.13703910942231 2.08539781260575 0 0 0
595 1 2 -1.1794 0.7604742370733405 5.716660509396107 2.9666587308202046 0 0 0
20 1 1 0.5897 0.8229445882100818 3.266825743203621 0.19593246686871338 0 0 0
819 1 1 0.5897 7.479405197213456 0.2369083165717747 2.6246185357743212 0 0 0
2 1 1 0.5897 0.03799183310158462 2.779064250062187 2.3694782728028456 0 0 0
668 1 1 0.5897 4.91765172900145 2.8773558021512002 0.1736792911971256 0 0 0
355 1 2 -1.1794 7.5971442814978225 2.1655484773531097 10.643521923505407 0 0 0
784 1 2 -1.1794 1.0079382151491485 3.168705737294393 6.727336056436301 0 0 0
82 1 2 -1.1794 5.21308288966713 3.521268444932689 7.092917565517032 0 0 0
183 1 1 0.5897 0.9765967842424517 4.850889371634714 6.011083741500447 0 0 0
674 1 1 0.5897 3.681943948794232 2.46740201434966 9.933445548188432 0 0 0
845 1 1 0.5897 7.313000041175574 1.0183576423785645 6.315110108092699 0 0 0
356 1 1 0.5897 7.329775745923762 1.2983598982809772 10.339300221635677 0 0 0
673 1 2 -1.1794 2.825643377056306 2.0569894432492597 10.053541275416592 0 0 0
487 1 2 -1.1794 3.224624248367404 2.12087711283427 5.7392014030940945 0 0 0
844 1 2 -1.1794 7.520448527907518 1.9100936945361733 6.036160916870844 0 0 0
83 1 1 0.5897 4.507283746632761 3.089075042577098 6.612085443175716 0 0 0
274 1 2 -1.1794 5.121455629066465 3.3632080338077297 9.790504061753746 0 0 0
678 1 1 0.5897 5.278720691660247 5.1846411079674795 10.23503384631297 0 0 0
785 1 1 0.5897 0.6917116636976803 3.130515654209815 7.630037585012068 0 0 0
36 1 1 0.5897 1.2238325437944635 2.8565589829904936 9.764768508205414 0 0 0
84 1 1 0.5897 6.015056885916293 3.137891632470572 6.737965827019351 0 0 0
488 1 1 0.5897 2.4821986630777624 2.6341612518418027 6.0577261025197275 0 0 0
35 1 1 0.5897 0.48303442349643594 4.176259159217812 9.732679365169314 0 0 0
276 1 1 0.5897 5.889702786863575 2.9882252330274586 10.221009286595597 0 0 0
675 1 1 0.5897 2.953952932461285 1.1493071890693956 9.778394634928826 0 0 0
275 1 1 0.5897 5.304849005702879 3.2774749419443014 8.854887001094669 0 0 0
489 1 1 0.5897 3.098381601898233 1.2530456523625597 6.122603741218605 0 0 0
686 1 1 0.5897 5.4147344257602095 5.04627268522831 6.313388188257383 0 0 0
34 1 2 -1.1794 0.3760731670415288 3.2435506798481173 9.54649292603029 0 0 0
181 1 2 -1.1794 0.889271398787494 5.714051176684585 5.606872792530768 0 0 0
176 1 1 0.5897 9.092210294324977 2.935587633408825 9.86177839057322 0 0 0
112 1 2 -1.1794 0.36028116245222386 5.810082559124304 10.203980057377333 0 0 0
786 1 1 0.5897 0.31295826370489266 2.759329859807608 6.212002125140955 0 0 0
419 1 1 0.5897 9.096820378472774 2.8218477782364406 6.419566163412204 0 0 0
685 1 2 -1.1794 5.315938592430089 5.782677008801393 5.710002560113749 0 0 0
166 1 2 -1.1794 2.734347151271801 1.8632429995471924 12.974444988408427 0 0 0
167 1 1 0.5897 2.713714463020579 1.9158991201857707 12.018874910995988 0 0 0
457 1 2 -1.1794 5.0224578957273325 3.090520835956505 13.86221226137304 0 0 0
458 1 1 0.5897 5.773554125568417 2.5517392913092296 13.613900209667962 0 0 0
459 1 1 0.5897 4.266687069735981 2.513406315521706 13.753479251951278 0 0 0
762 1 1 0.5897 4.980672151458468 4.99949348912827 13.561536587454652 0 0 0
466 1 2 -1.1794 0.5550372342123817 3.4051667380788704 13.606571973804908 0 0 0
168 1 1 0.5897 1.9468062307164054 2.3277726996298855 13.257470330114495 0 0 0
365 1 1 0.5897 0.5905380447824762 5.126927532959678 13.414302728059162 0 0 0
71 1 1 0.5897 5.113907347049102 2.9661431905912004 15.850911204268446 0 0 0
593 1 1 0.5897 7.49952372860233 0.8272361170509078 13.599532564075671 0 0 0
592 1 2 -1.1794 7.439913361817401 1.7626390736341928 13.405885231032741 0 0 0
468 1 1 0.5897 0.4931373207089485 3.203835441896929 14.540354629040614 0 0 0
594 1 1 0.5897 8.245171789646305 2.1340355840599523 13.766110243894824 0 0 0
357 1 1 0.5897 7.621764454295352 2.0882934699951665 11.59732529630904 0 0 0
761 1 1 0.5897 5.179847781935074 5.964483502134275 12.412237685821115 0 0 0
760 1 2 -1.1794 5.033258204327396 5.933135067138144 13.357666156478155 0 0 0
754 1 2 -1.1794 7.302279991302578 1.8356059338802801 17.732267820561205 0 0 0
142 1 2 -1.1794 4.997024127323468 5.64975159976863 20.43290057707589 0 0 0
42 1 1 0.5897 7.006392295416945 1.2953886472751583 20.827023816488698 0 0 0
755 1 1 0.5897 7.259321138368982 1.903741965998938 18.6861129904981 0 0 0
646 1 2 -1.1794 0.6708337794587336 5.967359156143497 20.403719286055146 0 0 0
756 1 1 0.5897 6.569192810794006 2.3661452389485156 17.420479851066386 0 0 0
289 1 2 -1.1794 2.403551788386949 1.773499012964185 17.412061583601865 0 0 0
41 1 1 0.5897 6.383420057054756 2.669645307053355 20.70563626594879 0 0 0
143 1 1 0.5897 4.888796368456765 4.773590108298168 20.80262196310679 0 0 0
569 1 1 0.5897 2.1693374523311766 2.1886160418634235 20.72468503123541 0 0 0
21 1 1 0.5897 0.7923349988403985 4.18926849904988 21.04621996476751 0 0 0
570 1 1 0.5897 2.738061748038936 1.8299153415192193 19.368254652645334 0 0 0
40 1 2 -1.1794 7.1054648976948185 2.134211489499645 20.37686046329172 0 0 0
134 1 1 0.5897 0.1751219596677446 3.7484855660782768 16.870635182716143 0 0 0
667 1 2 -1.1794 4.876306134527861 3.1627924669747127 21.311199010592826 0 0 0
291 1 1 0.5897 1.6771076975332078 2.1481971886773263 16.914037729780937 0 0 0
568 1 2 -1.1794 2.946429144621257 1.8224186631861863 20.302518982817592 0 0 0
599 1 1 0.5897 8.74508193121252 3.0599512324543094 17.31982048896413 0 0 0
669 1 1 0.5897 4.176094808894705 2.6357843826620573 20.92638493669633 0 0 0
278 1 1 0.5897 5.238035108003685 5.017338988236406 17.178575945878393 0 0 0
72 1 1 0.5897 4.105034817825302 2.653605148715849 16.93550962120977 0 0 0
290 1 1 0.5897 2.4485147601764647 0.8624880616983321 17.122110287639757 0 0 0
144 1 1 0.5897 5.105655608915023 5.502125776894901 19.493364581309386 0 0 0
19 1 2 -1.1794 0.822935325669447 3.2639740892660547 21.288972654235337 0 0 0
360 1 1 0.5897 8.998010148054874 2.5919773465498164 21.101514533634568 0 0 0
70 1 2 -1.1794 4.9534151382744245 3.071726593919596 16.78867396240319 0 0 0
571 1 2 -1.1794 0.7665443098626241 5.500111089879016 17.628408041926477 0 0 0
572 1 1 0.5897 1.586973083801053 5.964852448763536 17.464027300276413 0 0 0
277 1 2 -1.1794 5.345597216006733 5.9138014603305695 17.496135409554775 0 0 0
648 1 1 0.5897 0.7361892170399944 5.687531888844093 19.490632991902093 0 0 0
81 1 1 0.5897 2.744889532205591 0.1987124995733538 20.72091103578405 0 1 0
253 1 2 -1.1794 2.96597481014848 7.15519120112115 2.0954963580509576 0 0 0
123 1 1 0.5897 2.6448101159868322 9.03656407563671 2.046157526031542 0 0 0
121 1 2 -1.1794 2.6935876353006427 9.933115718681808 2.37764085188382 0 0 0
122 1 1 0.5897 2.7221236036668 9.835912363340134 3.3295055235357127 0 0 0
44 1 1 0.5897 1.1298906517188072 10.734981025747551 2.1975608071213273 0 0 0
218 1 1 0.5897 5.961769254525994 10.551238583216119 2.187224022756457 0 0 0
43 1 2 -1.1794 0.31072021784644516 11.208728059874229 2.053996988872886 0 0 0
219 1 1 0.5897 4.489821287887079 10.716986066146239 2.49949105012736 0 0 0
217 1 2 -1.1794 5.226692004687872 11.153277766260638 2.071942172023144 0 0 0
415 1 2 -1.1794 7.195011836405754 7.208667749605821 2.043449715298034 0 0 0
162 1 1 0.5897 7.089243904942827 7.062744569582655 0.11899644028202902 0 0 1
254 1 1 0.5897 2.895641686653024 6.943081169159794 1.1647129220714751 0 0 0
255 1 1 0.5897 2.320534905863209 6.590056815475451 2.519925669052175 0 0 0
66 1 1 0.5897 7.739119324354398 9.963997613149694 3.36326286700635 0 0 0
65 1 1 0.5897 7.371667294008225 8.85485729323309 2.4007227948472254 0 0 0
64 1 2 -1.1794 7.589797621489449 9.786136069457484 2.434601334371052 0 0 0
417 1 1 0.5897 7.984438599154505 6.8266156351721206 2.426813662562019 0 0 0
416 1 1 0.5897 6.484054650632101 6.643049540526554 2.3446515284953913 0 0 0
363 1 1 0.5897 4.921289578461786 11.00955839449923 0.3574909550355335 0 0 1
138 1 1 0.5897 4.5067291243679035 6.067688812285188 2.501283378328922 0 0 0
793 1 2 -1.1794 2.7247762583337356 9.948724164790635 5.2311019311710725 0 0 0
712 1 2 -1.1794 7.534627750234242 9.903365602467975 5.379545148380613 0 0 0
794 1 1 0.5897 1.944586582923559 10.378059456470133 5.581954706579644 0 0 0
795 1 1 0.5897 3.4565445075689962 10.4526562236802 5.587018416550415 0 0 0
396 1 1 0.5897 0.34336234666831433 11.019642784826686 0.3587793289267047 0 0 0
550 1 2 -1.1794 0.41779540795140135 10.778418737680335 6.462645596735537 0 0 0
551 1 1 0.5897 0.4648756607268033 10.609673718121046 7.403716795701118 0 0 0
10 1 2 -1.1794 3.083293367322836 7.382193035096804 6.2578879070840205 0 0 0
687 1 1 0.5897 4.50310130492822 6.208469336021282 5.982214704732408 0 0 0
526 1 2 -1.1794 7.466108816111247 7.05767777163008 9.136489905825005 0 0 0
114 1 1 0.5897 1.1918674793157946 6.05065860866749 9.795584186008938 0 0 0
145 1 2 -1.1794 7.537081579224664 7.328176432468745 6.23986904995237 0 0 0
165 1 1 0.5897 9.101153854839119 6.298201659689092 5.909543017630892 0 0 0
12 1 1 0.5897 2.779942562498422 8.266676034870894 6.05369583461227 0 0 0
578 1 1 0.5897 5.9581170357537525 10.669821025408316 6.064339551088864 0 0 0
650 1 1 0.5897 2.9970751241968125 7.057983105748928 8.494178689500572 0 0 0
822 1 1 0.5897 7.977604302337971 10.033969837666415 10.235696401996341 0 0 0
527 1 1 0.5897 7.632773547972913 7.923894005322931 9.50790958224018 0 0 0
15 1 1 0.5897 1.1647341208667807 10.38563975024518 9.83300037945643 0 0 0
582 1 1 0.5897 5.031540189653476 10.952171838750672 8.365109907479225 0 0 0
676 1 2 -1.1794 5.336174896238359 6.074016000921728 10.583972300330187 0 0 0
581 1 1 0.5897 5.57502849413837 10.310622476747273 9.624071575893204 0 0 0
147 1 1 0.5897 7.469243458759189 7.363615674954183 7.194047414527911 0 0 0
649 1 2 -1.1794 2.790377696161056 6.819541086119946 9.39789880261334 0 0 0
146 1 1 0.5897 6.856738405164578 6.709817644481283 5.973693002024538 0 0 0
651 1 1 0.5897 3.6302276233894677 6.557910110867559 9.7751847546647 0 0 0
258 1 1 0.5897 3.251126275610959 10.081001092608618 9.932308198806577 0 0 0
577 1 2 -1.1794 5.192807475283522 10.97484207628371 6.55159002756948 0 0 0
257 1 1 0.5897 2.640895279825128 8.764864753630565 10.364568430747795 0 0 0
580 1 2 -1.1794 4.965184521641143 10.982592643814085 9.319567122417153 0 0 0
820 1 2 -1.1794 7.202818223799137 9.5609120516399 10.539107722931863 0 0 0
256 1 2 -1.1794 2.5821055800791077 9.70944228480833 10.507223521308928 0 0 0
714 1 1 0.5897 7.393695414004369 9.006786987449134 5.683387595594209 0 0 0
713 1 1 0.5897 8.1264756863998 10.285931461740097 6.027275952789322 0 0 0
528 1 1 0.5897 8.250184983056352 6.551087532122668 9.3478908689751 0 0 0
11 1 1 0.5897 2.301808675029598 6.835682391737307 6.176146875568391 0 0 0
13 1 2 -1.1794 0.5039206782364971 10.88491013950662 9.353213589434313 0 0 0
182 1 1 0.5897 0.04328316135943004 6.038808485197118 5.915036715698969 1 0 0
677 1 1 0.5897 6.13024362169857 6.435368888283137 10.190258788579897 0 0 0
552 1 1 0.5897 0.31331603261866614 11.72730279208124 6.393952660581486 0 0 0
14 1 1 0.5897 0.6470410798677443 11.792324349769585 9.621813245928795 0 0 0
826 1 2 -1.1794 7.540524376850667 6.7935660041948225 13.936393453687323 0 0 0
225 1 1 0.5897 2.986138514610094 7.124749852735927 16.07750029190639 0 0 0
332 1 1 0.5897 2.9895367180441887 8.168865057138747 14.012787882334374 0 0 0
797 1 1 0.5897 3.1010381297647696 9.764276401790257 12.266037782512722 0 0 0
796 1 2 -1.1794 3.133105019440667 9.734318929111582 13.222277134201356 0 0 0
798 1 1 0.5897 2.351055581733281 10.209020252758462 13.503628892414953 0 0 0
722 1 1 0.5897 4.775651900331279 10.375951178311556 13.598135051438078 0 0 0
261 1 1 0.5897 0.8499781794245712 10.890444730786895 15.124007267577461 0 0 0
723 1 1 0.5897 5.585665869543642 11.068240631080288 14.673503071114501 0 0 0
828 1 1 0.5897 7.5030671730424805 6.784967026369824 14.892864079612922 0 0 0
333 1 1 0.5897 3.5594972559982683 6.76735977500097 13.964836629272051 0 0 0
331 1 2 -1.1794 2.8613490541068685 7.287313855005588 14.36277388285606 0 0 0
259 1 2 -1.1794 0.8582798259777538 10.929283499596064 14.167580921054375 0 0 0
721 1 2 -1.1794 5.596582500752977 10.846433033080283 13.742378486317817 0 0 0
475 1 2 -1.1794 7.995696256425694 9.398908743951628 13.069519643691171 0 0 0
476 1 1 0.5897 7.208314904813337 9.926510832307356 13.2027956413682 0 0 0
477 1 1 0.5897 7.729945487977322 8.508844603952332 13.300155206091725 0 0 0
827 1 1 0.5897 6.661164701068559 6.536370830921794 13.659444734954295 0 0 0
260 1 1 0.5897 0.04561858143350861 10.498443516735822 13.902804302663093 0 0 0
366 1 1 0.5897 1.263900826266787 6.468028911405707 13.612860083794933 0 0 0
821 1 1 0.5897 7.371275439347375 9.394203690715079 11.466557274697175 0 0 0
364 1 2 -1.1794 0.6758881152654447 5.996250939596131 13.023085513948162 0 0 0
679 1 2 -1.1794 5.014181296889485 11.015420514933755 16.329187324583575 0 0 0
680 1 1 0.5897 4.171269703786676 10.6613454119704 16.6124672815669 0 0 0
520 1 2 -1.1794 7.697321077299647 7.090278286385971 16.596385491393384 0 0 0
113 1 1 0.5897 0.4909266192715482 5.9854460781699075 11.135939901977636 0 0 0
9 1 1 0.5897 6.62876453397923 10.139266819253645 16.85915347329014 0 0 0
141 1 1 0.5897 7.248352632654982 8.853500236540969 20.55869323010844 0 0 0
279 1 1 0.5897 4.527768121178774 6.351616033279771 17.26032679120177 0 0 0
161 1 1 0.5897 6.422887029919749 6.6220812677882135 20.883278338668156 0 0 0
627 1 1 0.5897 2.216975085184252 10.097216783762486 17.623457020467274 0 0 0
462 1 1 0.5897 8.75045405747182 6.0243407257980675 20.76903849351899 0 0 0
521 1 1 0.5897 6.929361273268304 6.6389736258676955 16.946665127871192 0 0 0
246 1 1 0.5897 9.041393426561832 10.535683633998268 16.97247050225008 0 0 0
140 1 1 0.5897 6.575074372203959 10.20676472143714 20.64082994609911 0 0 0
160 1 2 -1.1794 7.18890260970069 7.088557444619113 21.217545878257454 0 0 0
690 1 1 0.5897 2.1170806531746407 10.15350945368045 21.207404979182957 0 0 0
625 1 2 -1.1794 3.0622489649903955 9.702389346063745 17.83736388967595 0 0 0
688 1 2 -1.1794 2.817391504852963 9.72471965173116 20.715603257382178 0 0 0
287 1 1 0.5897 8.867087238166457 10.555413177021627 20.69855616748583 0 0 0
447 1 1 0.5897 0.1363036122687878 10.159784836497426 16.951704927486443 1 0 0
689 1 1 0.5897 3.6135726836444766 10.184806349266522 20.98120215856523 0 0 0
4 1 2 -1.1794 3.0107460662342573 6.974171348220819 21.46331618618045 0 0 0
626 1 1 0.5897 3.0815880248761536 9.680289118960989 18.79417406612709 0 0 0
139 1 2 -1.1794 7.331401183497867 9.759442600722677 20.261368325489713 0 0 0
6 1 1 0.5897 2.9980674190629344 7.853103818863656 21.084661720128807 0 0 0
361 1 2 -1.1794 4.959582868143839 11.0011864450513 21.451329015223713 0 0 0
8 1 1 0.5897 7.066490638493307 9.76196689146075 18.258453678389948 0 0 0
7 1 2 -1.1794 7.29597355372326 9.646093951605902 17.33638410104686 0 0 0
394 1 2 -1.1794 0.4277557238034874 10.880992590458336 21.46566837471211 0 0 0
573 1 1 0.5897 0.09819671497667926 6.03372041190172 17.19864297129687 0 0 0
522 1 1 0.5897 7.582630141300198 8.00198925089537 16.86407983627911 0 0 0
5 1 1 0.5897 3.716243290925085 6.523302989021527 20.999496800310695 0 0 0
445 1 2 -1.1794 0.8277148641659372 10.806123320937454 16.809254571554405 0 0 0
223 1 2 -1.1794 2.9979801560550383 6.961866464468959 17.020703382760285 0 0 0
224 1 1 0.5897 3.104590848944254 7.828509568611122 17.41265038144837 0 0 0
681 1 1 0.5897 5.150147259268404 11.783743956765292 16.88353343974215 0 0 0
647 1 1 0.5897 1.5444270695455762 6.294852256635357 20.617474997927403 0 0 0
446 1 1 0.5897 0.5227274754605526 11.588767156563732 17.26811615143159 0 0 0
373 1 2 -1.1794 0.8411610384123879 13.863868793397474 3.0579276758698235 0 0 0
173 1 1 0.5897 4.766886027608469 14.241167679370466 2.846048336800117 0 0 0
172 1 2 -1.1794 5.449931911079178 13.684220939966625 3.2194360368969104 0 0 0
374 1 1 0.5897 0.8350872426970232 13.751592224736969 4.008588865867958 0 0 0
558 1 1 0.5897 3.244147230126353 15.014102433311182 1.388175709396886 0 0 0
556 1 2 -1.1794 3.277892274179454 15.037581818444128 2.3445361344111353 0 0 0
557 1 1 0.5897 2.497004092934644 14.559878956168262 2.624057393285834 0 0 0
478 1 2 -1.1794 7.623083579672122 14.908574637310975 2.1015566181160867 0 0 0
174 1 1 0.5897 5.294582590445522 12.82243426433044 2.833111542631202 0 0 0
293 1 1 0.5897 3.093175036111998 16.69506593166024 2.526456190532622 0 0 0
479 1 1 0.5897 8.409602200074866 14.370427128192906 2.1902220337873852 0 0 0
449 1 1 0.5897 7.429888818420505 16.703320858029283 2.7752151817558683 0 0 0
480 1 1 0.5897 6.93027659647372 14.390318792070948 2.510895699556398 0 0 0
200 1 1 0.5897 5.31287975269914 13.617182255161545 5.001368615575194 0 0 0
317 1 1 0.5897 7.373402690837983 14.861470836465074 0.22225873251425046 0 0 0
294 1 1 0.5897 3.0161657348817217 17.60278430134003 3.735575439881179 0 0 0
292 1 2 -1.1794 3.026372270825509 17.615969452035788 2.7784723968371305 0 0 0
45 1 1 0.5897 0.5014084585326608 12.105952992272382 2.327235982370505 0 0 0
375 1 1 0.5897 0.0786733460680933 14.413174176537282 2.8763347728030415 0 0 0
308 1 1 0.5897 7.248180662454971 17.494569174804646 4.85815813812239 0 0 0
448 1 2 -1.1794 7.611447708426303 17.54962496895521 3.183781969161084 0 0 0
384 1 1 0.5897 2.8489400263201103 17.157618243502558 10.36265161628407 0 0 0
239 1 1 0.5897 2.7507713423563684 16.52940503345838 6.071630827403612 0 0 0
766 1 2 -1.1794 0.5205421833063115 13.506604921848448 10.183090806372165 0 0 0
579 1 1 0.5897 5.237143614042981 11.92922341638069 6.495088904483144 0 0 0
811 1 2 -1.1794 2.816811691905871 15.355632427677048 9.77051144275864 0 0 0
199 1 2 -1.1794 5.2286330599953885 13.607372683704133 5.954845601671585 0 0 0
813 1 1 0.5897 2.0386257048393936 14.798632628680819 9.75435551014796 0 0 0
17 1 1 0.5897 2.8274284099036007 15.165485302704463 7.778699831569107 0 0 0
656 1 1 0.5897 1.2669923401579435 13.995040390905933 6.244236873260595 0 0 0
18 1 1 0.5897 3.4224474775145657 14.63168350363205 6.493028132724907 0 0 0
377 1 1 0.5897 6.45036173608967 14.508809086495152 10.004160246340822 0 0 0
518 1 1 0.5897 7.466774429391455 15.791662372552754 6.597383085103982 0 0 0
454 1 2 -1.1794 4.811776285288338 13.606037876336941 10.357244573500656 0 0 0
812 1 1 0.5897 3.531457672280794 14.762869981443782 10.002931761025721 0 0 0
456 1 1 0.5897 5.071487426792311 12.749099406124222 10.019201561465474 0 0 0
376 1 2 -1.1794 7.303825946528888 14.858255756366974 9.748013371500708 0 0 0
16 1 2 -1.1794 2.635861445228314 15.045201263218113 6.848562372738446 0 0 0
517 1 2 -1.1794 7.438257539434343 14.95694476162854 7.0648322914014985 0 0 0
186 1 1 0.5897 7.044385729822812 16.815758328275294 10.706650395822319 0 0 0
378 1 1 0.5897 7.2924359976142625 14.842027261447091 8.79097449841769 0 0 0
519 1 1 0.5897 8.18362539076764 14.464229552610607 6.721635315292568 0 0 0
655 1 2 -1.1794 0.6408848439081194 13.549875556936364 5.673289395226433 0 0 0
307 1 2 -1.1794 7.216654091883453 17.438530922040027 5.81325494018144 0 0 0
201 1 1 0.5897 6.069633990926155 13.934945142388246 6.273488941275019 0 0 0
238 1 2 -1.1794 2.7170312161457675 17.386597496817284 5.647187817406492 0 0 0
59 1 1 0.5897 8.946372726374484 14.068342699952789 10.329338452125976 0 0 0
296 1 1 0.5897 7.7682658356409355 14.365686206449215 14.964252956775281 0 0 0
232 1 2 -1.1794 2.9992780262490513 14.747020110477841 13.897399150134666 0 0 0
234 1 1 0.5897 2.9330690206607373 14.66718769843484 14.849033864287486 0 0 0
606 1 1 0.5897 3.1551640642048246 16.41870823156001 13.505975656789177 0 0 0
427 1 2 -1.1794 5.519931224011521 13.547525126227649 12.961887294904422 0 0 0
233 1 1 0.5897 3.809206574444519 14.288571888764361 13.67389324875298 0 0 0
639 1 1 0.5897 1.5560848325185495 13.870432803295131 13.139960409071627 0 0 0
429 1 1 0.5897 6.288641801668 13.973485450262343 13.341099515502313 0 0 0
428 1 1 0.5897 5.691755229591771 12.61109481572315 13.05989228268405 0 0 0
638 1 1 0.5897 0.6515667315339086 12.669348320189492 13.31520082339443 0 0 0
604 1 2 -1.1794 3.172147351467472 17.37422513914627 13.453863315680735 0 0 0
295 1 2 -1.1794 7.993692292748032 14.609150158415613 14.06636325857593 0 0 0
270 1 1 0.5897 7.673921063961655 16.36774248054255 13.65211956359214 0 0 0
297 1 1 0.5897 8.851442762757758 14.211221852705876 13.917947244890046 0 0 0
637 1 2 -1.1794 0.6486376242960918 13.58460006290687 13.035298994672086 0 0 0
268 1 2 -1.1794 7.593835153042923 17.32135183587208 13.666868503254895 0 0 0
269 1 1 0.5897 7.380875013017433 17.5582570898018 12.76419939287971 0 0 0
455 1 1 0.5897 4.948760035951124 13.542792265426185 11.302518618872972 0 0 0
605 1 1 0.5897 3.0786308418746153 17.56536551973624 12.52057211818143 0 0 0
823 1 2 -1.1794 3.184409908765095 14.782477309550112 16.599464923212512 0 0 0
767 1 1 0.5897 0.6947256034336757 13.621944393666595 11.117303908597808 0 0 0
126 1 1 0.5897 6.266846539859535 13.733058441816336 17.397004783219014 0 0 0
664 1 2 -1.1794 3.0655261341834215 14.87618932512955 21.678592290427645 0 0 0
52 1 2 -1.1794 1.100234201256586 13.459487986188941 18.00149779914536 0 0 0
451 1 2 -1.1794 0.6859648698795785 13.54064912859363 20.79325099556559 0 0 0
316 1 2 -1.1794 7.564370240506708 14.719162810020036 21.345396470150764 0 0 0
362 1 1 0.5897 5.009832461262956 11.924684008661368 21.20505214282303 0 0 0
125 1 1 0.5897 5.281154386192592 13.518886199513148 18.525912323308486 0 0 0
715 1 2 -1.1794 3.2638461348158607 17.300558980283956 20.67559298299806 0 0 0
684 1 1 0.5897 4.465190821336725 14.02518880149469 20.841243414997233 0 0 0
716 1 1 0.5897 3.2883006635900194 17.314907219084862 19.718766428382512 0 0 0
666 1 1 0.5897 3.0416450859625996 15.778104588690011 21.359192169567503 0 0 0
53 1 1 0.5897 0.9423505073163041 13.582829989400302 18.937541756412795 0 0 0
50 1 1 0.5897 7.656662497864106 15.391885517072229 16.98391296991004 0 0 0
318 1 1 0.5897 7.56935270113117 15.596933717776261 20.96387072463538 0 0 0
665 1 1 0.5897 2.2416315310768544 14.49317319416379 21.377564506455194 0 0 0
452 1 1 0.5897 0.5042001066433025 12.62811620298434 21.017454623859802 0 0 0
683 1 1 0.5897 5.969943158113644 13.880100125273183 20.920370455273602 0 0 0
54 1 1 0.5897 0.29792199438019196 13.767488726176769 17.580090225693876 0 0 0
682 1 2 -1.1794 5.2060219742858544 13.584530284702115 20.42517421804706 0 0 0
124 1 2 -1.1794 5.373432149957136 13.440219443453511 17.576381859712864 0 0 0
584 1 1 0.5897 3.225338912355035 16.442179680461187 17.403482120410693 0 0 0
825 1 1 0.5897 2.466844080807442 14.277214122198512 16.98147100354498 0 0 0
159 1 1 0.5897 7.475535266455945 17.14547195320394 19.419291800667757 0 0 0
51 1 1 0.5897 8.519258820867849 14.158954634279743 17.149179837839572 0 0 0
824 1 1 0.5897 3.9701438791612502 14.275384752010346 16.803382153643494 0 0 0
610 1 2 -1.1794 7.536403127323106 17.2163269707633 17.68274655766889 0 0 0
157 1 2 -1.1794 7.534551293401235 17.230540309805686 20.37093915710218 0 0 0
49 1 2 -1.1794 7.695712248800165 14.46074645937688 16.76596314590328 0 0 0
583 1 2 -1.1794 3.18431681565873 17.279345947142662 17.865588383549323 0 0 0
267 1 1 0.5897 6.134878376861456 21.742669572018766 2.684741802684905 0 0 0
696 1 1 0.5897 1.4008687177776333 21.69339337135441 2.741652278229964 0 0 0
266 1 1 0.5897 4.641943933704699 21.58717109921501 2.488292632414952 0 0 0
265 1 2 -1.1794 5.379364670798808 21.241085723200595 2.9908803180704724 0 0 0
818 1 1 0.5897 8.408012989480788 22.39333564517305 2.436395719653346 0 0 0
228 1 1 0.5897 5.498269416703468 19.63970194499656 2.41334250406212 0 0 0
498 1 1 0.5897 7.242764900536553 22.78380133839367 0.3503039787158946 0 0 0
694 1 2 -1.1794 0.6019599803777548 21.2901746751761 3.0811987388311595 0 0 0
695 1 1 0.5897 0.5694957154820666 20.43097226786762 2.660739518954354 0 0 0
226 1 2 -1.1794 5.484468926521898 18.729286354996674 2.1184002348628086 0 0 0
187 1 2 -1.1794 2.926840381788859 22.279672764062997 1.9360814679775036 0 0 0
817 1 2 -1.1794 7.533110183817466 22.71118054550485 2.2135911286025256 0 0 0
344 1 1 0.5897 1.2627019537945858 18.279767710821602 2.2835245971720313 0 0 0
413 1 1 0.5897 0.43498870246639104 21.565699228326498 4.979653987574278 0 0 0
249 1 1 0.5897 5.149970936810978 21.23238883037407 4.786905439336706 0 0 0
189 1 1 0.5897 2.8276482225495934 22.420790932555008 0.9945079567383711 0 0 0
343 1 2 -1.1794 0.5836520017604074 18.800123341266282 1.8542908833697076 0 0 0
227 1 1 0.5897 4.588775189079533 18.43636949347459 2.285902448090707 0 0 0
345 1 1 0.5897 0.8582701419199932 18.844526915888817 0.9383694169940117 0 0 0
321 1 1 0.5897 9.049414503861284 18.524459861669932 2.4149866186033058 0 0 0
450 1 1 0.5897 6.8963717793611 18.115107990233188 2.8921821158530023 0 0 0
188 1 1 0.5897 3.069753009364301 23.1548624936673 2.296216344469165 0 0 0
602 1 1 0.5897 5.692838241516091 18.664178887257837 0.16967777046605192 0 0 0
555 1 1 0.5897 4.8366375522999 20.885121344892912 10.223682594747173 0 0 0
86 1 1 0.5897 6.967913366471142 22.86179187021329 8.958543052794257 0 0 0
87 1 1 0.5897 7.849907826508192 22.371875003389423 10.087219316307523 0 0 0
37 1 2 -1.1794 2.6572201860737015 22.819852301840932 9.182174738936277 0 0 0
700 1 2 -1.1794 2.7029010001279907 22.777088478101714 6.428562870511951 0 0 0
405 1 1 0.5897 0.6287240687166268 19.72914099639286 9.870062603402316 0 0 0
32 1 1 0.5897 7.977798267481056 22.270836334246408 6.590401648418803 0 0 0
309 1 1 0.5897 7.796828763390757 18.13783600196118 6.113994972097423 0 0 0
39 1 1 0.5897 3.4263015375474746 22.420949030344534 9.589032465741335 0 0 0
248 1 1 0.5897 4.244027000503573 21.52548058438566 5.963869672192032 0 0 0
94 1 2 -1.1794 0.6733689402680969 21.47135280891538 10.49411613491147 0 0 0
85 1 2 -1.1794 7.083160551399321 22.915789932380342 9.907317701758664 0 0 0
340 1 2 -1.1794 0.5693093663803365 18.946410532767242 6.65106327533046 0 0 0
102 1 1 0.5897 5.110360816458267 18.789748667133278 8.660519797206142 0 0 0
101 1 1 0.5897 5.799181875873077 18.557801035223903 9.988576203370375 0 0 0
385 1 2 -1.1794 4.949788982566931 18.67309418083236 6.675420942395825 0 0 0
387 1 1 0.5897 5.163604176338352 19.5561332417211 6.37448473243634 0 0 0
38 1 1 0.5897 1.9379232352788855 22.6196175969304 9.781098299624265 0 0 0
412 1 2 -1.1794 0.39896045356754417 21.647596316038108 5.93270464941008 0 0 0
31 1 2 -1.1794 7.181241498706006 22.59689065056402 7.009129968981708 0 0 0
404 1 1 0.5897 1.6072034972763447 18.58397806781939 10.020491474399677 0 0 0
403 1 2 -1.1794 0.802624259618603 18.837653402119813 9.568326451516622 0 0 0
33 1 1 0.5897 6.467804825266193 22.205214979317706 6.505390810571726 0 0 0
554 1 1 0.5897 5.569222814263762 22.171322505619624 10.540599478007945 0 0 0
341 1 1 0.5897 1.2420005547381898 18.44481990251537 6.190606785915921 0 0 0
702 1 1 0.5897 1.8161271830164454 22.591089775908163 6.1200617575327225 0 0 0
386 1 1 0.5897 5.641481298510531 18.121243802708687 6.310538467245994 0 0 0
100 1 2 -1.1794 5.209809293669154 19.161733468223936 9.536877674247465 0 0 0
553 1 2 -1.1794 4.75663728191831 21.69887610999749 10.721164049968174 0 0 0
701 1 1 0.5897 2.6539138149038157 22.670224640590174 7.378562667996068 0 0 0
342 1 1 0.5897 0.8414757178963408 18.927229077138023 7.568590010159807 0 0 0
240 1 1 0.5897 3.4568858158263445 17.867313899053894 6.018227965007011 0 0 0
414 1 1 0.5897 0.5507797607855351 20.759574618634378 6.2558390144385125 0 0 0
383 1 1 0.5897 3.7593188241443563 18.3603845429469 10.236089907929252 0 0 0
247 1 2 -1.1794 5.082887743361219 21.12501857256398 5.735735386658334 0 0 0
185 1 1 0.5897 7.825241764287255 18.10869726062081 10.806524472427904 0 0 0
382 1 2 -1.1794 3.0658052854771625 17.990151496543483 10.782106012513898 0 0 0
379 1 2 -1.1794 0.35892912772668123 21.11991693026825 13.169207262505838 0 0 0
88 1 2 -1.1794 5.130792252016381 21.429142103473676 13.202203922522388 0 0 0
381 1 1 0.5897 1.2239800557149143 21.42258197042222 13.445245505591318 0 0 0
90 1 1 0.5897 5.096945214324872 20.503523654508808 13.443405335499378 0 0 0
763 1 2 -1.1794 5.255958305317764 18.95796455120523 14.19131873918037 0 0 0
738 1 1 0.5897 3.4798051037676316 22.11835992055884 13.969982781228405 0 0 0
89 1 1 0.5897 4.879501020142543 21.445848857424256 12.2786824687986 0 0 0
788 1 1 0.5897 7.539494390306453 22.509351390101433 14.982628842171595 0 0 0
350 1 1 0.5897 2.5618609512216737 22.666329629151118 15.69182053869026 0 0 0
504 1 1 0.5897 0.6281483384221261 18.232867508719824 15.060952430137016 0 0 0
787 1 2 -1.1794 7.762321168993106 22.31947544574261 14.071250039651192 0 0 0
736 1 2 -1.1794 2.5933580951175568 22.46549440537169 13.870869115282737 0 0 0
380 1 1 0.5897 0.3549559530111507 20.185152042790946 13.374671006026118 0 0 0