LAMMPS data file via write_data, version 27 Oct 2021, timestep = 500000

864 atoms
2 atom types
576 bonds
1 bond types
288 angles
1 angle types

0.5422751103139358 17.665297289689455 xlo xhi
1.730259721298415 21.89891807870751 ylo yhi
0.6615743679738788 21.551621432026835 zlo zhi

Masses

1 1.00794
2 15.9994

Pair Coeffs # lj/cut/tip4p/long/omp

1 0 0
2 0.21084 3.1668

Bond Coeffs # harmonic/omp

1 450 0.9572

Angle Coeffs # harmonic/omp

1 55 104.52

Atoms # full

656 1 1 0.5897 4.2083464278129625 3.789152266705225 4.674898964044557 1 2 2
106 1 2 -1.1794 5.165201965134407 6.0918388734744395 2.5163967211144027 0 -1 2
108 1 1 0.5897 4.745953054243679 6.726768357655201 3.0971573714361256 0 -1 2
755 1 1 0.5897 4.564642702159986 4.51338193431957 6.587662143472953 -3 -2 -3
754 1 2 -1.1794 4.583344624065431 3.5591532570483233 6.660277500016347 -3 -2 -3
57 1 1 0.5897 3.283090183664909 5.428544082160558 0.7252898872430151 -1 1 1
624 1 1 0.5897 2.5394340292132025 6.303032273305498 4.596706021037471 5 -1 2
622 1 2 -1.1794 3.2333478832864806 6.960035991110605 4.541926774577595 5 -1 2
623 1 1 0.5897 2.9100249797557383 7.694646856364541 5.063456767451966 5 -1 2
534 1 1 0.5897 4.409125449537855 6.505214693183012 5.742775197523503 -6 0 -2
532 1 2 -1.1794 5.124584189020357 6.264106082099273 6.331139795792694 -6 0 -2
470 1 1 0.5897 1.418433249037685 4.266909254566309 5.789621584059007 2 -2 2
469 1 2 -1.1794 1.4935114799736025 5.20131333141286 5.596162758692253 2 -2 2
471 1 1 0.5897 1.4114771856901143 5.630092291501688 6.447987339104738 2 -2 2
702 1 1 0.5897 1.369783600396497 1.8583186863222068 2.833102917973284 4 1 1
701 1 1 0.5897 2.2543577585329793 3.0663369675890864 3.056711603895974 4 1 1
655 1 2 -1.1794 4.052019357327645 3.7688646948162425 3.730801164759958 1 2 2
700 1 2 -1.1794 1.3575069736012622 2.8154129597117494 2.8356167331507076 4 1 1
657 1 1 0.5897 4.415567067416362 4.593987980540108 3.4095673373586846 2 2 2
518 1 1 0.5897 2.923730149302615 8.042614524927398 7.308229672537082 -2 -2 -3
517 1 2 -1.1794 2.3611310033870523 7.288115793161559 7.482591279504214 -2 -2 -3
205 1 2 -1.1794 1.2898988604616441 2.4769255558735255 6.092829221333942 -3 3 -2
125 1 1 0.5897 1.715429880626432 7.479079201067986 3.297367305081391 3 1 2
107 1 1 0.5897 4.571324473210836 6.021519960004735 1.769032411085205 0 -1 2
756 1 1 0.5897 3.9809038827873464 3.3611782165692023 7.377256210552915 -3 -2 -3
533 1 1 0.5897 5.469410421602394 7.1000986092340295 6.6448222722656265 -6 0 -2
124 1 2 -1.1794 0.9271151661526537 7.627938840712593 2.775270256655019 3 1 2
345 1 1 0.5897 3.2739948481335888 8.182855402411434 1.22656139740582 -2 0 -2
495 1 1 0.5897 4.42940014117464 2.497731293998504 2.4815258699399525 -1 -1 0
493 1 2 -1.1794 4.836924199271439 1.9382442364093169 1.8204043599781325 -1 -1 0
494 1 1 0.5897 5.772792472992384 1.9763510073829762 2.0175932878807323 -1 -1 0
704 1 1 0.5897 6.23811776117215 2.629961856482181 6.354981044487427 2 -1 -1
55 1 2 -1.1794 2.836096458745695 6.202309651759363 1.0683177802882002 -1 1 1
56 1 1 0.5897 1.972340999107075 5.883947392027745 1.330540355046388 -1 1 1
282 1 1 0.5897 6.825118098388636 5.384112329417418 3.246237938212986 -3 -1 1
280 1 2 -1.1794 7.325097300777913 4.730184680523674 3.7346922657009856 -3 -1 1
281 1 1 0.5897 7.400078562314858 5.094900311931232 4.616478230142917 -3 -1 1
459 1 1 0.5897 9.314892795328506 6.750832624839255 5.073841259635528 -2 2 -1
457 1 2 -1.1794 8.472434037476294 6.670659566022039 5.5210713794585065 -2 2 -1
458 1 1 0.5897 8.674155992385021 6.201353069857789 6.330539230212161 -2 2 -1
197 1 1 0.5897 10.595409799837121 2.8583388493482933 5.0679673563995715 -2 -2 1
210 1 1 0.5897 11.804239986723681 5.793372507005563 6.837397671673582 0 -2 2
683 1 1 0.5897 8.193234679899728 2.7130437913526135 1.7775848027565082 5 1 -2
705 1 1 0.5897 6.930391078171995 3.1703418427151977 5.121882003865703 2 -1 -1
330 1 1 0.5897 10.30438267155452 4.595278833062451 4.014592187346755 3 7 1
328 1 2 -1.1794 10.021708277782814 4.900538603011581 3.152559946438218 3 7 1
102 1 1 0.5897 8.49915182655807 8.215026196080625 3.0256163626767223 5 -5 0
101 1 1 0.5897 9.471237320330333 7.111253937831215 2.667117741912665 5 -5 0
100 1 2 -1.1794 9.33048684933567 8.053951817983098 2.579381229204103 5 -5 0
703 1 2 -1.1794 6.909120211686286 2.413579801073202 5.70758437256725 2 -1 -1
551 1 1 0.5897 11.650867694503448 4.702752788590644 2.076019659655831 -1 4 -3
323 1 1 0.5897 7.2938269043826995 7.920870659360362 4.789986608000406 6 -3 -1
682 1 2 -1.1794 7.838669543629142 1.8501591263954078 1.9918187704146453 5 1 -2
329 1 1 0.5897 9.078905376915825 4.736014179902146 3.1369907040388676 3 7 1
196 1 2 -1.1794 11.058024403020386 3.6738747841517023 5.260520359518209 -2 -2 1
198 1 1 0.5897 11.191172773790488 3.6562515640404003 6.208225729436617 -2 -2 1
120 1 1 0.5897 11.900669066271467 7.812552000126845 6.337274545954329 2 -2 -2
322 1 2 -1.1794 6.951090258284183 8.383378712912869 4.025269730872408 6 -3 -1
573 1 1 0.5897 6.381266761077839 8.383523285085701 1.9647028757424063 4 -3 -2
548 1 1 0.5897 9.336525353381434 7.3930211583390015 0.825361378453533 5 -2 5
767 1 1 0.5897 17.612000350805385 3.913241073198288 1.810810944819161 -4 0 2
766 1 2 -1.1794 17.490604262659275 4.799941802189569 1.471399515284368 -4 0 2
441 1 1 0.5897 12.632879887205705 2.978309387539155 4.274412723353061 0 0 0
118 1 2 -1.1794 12.263793363994639 7.398836985116361 5.5542241842344255 2 -2 -2
119 1 1 0.5897 12.635182377290372 8.123053831286096 5.050472310253886 2 -2 -2
552 1 1 0.5897 12.873276845039873 3.8627233754240478 2.3790861507908367 -1 4 -3
550 1 2 -1.1794 12.564753190853189 4.576499043153012 1.8209575236953746 -1 4 -3
714 1 1 0.5897 14.594129688613243 5.560596813832025 4.753429910632396 -3 0 4
712 1 2 -1.1794 13.674410764692235 5.312611723566846 4.847286362899218 -3 0 4
830 1 1 0.5897 13.64709392765007 6.336324551917826 2.0082124127511176 3 3 2
247 1 2 -1.1794 15.940648948537726 5.630314272562144 7.05173579082897 -4 2 -3
249 1 1 0.5897 15.250940947447173 6.183051469416319 7.419122379524131 -4 2 -3
757 1 2 -1.1794 13.929753544755636 3.5029438285322616 7.181304788082721 1 1 3
713 1 1 0.5897 13.223998660434047 6.132906274807639 5.0483576726228065 -3 0 4
758 1 1 0.5897 14.878100745294105 3.4568681389406377 7.302508906851741 1 1 3
759 1 1 0.5897 13.812216758734147 4.075879585851112 6.423611837663309 1 1 3
816 1 1 0.5897 16.475974641943786 5.381440117488508 3.0549376978569027 -6 5 -1
206 1 1 0.5897 17.62554949361453 2.202007564429614 6.562559982188341 -4 3 -2
110 1 1 0.5897 16.339317892824063 2.762033989766012 4.249357449511829 -1 2 -7
831 1 1 0.5897 14.426359942012246 7.425762852968692 1.302769448299454 3 3 2
829 1 2 -1.1794 13.613533625248364 7.265845339906602 1.7822761116625263 3 3 2
814 1 2 -1.1794 16.346156659171307 5.6975976088987075 3.9490149660133818 -6 5 -1
126 1 1 0.5897 17.342349772915206 7.247871177528385 3.29563014048773 2 1 2
815 1 1 0.5897 17.03860480790766 5.274025674068682 4.456251626104153 -6 5 -1
439 1 2 -1.1794 13.028425556923034 2.4488349626432324 3.5820343089583218 0 0 0
821 1 1 0.5897 16.695245328006884 7.535255024927686 1.2895313345479704 1 1 6
617 1 1 0.5897 16.655110947531526 7.2923874528658565 5.84884509008091 -1 2 0
616 1 2 -1.1794 16.566823170373212 8.237273497018153 5.724020776573372 -1 2 0
156 1 1 0.5897 12.335970753434633 8.290131656666386 2.5914536725349238 4 3 -2
440 1 1 0.5897 13.91530892537388 2.2693874684074977 3.8941641650969188 0 0 0
109 1 2 -1.1794 15.748179751749092 2.040565641650396 4.0343536642159945 -1 2 -7
111 1 1 0.5897 15.707700450143555 2.040341217480207 3.0780344062668794 -1 2 -7
241 1 2 -1.1794 15.871939794372459 1.8258408570377536 1.0270414902760467 -3 0 3
820 1 2 -1.1794 15.966004182341084 7.4078048463519615 0.6827781217247745 1 1 6
343 1 2 -1.1794 3.7374746989430148 8.974229852886307 1.500596217031902 -2 0 -2
344 1 1 0.5897 4.546482548155411 8.96781086533386 0.9890753276860459 -2 0 -2
836 1 1 0.5897 3.4061822084476465 11.131210079190076 3.953657208011584 -1 2 -1
835 1 2 -1.1794 4.143785468654279 10.85274482982866 3.410902059981686 -1 2 -1
22 1 2 -1.1794 1.5436826277517006 11.954306584207355 4.480122295049032 -2 2 1
837 1 1 0.5897 3.812420198372144 10.09776607220533 2.9247207070857333 -1 2 -1
840 1 1 0.5897 0.8248399380000483 12.232450445910063 0.8022934612165615 -2 -2 -4
603 1 1 0.5897 5.969573210018742 12.908953011632777 1.3623292496757329 2 4 -1
291 1 1 0.5897 1.0310043346381224 9.146322752812171 5.489882668584163 -5 -6 -5
637 1 2 -1.1794 3.164392329599796 14.228657225759532 5.1709985603899025 -7 2 4
639 1 1 0.5897 2.8365845176865228 15.000437915407872 4.709394252855082 -7 2 4
798 1 1 0.5897 5.7050723361279925 10.951524963640288 4.344215780656398 1 -3 -3
290 1 1 0.5897 1.9066505797676396 10.324282734157986 5.119190394992893 -5 -6 -5
638 1 1 0.5897 2.4334157407257475 13.610916989941058 5.154895208793372 -7 2 4
729 1 1 0.5897 5.342109606195642 13.978248662309355 4.424935067261283 -1 2 0
289 1 2 -1.1794 1.9412279457024224 9.389149081008263 5.320443851256441 -5 -6 -5
93 1 1 0.5897 0.8895170387724689 9.411501578620609 2.8789130322132825 2 -4 3
738 1 1 0.5897 6.192277587549396 14.64185915177007 2.264726973308913 2 -2 -1
566 1 1 0.5897 3.7004087336056948 13.960285765111534 6.984673143218657 2 5 -8
807 1 1 0.5897 0.8743461883906354 12.327532293836027 7.205005417091171 1 -3 -4
17 1 1 0.5897 4.744009228227354 11.116499682681612 7.129722231852432 -2 3 3
16 1 2 -1.1794 5.467611084969763 11.742494453922557 7.103005603327047 -2 3 3
727 1 2 -1.1794 6.05963953965048 14.575291463862333 4.213100238997902 -1 2 0
23 1 1 0.5897 1.2098496402443177 11.455103339596963 3.7347762277007868 -2 2 1
24 1 1 0.5897 0.7605762377908422 12.305809556091875 4.903632649937016 -2 2 1
91 1 2 -1.1794 0.6668946372152341 10.289733531496449 2.5701555248569727 2 -4 3
530 1 1 0.5897 1.2768427344803142 14.666633340432641 0.9750321790909977 -3 0 -6
601 1 2 -1.1794 5.827925731304357 11.965286466884114 1.287461306766509 2 4 -1
602 1 1 0.5897 5.3252076840593725 11.73532149709639 2.0688463518102216 2 4 -2
92 1 1 0.5897 1.0838496564211821 10.354951383956452 1.711042188987018 2 -4 3
571 1 2 -1.1794 6.471377790443899 8.797729442220554 1.1065072287643016 4 -3 -2
722 1 1 0.5897 8.581783381632409 10.26736209001576 7.318985189755927 2 1 0
736 1 2 -1.1794 6.36097275097551 14.775766099063839 1.3320970459743597 2 -2 -1
796 1 2 -1.1794 6.503291453631694 10.839641787712678 4.860467981926451 1 -3 -3
797 1 1 0.5897 6.277347733039986 11.175977283945505 5.727656490837073 1 -3 -3
432 1 1 0.5897 8.096574247406538 10.144701165174816 1.13369413315802 -4 -2 -2
184 1 2 -1.1794 8.636015255299412 11.98637479299174 6.533604054639016 0 5 3
324 1 1 0.5897 6.567047801066891 9.184480766967031 4.3815377912625255 6 -3 -1
770 1 1 0.5897 7.974087370754181 11.440623879674533 4.010543373605868 5 0 2
769 1 2 -1.1794 8.850385903807116 11.75495816558714 3.7880962038380805 5 0 2
771 1 1 0.5897 8.75565922115423 12.705358440337347 3.725280999901491 5 0 2
12 1 1 0.5897 11.475334633938509 9.617204110610407 6.833432907635452 -3 0 4
38 1 1 0.5897 11.52000493230561 9.936440343178878 4.7200929316506475 -1 2 -1
37 1 2 -1.1794 11.561467917785352 10.720470071133603 5.267600157874065 -1 2 -1
186 1 1 0.5897 9.036205215770783 11.660092527114402 5.727643057034114 0 5 3
431 1 1 0.5897 9.166042422386338 10.715955360343695 2.040162923135978 -4 -2 -2
398 1 1 0.5897 8.647391827679453 13.521153016850116 5.675882450877476 6 3 -4
397 1 2 -1.1794 8.631943660637265 14.274416920830028 5.0855111309633525 6 3 -4
399 1 1 0.5897 7.716610682480773 14.349170804332744 4.815759611828803 6 3 -4
155 1 1 0.5897 10.93808270956925 8.766049028266911 2.9248855891294734 4 3 -2
645 1 1 0.5897 8.905632724694655 14.70670875457569 1.407712686232037 5 -2 0
154 1 2 -1.1794 11.860901121578605 9.000993098601636 3.0217677938725833 4 3 -2
737 1 1 0.5897 7.2452671275755165 15.1405379540472 1.298124167940159 2 -2 -1
665 1 1 0.5897 11.611022665519867 14.570113969973189 3.901437918525207 0 0 4
430 1 2 -1.1794 8.990495042306573 10.486832070298195 1.1275456061509823 -4 -2 -2
10 1 2 -1.1794 11.53910238467344 8.942709929791647 7.509583972199154 -3 0 4
723 1 1 0.5897 9.411127637960426 9.002155523311902 7.2623181040821185 2 1 0
735 1 1 0.5897 10.86134668864257 13.579102726743548 7.616704998691616 0 0 -4
185 1 1 0.5897 9.376061951165749 12.261960520712785 7.074503418239347 0 5 3
240 1 1 0.5897 8.757199517386763 12.267523847373532 0.9008749989119286 -5 -5 -1
201 1 1 0.5897 14.896419446754045 8.793878008861322 4.738211483062602 0 -2 0
618 1 1 0.5897 16.13296805455612 8.544972350834504 6.519789701052188 -1 2 0
850 1 2 -1.1794 12.810868486580798 11.505350178852067 2.1892731105242245 -6 -1 -1
664 1 2 -1.1794 12.252124280858952 13.921270449972743 4.191549914446172 0 0 4
851 1 1 0.5897 12.29930491330353 10.750432321965642 2.480095431752669 -6 -1 -1
852 1 1 0.5897 12.62101520187932 12.18671264088172 2.83416712304393 -6 -1 -1
666 1 1 0.5897 12.147199903263894 13.888723365135801 5.142402690066559 0 0 4
838 1 2 -1.1794 17.569065473057115 13.007404973265688 1.2171969729096388 -3 -2 -4
839 1 1 0.5897 17.193096653604158 12.682122731498534 2.035137875760558 -3 -2 -4
39 1 1 0.5897 12.49696357595654 10.864699690487175 5.409769096363262 -1 2 -1
200 1 1 0.5897 14.76495551468784 9.739174852068526 3.563094543321247 0 -2 0
199 1 2 -1.1794 14.41719957823472 9.566115764826485 4.437908713300339 0 -2 0
760 1 2 -1.1794 14.05084302552417 11.915851973520736 5.757836228720434 0 -4 -1
762 1 1 0.5897 13.884053446656722 12.547915607439675 5.05864651771922 0 -4 -1
859 1 2 -1.1794 12.12354481467162 14.840119156071076 6.901123599447789 -3 -1 0
860 1 1 0.5897 13.048952447179085 14.63879110365424 7.0399012747949445 -3 -1 0
2 1 1 0.5897 17.325468117276657 14.267764939970476 6.271808490298783 0 -6 3
1 1 2 -1.1794 16.980410910762835 13.462157740192646 5.886946787895808 0 -6 3
761 1 1 0.5897 14.501827240695128 11.191556532097835 5.324026965829271 0 -4 -1
3 1 1 0.5897 16.048591216379357 13.471693981016612 6.105590956157553 0 -6 3
454 1 2 -1.1794 15.295095440129725 13.01283720493415 3.2801073346109497 1 -2 1
455 1 1 0.5897 15.253555715684632 13.675386016820752 2.5905533275593253 1 -2 1
173 1 1 0.5897 14.774667531504493 10.775296421018691 1.9402546170101898 2 3 -2
172 1 2 -1.1794 15.22832388157629 9.945982571748894 1.7898507471334482 2 3 -2
174 1 1 0.5897 16.105341240235653 10.083863949491999 2.1476460301903293 2 3 -2
456 1 1 0.5897 15.85320624541965 13.401882313598165 3.9534145820746693 1 -2 1
626 1 1 0.5897 13.654847136727474 11.682804996046222 7.4075647052860605 -5 -3 3
508 1 2 -1.1794 14.73820579747462 14.468311868919765 7.592275338749312 3 0 3
272 1 1 0.5897 12.088391023199529 10.45702288128705 0.6731397863348292 -1 3 5
380 1 1 0.5897 15.98085221800454 14.311187421107714 0.7432996320338351 8 3 0
379 1 2 -1.1794 15.112608620185595 14.641311712356671 0.9742944391418324 8 3 0
59 1 1 0.5897 2.9582505546358253 20.266704055179083 7.410240284254401 4 -2 -2
207 1 1 0.5897 1.7806459354813797 21.835852462151408 5.952516588561472 -3 2 -2
150 1 1 0.5897 5.796067079352797 21.312906369242846 4.733631968304142 -4 -1 0
149 1 1 0.5897 4.421807469351771 20.841090842598568 4.308691044550836 -4 -1 0
148 1 2 -1.1794 5.332658857665274 20.55501430697877 4.377215842458011 -4 -1 0
212 1 1 0.5897 2.8050952563523763 16.72588559767057 2.8856757597444367 3 0 3
728 1 1 0.5897 5.750420490434832 15.433994316504053 4.501548472713484 -1 2 0
434 1 1 0.5897 4.663820678232679 15.894623717473797 1.2899199434644486 1 1 0
433 1 2 -1.1794 4.043627047238366 16.623648673279405 1.2815750577423954 1 1 0
435 1 1 0.5897 4.562455594107542 17.383141058742837 1.5464692311049908 1 1 0
178 1 2 -1.1794 4.861843431975025 17.238531493096957 4.780694908707807 -7 0 0
180 1 1 0.5897 4.110117355480886 17.309376835564358 5.368976954830396 -7 0 0
211 1 2 -1.1794 2.1384117525587145 16.409636086793345 3.4953470291262416 3 0 3
179 1 1 0.5897 5.506490247353161 17.847687318097897 5.140620382418731 -7 0 0
804 1 1 0.5897 5.135322229256574 19.425668830405755 2.759865827291636 5 2 -1
802 1 2 -1.1794 4.490025724221352 19.094744577848957 2.1351588335325506 5 2 -1
213 1 1 0.5897 1.9212252006895694 17.172905175171536 4.030542449474823 3 0 3
151 1 2 -1.1794 3.3023343862123746 17.302093112321764 6.790770895916381 3 -2 -1
660 1 1 0.5897 5.90792585746652 19.611065467049507 5.751550550812435 1 -1 2
803 1 1 0.5897 3.644632539445102 19.26523847892198 2.5503743997067603 5 2 -1
153 1 1 0.5897 2.543793746045039 16.739984290090064 6.948353024702955 3 -2 -1
142 1 2 -1.1794 1.8415907083923717 20.151619681242664 2.871216194150947 0 3 3
143 1 1 0.5897 1.3037984361520716 19.89539515382026 2.1220110681307838 0 3 3
144 1 1 0.5897 1.4987141986314838 19.635199193434424 3.6005501900517123 0 3 3
58 1 2 -1.1794 2.855705158263247 20.56291117944744 6.505844341731215 4 -2 -2
60 1 1 0.5897 2.3543628468693063 19.86707707484257 6.0808028856058325 4 -2 -2
152 1 1 0.5897 3.422480941526495 17.77885351353541 7.612014236292738 3 -2 -2
9 1 1 0.5897 0.6209418528940678 15.65384144431992 3.254422010933479 2 -3 -1
334 1 2 -1.1794 1.3802078208676192 18.65064098826896 5.206111268069172 5 -1 3
335 1 1 0.5897 1.7631672660096012 18.221587879479017 5.971254485802688 5 -1 3
520 1 2 -1.1794 1.0089067358520616 15.84062908208658 7.039322162071291 -1 1 -3
284 1 1 0.5897 5.4715863144172365 16.617769743181064 6.915690749895315 5 -2 -2
285 1 1 0.5897 5.324405292710096 15.242064633253305 7.530150590470718 5 -2 -2
283 1 2 -1.1794 5.941148718425939 15.968375700893406 7.4391268801822825 5 -2 -2
129 1 1 0.5897 3.752768184840584 21.23284579471693 0.7547326224231123 1 1 -3
531 1 1 0.5897 2.3450833050699855 15.73340607155181 0.8628545178451335 -3 0 -6
684 1 1 0.5897 7.797527246412228 21.561058996250452 1.1522155040482103 5 0 -2
320 1 1 0.5897 8.637609733482872 21.890447019709278 5.226684673514516 2 -3 2
319 1 2 -1.1794 9.510487262147597 21.50120501248403 5.279128996037459 2 -3 2
321 1 1 0.5897 9.571499391727524 20.943407235173943 4.503675243873016 2 -3 2
699 1 1 0.5897 8.805214994757124 20.774694697405103 2.5883648106231334 -4 3 -3
527 1 1 0.5897 7.221010184667631 17.55598019651653 2.9583174586186454 -3 -6 1
658 1 2 -1.1794 6.341525060353458 18.895899171620442 6.217073554272552 1 -1 2
526 1 2 -1.1794 7.556664576553615 18.019487401327126 2.1910586674808954 -3 -6 1
855 1 1 0.5897 7.78124940768982 16.227328113329364 7.3815859403027995 -3 0 1
643 1 2 -1.1794 8.923671492106358 15.663170736586842 1.375403082363122 5 -2 0
528 1 1 0.5897 7.678687169611919 17.336004929714143 1.5321611476418957 -3 -6 1
698 1 1 0.5897 8.69029322639289 19.275050775464344 2.7605302346843277 -4 3 -3
651 1 1 0.5897 10.226689050045467 19.181671170480477 1.1441026362284648 0 0 0
785 1 1 0.5897 10.266815245028683 16.809127817379846 4.0199339043905375 5 5 3
784 1 2 -1.1794 10.656484881909943 16.215372291062465 3.3782225779640718 5 5 3
786 1 1 0.5897 9.962442690095775 16.067164288429794 2.7359538656389613 5 5 3
257 1 1 0.5897 9.076811186124802 17.51721999417992 5.970020674877432 -3 -1 -1
256 1 2 -1.1794 8.971215751115 17.929357559381394 5.1125957702650195 -3 -1 -1
171 1 1 0.5897 11.51756300805807 19.191965083063522 4.016011837154185 -5 4 -2
697 1 2 -1.1794 9.28252229691687 20.011320074845713 2.9133616243609257 -4 3 -3
258 1 1 0.5897 9.64707231346541 18.606664388081988 5.087022165459457 -3 -1 -1
659 1 1 0.5897 7.187519852188275 18.802587295444212 5.77916599508736 1 -1 2
169 1 2 -1.1794 11.5809168274734 19.185060207436486 4.971052540366296 -5 4 -2
854 1 1 0.5897 8.795374661556998 15.49998788526734 6.524669753961275 -3 0 1
853 1 2 -1.1794 8.719819442341876 16.059262150365438 7.2977750149952 -3 0 1
740 1 1 0.5897 11.93219976210212 16.495833101093254 2.1384974734884423 -2 -1 2
233 1 1 0.5897 10.093743546951384 21.188512513718585 6.874721190153501 -1 0 0
234 1 1 0.5897 11.52383811347892 21.31868655582857 7.353929185969381 -1 0 0
861 1 1 0.5897 12.07626776312322 15.795046650151095 6.946552787822839 -3 -1 0
177 1 1 0.5897 12.164737623044266 18.32394055197959 6.4818432794343055 0 -3 6
428 1 1 0.5897 12.544876670703516 20.67491336168508 2.6869528469319994 2 -2 -2
427 1 2 -1.1794 12.408010065648615 19.760669632489936 2.4387359567750027 2 -2 -2
741 1 1 0.5897 12.356136736883146 15.445069943651717 1.1345330609296091 -2 -1 2
175 1 2 -1.1794 12.063111834782598 17.814635392399836 7.2858678763501326 0 -3 6
170 1 1 0.5897 12.112380143032663 19.95269947646768 5.18184994487717 -5 4 -2
537 1 1 0.5897 13.822804394957616 15.250732472807847 4.2225339598647835 4 6 3
230 1 1 0.5897 13.638546762983294 20.369504606601588 6.891091091155649 1 3 2
7 1 2 -1.1794 16.808012228300008 15.459761183470473 3.304514234819399 1 -3 -1
509 1 1 0.5897 15.030737410913678 15.36707180478154 7.441215505826237 3 0 3
536 1 1 0.5897 15.264395314025426 15.710212920470527 4.172710224687576 4 6 3
429 1 1 0.5897 13.100256024300945 19.282005888292062 2.894643554161919 2 -2 -2
739 1 2 -1.1794 12.641346667171401 16.264525700358142 1.5386721577759002 -2 -1 2
8 1 1 0.5897 16.41574956571216 15.988595939288674 2.609787221140829 1 -3 -1
775 1 2 -1.1794 15.6550690806384 17.005942631476245 6.774893422574847 3 -4 2
182 1 1 0.5897 16.213709680695473 20.685841220949875 5.156866035931673 -5 1 -2
181 1 2 -1.1794 16.017254321956013 19.75909736546008 5.293734098866162 -6 1 -2
183 1 1 0.5897 15.675307479327547 19.715601563723666 6.186687973823426 -6 1 -2
535 1 2 -1.1794 14.46557446649944 15.779259539921446 4.695497784010899 4 6 3
717 1 1 0.5897 15.568262804186148 17.70524158758309 1.983349356631454 3 -6 -3
715 1 2 -1.1794 16.129502306221532 17.236353069136293 1.36582677176744 3 -6 -3
716 1 1 0.5897 15.521613921171499 16.73723920514987 0.8203522971480786 3 -6 -3
337 1 2 -1.1794 14.607269645056755 18.36513053029794 3.227345086926548 -4 -1 1
339 1 1 0.5897 14.939959880929669 18.856536551927412 3.978359193535136 -4 -1 1
338 1 1 0.5897 14.25535580182621 17.55900447077478 3.604840984999298 -4 -1 1
369 1 1 0.5897 17.13876554571994 18.62508098761535 0.8754425615665313 3 6 -2
777 1 1 0.5897 15.165518761138717 16.777385634121416 5.984773151438056 3 -4 2
243 1 1 0.5897 15.375219003592754 21.233564880597548 0.7263155026645032 -3 -1 3
776 1 1 0.5897 15.112886553756448 17.66290010247472 7.211507554970976 3 -4 2
336 1 1 0.5897 17.664820403669367 18.992108100632485 5.517007647965837 4 -1 3
512 1 1 0.5897 13.370794845336189 19.955185211163567 0.8396823919053064 -3 1 -4
231 1 1 0.5897 13.544493027943018 21.879366873983756 6.8340041861273715 1 3 2
193 1 2 -1.1794 16.30706720448557 21.70294828926233 7.622660986100674 1 -5 1
522 1 1 0.5897 17.32609204093466 16.354320190497507 7.093397574604609 -2 1 -3
229 1 2 -1.1794 13.15128508422812 21.082482605582094 6.478263152234497 1 3 2
519 1 1 0.5897 2.7507052354577315 6.870713806729562 8.250829422651304 -2 -2 -3
605 1 1 0.5897 0.6607741289347302 3.890266551122085 9.291922821329555 -4 1 -1
25 1 2 -1.1794 3.5654762433286247 3.149757663182495 12.134224943854448 -1 7 7
26 1 1 0.5897 2.684758481930986 3.4947993613251382 11.987697934997493 -1 7 7
671 1 1 0.5897 5.028232477021497 5.772340824682418 12.37717754166134 4 1 1
670 1 2 -1.1794 4.0832815267230345 5.666518016254988 12.267384910630623 4 1 1
189 1 1 0.5897 3.144556550244514 4.885311594155494 9.5052785582797 -1 4 1
187 1 2 -1.1794 3.5173949172567243 5.74036838048301 9.719878100279338 -1 4 1
188 1 1 0.5897 3.7458304384725793 5.676671741218444 10.647209764798433 -1 4 1
81 1 1 0.5897 1.3239460567665753 7.75030579310571 12.125300695491369 2 1 -5
276 1 1 0.5897 1.043449430154403 7.6352991160128205 8.578804442788737 -1 3 -2
672 1 1 0.5897 3.9481475463170357 4.719067228392369 12.2514029719628 4 1 1
79 1 2 -1.1794 0.6147799094726915 7.181094721274375 11.826518176181242 2 1 -5
317 1 1 0.5897 2.2809392520079634 2.523204182690198 9.182055520089278 -5 -5 0
105 1 1 0.5897 2.0818716887403967 5.132425357803451 13.786918547647266 3 0 5
354 1 1 0.5897 0.9738651886074845 5.3581828792534125 12.031960619094823 5 3 0
352 1 2 -1.1794 1.0068323997405149 4.4016229335813435 12.038979544406777 5 3 0
27 1 1 0.5897 3.5640654609349003 2.8690340565950487 13.049309189756226 -1 7 7
318 1 1 0.5897 2.2535216320700973 2.886351914573149 7.712648957736842 -5 -5 1
316 1 2 -1.1794 2.4834752579854147 3.2342984086137863 8.574179524099636 -5 -5 1
559 1 2 -1.1794 6.1793864982953295 8.446921701252805 8.09772251654088 5 1 1
564 1 1 0.5897 6.229353448041915 3.3347001352447725 8.964987696581456 2 1 4
287 1 1 0.5897 5.542077319828196 5.60872441427121 9.386646406746536 5 0 1
560 1 1 0.5897 6.2418560404244126 8.074494487363111 8.977259058854802 5 1 1
29 1 1 0.5897 6.09328803625579 8.165598575388337 11.254386526799156 -7 -1 4
224 1 1 0.5897 0.5922779168232992 2.2080405237817318 14.26062013599767 4 0 -9
558 1 1 0.5897 2.6948805715817024 8.22296828213041 13.681110450572566 1 1 2
681 1 1 0.5897 5.166147737329678 2.271654383443022 11.660653431234769 -7 -4 0
679 1 2 -1.1794 6.120825341044953 2.2271607479079583 11.713553618176661 -7 -4 0
366 1 1 0.5897 4.860695573811323 7.468698858798413 14.2528545565294 1 5 1
365 1 1 0.5897 3.6188458430401074 6.606571314725049 14.332369944149375 1 5 1
208 1 2 -1.1794 11.629688150061979 5.2829789232443325 7.628104487173872 0 -2 2
209 1 1 0.5897 10.735043072457833 5.518860930903118 7.873374180950469 0 -2 2
576 1 1 0.5897 6.56790279235176 3.0605423642157463 13.23821391867791 2 1 -1
164 1 1 0.5897 6.9519615182959145 6.4675928865989345 13.27983832017258 -4 2 -1
574 1 2 -1.1794 6.789143052325271 3.2484173112734345 14.15032363594377 2 1 -1
562 1 2 -1.1794 6.492111619566963 2.4158765780231377 9.01887823933896 2 1 4
286 1 2 -1.1794 6.276615115623143 5.06095122054913 9.109904816657215 5 0 1
563 1 1 0.5897 7.415198148082992 2.4150069259822633 8.765704661904303 2 1 4
288 1 1 0.5897 6.532449696517119 5.414964520653749 8.25819396554105 5 0 1
163 1 2 -1.1794 6.671124573269479 5.638247846899036 12.893179952500395 -4 2 -1
303 1 1 0.5897 8.781562078292886 6.095641487891579 8.927940931088534 -2 2 6
302 1 1 0.5897 9.111482575491591 4.7124361035199005 8.408647323615284 -2 2 6
301 1 2 -1.1794 8.93373597205464 5.607230349324711 8.118941447164593 -2 2 6
28 1 2 -1.1794 6.788501516258953 7.7740916082620135 10.725624951517961 -7 -1 4
30 1 1 0.5897 6.632244164901082 6.831541927514232 10.783647531725002 -7 -1 4
165 1 1 0.5897 6.526643583133617 5.060753729771142 13.642717967173393 -4 2 -1
134 1 1 0.5897 8.442919801384287 4.311163355826579 11.490029053960498 -1 -4 -1
133 1 2 -1.1794 9.30668993442919 3.9116620234195123 11.387631299757746 -1 -4 -1
375 1 1 0.5897 10.229856296303819 1.8499347929968233 13.789272770517414 3 6 0
135 1 1 0.5897 9.911741922835688 4.652718325273812 11.357028126560293 -1 -4 -1
488 1 1 0.5897 9.71642051698945 2.297766997100222 8.381995869469282 1 -6 2
487 1 2 -1.1794 9.090104763189785 2.9413167497668526 8.71329810531401 1 -6 2
373 1 2 -1.1794 10.75330243135475 2.534410656543139 13.372519096178863 3 6 0
374 1 1 0.5897 10.217131226818681 2.8327309189513503 12.637867620941034 3 6 0
489 1 1 0.5897 9.328719075420663 3.057005169272647 9.633008864052975 1 -6 2
70 1 2 -1.1794 10.27576094534485 7.445743248907847 10.09158193729758 4 3 -5
72 1 1 0.5897 9.606334076648476 7.619523263286369 10.753272079828454 4 3 -5
71 1 1 0.5897 10.555931880390123 8.313315215350805 9.800025725019722 4 3 -5
97 1 2 -1.1794 11.619207211065829 5.315318248117199 11.467640551038324 1 -7 6
98 1 1 0.5897 11.402076622117272 6.056782736496514 10.902610253959395 1 -7 6
450 1 1 0.5897 7.456179925962855 8.421956386769399 13.73879885651766 4 -2 -2
460 1 2 -1.1794 9.185844614631723 8.012614307873706 12.782020069845636 3 3 -2
462 1 1 0.5897 9.629927618183327 7.545417207612825 13.489620937022469 3 3 -2
448 1 2 -1.1794 6.517936852319134 8.248509276059105 13.814938927915527 4 -2 -2
680 1 1 0.5897 6.41240917643791 2.237046023238563 10.801930433721072 -7 -4 0
248 1 1 0.5897 16.28161853130318 5.142106470934612 7.801123758140793 -4 2 -3
606 1 1 0.5897 16.457634264799616 3.9246973178789832 10.02122691485941 -5 1 -1
604 1 2 -1.1794 16.838159908130713 3.883807907820117 9.143894388130256 -5 1 -1
274 1 2 -1.1794 17.391535255259036 7.9371581054752385 9.052646790103182 -2 3 -2
275 1 1 0.5897 17.575214788349875 7.7310353154551406 9.969138586820835 -2 3 -2
353 1 1 0.5897 17.22339841803958 4.1313125578933185 12.185457748222378 4 3 0
619 1 2 -1.1794 12.303249304085718 3.1329415340175046 9.832744272949968 1 -1 3
194 1 1 0.5897 16.399253228961072 2.2061985523288565 8.298101565907992 1 -4 1
620 1 1 0.5897 12.727416961157342 3.3039761785011716 8.991904658720573 1 -1 3
121 1 2 -1.1794 14.307889432850276 8.216520180460433 8.195563518681402 0 -3 1
546 1 1 0.5897 15.262249535201843 5.918628937963863 12.405511491091787 -5 3 4
630 1 1 0.5897 16.36527156236687 4.138518692932231 14.152420857450517 -2 -3 4
131 1 1 0.5897 15.276861135674302 3.856566562382167 12.062957952921415 -6 1 1
50 1 1 0.5897 13.384379315575544 5.281424369745883 8.716497420734282 6 0 0
99 1 1 0.5897 12.091363839193688 4.7089576549877545 10.897048252267208 1 -7 6
145 1 2 -1.1794 14.570042032420297 7.431068522329367 11.352483120287356 -2 1 -4
147 1 1 0.5897 14.321439008163589 6.783160235883955 10.693243942430662 -2 1 -4
132 1 1 0.5897 14.841142654021136 2.5379392284503406 11.460338986170454 -6 1 1
130 1 2 -1.1794 15.519639483204722 3.2103732855702845 11.399875617925565 -6 1 1
49 1 2 -1.1794 13.797814684999487 5.89612857288484 9.322629170620854 6 0 0
51 1 1 0.5897 13.701023885964664 6.750201095307816 8.901464525917874 6 0 0
80 1 1 0.5897 16.955000306337297 7.730234820172067 11.869545591559753 1 1 -5
362 1 1 0.5897 12.752815824050474 6.254862234958623 13.916781090522546 1 -3 -2
298 1 2 -1.1794 12.875701657753593 8.003374163346287 13.230010311284035 -4 -1 0
299 1 1 0.5897 13.455338001778259 7.832540933275996 12.487702716806364 -4 -1 0
146 1 1 0.5897 14.568413307373936 8.264743483880288 10.88219437518978 -2 1 -4
261 1 1 0.5897 12.314502649031835 1.9952643622289428 12.702144546319337 1 0 5
621 1 1 0.5897 12.394919208660047 2.1887184068710654 9.96010257534495 1 -1 3