LAMMPS (27 Oct 2021)
  using 32 OpenMP thread(s) per MPI task
package omp 0
using multi-threaded neighbor list subroutines
echo both

include		in.partitions
variable        pid world 0
include		in.temp
variable	temperature equal 300.0
variable	tempDamp equal 100.0
include		in.pressure
variable        pressure equal 8000
variable        pressureDamp equal 1000.0 # This is 1 ps
include		in.seed
variable        seed world 745823

units		real
atom_style	full
include		in.box
read_data       water.data
Reading data file ...
  orthogonal box = (0.0000000 1.0915313 0.0000000) to (18.207572 22.537647 22.213196)
  1 by 1 by 1 MPI processor grid
  reading atoms ...
  864 atoms
  reading velocities ...
  864 velocities
  scanning bonds ...
  2 = max bonds/atom
  scanning angles ...
  1 = max angles/atom
  reading bonds ...
  576 bonds
  reading angles ...
  288 angles
Finding 1-2 1-3 1-4 neighbors ...
  special bond factors lj:    0        0        0       
  special bond factors coul:  0        0        0       
     2 = max # of 1-2 neighbors
     1 = max # of 1-3 neighbors
     1 = max # of 1-4 neighbors
     2 = max # of special neighbors
  special bonds CPU = 0.004 seconds
  read_data CPU = 0.027 seconds
include 	in.setup
variable	out_freq equal 500
variable	out_freq2 equal 500

timestep	2.0

neigh_modify    delay 7 every 1

include		in.tip4p
# This is TIP4P/Ice

# create groups ###
group ox type 2
288 atoms in group ox
group hy type 1
576 atoms in group hy

# set charges - beside manually ###
set group ox charge -1.1794
Setting atom values ...
  288 settings made for charge
set group hy charge 0.5897
Setting atom values ...
  576 settings made for charge

# ### TIP3P Potential Parameters ###
pair_style lj/cut/tip4p/long 2 1 1 1 0.1577 8.5
pair_coeff 1 1*2 0.000 0.000
pair_coeff 2 2 0.21084 3.1668
bond_style  harmonic
bond_coeff  1 450 0.9572
angle_style harmonic
angle_coeff 1 55 104.52
kspace_style pppm/tip4p 1.0e-5
pair_modify tail yes

thermo          ${out_freq}
thermo          500
thermo_style 	custom step temp pe etotal epair emol press lx ly lz vol pxx pyy pzz pxy pxz pyz

restart 	${out_freq} restart.lmp.${pid} restart2.lmp.${pid}
restart 	500 restart.lmp.${pid} restart2.lmp.${pid}
restart 	500 restart.lmp.0 restart2.lmp.${pid}
restart 	500 restart.lmp.0 restart2.lmp.0


include         in.dump
dump            myDump all atom ${out_freq2} dump.water.${pid}
dump            myDump all atom 500 dump.water.${pid}
dump            myDump all atom 500 dump.water.0
dump            myDump2 all dcd ${out_freq2} dump.dcd
dump            myDump2 all dcd 500 dump.dcd
dump_modify     myDump append yes
dump_modify     myDump2 append yes


timer           timeout 00:55:00 every 1000
New timer settings: style=normal  mode=nosync  timeout=00:55:00

fix 		1 all shake 1e-6 200 0 b 1 a 1
       0 = # of size 2 clusters
       0 = # of size 3 clusters
       0 = # of size 4 clusters
     288 = # of frozen angles
  find clusters CPU = 0.002 seconds
fix             2 all nph iso ${pressure} ${pressure} ${pressureDamp}
fix             2 all nph iso 8000 ${pressure} ${pressureDamp}
fix             2 all nph iso 8000 8000 ${pressureDamp}
fix             2 all nph iso 8000 8000 1000
fix             3 all temp/csvr ${temperature} ${temperature} ${tempDamp} ${seed}
fix             3 all temp/csvr 300 ${temperature} ${tempDamp} ${seed}
fix             3 all temp/csvr 300 300 ${tempDamp} ${seed}
fix             3 all temp/csvr 300 300 100 ${seed}
fix             3 all temp/csvr 300 300 100 745823
velocity 	all create ${temperature} ${seed} dist gaussian
velocity 	all create 300 ${seed} dist gaussian
velocity 	all create 300 745823 dist gaussian

run             500000
PPPM initialization ...
  extracting TIP4P info from pair style
  using 12-bit tables for long-range coulomb (../kspace.cpp:340)
  G vector (1/distance) = 0.37144849
  grid = 24 25 25
  stencil order = 5
  estimated absolute RMS force accuracy = 0.0033118622
  estimated relative force accuracy = 9.9735747e-06
  using single precision MKL FFT
  3d grid and FFT values/proc = 33792 15000
  generated 0 of 1 mixed pair_coeff terms from geometric mixing rule
Last active /omp style is kspace_style pppm/tip4p/omp
Neighbor list info ...
  update every 1 steps, delay 7 steps, check yes
  max neighbors/atom: 2000, page size: 100000
  master list distance cutoff = 10.8154
  ghost atom cutoff = 10.8154
  binsize = 5.4077, bins = 4 4 5
  1 neighbor lists, perpetual/occasional/extra = 1 0 0
  (1) pair lj/cut/tip4p/long/omp, perpetual
      attributes: half, newton on, omp
      pair build: half/bin/newton/omp
      stencil: half/bin/3d
      bin: standard
Per MPI rank memory allocation (min/avg/max) = 38.65 | 38.65 | 38.65 Mbytes
Step Temp PotEng TotEng E_pair E_mol Press Lx Ly Lz Volume Pxx Pyy Pzz Pxy Pxz Pyz 
       0          300   -3852.2439   -3338.0542   -3852.2439            0    3467.3083    18.207572    21.446115    22.213196    8673.8464    3133.8643    3776.2154    3491.8451    2131.3549   -2192.9288   -1816.9989 
     500    305.47403    -3745.851    -3222.279    -3745.851            0    9855.4547    17.339512    20.423654    21.154164     7491.455    9262.1164    10262.401    10041.847     1063.302   -481.09239   -90.165385 
    1000    298.29691    -3734.606   -3223.3353    -3734.606            0    7095.7524    17.237662    20.303689    21.029907    7360.2174    7738.3009    6821.4034    6727.5528   -554.68681    88.219068    524.10951 
    1500    288.54084   -3705.4632   -3210.9141   -3705.4632            0      8698.61    17.106657    20.149382    20.870081    7193.6782    9153.0376    7424.5846    9518.2079    1171.2426    1934.5496     477.5552 
    2000    297.19454   -3714.9165   -3205.5352   -3714.9165            0    7814.7293    17.100056    20.141608    20.862029    7185.3547    6710.8714    8207.0554    8526.2612   -76.816822   -1121.0318   -2037.7849 
    2500    298.53117   -3713.6432    -3201.971   -3713.6432            0    9839.3032    17.112983    20.156834      20.8778    7201.6627    10977.275    10359.827    8180.8073   -731.13157    1412.3252   -567.54656 
    3000    309.23645   -3751.0147    -3220.994   -3751.0147            0     8998.657    17.087448    20.126756    20.846646    7169.4723     6070.529     10118.98    10806.462    791.06636   -1740.7471   -527.52019 
    3500    278.73714   -3730.8915   -3253.1455   -3730.8915            0    6926.4329    17.143491    20.192768    20.915019    7240.2475    9034.5782    4920.0969    6824.6236     425.3787   -321.31913   -277.12657 
    4000    286.05687   -3761.6429   -3271.3512   -3761.6429            0    9028.6954    17.099645    20.141123    20.861526    7184.8356    8326.9623    9509.2667    9249.8573   -1174.3552    467.86799    218.13782 
    4500    299.93879   -3742.6834   -3228.5986   -3742.6834            0    9023.0315      17.0577    20.091718    20.810355    7132.0936      9142.91    7161.6585    10764.526   -1149.8827    1576.2683   -373.35307 
    5000    295.42687   -3712.3844   -3206.0328   -3712.3844            0    7884.5334    17.110752    20.154205    20.875077    7198.8453    7418.9146    8310.5843    7924.1014    32.111562    878.06408    339.94463 
    5500    274.67626     -3733.73   -3262.9443     -3733.73            0    6461.6655    17.155014     20.20634    20.929077    7254.8563    6290.5054     6436.013    6658.4782    149.00258   -868.94019   -779.24308 
    6000    304.59082   -3720.2197   -3198.1615   -3720.2197            0    7947.5004    17.087081    20.126325    20.846199    7169.0109     9545.599    7972.7749    6324.1272   -597.99948   -1140.9321    1367.3483 
    6500    294.00321   -3729.9743   -3226.0629   -3729.9743            0     7426.506    17.127918    20.174425     20.89602    7220.5343     8430.356    6994.7231    6854.4388   -201.74666   -1277.5309    1034.2301 
    7000    303.65053   -3686.6829   -3166.2363   -3686.6829            0    8356.4308    17.048519    20.080904    20.799154    7120.5834     6887.761    8087.0305    10094.501    419.36201   -423.41162    -719.7282 
    7500    290.59682   -3704.0082   -3205.9352   -3704.0082            0    6624.5634    17.125195    20.171217    20.892698    7217.0905    8199.9485    5394.3571    6279.3846     1267.131    1799.7856    719.78585 
    8000    301.41058   -3678.6372   -3162.0298   -3678.6372            0    7192.2473    17.102625    20.144633    20.865163    7188.5935    7199.1209    6119.0682    8258.5528    84.119649   -1783.3649    119.02202 
    8500    312.98512   -3741.8462   -3205.4004   -3741.8462            0    7939.5151    17.032066    20.061524    20.779081    7099.9879    8843.0863    8155.2086    6820.2505   -1348.3157    1028.1115    452.22274 
    9000    302.95314   -3678.1101   -3158.8588   -3678.1101            0    8174.0091    17.119379    20.164367    20.885603    7209.7403    7799.5364    9414.2386    7308.2524    583.48845   -464.27115    531.20411 
    9500    295.71867   -3676.6187    -3169.767   -3676.6187            0    10201.953    17.059361    20.093673     20.81238    7134.1762    11726.521    8819.1031    10060.234    -181.8353    -1386.524    500.00081 
   10000    303.31462    -3720.056   -3200.1851    -3720.056            0    9912.8588    17.114879    20.159067    20.880113    7204.0567    10558.908    8316.7636    10862.904   -692.83097    425.69254   -230.31531 
   10500    319.89912   -3703.7667   -3155.4706   -3703.7667            0    7598.4334    17.133709    20.181246    20.903085    7227.8603    9883.7829    5430.3605    7481.1567    117.45537   -1208.1692   -23.034151 
   11000    293.83116   -3720.5873   -3216.9708   -3720.5873            0     9155.442    17.098818    20.140149    20.860518    7183.7938    8507.4414    7822.0128    11136.872   -165.42773   -301.02929   -737.02086 
   11500    299.46391   -3771.7416   -3258.4707   -3771.7416            0    6544.3212    17.115229    20.159479    20.880539    7204.4981    5116.7352    7088.1173    7428.1111    2737.3625    974.53829   -716.44452 
   12000     312.6319   -3704.4846   -3168.6442   -3704.4846            0    8793.8165    17.109532    20.152769     20.87359    7197.3067    8270.6471    9034.5633    9076.2392    167.27356   -399.89045   -1446.1482 
   12500    301.01725   -3726.8635   -3210.9302   -3726.8635            0    5614.7064    17.194889    20.253308    20.977724    7305.5631    4566.7605    5948.6007    6328.7579   -674.12148   -952.51344    577.93316 
   13000    304.27039   -3688.6209   -3167.1119   -3688.6209            0    6340.9035    17.219368    20.282142    21.007589    7336.8096    6024.7333     6140.685    6857.2923   -212.92504     423.8067    1275.5545 
   13500    296.64592   -3746.9787   -3238.5378   -3746.9787            0    9270.7698    17.019805    20.047082    20.764122    7084.6648    8562.8487     9567.309    9682.1518   -1745.5181    795.87151    1783.7945 
   14000    290.88395   -3689.5237   -3190.9586   -3689.5237            0    7498.5045    17.060739    20.095297    20.814062    7135.9055    6839.1407    6461.8583    9194.5146    619.01921    174.26152   -1264.5254 
   14500    287.08311   -3729.0987   -3237.0481   -3729.0987            0    10442.852    16.973223    19.992215    20.707293    7026.6539    9872.8919    8865.9384    12589.726     469.8215    1454.6801   -446.16379 
   15000    311.36042   -3739.2174   -3205.5563   -3739.2174            0    8327.3942    17.095223    20.135914    20.856132    7179.2631    8334.5615    8284.5744    8363.0466    97.305465     1079.604    617.48036 
   15500    281.60644   -3706.2114   -3223.5476   -3706.2114            0    8831.6465    17.116806    20.161337    20.882464    7206.4903    9619.8404    9702.9224    7172.1766   -738.73034   -433.69455   -977.23858 
   16000    299.14054   -3717.0059   -3204.2892   -3717.0059            0    9162.9023    17.120655     20.16587    20.887159    7211.3518    8374.9728    10558.262    8555.4718   -2520.5937   -985.20192    1255.3693 
   16500    313.07509   -3681.3836   -3144.7836   -3681.3836            0    9508.8556    17.082759    20.121233    20.840926    7163.5714    10274.488    10033.195    8218.8831    465.30182    1727.5666    42.337652 
   17000    296.79073   -3692.2991   -3183.6099   -3692.2991            0    8277.9643    17.124541    20.170447      20.8919    7216.2637    7223.4962     8351.615    9258.7817   -86.520842   -416.45012    44.292479 
   17500    306.47016   -3726.9868   -3201.7074   -3726.9868            0    9135.8376    17.122451    20.167986     20.88935    7213.6221    10522.534    10631.152    6253.8262    348.35308   -288.89885   -726.81528 
   18000     288.8268   -3738.3102   -3243.2709   -3738.3102            0    7162.9139    17.098672    20.139978     20.86034    7183.6104    8656.5942    6406.7511    6425.3964    1661.8386   -582.89502   -704.59616 
   18500    292.82908   -3706.3703   -3204.4713   -3706.3703            0    9501.3426    17.042376    20.073668    20.791659    7112.8893      10161.4    7560.3956    10782.232   -2212.9727   -1172.0744    3140.0519 
   19000    316.03528    -3731.735   -3190.0613    -3731.735            0    7594.8289    17.105484    20.148001    20.868651    7192.1991     9516.714    5897.2864    7370.4864    720.58404   -1090.2736    982.60595 
   19500    302.49274   -3701.9028   -3183.4406   -3701.9028            0    8723.7191    17.129138    20.175861    20.897508    7222.0764    7403.9678    9769.6879    8997.5017    -586.9833    1120.6695    912.02135 
   20000    296.65937   -3739.6496   -3231.1856   -3739.6496            0     7265.256     17.03696    20.067288    20.785051     7106.109    7610.7673    7365.0863    6819.9144   -6.5676072   -517.55951    256.60612 
   20500    291.64176   -3723.5866   -3223.7226   -3723.5866            0    8162.3287    17.047992    20.080282     20.79851    7119.9223    8677.0681    9334.8731    6475.0448    1113.2244   -1188.1527    242.60026 
   21000     286.5353   -3712.4808   -3221.3691   -3712.4808            0    7957.2536    17.047025    20.079143     20.79733    7118.7108    7509.1292    7442.0337    8920.5979    52.274773    57.355126   -794.39271 
   21500    285.93193    -3743.013   -3252.9355    -3743.013            0    8979.3546    17.054482    20.087928    20.806429    7128.0579    10109.433     7640.532    9188.0987   -1377.1633   -50.166842    1431.0589 
   22000    290.65342   -3704.5797   -3206.4097   -3704.5797            0    7266.4842     17.08839    20.127866    20.847796    7170.6584    9139.5706    6158.1759     6501.706    450.28806   -694.00543    428.89159 
   22500    284.43449   -3727.8878   -3240.3768   -3727.8878            0    6054.9215    17.122804    20.168401     20.88978    7214.0678    6373.3915    3448.1831      8343.19   -441.39637   -843.37125      763.579 
   23000    293.69748   -3746.3708   -3242.9833   -3746.3708            0    7703.4527    17.083984    20.122677    20.842421    7165.1132    9129.3918    7621.7114    6359.2549   -519.70641    534.03752   -1096.0775 
   23500    296.01924   -3702.2775   -3194.9107   -3702.2775            0    7803.2097    17.079621    20.117538    20.837098    7159.6251    6409.8918    9410.4213    7589.3159    1580.9992    1091.7062   -1578.0908 
   24000    306.78859   -3668.0248   -3142.1997   -3668.0248            0     7642.436    17.133273    20.180732    20.902552    7227.3079    7017.2254    7144.1117    8765.9709     1341.431    956.73729    986.27487 
   24500    295.47489   -3750.5982   -3244.1643   -3750.5982            0    9147.3372     17.10883    20.151942    20.872733    7196.4206    9977.2795     8922.574     8542.158    13.045706    797.79539    138.99076 
   25000    302.54974   -3717.2224   -3198.6625   -3717.2224            0     7050.935    17.145714    20.195387    20.917731    7243.0642     7891.563    6201.4039     7059.838    835.84737    566.66724    474.52863 
   25500    289.50528   -3736.5679   -3240.3658   -3736.5679            0    6950.9576    17.160949    20.213331    20.936318    7262.3886    5815.2762    7901.7386     7135.858    629.92606   -48.988048    -482.8784 
   26000     313.0563   -3719.1197   -3182.5519   -3719.1197            0    6259.9536    17.194983    20.253419     20.97784    7305.6838    6877.5203    5742.4896    6159.8508    2498.3514    869.43412   -1897.8678 
   26500    267.22747   -3757.9198   -3299.9011   -3757.9198            0    6296.4531     17.17319    20.227749    20.951251    7277.9403    6968.6812    5447.8284    6472.8496    762.82489    -47.91392    -257.3927 
   27000    282.78379   -3671.7058   -3187.0241   -3671.7058            0    9433.2712    17.105907    20.148499    20.869167    7192.7325    8629.3692    8614.7322    11055.712    262.78859   -166.20868   -1559.8143 
   27500    291.51212   -3704.5555   -3204.9137   -3704.5555            0    7002.2002    17.146758    20.196616    20.919005    7244.3874    6544.4177    7275.0429    7187.1401   -39.452139   -1110.5747    1242.6241 
   28000    309.85234   -3749.0307   -3217.9544   -3749.0307            0     6435.671    17.170918    20.225073     20.94848    7275.0524    6338.0545    6187.8365    6781.1221      400.396   -65.406783    850.06762 
   28500    296.75249   -3724.9281   -3216.3045   -3724.9281            0    6530.1675    17.144675    20.194162    20.916463    7241.7469    6982.8597    5151.2353    7456.4076   -441.21482    1074.4561   -1627.4637 
   29000    279.96835   -3755.1121   -3275.2559   -3755.1121            0     7152.948    17.100702    20.142368    20.862816    7186.1683     8529.337    7150.3232    5779.1839    720.71273   -444.19433   -1460.7788 
   29500    315.92838   -3748.1719   -3206.6814   -3748.1719            0    9577.7312    17.056485    20.090287    20.808872    7130.5694    8773.0781    9813.8609    10146.255   -912.48834    217.33194    653.54563 
   30000    302.49054   -3703.5898   -3185.1314   -3703.5898            0    9163.3187    17.135443    20.183288      20.9052     7230.055    10213.996    8330.4379    8945.5221   -642.79859    1902.3734    969.04333 
   30500    292.86347    -3749.275    -3247.317    -3749.275            0    7663.7047    17.158326    20.210242    20.933118    7259.0597    7878.5244    6828.3283    8284.2613    1678.0719   -947.99878   -48.777542 
   31000    303.05245   -3691.1053   -3171.6837   -3691.1053            0    6944.9701    17.102613    20.144619    20.865147    7188.5776    6332.6591    8944.3799    5557.8712   -1035.6285    786.13855    1133.6556 
   31500    301.72421   -3721.1688   -3204.0238   -3721.1688            0    6829.3762    17.132465    20.179781    20.901568    7226.2865    8140.2116    8033.4323    4314.4846   -1386.2428    350.96852   -187.30399 
   32000    299.51835   -3698.4257   -3185.0615   -3698.4257            0    9079.2873    17.055167    20.088734    20.807264    7128.9162    8167.8007    8880.6533    10189.408    2393.0345    371.20931    -895.8982 
   32500    303.70626   -3709.2733   -3188.7312   -3709.2733            0     5812.225    17.093644    20.134055    20.854206    7177.2748    3933.8989    4823.2798    8679.4962   -808.15244   -192.61626   -473.09286 
   33000    313.78438    -3724.843   -3187.0274    -3724.843            0    8321.3815    17.056957    20.090842    20.809447    7131.1607    8173.1004    8920.4527    7870.5914    989.53349    325.77914    843.89869 
   33500    282.71725   -3689.6355   -3205.0678   -3689.6355            0     7710.515     17.08725    20.126524    20.846405    7169.2235    8777.8817    7470.0189    6883.6443    879.83791   -75.909728   -646.39815 
   34000    299.46751   -3760.6415   -3247.3645   -3760.6415            0    7928.7013    17.068706    20.104681    20.823781    7145.9074    7563.3252    10502.689    5720.0894   -821.65104    647.80209   -692.22396 
   34500    295.17623   -3774.7902   -3268.8683   -3774.7902            0    8341.4639    17.044918    20.076662     20.79476    7116.0718    11144.469    6975.4138    6904.5089   -906.53421    1095.1959    25.101762 
   35000    293.87842   -3795.7513   -3292.0538   -3795.7513            0    9686.8886     17.04448    20.076145    20.794225    7115.5229     8681.238    9916.2052    10463.223    1112.1032    1311.5188    100.97955 
   35500    278.93095   -3736.9856   -3258.9075   -3736.9856            0    7388.2438    17.075169    20.112294    20.831667     7154.028    7672.2185    7946.3654    6546.1474    -411.2007    619.97488    1226.1391 
   36000    300.87685   -3782.0047   -3266.3121   -3782.0047            0    9390.1104    17.041215      20.0723    20.790242    7111.4351    8453.5179    9613.2984    10103.515   -1639.7686    1515.2664    254.67016 
   36500    304.26751   -3699.1106   -3177.6065   -3699.1106            0    7668.3695    17.099739    20.141233    20.861641    7184.9541    8836.2215    6755.5697    7413.3172   -201.97114   -654.62892    498.54965 
   37000    296.19474   -3689.3711   -3181.7035   -3689.3711            0    11325.508    17.023381    20.051294    20.768485    7089.1313    11308.159    12710.512    9957.8545    13.264085     248.1625    1179.6325 
   37500    306.12878   -3749.3039   -3224.6096   -3749.3039            0    5676.6748    17.109129    20.152293    20.873097     7196.797    5501.4968    7355.5244    4173.0031    -765.6464    1103.0199   -660.33246 
   38000    300.00058     -3702.51   -3188.3193     -3702.51            0    8145.8992    17.054215    20.087613    20.806103    7127.7227     6528.676    10987.899    6921.1227   -642.90686   -562.98271   -175.66358 
   38500     291.0822   -3700.7507   -3201.8458   -3700.7507            0    9483.6157    17.048072    20.080377    20.798608    7120.0227    9472.6178    8251.0483    10727.181     499.0298    963.19369    -89.74714 
   39000    305.02812   -3717.4082   -3194.6005   -3717.4082            0    7814.4096    17.085127    20.124023    20.843815    7166.5516    6114.9379    9365.6449    7962.6459   -1264.6771   -1149.0515   -253.41419 
   39500    298.56585   -3705.7145   -3193.9829   -3705.7145            0    8222.3071    17.025814     20.05416    20.771453    7092.1716    8429.0343    9491.0212    6746.8658      875.776   -1252.0017   -1732.7516 
   40000    304.13763   -3740.7821   -3219.5006   -3740.7821            0    7743.6125    17.120508    20.165697    20.886979    7211.1663    7788.2368    6820.1987    8622.4021   -579.92189   -714.62231   -700.26536 
   40500    275.31277   -3720.0978   -3248.2211   -3720.0978            0    6853.8135    17.075691    20.112909    20.832303    7154.6839    6462.4425    5483.6846    8615.3134       445.74   -424.21551    10.595427 
   41000    294.15305   -3747.1961   -3243.0279   -3747.1961            0    8310.1944    17.073918     20.11082     20.83014    7152.4558    6936.0768    9652.5823    8341.9242   -675.47619   -692.51992   -1794.9634 
   41500    303.73974   -3730.1267   -3209.5271   -3730.1267            0    7644.9658    17.059674    20.094043    20.812762    7134.5694    6467.7795    8211.3916    8255.7265    1032.8168   -130.02001    312.04107 
   42000    297.88441   -3742.7479   -3232.1842   -3742.7479            0     8936.252      17.0284    20.057206    20.774608    7095.4035    9565.7244    7788.8748    9454.1567    1591.1358    641.86438   -235.44653 
   42500    299.15581   -3761.9766   -3249.2338   -3761.9766            0    7583.4493    17.073418    20.110231     20.82953    7151.8273    8405.0757    7441.6159    6903.6562    689.27778   -202.11559   -170.78816 
   43000    309.85279   -3714.5393   -3183.4622   -3714.5393            0    9648.8875    16.999868    20.023599    20.739799    7059.7969    8884.7677    10228.869    9833.0263    286.14815   -187.40784    1620.5029 
   43500    299.72608   -3745.6709   -3231.9507   -3745.6709            0    8716.0834    17.046212    20.078186    20.796338    7117.6924    9901.6587      8863.74    7382.8514   -240.39766    496.98599   -2041.7661 
   44000    302.44717   -3742.3373   -3223.9531   -3742.3373            0    9991.7878     17.01546    20.041964    20.758821    7079.2402    9838.7184    9831.5311    10305.114    147.85354   -37.105865   -1917.4688 
   44500    312.78491   -3738.8369   -3202.7342   -3738.8369            0    7309.3556    17.069372    20.105465    20.824593    7146.7434     6903.777     7090.365    7933.9248    119.92976    -141.6821    1004.7237 
   45000    276.96361   -3737.8106   -3263.1044   -3737.8106            0    8709.5666    17.045314    20.077128    20.795243    7116.5678    9323.1558    7464.7009    9340.8431   -2105.1686    227.48468    1208.3303 
   45500    292.05917     -3749.69   -3249.1106     -3749.69            0    7670.7057    17.093537    20.133928    20.854075    7177.1391    9012.5705    5653.1112    8346.4356   -930.83986    901.44689   -47.403602 
   46000    297.67637    -3718.543   -3208.3359    -3718.543            0    7138.5592    17.122076    20.167544    20.888893     7213.148    8451.8943    6027.7191    6936.0643   -476.14311   -1058.6165   -168.33101 
   46500    283.34193   -3699.0944    -3213.456   -3699.0944            0    8540.9329    17.037869    20.068359    20.786161    7107.2473    10256.359    7149.2505    8217.1889    394.92174   -489.19427   -859.59565 
   47000    303.26481   -3759.5037   -3239.7181   -3759.5037            0    7647.5772    17.085633    20.124618    20.844432    7167.1878    8061.4947    7032.1246    7849.1124   -114.22826   -580.75246    1017.9611 
   47500    292.14196   -3703.7008   -3202.9795   -3703.7008            0    7256.0479    17.043453    20.074936    20.792973    7114.2371    4926.4157    7212.7631    9628.9649    632.66653    389.01119    382.15557 
   48000    300.20209   -3726.6062   -3212.0701   -3726.6062            0    8275.0527    17.030294    20.059437    20.776919    7097.7716    7807.3822    9820.5123    7197.2635    96.003246    177.52137   -681.99156 
   48500    287.83607   -3711.2481    -3217.907   -3711.2481            0    8056.5553    17.096866    20.137849    20.858136    7181.3333    7215.8625    7155.2836    9798.5199    -51.61901   -51.927613    -119.3965 
   49000    318.07441   -3722.6402   -3177.4716   -3722.6402            0    10575.734    16.944185    19.958011    20.671866    6990.6508    9635.7704    9244.5534     12846.88    286.28289    1590.0184   -194.45491 
   49500    312.35267   -3672.9854   -3137.6236   -3672.9854            0    9504.6609    17.109488    20.152716    20.873535    7197.2501    7442.2046    11028.933    10042.845   -1437.3481   -524.10889    -712.7657 
   50000    295.39987   -3712.1554   -3205.8501   -3712.1554            0     10485.75    17.053719    20.087028    20.805497    7127.1006    9991.0187    10801.753    10664.477   -141.59455    -280.1153   -126.44395 
   50500    321.12259   -3753.0392   -3202.6461   -3753.0392            0    8238.8471    17.099598    20.141068     20.86147    7184.7773    6350.2116    8951.2265    9415.1031   -1026.8114    47.663863   -1096.9298 
   51000    314.00056   -3719.6145   -3181.4283   -3719.6145            0    5797.9321    17.089323    20.128966    20.848935    7171.8335    5811.4927    6647.1347     4935.169     389.7758    820.80754   -485.18817 
   51500    312.01753   -3726.4582   -3191.6709   -3726.4582            0    7782.8303    17.112458    20.156215    20.877158     7200.999    7618.1965     8217.364    7512.9304   -910.85095    576.40169    -66.83797 
   52000    314.30857    -3782.645   -3243.9308    -3782.645            0    8449.7075    17.120991    20.166266    20.887569    7211.7771     7910.074    8952.5559    8486.4926     169.2144   -169.99714   -1805.9381 
   52500    307.19811   -3721.3114   -3194.7844   -3721.3114            0    9979.6471    17.013303    20.039423     20.75619    7076.5484    9012.2309    8812.0962    12114.614    107.47313   -62.679982   -1414.9238 
   53000    294.58163   -3749.4254   -3244.5225   -3749.4254            0    9567.4238    17.046754    20.078824       20.797    7118.3718    7668.3319    8540.9625    12492.977   -418.38396    493.96583    206.55991 
   53500    298.94963    -3739.611   -3227.2216    -3739.611            0    9537.8795    17.113094    20.156964    20.877935    7201.8022    11112.284    7502.5072    9998.8471   -265.90947   -125.81131    -142.3616 
   54000    305.79159   -3697.3148   -3173.1985   -3697.3148            0    7259.5488    17.126395    20.172631    20.894162    7218.6083    9137.4605    5873.2387    6767.9472    1154.6754    915.94298   -1040.2026 
   54500     279.4921   -3739.7694   -3260.7295   -3739.7694            0    5779.5553    17.166719    20.220127    20.943357    7269.7161    4890.9013    5835.9458    6611.8188   -2099.4994    1667.8187    273.11096 
   55000    303.76253   -3709.8963   -3189.2578   -3709.8963            0    8280.3438    17.050248     20.08294    20.801262    7122.7495    8061.2209    9893.9151    6885.8955   -712.56952    40.334669    884.60715 
   55500    310.05725   -3765.2798   -3233.8522   -3765.2798            0    8056.7908    17.071657    20.108157    20.827382    7149.6144    7369.3823    7036.2261    9764.7639    409.13011   -1218.3641   -2742.9629 
   56000    318.30039   -3726.0151   -3180.4591   -3726.0151            0    7166.6628     17.16715    20.220635    20.943883    7270.2642    7948.6391    6981.4115    6569.9379   -1521.2035   -372.04532    178.02815 
   56500    286.45784   -3692.9534   -3201.9744   -3692.9534            0    9253.9455    17.155714    20.207165    20.929931    7255.7449    10413.275    9518.0252    7830.5361    2178.9972   -204.30643    676.85636 
   57000    302.59962   -3732.4784    -3213.833   -3732.4784            0    7603.3354    17.178962    20.234548    20.958293    7285.2815    8144.2438    6573.7412    8092.0211    886.95478    228.39891   -953.72802 
   57500    293.32603   -3705.3685   -3202.6178   -3705.3685            0    9003.2307    17.092909    20.133189    20.853309    7176.3485    9315.3422    9354.7142    8339.6358   -1217.6528     881.1141    646.23424 
   58000    301.66331   -3733.1644   -3216.1238   -3733.1644            0    9457.6143    17.100177     20.14175    20.862176    7185.5067    9114.7274    9938.9308    9319.1846   -1302.2557   -1029.8996   -977.05239 
   58500    315.61318   -3743.9601   -3203.0099   -3743.9601            0    6899.2716    17.132414     20.17972    20.901505     7226.221    5879.4621    8561.5891    6256.7636   -612.44983    335.10904   -1320.7977 
   59000    286.36757   -3667.8758   -3177.0516   -3667.8758            0     7042.948    17.101043     20.14277    20.863232    7186.5984    3947.7058    9268.3753     7912.763   -475.99496    1169.6662    699.98852 
   59500    303.73784   -3698.7808   -3178.1846   -3698.7808            0    8048.4049    17.108695    20.151783    20.872569    7196.2506    7500.9759    7538.8153    9105.4236   -64.482061   -794.22955    1841.4589 
   60000    283.40856    -3711.517   -3225.7644    -3711.517            0    7363.6851    17.123793    20.169566    20.890987    7215.3179    7136.2726    7925.3577    7029.4251   -1068.8355   -1008.9313    639.59483 
   60500    281.51253   -3703.9423   -3221.4395   -3703.9423            0    9689.4871    17.053613    20.086903    20.805367    7126.9672    13306.238    8696.1783    7066.0449   -677.47616   -1206.8644    315.74004 
   61000    286.45058   -3720.6573   -3229.6908   -3720.6573            0    7574.5111    17.154405    20.205623    20.928334    7254.0839    8785.4125    6847.6459     7090.475   -1543.4775   -1267.3888    431.53544 
   61500    298.32312   -3715.2427   -3203.9271   -3715.2427            0    8019.2297    17.140336    20.189052     20.91117    7236.2504     8315.148    8979.7045    6762.8368   -1002.1323    20.699497   -1233.6085 
   62000    296.52621   -3678.4771   -3170.2413   -3678.4771            0    6648.8452    17.157734    20.209545    20.932396    7258.3081    7480.0828    5822.6034    6643.8494    1051.7883   -1459.2773   -40.087981 
   62500    292.81495   -3706.6782   -3204.8034   -3706.6782            0    8530.8952    17.134865    20.182607    20.904495     7229.323    8285.9916    8678.0322    8628.6617   -320.85709    32.204765    759.82674 
   63000    317.15206   -3698.5528    -3154.965   -3698.5528            0    8231.6656    17.113049    20.156911     20.87788    7201.7456    8168.9476    8089.0713    8436.9779   -724.17484   -1903.6419    258.76749 
   63500     284.9651   -3704.4565   -3216.0361   -3704.4565            0    6493.6111    17.106956    20.149734    20.870446    7194.0557    5576.8064    6815.1881    7088.8388   -808.29535    -713.5193    1057.2204 
   64000    299.73666   -3728.2902   -3214.5518   -3728.2902            0    8209.3322    17.106649    20.149373    20.870071    7193.6681    8472.7151    7929.9704    8225.3112    276.39724   -923.85012     10.42755 
   64500    290.49573   -3737.9152   -3240.0154   -3737.9152            0    8185.8366    17.108212    20.151213    20.871978      7195.64    9082.0885    8443.6089    7031.8125   -103.13508   -997.57129    80.595016 
   65000    308.72415   -3775.8271   -3246.6845   -3775.8271            0    7531.3679    17.087869    20.127252     20.84716    7170.0021    7278.0834    9292.7642    6023.2559    726.03802    882.79605    -932.9395 
   65500    289.45054   -3718.6206   -3222.5123   -3718.6206            0    8684.6447    17.068893    20.104901    20.824009     7146.142    8991.4692    8169.2305    8893.2344    1160.4479   -862.12568    611.55761 
   66000    303.08131   -3693.6789   -3174.2079   -3693.6789            0    8206.1839     17.09676    20.137725    20.858007    7181.2002    7431.7371    9282.2352    7904.5795   -51.471837   -595.03109   -862.13665 
   66500    304.70907   -3691.6784   -3169.4174   -3691.6784            0    7324.9559    17.123794    20.169567    20.890989    7215.3195    7288.3077    7882.1952    6804.3647    918.06914    593.41517   -208.24327 
   67000    287.56222   -3756.0951   -3263.2232   -3756.0951            0    6024.2938    17.084704    20.123524    20.843299    7166.0187     7297.681    6294.7437    4480.4565    911.26886   -1108.5528   -533.19258 
   67500    297.94389   -3741.5816   -3230.9159   -3741.5816            0    5561.9793    17.168483    20.222205    20.945509    7271.9573    2796.2344    5888.1744     8001.529   -474.12601    256.01468    372.93701 
   68000    296.39563   -3728.6272   -3220.6152   -3728.6272            0    7866.7785    17.119177    20.164129    20.885356    7209.4851    8053.2555    8334.5986    7212.4813   -500.39505    -1100.872    518.32558 
   68500    305.97493   -3728.6416    -3204.211   -3728.6416            0    9328.7721     17.13215     20.17941    20.901183     7225.888    10348.043    9083.8256    8554.4476    811.76604   -412.50676    307.05849 
   69000    291.36439   -3774.2452   -3274.8566   -3774.2452            0    8356.0913    17.060704    20.095256    20.814019    7135.8618    7616.7182    9191.6011    8259.9547    288.90434   -1145.9958   -1549.7021 
   69500    298.68027   -3720.1557   -3208.2279   -3720.1557            0     8196.061    17.023706    20.051677    20.768882    7089.5381    7409.8819     10136.62    7041.6815    544.45111   -219.34771   -65.669387 
   70000    304.06495   -3699.0087   -3177.8518   -3699.0087            0    7908.0901    17.007601    20.032707    20.749233    7069.4356    9319.8087     6943.523    7460.9385    219.54938    -1672.561    40.608009 
   70500    302.06282   -3709.6628   -3191.9374   -3709.6628            0    7016.8395    17.115411    20.159694    20.880762    7204.7281    4522.0691    9385.3354     7143.114    38.437138   -513.23219     809.6415 
   71000    284.66636   -3701.6427   -3213.7343   -3701.6427            0    6944.6137    17.049159    20.081657    20.799934    7121.3851    8196.2944    6311.9033    6325.6434   -546.02712   -1642.7139    -59.91727 
   71500     287.4356   -3734.0281   -3241.3733   -3734.0281            0    8887.1838    17.096312    20.137198    20.857461     7180.636     9440.803    8518.3035     8702.445    1201.8145   -585.58833   -1386.0117 
   72000      315.897   -3676.6335   -3135.1969   -3676.6335            0    8909.1672    17.158987     20.21102    20.933924    7259.8979    8066.5473     8805.265    9855.6894    280.45084   -1329.7507   -1077.8381 
   72500    311.83319   -3747.6833   -3213.2119   -3747.6833            0    5884.4093    17.177908    20.233307    20.957008    7283.9409    8510.6098    5159.3874    3983.2306     2163.349    249.69235   -785.61408 
   73000    277.74369   -3718.5548   -3242.5117   -3718.5548            0    9550.7837    17.055316    20.088909    20.807445    7129.1028     9583.397    9949.6914    9119.2627    519.09526    844.44341     1031.319 
   73500    304.82764   -3713.7263   -3191.2622   -3713.7263            0    8809.2303    17.067148    20.102846    20.821881    7143.9506    7669.2897     10444.14    8314.2616    787.28701   -140.52536    1347.1391 
   74000    303.28865   -3729.8537   -3210.0273   -3729.8537            0    8089.4429    17.010525    20.036151      20.7528    7073.0824    6781.4002    9692.8788    7794.0497   -460.83146   -510.57857    -543.1103 
   74500    305.79078   -3732.7879    -3208.673   -3732.7879            0    7376.4521    17.086613    20.125773    20.845628    7168.4216    9250.2524    6463.4834    6415.6206    2237.0969   -591.02521   -91.539384 
   75000    303.12798   -3752.0629   -3232.5119   -3752.0629            0    6799.6018    17.095527    20.136273    20.856503    7179.6469    6788.8945    5857.4968     7752.414      554.872   -1231.6031   -1543.6055 
   75500    285.81432   -3753.6831   -3263.8072   -3753.6831            0    7143.6143    17.078771    20.116536    20.836061    7158.5561    3964.8136    11030.802    6435.2274   -205.95355   -1091.1302    1003.2342 
   76000     300.9198   -3761.8331   -3246.0669   -3761.8331            0     5841.948    17.129326    20.176083    20.897737    7222.3143    4460.2646    4720.1057    8345.4737   -582.99881   -255.06112   -2093.9019 
   76500    283.44946    -3796.457   -3310.6344    -3796.457            0    8279.4412     17.05726    20.091199    20.809817     7131.541    7095.5498    7922.2657    9820.5081   -1029.4875     854.5545   -958.27315 
   77000    298.49743   -3778.6242   -3267.0099   -3778.6242            0    7600.2062    17.114913    20.159107    20.880154    7204.0988    6714.6995    5873.6973    10212.222   -588.71914    782.93618   -1543.8809 
   77500    292.96201   -3757.9834   -3255.8566   -3757.9834            0    6837.1741     17.19709      20.2559     20.98041    7308.3692    5091.4362    8612.1539    6807.9323   -1405.2538   -386.52874    -1192.716 
   78000    313.42058   -3724.3482    -3187.156   -3724.3482            0    8278.5996    17.108631    20.151708     20.87249    7196.1693    7918.7486    8495.8903    8421.1597   -128.76434    681.71185   -749.62351 
   78500    292.62337   -3766.5444    -3264.998   -3766.5444            0    9546.8962    17.067587    20.103363    20.822417    7144.5025    9320.8845    11119.732    8200.0725   -680.86004    949.42016    1066.9924 
   79000    304.28969   -3759.2105   -3237.6684   -3759.2105            0    9232.6931    17.086523    20.125667    20.845518    7168.3082    9652.3061     10206.63    7839.1429    1582.6794   -165.70357   -106.12907 
   79500    315.74876   -3732.1236    -3190.941   -3732.1236            0    5910.3576    17.160263    20.212524    20.935481    7261.5183    6815.2676    6086.8874    4828.9177   -189.02747    388.42667   -385.81205 
   80000    306.25462    -3682.111    -3157.201    -3682.111            0    8507.3458    17.105165    20.147625    20.868261    7191.7962    5947.9075    9265.6357    10308.494   -1126.6822    646.24005   -1928.3903 
   80500    292.23133   -3670.9199   -3170.0454   -3670.9199            0    11213.188    17.037631    20.068078     20.78587    7106.9488    10013.265    12847.334    10778.966    265.65837    1132.9273   -2728.7217 
   81000    290.11521   -3714.7278   -3217.4803   -3714.7278            0    7936.3034    17.083364    20.121946    20.841664     7164.333    10033.782    7010.8932    6764.2349    1581.8907    2040.6678    1256.6637 
   81500    300.09182   -3760.6809   -3246.3338   -3760.6809            0    5984.5787    17.118502    20.163334    20.884532    7208.6317    7213.7717    4954.8984     5785.066    224.70976    1284.6478   -1254.1916 
   82000    297.73695   -3766.8778   -3256.5669   -3766.8778            0    5937.0178    17.101943     20.14383     20.86433    7187.7332    5625.9595    6130.1985    6054.8953    -761.7171    1301.7577    485.12999 
   82500     305.5451   -3687.4252   -3163.7314   -3687.4252            0    6886.0046    17.168422    20.222134    20.945435     7271.881    6749.0106    7720.3168    6188.6864    1269.2845   -305.17023    1189.4036 
   83000    292.89173    -3732.247   -3230.2406    -3732.247            0    7065.7521    17.094652    20.135242    20.855436    7178.5444    7279.4214    8444.7056    5473.1294   -114.60821   -42.488604    639.09831 
   83500    300.67553   -3750.6705   -3235.3229   -3750.6705            0    7408.5789    17.196643    20.255374    20.979864    7307.7993    6971.6293    6612.6527    8641.4547   -1488.5813     958.7783    347.35777 
   84000     320.3178   -3738.1129   -3189.0991   -3738.1129            0    8202.9751    17.155079    20.206418    20.929157    7254.9394    7683.6265    6838.4459    10086.853   -390.12321   -1504.8557    391.57638 
   84500    289.43778   -3727.2919   -3231.2055   -3727.2919            0    5155.0034    17.220201    20.283122    21.008605    7337.8741     5631.738    6840.1367    2993.1355    -1231.869    638.57208    738.06532 
   85000    307.57988   -3725.5415   -3198.3602   -3725.5415            0    9797.7759    17.075613    20.112816    20.832207    7154.5852     8937.742    9859.9455     10595.64   -1721.5461     396.8436    475.43976 
   85500      315.094    -3685.827   -3145.7667    -3685.827            0    8396.4209    17.090487    20.130336    20.850354    7173.2987    7482.7469    7719.2196    9987.2962     -1152.26    -205.9667    839.10549 
   86000    292.97919   -3700.1645   -3198.0082   -3700.1645            0    6717.2285    17.151971    20.202756    20.925364    7250.9963    6443.6843    4979.1784    8728.8229    2182.1158    1332.8306   -1371.3624 
   86500    291.29409   -3731.0055   -3231.7374   -3731.0055            0    9075.7266    17.096277    20.137156    20.857418     7180.592    8438.6823    7890.0125    10898.485     472.3087   -340.15174   -1323.1973 
   87000    292.65142   -3745.6684   -3244.0739   -3745.6684            0    6995.1983    17.169641     20.22357    20.946922    7273.4299    7313.2986    6981.6423    6690.6538   -872.53308    -2536.832   -383.77427 
   87500    289.04212   -3730.1996   -3234.7913   -3730.1996            0    6272.5322    17.157158    20.208866    20.931692    7257.5766     8814.687    5174.4493    4828.4604     567.7326    1127.0564    577.90063 
   88000    312.01824   -3722.6258   -3187.8372   -3722.6258            0    10657.937     17.05412    20.087501    20.805987    7127.6038    10206.267    10538.311    11229.234    334.42394   -1667.5081    53.599234 
   88500    290.70803   -3748.1676    -3249.904   -3748.1676            0      7328.47    17.123223    20.168895    20.890292     7214.598    7044.5847    6013.2547    8927.5707    638.63056   -374.24974    246.78539 
   89000     288.9426   -3764.2177     -3268.98   -3764.2177            0     7248.227     17.08378    20.122436    20.842171    7164.8563    6598.3369    7672.0545    7474.2894    -499.2664   -135.10955   -292.72622 
   89500    281.98935   -3743.4083   -3260.0882   -3743.4083            0    8092.3983    17.027644    20.056316    20.773686    7094.4589    8065.8428    8031.0208    8180.3312   -99.083537     2420.614   -703.51539 
   90000    294.18372   -3725.0794   -3220.8585   -3725.0794            0    6739.6379    17.077149    20.114626    20.834082    7156.5165    5583.3356    7481.7178    7153.8602    238.06414    1907.1406   -170.28095 
   90500    302.76587   -3717.6875   -3198.7571   -3717.6875            0    8429.5994     17.10601     20.14862    20.869292    7192.8624    9497.9453    7574.1968    8216.6561    1033.9264   -158.41322   -774.10188 
   91000    302.69932   -3760.0604   -3241.2441   -3760.0604            0    8364.4109    17.148448    20.198607    20.921067    7246.5295    7507.1838    6957.5236    10628.525    1115.3592   -1203.8716    851.49491 
   91500    274.58227   -3750.5475   -3279.9228   -3750.5475            0    8255.0721    17.106589    20.149303    20.869999    7193.5932    8010.6042    5746.4923     11008.12   -650.04763    133.01073     795.7168 
   92000    304.21955   -3701.4053   -3179.9834   -3701.4053            0    7117.9473    17.109749    20.153024    20.873853    7197.5795    5279.9244     6389.491    9684.4266    1563.6678    2088.4049    53.356697 
   92500    296.53121   -3758.7763   -3250.5319   -3758.7763            0    9391.9606    17.053756    20.087072    20.805543    7127.1477    10895.076    9309.1428    7971.6629   -42.693534    299.54046    1344.1945 
   93000    287.38186   -3744.7963   -3252.2337   -3744.7963            0    7948.9086    17.124572    20.170484    20.891938    7216.3028    4789.5481     9742.871    9314.3068    278.17382    169.15669   -800.99825 
   93500    281.88016   -3728.8315   -3245.6985   -3728.8315            0    7656.8271    17.178132     20.23357    20.957281    7284.2255    8595.2392    6943.5978    7431.6444   -98.909257    1032.7744    300.94512 
   94000    309.02446   -3726.5913    -3196.934   -3726.5913            0    8639.3592    17.052507      20.0856    20.804018    7125.5809    10699.517    8856.2439    6362.3163    -272.1632     326.0198   -485.20711 
   94500    306.63539    -3739.648   -3214.0854    -3739.648            0    8355.9177    17.065654    20.101086    20.820058    7142.0747     8763.686    9862.1144    6441.9526    1787.7168   -939.76355    1057.7923 
   95000    297.87773   -3766.5549   -3256.0026   -3766.5549            0    8821.1869    17.113624    20.157589    20.878582    7202.4717    9318.6989    10147.356    6997.5061    567.45742   -723.28359   -23.860605 
   95500    283.66094   -3710.2574   -3224.0722   -3710.2574            0    8206.2093    17.162799     20.21551    20.938575    7264.7378    7436.2678    7707.7066    9474.6535    823.53087    713.33297   -1310.1034 
   96000    308.82647   -3699.6636   -3170.3456   -3699.6636            0    9003.1878    17.124901    20.170872    20.892339    7216.7192    9180.6859    9315.2529    8513.6246   -79.788259    1129.1217   -367.26568 
   96500    322.83294     -3720.96   -3167.6354     -3720.96            0    5985.8384     17.14553     20.19517    20.917507    7242.8311    5567.5113     7189.086    5200.9179   -1372.2399    760.24026    1386.0565 
   97000    291.58247   -3679.5349   -3179.7725   -3679.5349            0    8671.0983    17.095296    20.136001    20.856221    7179.3558    8509.1586    9514.3227    7989.8135    243.01996    68.879623    1489.9053 
   97500    305.17148   -3725.5396   -3202.4861   -3725.5396            0    7240.6861    17.147594    20.197601    20.920025    7245.4468    7310.8849    6482.2988    7928.8745    1414.1601    797.13307   -387.16274 
   98000    295.14038   -3769.7936   -3263.9331   -3769.7936            0    7596.3919    17.132043    20.179283    20.901052    7225.7518    6680.4573    9608.0237    6500.6947    551.53184    877.36407   -2433.2606 
   98500    303.86953   -3737.5557   -3216.7337   -3737.5557            0    9056.9177     17.09775    20.138891    20.859215    7182.4478    8895.5376    10927.252    7347.9639    613.13429    1478.9905  0.052765465 
   99000    303.65201   -3770.6506   -3250.2015   -3770.6506            0    7844.9296    17.056622    20.090447    20.809038    7130.7404    9766.3325    6610.4559    7158.0004    1716.4094   -54.971489    33.252868 
   99500    321.06015   -3752.7949   -3202.5088   -3752.7949            0    6831.8065     17.12903    20.175735    20.897377    7221.9409    6398.5895    6101.1591    7995.6708   -353.25011   -238.11316    1296.1502 
  100000    305.32196   -3778.8237   -3255.5124   -3778.8237            0    9709.9758    17.044479    20.076145    20.794225    7115.5225    9512.6615    11002.694    8614.5719   -19.042003    1405.0572   -108.18972 
  100500    305.17913   -3729.0033   -3205.9367   -3729.0033            0    7464.3642    17.055591    20.089233    20.807781    7129.4478    6337.9788    6791.7398     9263.374    764.87776    1088.9495   -205.45736 
  101000    305.35356   -3773.9496   -3250.5841   -3773.9496            0    8156.7374    17.051464    20.084372    20.802746    7124.2741    9159.2777    7816.3139    7494.6207    859.57003   -418.84286    259.07557 
  101500    294.04518    -3706.379   -3202.3956    -3706.379            0    6326.5009    17.128226    20.174788    20.896396    7220.9233    5325.1352    7931.4811    5722.8863    995.31756   -543.42428    897.49147 
  102000    308.01331   -3712.7722   -3184.8479   -3712.7722            0    7805.5583    17.074046     20.11097    20.830296    7152.6158    8208.5481    6545.1687    8662.9582    -509.5917     553.2913   -407.07843 
  102500     305.5616   -3778.9158   -3255.1937   -3778.9158            0    6292.0144     17.10104    20.142766    20.863229    7186.5944    8112.2102    5733.7845    5030.0485   -592.47504   -279.17403   -767.79171 
  103000    309.75831   -3728.2549   -3197.3397   -3728.2549            0    9048.8943    17.129971    20.176843    20.898525     7223.131     9220.078    9030.2471    8896.3579     1353.849   -1636.7231   -493.15947 
  103500    297.68616   -3720.8746   -3210.6507   -3720.8746            0    8410.9895    17.114687     20.15884    20.879878    7203.8135    9206.0343    7402.0301     8624.904    1131.4019    1092.8169     1132.619 
  104000    305.30942   -3708.2093   -3184.9194   -3708.2093            0    7955.9685    17.214329    20.276206    21.001441      7330.37    8458.2458    8565.2526    6844.4072    1639.9415   -1375.9277   -1924.7084 
  104500    309.51604   -3713.9045   -3183.4046   -3713.9045            0    6742.5831    17.143584    20.192877    20.915132    7240.3643    5719.1289     6292.617    8216.0034    1830.5162   -1021.6022    1654.5237 
  105000    307.03675   -3727.9198   -3201.6693   -3727.9198            0    8326.8024    17.103785       20.146    20.866578    7190.0566    10261.279       8609.5    6109.6282    823.24186   -121.16584    922.78774 
  105500    316.30593   -3710.3007   -3168.1632   -3710.3007            0    6527.5146    17.029756    20.058804    20.776263    7097.0995    6121.5063    6465.1908    6995.8467    98.281443   -153.87592   -566.88147 
  106000    290.62738   -3750.2146   -3252.0892   -3750.2146            0    9777.0184      16.9991    20.022695    20.738863    7058.8411    10966.524    8292.3781    10072.153   -1836.8438    3113.7673    -615.0305 
  106500    297.76895    -3716.826   -3206.4602    -3716.826            0    11425.518    16.937728    19.950406    20.663989    6982.6627    9979.5603     12738.46    11558.534   -2630.2505    1431.1643    532.08036 
  107000    285.68879   -3701.9895   -3212.3287   -3701.9895            0    7658.1109    17.004522    20.029081    20.745478    7065.5977    6517.1039    7707.0367    8750.1922    498.28701   -112.78621    524.01874 
  107500    299.22925   -3729.6687      -3216.8   -3729.6687            0    6945.8078    17.063761    20.098857    20.817749     7139.699    8622.2714    7118.8094    5096.3425   -730.53584    591.87877   -179.15889 
  108000    293.40411   -3716.0089   -3213.1243   -3716.0089            0    9160.4094    17.061721    20.096454     20.81526    7137.1386    7203.8127    10361.623    9915.7924   -974.41403    310.72364    517.79254 
  108500    297.02354   -3682.9161   -3173.8279   -3682.9161            0    7693.3948    17.165847      20.2191    20.942293    7268.6086    8118.4498    7532.0433    7429.6914   -659.47393   -388.91578   -1406.5394 
  109000     304.8166   -3740.2716   -3217.8264   -3740.2716            0    9455.8857    17.073603     20.11045    20.829756    7152.0602     8234.981    8511.5438    11621.132    273.44795    150.27698   -1300.3263 
  109500    294.78676   -3707.1023   -3201.8478   -3707.1023            0    7388.4239    17.105442    20.147951    20.868599    7192.1453    6202.7262    8712.8533    7249.6922   -1010.9753    605.69427   -1116.3825 
  110000    298.04401   -3733.2322    -3222.395   -3733.2322            0     8762.775     17.06179    20.096535    20.815345    7137.2252    9143.6215    8558.6923    8586.0114    470.72385   -530.61426   -934.15362 
  110500    293.15232    -3748.325   -3245.8719    -3748.325            0    8983.8799     17.02342    20.051341    20.768533    7089.1808    8182.5222    9880.1597     8888.958    49.490279    1229.3518   -285.86674 
  111000    298.68675   -3770.6658    -3258.727   -3770.6658            0    5417.9822    17.153404    20.204445    20.927113    7252.8145     5308.126    6191.9275    4753.8932    176.42954    728.29388   -559.46705 
  111500     322.1496   -3764.3295   -3212.1761   -3764.3295            0    7440.1701    17.067042    20.102721    20.821751    7143.8176    7538.6483    7615.0604    7166.8016    908.82607    808.03132   -2527.9274 
  112000    300.35026   -3700.4249   -3185.6349   -3700.4249            0    10544.553    16.968198    19.986296    20.701162    7020.4144    10857.897    8989.5753    11786.186     1635.379     911.1806    1.2221934 
  112500    306.57081    -3730.924   -3205.4721    -3730.924            0    6990.5122    17.002072    20.026195    20.742488    7062.5434    7120.3078    6830.5087    7020.7201    1452.1945    110.56492   -2948.0329 
  113000    288.74494   -3732.2471   -3237.3481   -3732.2471            0    8076.4424    17.010888    20.036579    20.753243    7073.5355    7027.2221    8253.2344    8948.8706   -638.52743     1131.681    490.64461 
  113500    286.55209    -3754.522   -3263.3815    -3754.522            0    7225.1415    17.158439    20.210374    20.933255    7259.2021    6899.6165     6939.121     7836.687   -555.94558   -1033.2837   -1077.1924 
  114000    317.73764   -3731.9674    -3187.376   -3731.9674            0    10489.581    17.089064     20.12866    20.848619    7171.5072    13848.424    8612.0056    9008.3137   -844.74149     1538.351   -544.44014 
  114500    293.40811   -3733.7791   -3230.8876   -3733.7791            0     8414.846    17.078662    20.116408    20.835928    7158.4194    8838.4806    7565.0469    8841.0106    247.76644   -846.59526   -389.24928 
  115000     291.3612   -3710.8902    -3211.507   -3710.8902            0    8790.5707    17.187014    20.244033    20.968117    7295.5311    7701.9509    10170.817    8498.9446    1618.1145    1932.1615   -149.73582 
  115500    302.06139    -3720.215   -3202.4921    -3720.215            0    8684.8409    17.081977    20.120312    20.839971    7162.5877    10384.334    8151.0495    7519.1397    792.65088    2221.3144    2145.2943 
  116000    282.95113    -3697.211   -3212.2425    -3697.211            0    7259.4089    17.080544    20.118625    20.838224    7160.7858    8818.5715    6407.1644    6552.4909    -546.9247    180.94615   -273.58634 
  116500    292.80666   -3687.6997   -3185.8391   -3687.6997            0    8281.6402    17.102979     20.14505    20.865595    7189.0398    8120.5562    7585.3071    9139.0572    1216.7007     49.50138    443.07157 
  117000    283.81592   -3742.3902   -3255.9394   -3742.3902            0    6181.4036    17.189179    20.246582    20.970758    7298.2879     4466.712    7229.6863    6847.8124   -1338.5438    1511.6238    777.21624 
  117500    296.29633   -3733.1645   -3225.3227   -3733.1645            0    7209.1049    17.085183    20.124089    20.843884    7166.6223    7135.2622    7902.9268    6589.1256    69.690897    90.896658   -203.61272 
  118000    288.45774   -3702.1094   -3207.7027   -3702.1094            0    7669.6177    17.096566    20.137497    20.857771     7180.956     6362.295    8698.9898    7947.5683   -736.59978   -810.29385    53.027063 
  118500    306.45157   -3720.9685    -3195.721   -3720.9685            0     8892.275    17.035262    20.065288     20.78298     7103.985    7736.6578    9729.1057    9211.0615   -1010.7716   -569.46281   -408.12341 
  119000     297.5906   -3713.9694   -3203.9093   -3713.9694            0     8139.131    17.164897    20.217981    20.941134     7267.402    7144.1785    7758.7956    9514.4189   -1364.6247   -912.68108    2043.3377 
  119500    289.05033   -3734.4966   -3239.0742   -3734.4966            0    6866.3456    17.121795    20.167213     20.88855    7212.7936    6600.5919    6814.2022    7184.2428    1257.7196   -253.67269    190.60496 
  120000    301.94691    -3753.049   -3235.5224    -3753.049            0    8170.4451    17.058041    20.092119     20.81077    7132.5212    9144.1904    7618.4661    7748.6788   -771.66202    1014.7274    844.84475 
  120500    308.06969    -3734.357   -3206.3361    -3734.357            0    7136.0629    17.095806    20.136601    20.856843     7179.998    6893.0409    8324.9608     6190.187   -328.54242    212.42585   -184.31376 
  121000    293.61915   -3717.5269   -3214.2737   -3717.5269            0    8312.7725    17.085953    20.124996    20.844823    7167.5909    8780.2258    7908.6165    8249.4753   -683.72443    482.53281   -598.34767 
  121500    286.47555   -3724.0257   -3233.0164   -3724.0257            0    8407.2637    17.172557    20.227003    20.950479    7277.1356    9270.4223    7871.1261    8080.2428   -425.42617   -1.5988423    1450.3667 
  122000    297.17919   -3684.3729    -3175.018   -3684.3729            0    7964.4844    17.125656     20.17176     20.89326    7217.6731    8301.9544    7188.5251    8402.9738    1069.4384   -153.40437   -926.66475 
  122500    306.89459   -3715.6633   -3189.6565   -3715.6633            0    6587.9055    17.202715    20.262526    20.987272    7315.5429      4789.04    7168.1086     7806.568    391.15795   -955.10848    207.42116 
  123000     289.7339   -3773.3634   -3276.7694   -3773.3634            0    7172.4531    17.191804    20.249674     20.97396    7301.6317    5410.3946    9082.4418    7024.5228    389.69036    177.77421    986.35518 
  123500    302.93928   -3747.9439   -3228.7164   -3747.9439            0    8875.3645    17.067113    20.102805    20.821838    7143.9068     7173.614    9517.1445     9935.335    358.51204    274.58536   -1438.6627 
  124000    325.54388   -3786.0881   -3228.1171   -3786.0881            0    4950.0842    17.191542    20.249366    20.973642    7301.2987    3811.6392     5643.287    5395.3265    55.105907    364.90138   -84.916106 
  124500    304.92352   -3757.9808   -3235.3523   -3757.9808            0    6790.1826    17.065156    20.100499     20.81945    7141.4493    5756.7665    8006.3561    6607.4253   -1007.4769    758.62635    894.01962 
  125000    317.39703   -3711.8948   -3167.8872   -3711.8948            0    6846.2142    17.087906    20.127296    20.847205     7170.049    6118.2701    8134.9339    6285.4385   -2025.8423    85.611496   -1774.5344 
  125500    296.30841   -3736.2798   -3228.4173   -3736.2798            0    6533.7499    17.127498     20.17393    20.895508     7220.003    8147.9252     6050.533    5402.7914    982.46638   -124.48433   -162.98719 
  126000       305.34    -3755.221   -3231.8787    -3755.221            0    7446.2528    17.073581    20.110423    20.829729     7152.032    7516.0899    8127.0771    6695.5913    1383.6055   -1075.6375    652.91774 
  126500    283.54693    -3763.679   -3277.6893    -3763.679            0    7099.1367    17.144319    20.193744     20.91603    7241.2966    8747.9235    6482.9452    6066.5415   -1235.4956     868.3005    408.75385 
  127000      288.445   -3662.6523   -3168.2675   -3662.6523            0    8105.5696    17.133863    20.181427    20.903272    7228.0547    5921.3365    10836.852    7558.5206   -35.160182    69.893333    1134.9714 
  127500    297.56993   -3701.1059   -3191.0812   -3701.1059            0    9615.9897    17.078688    20.116438    20.835959    7158.4512     9201.642     10123.59    9522.7373    1058.4069   -768.75339    1077.5949 
  128000    311.55757   -3735.5007   -3201.5017   -3735.5007            0    7418.7264    17.095907     20.13672    20.856967    7180.1256    7748.5878     7184.599    7322.9925    748.52804   -1212.7772    705.72306 
  128500    303.40898   -3742.8803   -3222.8477   -3742.8803            0    6874.0014    17.127835    20.174328    20.895919    7220.4293    5624.6995    7183.9571    7813.3477    314.49987    86.444306   -220.53153 
  129000    299.03537   -3694.3725   -3181.8361   -3694.3725            0    7223.9157    17.118183    20.162959    20.884144    7208.2297    7404.5994     7740.015    6527.1328    342.81052   -554.68672    391.29024 
  129500    295.01618   -3725.9794   -3220.3317   -3725.9794            0    5889.1723    17.099896    20.141419    20.861834    7185.1532    4546.4986      7374.54    5746.4784    239.96324   -3.4606355    935.69636 
  130000    298.16334   -3759.5037   -3248.4619   -3759.5037            0    7818.3614    17.026941    20.055487    20.772828    7093.5799    7130.2577    8274.0614     8050.765    1521.5104    1359.9287    1709.6979 
  130500    301.26266   -3723.2562   -3206.9023   -3723.2562            0    8462.0996    17.080562    20.118646    20.838246    7160.8083    10538.245    7063.6148    7784.4385    15.312026    1265.6913   -2481.5019 
  131000    296.11376   -3755.1746   -3247.6458   -3755.1746            0    8650.9716    17.067306    20.103032    20.822074    7144.1495    9066.7945    8428.2568    8457.8635    2043.2583    1144.8724    1596.9354 
  131500    289.30431    -3693.184   -3197.3263    -3693.184            0    10707.907    16.956443     19.97245    20.686821    7005.8342    8783.5835    11516.755    11823.383    198.11883   -782.91467    1650.9944 
  132000     293.0238   -3691.4543   -3189.2215   -3691.4543            0    7878.7964    17.111109    20.154626    20.875513    7199.2963    10012.741    6295.3742    7328.2739    805.99389    519.38865    995.20781 
  132500    303.79651   -3715.9787   -3195.2819   -3715.9787            0    6678.7439    17.069508    20.105626     20.82476    7146.9152    6753.4388    7646.7361    5636.0567     342.4593    194.89979    415.02957 
  133000    309.04276   -3734.6738   -3204.9851   -3734.6738            0     8144.404    17.021656    20.049263    20.766381    7086.9771    9579.4101    7377.8563    7475.9457   -1014.4346     402.5957    3474.6483 
  133500    286.08688   -3669.4445   -3179.1014   -3669.4445            0    8868.2566    17.019609    20.046851    20.763883    7084.4202    8988.4036    8050.0517    9566.3144    1819.7338   -574.19902    267.08492 
  134000    297.82546   -3746.0966    -3235.634   -3746.0966            0    9128.7763    16.978297    19.998191    20.713483    7032.9571    9952.7786    7984.4541    9449.0962   -235.94977   -424.88682   -553.10445 
  134500    297.35123   -3705.4112   -3195.7613   -3705.4112            0    8373.6658    17.048486    20.080865    20.799114    7120.5423    8675.9697    9614.6038     6830.424   -961.20639   -471.67389    -1108.207 
  135000    280.45894   -3717.2036   -3236.5066   -3717.2036            0    8862.2932    16.992647    20.015094     20.73099    7050.8053    8830.1916    7365.7809    10390.907    975.74643   -199.55608   -1045.0813 
  135500     295.9528   -3698.7413   -3191.4883   -3698.7413            0    6527.7334    17.112394     20.15614    20.877081    7200.9191    5938.6814    7119.0309     6525.488     1207.816   -176.15297   -517.12538 
  136000    291.42227   -3707.1915   -3207.7037   -3707.1915            0    7079.3112    17.174591      20.2294    20.952961    7279.7226    6269.2619    7969.9157    6998.7561    392.33416   -1892.6786    270.61127 
  136500    298.47798   -3731.8461    -3220.265   -3731.8461            0    7952.6801    17.128139    20.174685    20.896289    7220.8132    6880.6532    8888.8588    8088.5284    385.77875    425.47133    926.46299 
  137000    290.29294   -3768.8512    -3271.299   -3768.8512            0    6413.2782    17.150417    20.200926    20.923469    7249.0264    7778.5438    5293.7925    6167.4984    790.58528   -228.43184    160.05778 
  137500    312.96423   -3678.3506   -3141.9406   -3678.3506            0    9049.4328    17.092374    20.132559    20.852657    7175.6753    8858.9108    8790.8171    9498.5705    324.26863   -914.20352   -476.72148 
  138000     307.1001   -3745.5509   -3219.1918   -3745.5509            0    7069.7194    17.118307    20.163105    20.884295    7208.3859     6677.969    7735.9715    6795.2176    1262.5465   -912.03057   -2442.5019 
  138500    309.29427   -3745.5185   -3215.3987   -3745.5185            0    6919.2845    17.161378    20.213836    20.936841    7262.9333    6274.1174    6635.9804    7847.7558      700.382   -479.88495    1341.6908 
  139000    287.72195   -3769.3777   -3276.2322   -3769.3777            0    7630.1787    17.032616    20.062172    20.779752    7100.6756    7291.0562    6862.4061    8737.0737    1577.6243   -17.794085    985.71743 
  139500    308.87805   -3688.8631   -3159.4567   -3688.8631            0    8774.7182    17.082322    20.120718    20.840392    7163.0217    8741.3784    6164.4002    11418.376   -928.98581   -202.29691    1088.5404 
  140000     300.2901   -3739.7551   -3225.0681   -3739.7551            0    6128.3958    17.165905    20.219169    20.942365    7268.6832    7431.0005    5697.0335    5257.1533   -1860.7171   -1487.1386   -1960.3052 
  140500    297.44768   -3677.8743   -3168.0591   -3677.8743            0    5913.3459    17.181292    20.237292    20.961136    7288.2458    5496.7849    8064.2284    4179.0244   -596.70846   -1511.8214    36.054985 
  141000    292.73304    -3744.939   -3243.2046    -3744.939            0     7388.258    17.131905    20.179121    20.900884    7225.5769    6168.6218    9938.5781    6057.5742   -1150.0145    194.98427    768.77853 
  141500    286.39032    -3704.817   -3213.9538    -3704.817            0    6041.4595    17.119086    20.164023    20.885245    7209.3704    7088.7681     6019.916    5015.6943   -115.02996    159.53271    142.94615 
  142000     301.1654   -3757.6605   -3241.4733   -3757.6605            0    6982.6404    17.117237    20.161844    20.882989    7207.0336    7204.9951    5122.5977    8620.3284    -68.84186    1157.4368   -1112.8197 
  142500    299.13515   -3710.0342   -3197.3268   -3710.0342            0    7591.8937    17.116153    20.160567    20.881666    7205.6648    9178.0051    6561.2199    7036.4559     348.1867    17.553563   -2120.9913 
  143000    282.28346   -3728.6854   -3244.8612   -3728.6854            0    5967.1932    17.162298     20.21492    20.937963    7264.1012    6311.7351    4373.8924    7215.9521   -1709.0514    266.27178     831.4073 
  143500    300.19155   -3745.5548   -3231.0368   -3745.5548            0    7260.9793    17.144377    20.193812      20.9161    7241.3697    7526.6078    6717.1264    7539.2036   -180.77225   -93.150136    1940.9765 
  144000    292.85629   -3738.0943   -3236.1486   -3738.0943            0     9177.403    17.081801    20.120105    20.839757    7162.3668    9502.5598    7982.8564    10046.793    222.09725   -107.80925    737.38125 
  144500    302.02881    -3732.851   -3215.1839    -3732.851            0    10283.032    16.982492    20.003132    20.718601    7038.1715    10352.888    10520.649    9975.5604    1292.0066    106.40185   -559.27337 
  145000    316.13129   -3681.3567   -3139.5185   -3681.3567            0    8371.2121    16.967847    19.985883    20.700734    7019.9791     8417.431    6982.8418    9713.3636   -654.83458    1997.3527    247.64822 
  145500    304.07771   -3686.4594   -3165.2806   -3686.4594            0     8482.713    17.057348    20.091303    20.809925    7131.6518    8337.9515    8845.6488    8264.5386   -1148.4961   -1573.0044    1651.9149 
  146000    308.35667    -3769.569   -3241.0562    -3769.569            0    6800.7407    17.145199     20.19478    20.917103    7242.4118    8286.0877    5142.8831    6973.2513     781.2924   -870.55662    886.69701 
  146500    294.73299   -3713.7499   -3208.5877   -3713.7499            0    7060.8505    17.123511    20.169234    20.890643    7214.9615    6958.0514    8951.8715    5272.6285   -585.02349    249.63699    694.24223 
  147000    268.62235   -3702.7338   -3242.3242   -3702.7338            0     8707.357    17.092095    20.132231    20.852316    7175.3238     8842.341    8390.7276    8889.0024   -175.12702   -70.605435    962.01324 
  147500    311.43809   -3732.4014   -3198.6071   -3732.4014            0    7195.3756    17.119215    20.164175    20.885403    7209.5335    7260.0237     7153.433    7172.6701    925.65406    310.28899   -886.74567 
  148000     287.7944    -3723.267   -3229.9972    -3723.267            0    7563.5102    17.067423     20.10317    20.822216    7144.2963    7620.7385    8439.2395    6630.5527    703.59811    312.07597   -1217.8961 
  148500    286.86746   -3724.8374   -3233.1564   -3724.8374            0    7582.6109    17.113893    20.157905    20.878909    7202.8107    9134.6111    7271.1693    6342.0521     666.4055   -874.51612    1086.0648 
  149000    310.08861   -3709.7304   -3178.2491   -3709.7304            0    8230.0083    17.144588     20.19406    20.916357    7241.6365    9337.2399     8096.425    7256.3599   -69.897968   -1143.9989    611.21779 
  149500    304.86118   -3693.3677   -3170.8461   -3693.3677            0     8007.139      17.0831    20.121636    20.841343    7164.0015    8857.6497    7100.0167    8063.7505    100.74321    56.076431    55.716115 
  150000    304.01885   -3739.9304   -3218.8525   -3739.9304            0    6393.2072    17.105763    20.148329     20.86899    7192.5504    4958.1846    6895.1082    7326.3287   -926.22226    351.98655   -17.818095 
  150500     296.6342   -3740.8291   -3232.4083   -3740.8291            0    7326.3425    17.145884    20.195586    20.917938    7243.2787    6493.9792      5382.03    10103.018    767.34337    548.33464   -1745.6228 
  151000    311.18118   -3711.9506   -3178.5967   -3711.9506            0     8589.338    17.094792    20.135407    20.855606    7178.7207    7334.8738    7422.7783    11010.362    695.12526     316.0986   -171.18839 
  151500    298.34793   -3699.1506   -3187.7924   -3699.1506            0    11004.157    16.999341    20.022978    20.739156    7059.1405    11388.039    8851.3755    12773.057   -1459.3927    572.20141     214.1821 
  152000    282.89127   -3714.1441   -3229.2781   -3714.1441            0    6354.4201    17.141746    20.190713     20.91289    7238.0367    6485.8509    7990.5451    4586.8643   -603.93601    576.87415   -586.62744 
  152500    292.52776   -3717.2898   -3215.9072   -3717.2898            0    9701.7164    17.043384    20.074856    20.792889    7114.1515    10886.605    8618.0602    9600.4838    377.80083   -1656.0543    1223.9687 
  153000    291.88249   -3698.8171   -3198.5405   -3698.8171            0     8054.283    17.109454    20.152676    20.873493    7197.2072    7011.3188    8422.8427    8728.6874    123.20306    265.66458    2065.1701 
  153500    306.81188   -3711.5659   -3185.7009   -3711.5659            0    7418.2482     17.11477    20.158938    20.879979    7203.9183    7618.5695    7696.6141    6939.5611   -156.17028   -17.783434   -428.23792 
  154000    276.62969   -3690.3401   -3216.2062   -3690.3401            0    6833.2491    17.117721    20.162414    20.883579    7207.6453    5794.5431    7940.7993     6764.405   -825.51896    645.21919   -493.08568 
  154500    292.11503   -3752.2758   -3251.6006   -3752.2758            0    7276.2811    17.120008    20.165108     20.88637    7210.5348    6677.9111    9110.1468    6040.7854   -1745.0902   -937.66855    623.57874 
  155000    300.91423   -3754.9034   -3239.1467   -3754.9034            0    7466.8067    17.126044    20.172218    20.893734    7218.1648    6952.6189    9451.5627    5996.2386    872.28776   -248.23026    2903.7348 
  155500    298.30111    -3742.205   -3230.9271    -3742.205            0    8116.3448    17.076162    20.113463    20.832878    7155.2759    6936.5893    8256.3092     9156.136    785.14584    1378.2272    671.13238 
  156000    275.94874   -3741.4849   -3268.5182   -3741.4849            0    5749.1945    17.178687    20.234224    20.957958     7284.932    6398.5467      6275.74    4573.2967    1093.0589    1838.7774    371.22608 
  156500     300.7688   -3747.3899   -3231.8824   -3747.3899            0    7521.8344    17.134027     20.18162    20.903473    7228.2624    8677.0091     7406.142    6482.3521    606.41112     807.1875   -1528.4443 
  157000    291.43268   -3725.9176   -3226.4119   -3725.9176            0    7239.9827    17.066061    20.101566    20.820555    7142.5864    6365.6782     7094.216    8260.0539    606.41082    1630.9794   -192.44532 
  157500    291.27556    -3750.515   -3251.2787    -3750.515            0    8365.0573    17.121455    20.166812    20.888135    7212.3627    10680.232    7035.7255    7379.2143    -705.9836    598.19585    1676.4006 
  158000    298.46563   -3743.3263   -3231.7665   -3743.3263            0    8334.5048    17.101293    20.143064    20.863537    7186.9136    6902.0605    7526.0292    10575.425   -1423.9158   -740.58327    409.93965 
  158500    304.15566   -3744.8697   -3223.5573   -3744.8697            0    6937.0753    17.092405    20.132596    20.852695    7175.7142    7233.1603    6485.5846    7092.4811   -2169.2083   -462.75968    432.77456 
  159000    304.16551   -3730.9315   -3209.6022   -3730.9315            0    10750.407    17.045477     20.07732    20.795442    7116.7716    10568.625    11189.955    10492.642     1284.044    938.80936   -48.235096 
  159500    300.39404   -3712.5937   -3197.7286   -3712.5937            0    7197.2273    17.074019    20.110939    20.830263     7152.582    7569.7313    7980.3971    6041.5535    641.10748   -523.29683   -410.78991 
  160000    321.88569   -3724.5259   -3172.8248   -3724.5259            0    7197.2451    17.134909    20.182659    20.904549     7229.379    7526.0703    6522.1413    7543.5238    638.34577    707.89675    759.46795 
  160500    297.83864    -3731.978   -3221.4928    -3731.978            0    8222.8312    17.109879    20.153177    20.874012    7197.7441    8749.9297    9059.3168    6859.2471   -1325.2305   -58.146522   -401.93168 
  161000    290.12254   -3725.3052   -3228.0451   -3725.3052            0    9009.5548    17.100645    20.142301    20.862747    7186.0973    9204.6786    7810.8438    10013.142    940.06214     1.556896   -482.40649 
  161500    295.12646     -3701.32   -3195.4833     -3701.32            0    8414.1236    17.116032    20.160425    20.881519    7205.5121    8716.7806    10963.111    5562.4795    1497.9875    -147.9753    167.84635 
  162000    293.80626   -3707.3396   -3203.7657   -3707.3396            0    7017.7063    17.160473    20.212771    20.935737    7261.7848     8984.626    5972.9621    6095.5307    719.57828     461.0736   -148.10582 
  162500    302.13592   -3731.9722   -3214.1216   -3731.9722            0    8967.5753    17.099526    20.140983    20.861382    7184.6865    8317.7432    9218.6033    9366.3794   -1715.1819   -903.43696    602.26412 
  163000    297.01021   -3702.6781   -3193.6128   -3702.6781            0    8577.8142    17.147836    20.197885    20.920319    7245.7529    8207.5098    7806.6127    9719.3203     986.8113    1408.8844   -911.66092 
  163500    287.55715   -3748.2732     -3255.41   -3748.2732            0     7925.087     17.09464    20.135228    20.855421     7178.529    8498.6825    8441.1917    6835.3868   -1255.3392   -58.981055     1180.118 
  164000    301.02537   -3736.1309   -3220.1837   -3736.1309            0    7518.6211    17.085644    20.124631    20.844445    7167.2017    8856.4054    7262.9048    6436.5532    973.41386   -65.777215    -272.8121 
  164500     297.5155   -3699.7096   -3189.7782   -3699.7096            0    9817.0279    17.006143     20.03099    20.747454    7067.6177    8203.1858    11962.564    9285.3344   -461.31048   -1462.0066   -189.91112 
  165000    306.32201   -3736.4055     -3211.38   -3736.4055            0    7509.3142    17.152793    20.203724    20.926367    7252.0387    8846.4644     7227.285     6454.193    1752.7341   -141.15198    641.21747 
  165500    297.86268    -3742.352   -3231.8256    -3742.352            0    8029.7538    17.142347     20.19142    20.913623    7238.7973    6536.3015    11437.238    6115.7221   -529.59721    1892.9241    -174.5239 
  166000    299.61256    -3713.993   -3200.4673    -3713.993            0    8925.7872    17.126773    20.173077    20.894624    7219.0865    7848.6695    9401.6502    9527.0418    831.87998   -159.86169    74.930919 
  166500     302.1424   -3765.9534   -3248.0917   -3765.9534            0    9903.4478    16.997836    20.021206     20.73732    7057.2663    10492.435    10245.922    8971.9871   -478.35823    1280.2524    576.56105 
  167000    304.17085   -3775.3946   -3254.0561   -3775.3946            0     7479.485    17.073493    20.110319    20.829621     7151.921    6401.1803    8013.0282    8024.2463    503.72249    1915.5668   -1886.5327 
  167500    287.53945   -3769.9072   -3277.0744   -3769.9072            0    8192.6555    17.065765    20.101216    20.820193    7142.2136    8478.3144     8268.797    7830.8551     1330.929   -2875.3921    674.89151 
  168000    310.27094   -3737.9063   -3206.1125   -3737.9063            0    7122.9736    17.088943    20.128518    20.848471     7171.355    9110.5532    6526.8908    5731.4769     1240.491   -707.36323   -546.41107 
  168500    287.32566   -3699.8786   -3207.4122   -3699.8786            0    9355.7563    17.078587    20.116319    20.835836    7158.3245    10790.603    7118.0552     10158.61   -1201.8826   -989.83633   -1454.8175 
  169000    318.03622   -3727.8746   -3182.7714   -3727.8746            0    8101.7144    17.144653    20.194137    20.916437    7241.7199    7880.3806    7725.9315    8698.8311    726.32289   -600.08301    -1733.797 
  169500    289.45468   -3711.7836   -3215.6682   -3711.7836            0    7365.8108     17.11044    20.153838    20.874696    7198.4515    6198.5532    8580.1188    7318.7603   -229.90375    207.16511   -832.50581 
  170000    321.30215   -3739.9461   -3189.2452   -3739.9461            0    8093.8017    17.103998     20.14625    20.866837    7190.3242    6782.4812    8090.1245    9408.7994   -1104.6948    2237.2815    -393.3397 
  170500    294.27394   -3770.4786   -3266.1032   -3770.4786            0    8606.6328    17.064676    20.099934    20.818865    7140.8472    7496.6393    10703.669    7619.5898   -397.41547   -51.836691   -28.827802 
  171000    290.11684   -3704.9586   -3207.7083   -3704.9586            0    9134.4268    17.061434    20.096115    20.814909    7136.7775    9114.3077    10551.446    7737.5268   -1160.6995   -1142.4424    1233.0872 
  171500    277.92537   -3706.5821   -3230.2275   -3706.5821            0    8197.5016    17.065691    20.101129    20.820103    7142.1209    8795.2488    7883.5348    7913.7213    1096.9687    841.84354    1564.9727 
[...]
  461000    293.26196   -3728.1104   -3225.4694   -3728.1104            0    8124.9356    17.130755    20.177767    20.899481    7224.1225    9159.6948    6856.1102    8359.0018   -112.79251    768.71605   -286.10448 
  461500    290.79416   -3712.6447   -3214.2335   -3712.6447            0    6644.7147    17.130922    20.177963    20.899685    7224.3339     5414.634    6076.0364    8443.4737    317.65575    1715.9868    1281.4689 
  462000    309.92375    -3676.035   -3144.8363    -3676.035            0    9598.9146    17.000131    20.023909     20.74012    7060.1248    6398.4795    11090.673    11307.591    981.98691    915.77872    122.50509 
  462500    300.72888   -3679.9394   -3164.5004   -3679.9394            0    7824.2393    17.079206    20.117048    20.836591    7159.1029    6584.2863    7811.1846    9077.2471   -2794.8549   -218.92078   -1778.3944 
  463000    305.47223   -3722.5774   -3199.0085   -3722.5774            0    8528.6054    17.122974    20.168601    20.889988    7214.2828    7374.8334    10108.063    8102.9196    640.31822     1471.263   -1395.7553 
  463500    310.69518   -3726.0908   -3193.5699   -3726.0908            0    7312.7529     17.22722     20.29139    21.017168    7346.8502    6778.9526    6946.1981    8213.1081    846.76797   -1993.6268    16.843973 
  464000    313.37055   -3729.2584    -3192.152   -3729.2584            0    7609.5377    17.174896    20.229759    20.953333    7280.1103    7558.0239    6428.8814    8841.7078   -103.20265   -392.46835    -883.0743 
  464500    285.47754   -3778.4073   -3289.1085   -3778.4073            0    7787.3441    17.099323    20.140744    20.861135    7184.4308    7783.7968    6451.7364    9126.4992   -1394.0252   -115.77273    595.75575 
  465000    295.01759   -3752.9332   -3247.2832   -3752.9332            0    5700.6416    17.143511    20.192791    20.915043    7240.2718     5765.847    5218.8677      6117.21   -681.25046    235.57526   -332.95174 
  465500    300.55798   -3742.0779   -3226.9318   -3742.0779            0    8449.2165    17.098295    20.139533     20.85988    7183.1347    10342.025    7086.9802    7918.6447   -1115.5382    677.96649    302.24723 
  466000    306.44054   -3729.8936    -3204.665   -3729.8936            0    8920.9151    17.079313    20.117175    20.836722     7159.238     5867.555    11997.467    8897.7229   -726.15635   -384.38078      275.752 
  466500    284.03277   -3705.7396   -3218.9172   -3705.7396            0    7592.4427    17.184481    20.241049    20.965027    7292.3058    6333.7895    9817.6485    6625.8901    1987.5187    427.40052   -98.515487 
  467000    290.91604   -3680.8392   -3182.2191   -3680.8392            0      8424.86    17.124258    20.170114    20.891555    7215.9061    7344.3018    8580.2061     9350.072    121.51489   -1909.0654    1514.0452 
  467500     304.8474   -3736.6574   -3214.1593   -3736.6574            0    8802.3241    17.193583     20.25177    20.976132    7303.8996    8849.7444    10348.793    7208.4349   -711.52646    1136.8768   -384.52983 
  468000    290.72944   -3706.7663    -3208.466   -3706.7663            0    8639.7491    17.125816    20.171949    20.893455    7217.8757    10492.641    7911.2753    7515.3313   -1253.4953    324.13882   -130.73129 
  468500    311.64991   -3730.5374   -3196.3801   -3730.5374            0    8491.0588    17.017835    20.044762    20.761719    7082.2057    9273.7182     7985.594     8213.864    683.27799   -283.51065    -851.8359 
  469000    287.10522   -3694.1809   -3202.0923   -3694.1809            0    7479.4716     17.08774      20.1271    20.847003    7169.8398    7095.1563    7862.7042    7480.5543   -335.02993    1215.0286    1035.1309 
  469500    304.75604   -3734.0427   -3211.7012   -3734.0427            0    10046.129     17.06309    20.098066     20.81693    7138.8558    9728.4074     11892.69    8517.2879    2063.5649   -1142.1059    1612.0177 
  470000    304.46484   -3726.3118   -3204.4695   -3726.3118            0    7697.6519    17.158468    20.210409    20.933291    7259.2398     6229.465    10452.362    6411.1284   -303.05805   -704.27692    45.126901 
  470500    306.22567   -3776.4062   -3251.5458   -3776.4062            0    8142.6396    17.081509    20.119761    20.839401    7161.9993    7150.6564    7093.1056    10184.157   -61.360613   -1346.7247   -128.35442 
  471000    307.47505   -3673.1642   -3146.1625   -3673.1642            0    7343.0274    17.101942    20.143829    20.864329    7187.7319    7488.4144    6035.4234    8505.2445    792.40889    851.60836   -1544.7542 
  471500    313.95843   -3690.9959   -3152.8819   -3690.9959            0    10583.848    16.974108    19.993257    20.708372    7027.7525    11199.823    8578.8564    11972.865    569.15171    1685.8927   -170.28916 
  472000    298.68581   -3642.0734   -3130.1362   -3642.0734            0     9100.409    17.119622    20.164653    20.885899    7210.0468    9722.2195    7915.1172    9663.8905    625.40993   -732.88152    668.30949 
  472500    302.84285   -3716.6164   -3197.5542   -3716.6164            0    6755.0614    17.174845    20.229698     20.95327    7280.0445    5767.7873    5280.5114    9216.8855   -260.07507    1208.8321    975.88309 
  473000    311.55482   -3737.8304   -3203.8361   -3737.8304            0    6738.8775    17.184685    20.241289    20.965276    7292.5653    6396.5874    7819.5833    6000.4617   -159.79298   -690.39314    112.35022 
  473500    302.94525   -3729.2207   -3209.9829   -3729.2207            0    6611.3606    17.161437    20.213906    20.936913    7263.0087    5821.9353    6693.1602    7318.9863    -1697.574    301.81828    122.24645 
  474000    303.89212   -3747.2776   -3226.4169   -3747.2776            0    7736.0209    17.112237    20.155955    20.876889    7200.7203       7865.4     7389.826    7952.8367   -1809.6021   -478.52867    444.84615 
  474500    310.68216   -3718.8511   -3186.3525   -3718.8511            0    8900.8893    17.132935    20.180335    20.902141    7226.8813    7925.9846    9424.8694     9351.814   -1553.4929    1363.6781   -584.70542 
  475000     301.9727   -3727.3021   -3209.7312   -3727.3021            0    7092.1381    17.090209    20.130009    20.850015    7172.9483    7852.3914    6748.5777     6675.445   -842.49161    9.2996761   -717.73922 
  475500    287.59489   -3767.7475   -3274.8197   -3767.7475            0     8496.149    17.093312    20.133663      20.8538     7176.856    7044.2799    8655.8527    9788.3143   -506.15526    875.15101   -446.02536 
  476000    298.15252   -3692.8519   -3181.8287   -3692.8519            0    7211.2411     17.18833    20.245583    20.969723    7297.2071     6291.409    8694.6842    6647.6302   -861.20865   -193.76108    126.97909 
  476500    291.71756   -3758.7272   -3258.7333   -3758.7272            0    9247.9566    17.039849    20.070692    20.788576    7109.7255    9921.1918    10056.402    7766.2765   -1543.7214    1649.4234    241.27658 
  477000    301.01489   -3694.1271   -3178.1979   -3694.1271            0    9125.1503    17.116222    20.160648     20.88175    7205.7516    7210.0672    10647.162     9518.222    -1614.771    886.59096   -1342.7506 
  477500    303.86221   -3698.6741   -3177.8647   -3698.6741            0    9259.3834    17.063691    20.098774    20.817663    7139.6101    8593.6677    10334.408    8850.0742   -1409.2167   -709.15918   -74.807168 
  478000    304.65977   -3749.1407   -3226.9643   -3749.1407            0    7053.7639    17.137764    20.186023    20.908033    7232.9938    7017.1293    6355.5993    7788.5631    239.68016    1287.7316    857.14393 
  478500    300.90346   -3719.8237   -3204.0855   -3719.8237            0    7132.9429    17.134555    20.182242    20.904117    7228.9308    6160.9869    7276.6564    7961.1856   -47.118751    597.96209    1802.7122 
  479000    307.31314   -3741.4318   -3214.7076   -3741.4318            0    8005.6017    17.120902    20.166161    20.887461    7211.6647    7705.4978    7438.3083     8872.999    1613.8372    1188.9637    538.12809 
  479500    272.20027   -3761.4545   -3294.9126   -3761.4545            0    6900.3861    17.123146    20.168804    20.890198       7214.5    6445.4763    6784.7277    7470.9541    19.715793    638.09964    243.60412 
  480000    305.05251   -3735.5958   -3212.7462   -3735.5958            0    9681.6467    17.083814    20.122476    20.842213    7164.8989    9468.1833    9595.4837     9981.273   -816.11503    77.495023    339.59159 
  480500    295.01996   -3703.7275   -3198.0734   -3703.7275            0    6163.3858    17.117677    20.162363    20.883526    7207.5903    6051.2369    7237.8939    5201.0266    1599.0836   -432.78992    642.13445 
  481000    292.11762     -3734.58   -3233.9004     -3734.58            0    7659.8346    17.039262        20.07     20.78786    7108.9908    5818.6328    7002.6438    10158.227   -168.38385   -1212.4438   -1809.7688 
  481500    294.28902   -3734.6783   -3230.2769   -3734.6783            0    8285.6165     17.11301    20.156865    20.877832    7201.6964    8886.0299    6682.4939    9288.3258    265.59255   -800.94278    1098.6773 
  482000    293.17771   -3762.0709   -3259.5744   -3762.0709            0    7146.1302    17.144577    20.194047    20.916343    7241.6225    8109.3114     4641.714    8687.3651    -119.9622   -1376.4911    -708.7709 
  482500     303.6321   -3723.8509   -3203.4359   -3723.8509            0    8348.9971    17.078085    20.115728    20.835224    7157.6938    8129.7532    7984.5101    8932.7279    274.38703   -443.36982    937.63634 
  483000    287.31161   -3758.0326   -3265.5903   -3758.0326            0    7937.6845    17.054426    20.087861    20.806359    7127.9867    8148.2863     7519.498    8145.2691   -49.139458   -319.05778   -682.74051 
  483500      306.149   -3727.0914   -3202.3625   -3727.0914            0    8698.0217    17.049087    20.081573    20.799847    7121.2951    7276.2552    8353.6024    10464.208    710.70492   -1469.6887   -12.517233 
  484000    307.51316    -3766.423    -3239.356    -3766.423            0    7903.0343     17.11292    20.156759    20.877722    7201.5824    10088.154    6433.6028    7187.3458   -1083.9783    647.84331   -398.01306 
  484500    308.68081   -3740.0056   -3210.9373   -3740.0056            0    9258.9716    17.109652     20.15291    20.873735    7197.4573    9113.4843       9660.2    9003.2305    833.93926   -441.51442   -65.744651 
  485000    309.22431    -3725.488   -3195.4882    -3725.488            0    10491.163    17.072611    20.109281    20.828546    7150.8136    10947.619    12187.134    8338.7368      684.533    -900.1937   -68.005903 
  485500    304.50608   -3735.7091   -3213.7961   -3735.7091            0    3766.5415    17.214259    20.276123    21.001355      7330.28    3780.5076    3845.6911    3673.4259   -1142.5409     -409.546    616.76972 
  486000      294.908   -3740.1545   -3234.6923   -3740.1545            0    11058.075    17.031794    20.061204    20.778749    7099.6478    13106.316    9918.9401     10148.97   -130.57486   -697.14862    84.257274 
  486500    308.58712   -3768.8043   -3239.8966   -3768.8043            0    7850.4122    17.039803    20.070638     20.78852    7109.6681    10474.068    6514.8186    6562.3496    2135.3743    278.74456    1308.3307 
  487000    307.85286   -3727.8593   -3200.2101   -3727.8593            0     7805.164    17.097509    20.138608    20.858921    7182.1445    6863.8183     8250.291    8301.3827   -17.685104    372.13871     1173.823 
  487500    290.38927   -3720.6082   -3222.8909   -3720.6082            0    7714.0469    17.114514    20.158637    20.879667    7203.5954    7717.4002     8498.299    6926.4413    585.64759    535.92113   -594.48764 
  488000    322.43281   -3753.9959   -3201.3571   -3753.9959            0    8328.1954    17.121996    20.167449    20.888795    7213.0468    8627.1643    6237.0344    10120.387     1129.692   -725.85487    661.89755 
  488500    298.85039   -3703.0409   -3190.8215   -3703.0409            0    6613.3788    17.163139    20.215911     20.93899    7265.1696    6758.4899    5953.2863    7128.3601    827.12543     824.7144    -241.2596 
  489000     275.4194   -3720.7421   -3248.6827   -3720.7421            0      7050.79    17.052045    20.085057    20.803456    7125.0027    7080.3997    8137.5804    5934.3898    263.66815   -825.98858    465.13855 
  489500    307.67417   -3726.6875   -3199.3445   -3726.6875            0    8100.6609    17.087341     20.12663    20.846516    7169.3377    9267.0305    7609.3408    7425.6115   -345.51871  0.036163266   -1068.1039 
  490000    324.21481   -3743.3902   -3187.6971   -3743.3902            0    9290.3232    17.092201    20.132355    20.852445    7175.4564    6805.7591     11903.74    9161.4709    1627.2336    399.11474    318.14357 
  490500    285.95326   -3718.9237   -3228.8096   -3718.9237            0    8369.2187    17.125284    20.171322    20.892806     7217.203    8086.4554     7881.616    9139.5847    -365.9922   -1264.8584    529.89453 
  491000    310.04102   -3737.0751   -3205.6754   -3737.0751            0    8407.4974    17.074047    20.110972    20.830298    7152.6179    9514.5785    6934.9078    8773.0061   -188.01755    970.30467   -705.80155 
  491500     301.8657   -3724.9872   -3207.5998   -3724.9872            0    7077.8149    17.089746    20.129463     20.84945    7172.3649    6704.4093    6861.7736    7667.2617   -972.86702    83.533323   -1611.5486 
  492000    304.23998   -3681.7237   -3160.2668   -3681.7237            0    9834.1532    17.096489    20.137405    20.857676    7180.8583    9594.1559    8717.8657    11190.438   -825.37579   -657.10162   -1138.8428 
  492500     290.0886   -3731.2542   -3234.0523   -3731.2542            0    8263.4528    16.991615    20.013878    20.729731    7049.5208    8574.3108    7514.3243    8701.7232   -118.53501    66.793726    204.26283 
  493000    282.35016   -3721.7614   -3237.8228   -3721.7614            0    7092.0403    17.089437      20.1291    20.849074     7171.977    7928.3391    8475.7266    4872.0553   -555.41762    -1621.802   -293.96767 
  493500    293.19529   -3751.9836   -3249.4569   -3751.9836            0    6861.3737    17.131889    20.179103    20.900865    7225.5575    8654.8925    7126.4914    4802.7373     49.10849   -676.74286    1541.6703 
  494000    321.35009   -3741.7839   -3191.0008   -3741.7839            0    8375.7458    17.056721    20.090564     20.80916    7130.8651    9438.4203    6795.2752    8893.5419    1238.4927    725.45972    120.11305 
  494500    308.41281   -3706.4328   -3177.8238   -3706.4328            0    7125.3597    17.157541    20.209317     20.93216    7258.0629    6725.9296    8420.3754    6229.7743    1527.5381   -1870.0037    931.88747 
  495000    305.79923   -3724.6779   -3200.5485   -3724.6779            0    8891.8154    17.059403    20.093724    20.812432    7134.2299    7571.2272    9856.4965    9247.7226    238.43271    428.70264     -22.7873 
  495500    280.72816   -3759.7241   -3278.5657   -3759.7241            0    7448.5573    17.045624    20.077493    20.795621     7116.956    6161.6585    7131.9945     9052.019    366.14194    460.86512    378.33538 
  496000    309.58806   -3730.5556   -3199.9323   -3730.5556            0    9532.0364     17.09791     20.13908    20.859411    7182.6498    8974.3772     9240.779    10380.953   -181.57951   -1596.5059    597.50094 
  496500    307.76772   -3715.9441   -3188.4407   -3715.9441            0    5822.3035    17.133115    20.180547    20.902361    7227.1089    7266.2787    4837.7062    5362.9255   -84.770231    1543.1893    966.65684 
  497000    290.83433   -3734.1182   -3235.6381   -3734.1182            0    9183.0926    17.106606    20.149322    20.870019    7193.6137    9767.9254    6573.3283    11208.024   -114.71686     1409.643    137.30578 
  497500    303.26008    -3758.662   -3238.8846    -3758.662            0    8910.0036    17.016392    20.043063    20.759959    7080.4045    8827.4694    9236.4739    8666.0674    986.43387    1213.2324   -310.88111 
  498000    306.29219   -3760.6447   -3235.6704   -3760.6447            0    8356.3023    17.034183    20.064018    20.781664    7102.6355    6120.3573    10195.663     8752.887   -517.80982   -683.00642   -312.30353 
  498500    298.09177   -3748.9451    -3238.026   -3748.9451            0    7483.3402    17.054112    20.087491    20.805977    7127.5937    8399.2286    6977.7674    7073.0245    -606.5601    1617.2026    174.96061 
  499000    284.83803   -3736.4883   -3248.2857   -3736.4883            0     8431.337    17.089098    20.128701     20.84866    7171.5502    8587.6753    7235.7732    9470.5624   -238.61242   -1240.2242     1470.231 
  499500    297.01411   -3720.4408   -3211.3688   -3720.4408            0    7723.1583    17.097581    20.138692    20.859009    7182.2352    6194.1695    9297.1861    7678.1194    634.09938    310.32183   -630.87383 
  500000    293.86515   -3748.7859   -3245.1111   -3748.7859            0    7828.7425    17.123022    20.168658    20.890047     7214.344    7746.3574    8330.5341     7409.336   -1054.2443    811.32347     147.2924 
Loop time of 1793.04 on 32 procs for 500000 steps with 864 atoms

Performance: 48.186 ns/day, 0.498 hours/ns, 278.857 timesteps/s
3157.7% CPU use with 1 MPI tasks x 32 OpenMP threads

MPI task timing breakdown:
Section |  min time  |  avg time  |  max time  |%varavg| %total
---------------------------------------------------------------
Pair    | 217.4      | 217.4      | 217.4      |   0.0 | 12.12
Bond    | 31.828     | 31.828     | 31.828     |   0.0 |  1.78
Kspace  | 1087.4     | 1087.4     | 1087.4     |   0.0 | 60.65
Neigh   | 24.489     | 24.489     | 24.489     |   0.0 |  1.37
Comm    | 93.758     | 93.758     | 93.758     |   0.0 |  5.23
Output  | 2.6766     | 2.6766     | 2.6766     |   0.0 |  0.15
Modify  | 333.45     | 333.45     | 333.45     |   0.0 | 18.60
Other   |            | 2.016      |            |       |  0.11

Nlocal:        864.000 ave         864 max         864 min
Histogram: 1 0 0 0 0 0 0 0 0 0
Nghost:        7274.00 ave        7274 max        7274 min
Histogram: 1 0 0 0 0 0 0 0 0 0
Neighs:        273573.0 ave      273573 max      273573 min
Histogram: 1 0 0 0 0 0 0 0 0 0

Total # of neighbors = 273573
Ave neighs/atom = 316.63542
Ave special neighs/atom = 2.0000000
Neighbor list builds = 35440
Dangerous builds = 11

unfix		3
unfix		2
unfix		1

write_data	data.final.${pid}
write_data	data.final.0
System init for write_data ...
PPPM initialization ...
  extracting TIP4P info from pair style
  using 12-bit tables for long-range coulomb (../kspace.cpp:340)
  G vector (1/distance) = 0.37354422
  grid = 24 24 24
  stencil order = 5
  estimated absolute RMS force accuracy = 0.0032438268
  estimated relative force accuracy = 9.768688e-06
  using single precision MKL FFT
  3d grid and FFT values/proc = 31713 13824
  generated 0 of 1 mixed pair_coeff terms from geometric mixing rule
Last active /omp style is kspace_style pppm/tip4p/omp
WARNING: Not all mixed pair coeffs generated from mixing. Use write_data with 'pair ij' option to store all pair coeffs. (../write_data.cpp:309)

write_restart   restart.lmp.${pid}
write_restart   restart.lmp.0
System init for write_restart ...
PPPM initialization ...
  extracting TIP4P info from pair style
  using 12-bit tables for long-range coulomb (../kspace.cpp:340)
  G vector (1/distance) = 0.37354422
  grid = 24 24 24
  stencil order = 5
  estimated absolute RMS force accuracy = 0.0032438268
  estimated relative force accuracy = 9.768688e-06
  using single precision MKL FFT
  3d grid and FFT values/proc = 31713 13824
  generated 0 of 1 mixed pair_coeff terms from geometric mixing rule
Last active /omp style is kspace_style pppm/tip4p/omp
Total wall time: 0:29:53
