LAMMPS data file via write_data, version 30 Jul 2021, timestep = 1000000

864 atoms
2 atom types
576 bonds
1 bond types
288 angles
1 angle types

-0.05869090225654183 18.266263302259578 xlo xhi
1.022401139738843 22.60677666025817 ylo yhi
-0.07160276366642115 22.284798563666115 zlo zhi

Masses

1 1.00794
2 15.9994

Pair Coeffs # lj/cut/tip4p/long/omp

1 0 0
2 0.21084 3.1668

Bond Coeffs # harmonic/omp

1 450 0.9572

Angle Coeffs # harmonic/omp

1 55 104.52

Atoms # full

151 1 2 -1.1794 1.7381463174638534 6.01203960986556 5.369273783692139 2 0 1
453 1 1 0.5897 7.873231008483391 2.210660853040592 1.5186970847822148 -2 -1 5
335 1 1 0.5897 1.268429448281073 2.0902748470137817 0.8192045128544159 5 0 3
233 1 1 0.5897 7.954697679047616 2.589813731422745 5.265318647460859 -2 2 1
407 1 1 0.5897 1.8684845252020406 9.438189788210403 0.7391091859152815 -5 -1 3
240 1 1 0.5897 6.0175594039995195 2.27605745110915 4.636116544654881 -6 -4 0
834 1 1 0.5897 2.96472777760245 1.4809669935661447 1.9207613733606934 2 -1 0
525 1 1 0.5897 3.7685027160948974 3.5547806986963733 3.03801894657793 2 0 3
282 1 1 0.5897 1.367334624653868 4.3641667067531715 3.4809534810641574 -4 0 2
318 1 1 0.5897 5.539375123768042 3.824405879643735 1.0614071941643275 -5 -6 1
238 1 2 -1.1794 5.191797549531365 1.8923647792419267 4.931269720734341 -6 -4 0
778 1 2 -1.1794 5.835496349098895 6.416165004009608 3.1323169579813115 -2 0 0
559 1 2 -1.1794 0.5806761839225117 9.819020365759947 2.6085985575042265 5 0 2
281 1 1 0.5897 0.6050304404615716 5.106430672520316 2.4039964902782724 -4 0 2
646 1 2 -1.1794 6.837546818814541 9.656426684722659 0.13465958233965036 -6 0 1
472 1 2 -1.1794 4.832647833568175 10.62669425573911 2.2076603596542697 0 1 -3
117 1 1 0.5897 8.446355673450503 11.438184925855333 1.7842062540170929 -2 -3 4
312 1 1 0.5897 7.202780709929941 9.19359204832059 3.4413519270968793 -1 3 2
474 1 1 0.5897 5.263969825173094 9.99601042845212 2.78421840269157 0 1 -3
814 1 2 -1.1794 1.655044960997051 8.831696951279277 4.986244365856552 -3 8 -2
317 1 1 0.5897 4.332721594329754 4.655459715033066 0.6803907008417699 -5 -6 0
310 1 2 -1.1794 6.396760737729606 8.9917979389918 3.9165543584228555 -1 3 2
791 1 1 0.5897 8.22403167464899 4.938425700522506 4.049345884348823 1 5 1
452 1 1 0.5897 9.014936471431371 1.3584143510183233 2.0305629051153495 -2 -1 5
560 1 1 0.5897 0.8823582283452652 9.595749128746062 3.489141617179648 5 0 2
779 1 1 0.5897 5.482024705443196 5.757427238645301 2.5345504313928604 -2 0 0
362 1 1 0.5897 4.922837751492011 5.2635346614064025 4.880795285569743 4 -2 -2
780 1 1 0.5897 6.782772137268811 6.281487430989413 3.104848748315188 -2 0 0
234 1 1 0.5897 7.862035451283932 2.5020083168557994 3.7568292688064724 -2 2 1
523 1 2 -1.1794 3.1308062943856454 2.9996003076436186 3.486749906633965 2 0 3
473 1 1 0.5897 5.484525325657075 10.821147518181887 1.5342616978105525 0 1 -3
239 1 1 0.5897 5.109962210566076 1.0824521948259764 4.427735175697318 -6 -4 0
832 1 2 -1.1794 2.6380835629191037 1.1627300962917775 1.0791783396156012 2 -1 0
280 1 2 -1.1794 0.5038296687239451 4.4294886462096486 3.073153863381509 -4 0 2
232 1 2 -1.1794 7.737569811217954 3.1059008114426403 4.488969999041384 -2 2 1
336 1 1 0.5897 0.4908724892028421 3.137957607814098 1.5870496760535464 5 0 3
316 1 2 -1.1794 4.767902391414709 4.253016707754831 1.4319765505277293 -5 -6 1
451 1 2 -1.1794 8.090351622025524 1.554918896115577 2.181320142151607 -2 -1 5
790 1 2 -1.1794 8.50028320010767 5.8316586610392624 3.8443415294424708 1 5 1
406 1 2 -1.1794 1.9654145827958747 8.866594324087597 -0.022522820027488448 -5 -1 3
815 1 1 0.5897 1.6677506689281276 7.885775744822055 5.132209619814833 -3 8 -2
311 1 1 0.5897 6.152712702810444 8.11692652482995 3.6144797488652394 -1 3 2
524 1 1 0.5897 3.611861383895908 2.632944744270199 4.228631426206775 2 0 3
163 1 2 -1.1794 0.4660703122977671 6.695807996797698 1.2397282873830142 -3 2 0
165 1 1 0.5897 1.0721241764219491 7.344727393216123 0.8822343479965292 -3 2 0
191 1 1 0.5897 3.315132769908584 11.521054639227689 1.831360587648244 4 5 -5
192 1 1 0.5897 1.8109943524169838 11.507043400369017 2.002283295442411 4 5 -5
334 1 2 -1.1794 0.5605095076978156 2.7276278562337453 0.7250816584526246 5 0 3
241 1 2 -1.1794 6.8178688516679316 3.123100821767155 0.08585212382861887 0 -2 3
845 1 1 0.5897 0.08109370230950219 6.494676345896069 4.1429788897988615 0 1 4
542 1 1 0.5897 8.813664878967737 6.861494643000844 5.257028007439203 -4 1 2
816 1 1 0.5897 2.528913643631847 9.12592252263752 5.243189693052584 -3 8 -2
809 1 1 0.5897 4.065839738209443 1.3829653981952141 -0.03690830024423519 4 0 -1
812 1 1 0.5897 3.3957829834987527 8.973332754900067 9.453897323080817 -5 7 -3
668 1 1 0.5897 4.845533778802736 10.814958303062557 10.529908927109382 -8 -2 -1
756 1 1 0.5897 4.431962094293013 4.113026281687471 7.321531136690934 -3 0 -4
755 1 1 0.5897 4.350137087601791 3.7068849652647824 8.777618280427934 -3 0 -4
267 1 1 0.5897 6.946656045346471 2.0951258443351577 10.037415055549532 -4 0 -2
75 1 1 0.5897 1.1569520293305147 2.926109752231486 7.545108061412221 2 1 3
309 1 1 0.5897 7.920694991238515 3.3848825867946255 8.256356273514923 1 4 -2
691 1 2 -1.1794 3.6224052973531764 10.448520767799552 6.534204261805837 2 1 3
510 1 1 0.5897 3.2395877616289335 2.2568728472576636 7.696684289098313 4 -1 2
754 1 2 -1.1794 4.541676853788485 3.362438184756368 7.905318605599471 -3 0 -4
265 1 2 -1.1794 6.5536366531985015 1.745559120024848 10.837152485696945 -4 0 -2
576 1 1 0.5897 3.015775641292304 1.0518361969465067 11.00942428734245 2 1 -1
246 1 1 0.5897 2.982128706553454 4.702361155424033 10.015344870976094 -4 3 -2
245 1 1 0.5897 3.0613102908531795 3.3061616088031296 10.595181443850633 -4 3 -2
231 1 1 0.5897 1.3781077672635782 6.108158153362381 9.850341035670748 3 3 1
230 1 1 0.5897 2.411022843549841 7.06455124434425 9.293257482699376 3 3 1
330 1 1 0.5897 8.461227026432853 1.5723973183876019 6.939931957082986 3 6 0
693 1 1 0.5897 3.579246235285258 11.328605368210944 6.160304356267122 2 1 3
152 1 1 0.5897 1.1979318474542333 5.4579170347403805 5.93259379221924 2 0 0
424 1 2 -1.1794 6.315899724640068 7.322362900976445 7.414986365593067 6 -4 1
818 1 1 0.5897 1.2038642091501504 10.707830427489196 9.22895842454913 3 -2 0
748 1 2 -1.1794 6.7913540148097695 7.181517645296725 10.32458217506611 1 4 0
103 1 2 -1.1794 9.08033020409673 5.206351016700957 8.570038379977106 3 1 5
667 1 2 -1.1794 4.958882730497335 11.761520531915266 10.615834094861128 -8 -2 0
426 1 1 0.5897 6.691984129805582 7.063306261292938 8.256214571383639 6 -5 1
821 1 1 0.5897 6.643225799391078 10.926386041059295 6.218150510769883 2 3 5
425 1 1 0.5897 6.471635051441538 8.265348255170823 7.362683212591823 6 -4 1
541 1 2 -1.1794 8.680163062569799 7.372455617788777 6.055368489691056 -4 1 2
692 1 1 0.5897 4.547790823985355 10.209852897795052 6.479902049481844 2 1 3
105 1 1 0.5897 9.050783679948154 5.835028067879301 7.848833584345319 3 1 5
822 1 1 0.5897 6.484063347099236 9.570220618006221 5.564455596615415 2 3 5
543 1 1 0.5897 7.733171962168691 7.358036384876829 6.194006889675034 -4 1 2
813 1 1 0.5897 2.914236025735486 9.552111705935019 8.140522384588579 -5 7 -3
363 1 1 0.5897 5.178292918834918 5.883703218187547 6.2379869361722164 4 -2 -2
229 1 2 -1.1794 2.0800388706493664 6.171009263026112 9.202521551156549 3 3 1
851 1 1 0.5897 9.10257324262475 9.511272710644228 9.649966751898534 -5 0 -2
811 1 2 -1.1794 2.6045139375979485 9.116835976488057 8.93476071404457 -5 7 -3
307 1 2 -1.1794 7.617647665447552 2.484431411980969 8.372771388144635 1 4 -2
820 1 2 -1.1794 6.383050875863237 10.023646506904091 6.401371988237174 2 3 5
244 1 2 -1.1794 3.602665794172195 4.059036435459989 10.357862911625606 -4 3 -2
74 1 1 0.5897 0.95534084350385 4.174293296504505 8.377714488838206 2 1 3
308 1 1 0.5897 6.665317933428985 2.53962448760994 8.293814549460263 1 4 -2
36 1 1 0.5897 8.62981067602374 4.882634679663379 10.355743939423721 -5 2 -1
508 1 2 -1.1794 2.557554414125917 1.585314391693127 7.703475628546886 4 -1 2
73 1 2 -1.1794 0.7293256849876535 3.782392495808035 7.534171983338655 2 1 3
750 1 1 0.5897 6.290274009919882 6.611113875555882 10.90746925913955 1 4 0
827 1 1 0.5897 4.291963550447615 8.404636731412886 10.911496637968524 0 2 2
518 1 1 0.5897 0.1295914783256437 4.832676484735076 11.06010253530514 -2 -2 -4
552 1 1 0.5897 0.4923437101180427 10.085166846712331 5.711584017543965 -2 6 -4
575 1 1 0.5897 2.5760806417062194 1.4227291164557938 9.60909289272094 2 1 -1
361 1 2 -1.1794 4.661615028978991 5.207412933487318 5.799936277777393 4 -2 -2
826 1 2 -1.1794 4.813461499049674 8.839563888836512 10.23688628378362 0 2 2
749 1 1 0.5897 7.271483953541475 7.763940024887895 10.913189825345237 1 4 0
828 1 1 0.5897 5.571938574907789 8.268617906491071 10.11460931675225 0 2 2
574 1 2 -1.1794 2.3116671048969235 1.4850026090992348 10.526922346392576 2 1 -1
107 1 1 0.5897 8.063668716710168 11.549959520892177 10.19662626744518 -1 0 4
817 1 2 -1.1794 0.31170061004313904 11.002534019145177 9.411727829524503 3 -2 0
517 1 2 -1.1794 -0.037104401678410406 5.7689394235338325 10.9511234725576 -2 -2 -4
235 1 2 -1.1794 0.0021781983280660527 3.1044906494922704 11.10174518181767 0 -2 -3
153 1 1 0.5897 2.6337271162886413 5.712665231439367 5.525863485615879 2 0 1
374 1 1 0.5897 1.653076736906565 4.3223148792844555 15.37334102570586 3 5 0
375 1 1 0.5897 1.1742784838872757 5.534246659073643 14.602764282611595 3 5 0
436 1 2 -1.1794 2.1923504629019495 2.4154071547444667 15.173401581318481 -2 4 1
150 1 1 0.5897 0.698211272318781 7.720500962854116 13.390150699235877 -4 -1 2
148 1 2 -1.1794 1.2733369413460476 8.48210091972518 13.463710572633472 -4 -1 2
149 1 1 0.5897 1.5514506965275452 8.485218867316654 14.379604675264563 -4 -1 2
695 1 1 0.5897 5.058708196687965 5.6820284536980585 14.94837665147279 3 -1 0
33 1 1 0.5897 7.594672718935915 1.2054182546880872 15.339402817010662 3 6 0
694 1 2 -1.1794 4.4458626957773655 5.641123089319061 14.21424546951932 3 -1 0
484 1 2 -1.1794 4.6761769000775635 1.3931480060898007 14.609489587271751 -1 3 -1
315 1 1 0.5897 0.48489788306915116 1.4421945532188236 14.533823690370454 -1 -1 -1
529 1 2 -1.1794 8.617317647829438 2.0664604817211556 12.63732266625911 -2 -1 -6
277 1 2 -1.1794 5.7978321977933955 4.952679871833109 11.780338401276763 0 1 1
31 1 2 -1.1794 7.300409675906697 2.0662966279145456 15.04183478129739 3 6 0
52 1 2 -1.1794 3.435152258854788 7.436818210537015 12.125678598069982 -4 -2 3
11 1 1 0.5897 1.0805818138157148 10.20682132539598 12.72920888943495 -3 1 4
580 1 2 -1.1794 7.9368115119883464 4.450494870710637 16.653678220062396 -3 -3 1
373 1 2 -1.1794 1.792062335217663 5.264987077107789 15.282501091058407 3 5 0
656 1 1 0.5897 8.403543163169797 9.410947689105248 11.860692483262987 0 2 0
486 1 1 0.5897 5.567239984198943 1.6786316654334579 14.811245331159297 -1 3 -1
133 1 2 -1.1794 7.3511547331891425 10.782823325364019 13.99158856148113 0 -5 -3
696 1 1 0.5897 3.607411236502478 5.410293693861695 14.614141951290032 3 -1 0
581 1 1 0.5897 8.451657410270158 5.125887376146281 16.212107053227015 -3 -3 1
15 1 1 0.5897 0.24625880407134138 10.703436502710614 15.946220832853408 0 -5 -3
278 1 1 0.5897 5.499136350036694 5.0124277427493205 12.68781006077317 0 1 1
438 1 1 0.5897 3.034923974026933 2.142658318723775 14.810216349981285 -2 4 1
134 1 1 0.5897 7.666983340174674 9.974886236037408 13.586984753538397 0 -5 -3
651 1 1 0.5897 5.170837143245555 1.0681651335868665 11.611249583004124 1 -1 0
32 1 1 0.5897 7.81798998147467 2.2381063338521363 14.255186812334806 3 6 0
97 1 2 -1.1794 4.648904308536769 10.676933896982966 14.883855754249376 4 -7 5
279 1 1 0.5897 4.995067005446861 4.846436195694434 11.269965979643269 0 1 1
54 1 1 0.5897 3.738465301183379 6.72353795338789 12.687321554998885 -4 -2 3
3 1 1 0.5897 2.7691510368700505 7.959831433713956 16.181524775378193 0 -6 4
99 1 1 0.5897 4.126412696276977 11.197900398203627 14.274093035207754 4 -7 5
655 1 2 -1.1794 8.111276377544758 8.787592852932683 12.525680684361014 0 2 0
266 1 1 0.5897 7.263648063391618 1.758528489330974 11.478983332902722 -4 0 -2
352 1 2 -1.1794 8.409673385620314 9.195486692506572 16.18913986408061 4 3 -2
354 1 1 0.5897 7.852408292513677 9.757947416253682 15.651203541253611 4 3 -2
53 1 1 0.5897 2.8235966901864806 7.929636247915431 12.672809495667314 -4 -2 3
98 1 1 0.5897 4.031901943290876 10.041010598652303 15.245968909591996 4 -7 5
10 1 2 -1.1794 0.882653477712398 11.090919303601012 12.420310063420299 -3 1 4
135 1 1 0.5897 6.421807117857809 10.622066513664963 14.154896497834459 0 -5 -3
2 1 1 0.5897 2.4329275752720143 9.395475314497507 16.52464840745641 0 -6 4
437 1 1 0.5897 2.1032332194659635 1.9080531209731757 15.9801596096589 -2 4 1
710 1 1 0.5897 9.029184360477831 5.809728647905779 12.263622763235311 -5 -4 -1
1 1 2 -1.1794 2.760214404953772 8.843707472902313 15.814253983408559 0 -6 4
582 1 1 0.5897 7.993851801198078 3.6893093249253273 16.076141659844872 -3 -3 1
485 1 1 0.5897 4.66568545856467 1.2940994662378902 13.657470802044601 -1 3 -1
657 1 1 0.5897 8.863613378456963 8.211728157305117 12.661958055549645 1 2 0
366 1 1 0.5897 8.9157306309835 7.352195162583312 15.652287925298205 2 4 2
35 1 1 0.5897 7.5439658575782245 4.633813602317272 11.380861085712182 -5 2 -1
12 1 1 0.5897 0.8883578118147184 11.018492254567963 11.46582538604573 -3 1 4
531 1 1 0.5897 8.669380256781505 2.853876137320848 12.095570482311857 -2 -1 -6
34 1 2 -1.1794 8.473959066548169 4.483245548988668 11.211548887511363 -5 2 -1
237 1 1 0.5897 0.6685103706158223 2.4255327031473266 11.207745367484572 0 -2 -3
261 1 1 0.5897 8.993050439891237 8.114368912919241 20.275906500791166 1 -3 6
766 1 2 -1.1794 8.738342426715198 3.961685072628509 19.031037840172672 -2 -1 1
260 1 1 0.5897 8.29173628019167 8.119416060787582 18.934282409423865 1 -3 6
497 1 1 0.5897 0.7431621828815089 1.5488458876213593 19.899313176852232 2 0 1
409 1 2 -1.1794 8.025993876455638 7.1802999833002215 21.906083561062154 3 3 -5
199 1 2 -1.1794 6.806277852861424 7.704176364480986 17.90461716933035 3 -3 -1
663 1 1 0.5897 0.9342027894542747 6.425226467089366 17.901191801798703 -2 -3 1
90 1 1 0.5897 3.9217901684726453 3.9390101557359127 18.796369219868446 6 0 3
664 1 2 -1.1794 7.382174679077766 11.24888262291143 20.364878517961493 2 3 3
62 1 1 0.5897 4.415119418025415 7.385142512883611 21.575629069985602 -3 0 3
841 1 2 -1.1794 0.4953145979740685 4.438492736040118 21.012094354027248 -1 1 0
201 1 1 0.5897 6.206595252705694 7.054433327900541 17.537955716843953 3 -3 -1
614 1 1 0.5897 0.8126643977725134 9.096775675419417 21.100008959515236 -5 2 2
496 1 2 -1.1794 0.4898153144456724 2.1240639184028676 19.17739946736988 2 0 1
288 1 1 0.5897 7.340105626957495 4.496585174197082 19.904472585756857 3 1 1
243 1 1 0.5897 6.754613623647451 2.2500675952237037 22.05493734953631 0 -2 2
72 1 1 0.5897 1.517610633714025 1.172164961556271 17.989599476318105 5 3 -5
88 1 2 -1.1794 3.952507088078166 4.8627982230470845 19.045134834763793 6 0 3
666 1 1 0.5897 8.138519466999972 11.379229271839224 19.792897229837095 2 3 3
89 1 1 0.5897 3.0760142791429987 5.193511701579514 18.848666497780535 6 0 3
410 1 1 0.5897 7.226741122700854 6.864587429285983 21.484474991756272 3 3 -5
55 1 2 -1.1794 4.470885539724589 2.0537653594467593 18.985272430519963 -2 1 0
200 1 1 0.5897 7.149019728213473 8.171348620003807 17.142698878829492 3 -3 -1
583 1 2 -1.1794 5.014110185699542 9.46091219201578 19.01306076597311 4 -4 0
378 1 1 0.5897 1.5994595299517458 10.357194097765907 18.90442113521597 3 4 2
648 1 1 0.5897 7.110111571795004 10.268862910539793 21.80780050186688 -6 0 0
286 1 2 -1.1794 6.542119342137 4.892797439894968 20.254377808536475 3 1 1
56 1 1 0.5897 4.460688745744599 1.727887311167916 19.88523261385376 -2 1 0
411 1 1 0.5897 7.824306039020901 8.08127433229353 22.158620112669553 3 3 -5
392 1 1 0.5897 3.855462689815162 5.437800065272721 20.943017988546487 5 -2 -2
661 1 2 -1.1794 1.6116988229787201 5.751611062460459 17.84246012131159 -2 -3 1
393 1 1 0.5897 2.62325421433889 5.499862500732915 21.820310790866024 5 -2 -2
377 1 1 0.5897 2.8431233711843777 11.08205301193366 18.435664807363565 3 4 2
242 1 1 0.5897 6.984546284594431 3.7035885822746426 21.699641052532378 0 -2 2
767 1 1 0.5897 8.523948872182443 4.0961395436218035 18.107900352954736 -2 -1 1
391 1 2 -1.1794 3.5557188268713125 5.715687312362691 21.808548248545158 5 -2 -2
376 1 2 -1.1794 2.371423226340262 10.25379009228487 18.34800861976624 3 4 2
61 1 2 -1.1794 4.512890045356696 8.337296153936773 21.568946740928865 -3 0 3
63 1 1 0.5897 4.685558360284378 8.55438159843007 20.65282402465084 -3 0 3
585 1 1 0.5897 4.137358238621138 9.375881880176358 18.638517186981375 4 -4 0
287 1 1 0.5897 5.851124753739428 4.609710292820214 19.655541839363444 3 1 1
808 1 2 -1.1794 4.679820508571012 1.1160812796038628 21.635388155558054 4 0 -2
584 1 1 0.5897 5.547828830663912 8.839329043284817 18.518106531725927 4 -4 0
665 1 1 0.5897 6.674438133098984 10.994671757546598 19.772690299810698 2 3 3
498 1 1 0.5897 0.4328920405986687 2.9940878427440207 19.572404582606744 2 0 0
57 1 1 0.5897 5.11452976899551 1.5041053757286245 18.538266963527356 -2 1 0
647 1 1 0.5897 6.02961356289995 9.267383972109752 22.156237173420863 -6 0 0
408 1 1 0.5897 2.9114791071337938 8.7898292708715 22.21029472992901 -5 -1 2
578 1 1 0.5897 4.924908225099578 5.15152726558104 17.323916214359052 1 3 -3
662 1 1 0.5897 1.6086668545904792 5.487781563897891 16.92235946205888 -2 -3 1
140 1 1 0.5897 0.13130665202208291 8.170893456511955 18.772536993552123 0 -2 0
842 1 1 0.5897 0.625273565221942 3.869486310503 21.77075120463688 -1 1 0
613 1 2 -1.1794 0.07014328240650752 9.132407277581665 20.497015865136937 -5 2 3
577 1 2 -1.1794 5.4653138068650575 5.685133226070834 16.74129334450376 1 3 -3
579 1 1 0.5897 6.334422010988418 5.286840363027113 16.788366571339353 1 3 -3
190 1 2 -1.1794 2.5331779164575923 12.05682446394756 1.6983071896748723 4 5 -5
659 1 1 0.5897 7.265746023705142 21.49955187741337 2.219660796128964 -1 -2 4
387 1 1 0.5897 4.032913004553045 17.278987613375612 4.457589226282316 -3 1 1
427 1 2 -1.1794 0.946562163423442 13.104229650584468 4.889573687758213 2 0 -2
658 1 2 -1.1794 6.863963566419498 20.63075568791511 2.2167949979453336 -1 -2 4
688 1 2 -1.1794 1.031994643471704 15.336195699339399 2.318883673224871 2 -2 5
461 1 1 0.5897 7.559417705863623 14.617135611311674 2.7102706405631487 3 4 -1
455 1 1 0.5897 3.522860043466742 13.50665530709725 2.494036578702912 1 -2 0
681 1 1 0.5897 6.750860918790638 19.39003974647159 3.38378054050226 -6 -5 2
157 1 2 -1.1794 1.7035880370077965 17.607023210897523 0.6735316956266764 3 1 -2
465 1 1 0.5897 4.53594293280447 17.57225246362638 1.795347326087588 6 1 -2
159 1 1 0.5897 1.4511287228773497 16.780073278967976 1.0841730085321872 3 1 -2
456 1 1 0.5897 3.803949218335322 14.03390730212049 3.885022880927142 1 -2 0
853 1 2 -1.1794 9.070533545721243 15.538242035620486 2.861579139319996 -3 0 2
385 1 2 -1.1794 4.471574388340225 17.08811855054876 3.6285029093624765 -3 1 1
689 1 1 0.5897 1.8704237076632353 15.059879857254522 2.6888925301582045 2 -2 5
690 1 1 0.5897 0.5209885891413195 14.529453217070284 2.2535897536813274 2 -2 5
341 1 1 0.5897 1.3611928048272457 19.505215887503 4.030715252140778 2 4 3
744 1 1 0.5897 8.642184817169811 12.056238886622198 5.089551791207964 -3 0 2
118 1 2 -1.1794 4.28281958535686 21.446012897760294 3.5379137845525137 4 -3 -1
590 1 1 0.5897 5.45404197183103 14.459815870947095 0.848626460964436 2 4 2
462 1 1 0.5897 6.459281413130707 13.651999942234232 3.097803502452975 3 4 -1
120 1 1 0.5897 3.5653488514578004 20.815442754240202 3.4761179049018804 4 -3 -1
371 1 1 0.5897 1.2224355407806544 19.255823853315064 0.8186485175649043 3 6 -1
833 1 1 0.5897 2.2036445687077255 21.920048823336106 1.2875989834683113 2 -2 0
680 1 1 0.5897 6.181228221387587 18.132935556758834 4.005904659364746 -6 -5 2
454 1 2 -1.1794 3.7569213810406863 14.304577810126066 2.968107942522198 1 -2 0
679 1 2 -1.1794 6.938805449426599 18.717107537045898 4.03803061686445 -6 -5 2
460 1 2 -1.1794 6.828334459844151 14.117298359285023 2.347082535569241 3 4 -1
591 1 1 0.5897 4.946272479349556 15.796262843944756 0.35065205652883014 2 4 2
372 1 1 0.5897 0.04436122090424298 20.176033155168287 1.0578104750112205 3 6 -1
660 1 1 0.5897 6.488109161075281 20.543073906684917 1.340861400452694 -1 -2 4
428 1 1 0.5897 0.172641102919773 13.432207822742395 4.431668169748047 2 0 -2
464 1 1 0.5897 3.516865367445631 17.193472280514722 0.7418635123429963 6 1 -2
463 1 2 -1.1794 4.4513572401286705 17.359388893259926 0.8659712675845219 6 1 -2
116 1 1 0.5897 7.899306681321346 12.836456528496058 1.5908046851808668 -2 -3 4
370 1 2 -1.1794 0.9850533114579441 20.181015042721384 0.8808755636497476 3 6 -1
386 1 1 0.5897 4.269652825851084 16.168453847464363 3.4563299746257035 -3 1 1
342 1 1 0.5897 2.3269045039090224 18.82493875452296 3.083885026881321 2 4 3
340 1 2 -1.1794 2.2670724147292165 19.53504024817908 3.722937554395256 2 4 3
119 1 1 0.5897 4.952050355520747 21.107094102361632 2.943374461653961 4 -3 -1
115 1 2 -1.1794 8.405044066627937 12.15380799511477 1.1498698898287103 -2 -3 4
223 1 2 -1.1794 6.517309191556095 12.706207990443659 5.313650356652667 1 -1 -7
225 1 1 0.5897 5.569885209160481 12.815073582060927 5.395839494223049 1 -1 -7
449 1 1 0.5897 2.697721199691046 13.00343765576907 5.2423572753492085 5 -1 -3
855 1 1 0.5897 9.08114981400521 16.294264408543512 3.4486121047810228 -3 0 2
621 1 1 0.5897 8.622195625842613 20.141678543545154 2.6095196718427776 0 -2 4
589 1 2 -1.1794 5.317000317290027 14.967088978569773 0.04855932310818645 2 4 2
571 1 2 -1.1794 3.657666439231043 13.57043032068544 8.661651906963781 3 -3 -4
819 1 1 0.5897 0.24883256824680444 11.856731868790632 8.98438730635289 3 -3 0
739 1 2 -1.1794 7.3390796391458935 20.10653051709768 6.563578256316936 -1 -1 2
270 1 1 0.5897 5.1455336234186815 22.411474124125675 6.323799163864798 2 5 6
268 1 2 -1.1794 5.044174795047363 21.678169994746984 6.930592611491442 2 5 6
355 1 2 -1.1794 0.9649183549630582 13.529339325877544 8.43964231891158 0 -2 4
630 1 1 0.5897 3.5468455555846186 18.17844206375652 7.931624115545969 -1 -4 3
94 1 2 -1.1794 0.48128815084288123 15.420524323324088 10.417686645325201 -4 1 -1
450 1 1 0.5897 3.6047822775585368 13.726922669066017 6.214835097910942 5 -1 -3
357 1 1 0.5897 1.9214603310713088 13.562417113639922 8.427883958693942 0 -2 4
788 1 1 0.5897 6.96125579607238 16.054384353976133 9.500147515346747 3 -2 6
269 1 1 0.5897 5.814497373704304 21.13120368611576 6.776819853585104 2 5 6
108 1 1 0.5897 7.507595919930872 12.786490626662683 10.870126513243358 -1 0 4
629 1 1 0.5897 3.100585821558388 17.92630748880698 9.356094259783783 -1 -4 3
573 1 1 0.5897 4.175429051829887 14.273359658683226 9.05416036573539 3 -3 -4
255 1 1 0.5897 1.362470684865557 19.978799685374153 6.93904814810251 2 7 -6
741 1 1 0.5897 7.8936170320058805 20.880254394583513 6.463372894741196 -1 -1 2
369 1 1 0.5897 8.01667439113294 21.479994958918525 10.524681182641078 4 4 -3
631 1 2 -1.1794 7.899862466773642 13.826415507508612 7.674354239283943 5 3 3
642 1 1 0.5897 0.3438248224140279 16.200326353952143 6.8731623208994215 5 2 -4
254 1 1 0.5897 0.05127412874340487 20.135955576602658 6.198859230774955 2 7 -6
632 1 1 0.5897 7.716941774270596 13.258343418586023 8.4227183987117 5 3 3
8 1 1 0.5897 0.9940479765134158 21.646121024270364 11.054659058110618 3 -2 -1
794 1 1 0.5897 3.0415994511681745 19.730590871397208 5.658866744868468 -5 1 5
806 1 1 0.5897 4.603087135978878 16.39478232273185 9.313691082106166 2 -2 -4
789 1 1 0.5897 8.114300760617452 16.981075425812215 9.178352781029908 3 -2 6
572 1 1 0.5897 4.014774614064464 12.76805423386205 9.042268499923253 3 -3 -4
628 1 2 -1.1794 3.4708300228381184 17.487823704292012 8.590008593865246 -1 -4 3
807 1 1 0.5897 5.172932088854986 15.818580878746461 10.592396317758569 2 -2 -4
805 1 2 -1.1794 5.190740145402736 15.71384070287334 9.641122828083951 2 -2 -4
96 1 1 0.5897 0.06570534529402597 16.227683313962523 10.114379574131036 -4 1 -1
740 1 1 0.5897 7.220971406040998 19.778832121044587 5.672023838387378 -1 -1 2
793 1 2 -1.1794 3.2417229607768263 19.77939871118892 6.593682055089619 -5 1 5
836 1 1 0.5897 8.649672667454015 19.541794066626096 9.308268686792605 -1 1 -1
633 1 1 0.5897 7.883029777877652 14.712537714748013 8.035931914541885 5 3 3
356 1 1 0.5897 0.7175118385665896 14.018741404526638 9.224192404549983 0 -2 4
795 1 1 0.5897 3.9012316168699934 20.469741714290933 6.662225508735659 -5 1 5
331 1 2 -1.1794 2.493635834172414 19.040692305868482 10.589178130343045 -1 -2 -3
837 1 1 0.5897 7.788474077106949 18.928295384692955 8.22486142173559 -1 1 -1
332 1 1 0.5897 1.7827330616449186 19.681444359112614 10.605219924646988 -1 -2 -3
669 1 1 0.5897 5.862170161428022 11.920876643808642 10.342160796312667 -8 -2 0
325 1 2 -1.1794 3.379630728835337 15.945858434567274 6.250331021912683 1 -2 -1
367 1 2 -1.1794 8.886840251950238 21.201227726951803 10.239541731987158 4 4 -2
835 1 2 -1.1794 8.274874975141401 18.709641431666245 9.019726285484163 -1 1 -1
640 1 2 -1.1794 0.7223505772862749 16.001369290182943 6.016791999264005 5 2 -4
327 1 1 0.5897 3.6106871826290883 16.304695133413233 7.107102863298099 1 -2 -1
787 1 2 -1.1794 7.901464242777965 16.058779091194907 9.320726409684074 3 -2 6
509 1 1 0.5897 3.023554073480932 22.352585463351797 7.526311245986936 4 -2 2
224 1 1 0.5897 6.882706561861601 13.248047444881278 6.013008353253215 1 -1 -7
326 1 1 0.5897 2.4231658155536477 15.90882590475226 6.255661893477796 1 -2 -1
641 1 1 0.5897 0.6229075766955102 15.053823233405558 5.9247407256288716 5 2 -4
448 1 2 -1.1794 3.6035329703279424 13.038480581694625 5.5497897082055685 5 -1 -3
253 1 2 -1.1794 0.4286101198818536 20.135842478668128 7.078538875527719 2 7 -6
106 1 2 -1.1794 7.476745320532023 12.291970644266973 10.051159812920146 -1 0 4
17 1 1 0.5897 7.214383506885859 18.56561729274654 10.985093048744394 -3 3 3
328 1 2 -1.1794 8.812624832187828 22.58834977167714 6.254644146097482 3 5 0
95 1 1 0.5897 1.106402104855307 15.707865791193765 11.08317049849203 -3 1 -1
429 1 1 0.5897 0.597823456657407 12.515902838643242 5.559250351585581 2 0 -2
777 1 1 0.5897 5.465195557414298 16.86183306146475 12.06358662914613 4 -4 1
252 1 1 0.5897 6.00659827258345 14.337785586874219 14.71590434171443 4 -3 2
324 1 1 0.5897 3.1953144727588345 16.640814540209746 12.461900174443347 5 -1 -2
489 1 1 0.5897 7.451686961940701 18.075400498358565 15.188963863374504 0 -7 2
16 1 2 -1.1794 6.600197802050131 18.325861599921016 11.679000428640636 -3 3 3
250 1 2 -1.1794 6.491259021581749 14.86922355112127 14.084336152353593 4 -3 2
251 1 1 0.5897 6.8957457771406805 14.232433053754736 13.495188352672836 4 -3 2
389 1 1 0.5897 2.4742403265267927 16.742941183747625 16.308783641977847 2 5 3
397 1 2 -1.1794 4.5431195802852615 18.748028843211486 15.108467217353386 5 3 -5
703 1 2 -1.1794 8.564633089311274 16.132133998690804 15.618437787869428 2 -2 -1
9 1 1 0.5897 0.7188305701751487 20.668390689172977 12.177206966738577 3 -2 -1
704 1 1 0.5897 7.838194176270612 15.761103677924734 15.117610936645631 2 -2 -1
747 1 1 0.5897 5.219478721221111 19.311957676824896 12.14616170717392 2 2 -8
520 1 2 -1.1794 2.7760319050583977 14.470932898981035 14.079600042229616 -3 0 -2
522 1 1 0.5897 2.7421342890142744 15.168084207756229 13.424590876423776 -3 0 -2
4 1 2 -1.1794 5.5062664849432625 13.0486300889173 15.982219292832726 1 0 -1
534 1 1 0.5897 0.3936639791034545 15.775207888631574 16.36499480975143 -7 -2 -2
248 1 1 0.5897 3.5871407051270046 21.602787824234 15.097164085696148 -1 2 -3
775 1 2 -1.1794 4.92784584653607 16.098773324473015 12.276197934686985 4 -4 1
5 1 1 0.5897 5.3571841304008965 12.214421969570235 15.537165409397003 1 0 -1
180 1 1 0.5897 4.025352895150886 11.945493579617569 12.18907736590027 -7 1 -1
388 1 2 -1.1794 3.397527466551476 16.49051377241101 16.313801925434845 2 5 4
179 1 1 0.5897 2.5956073683847545 11.906017590480152 12.685180561668998 -7 1 -1
487 1 2 -1.1794 7.154912465712397 18.907471774246588 14.820472168495504 0 -7 2
587 1 1 0.5897 2.220320401460506 19.94086341506776 13.851353120202695 0 2 4
390 1 1 0.5897 3.4521836158568333 15.76795421488607 15.68838345820748 2 5 4
488 1 1 0.5897 6.205422808378077 18.898408864342972 14.941309688247351 0 -7 2
322 1 2 -1.1794 2.2595116667593986 16.524851218797814 12.297487355918312 5 -1 -2
533 1 1 0.5897 0.6989677746053623 16.323391437052486 14.987276578500126 -7 -2 -2
323 1 1 0.5897 1.861240243668787 17.345084912648364 12.588702822616339 5 -1 -2
247 1 2 -1.1794 3.060384380721977 20.865850077321685 15.406463127840075 -1 2 -3
467 1 1 0.5897 2.0458704336073272 13.136448811973587 15.239100813716236 5 -3 6
37 1 2 -1.1794 7.933267213746139 13.157916034463032 12.636459367128602 -1 2 -4
776 1 1 0.5897 5.4632293547874795 15.5904633151633 12.885459691253192 4 -4 1
249 1 1 0.5897 2.7114405820155376 21.157109070933465 16.24885852842322 -1 2 -3
598 1 2 -1.1794 7.931119770614369 21.1800664223162 15.924636266538931 -1 -3 -4
745 1 2 -1.1794 4.388888207201402 19.602258602242692 12.523051969210904 2 2 -8
178 1 2 -1.1794 3.484608758867909 12.135668599842717 12.955655099285067 -7 1 -1
588 1 1 0.5897 0.8567350611622747 19.299988097397495 13.703903331383106 0 2 4
746 1 1 0.5897 4.394100679745575 19.25197595345519 13.41382474239291 2 2 -8
600 1 1 0.5897 7.618462760284493 20.37156466765575 15.518693786132557 -1 -3 -4
586 1 2 -1.1794 1.7435035998223285 19.284090120682748 13.343902047326752 0 2 4
18 1 1 0.5897 7.150874107045555 18.187157211152453 12.449533773672384 -3 3 3
521 1 1 0.5897 3.2591132934761884 13.763570911612257 13.652429311862253 -3 0 -2
7 1 2 -1.1794 0.45216651447412304 20.89156474172844 11.285406310331307 3 -2 -1
398 1 1 0.5897 4.046147021144678 18.0525825375276 15.539251071772375 5 3 -5
39 1 1 0.5897 7.937370376738757 12.319652398042614 13.098554699468716 -1 2 -4
532 1 2 -1.1794 0.7054933980009123 16.560184343397705 15.914685885424374 -7 -2 -2
399 1 1 0.5897 4.092679521573049 19.554861713974557 15.358115679933686 5 3 -5
599 1 1 0.5897 8.573010809473972 20.890452495253754 16.572960280438025 -1 -3 -4