LAMMPS data file via write_data, version 30 Jul 2021, timestep = 15750000

1920 atoms
2 atom types
1280 bonds
1 bond types
640 angles
1 angle types

-0.09481012783114195 24.824811127831587 xlo xhi
-0.018719581204136304 24.748720581199542 ylo yhi
-0.03082847794261312 22.840828477947035 zlo zhi

Masses

1 1.008
2 15.999

Pair Coeffs # lj/cut/tip4p/long/omp

1 0 0
2 0.21084 3.1668

Bond Coeffs # harmonic/omp

1 450 0.9572

Angle Coeffs # harmonic/omp

1 55 104.52

Atoms # full

1 1 2 -1.1794 4.226154464088089 1.7241644977388297 3.969535378487172 0 0 0
2 1 1 0.5897 4.453310208159215 2.189439002709129 4.7745993736935395 0 0 0
3 1 1 0.5897 5.007819270989038 1.7963475034038778 3.421897169047405 0 0 0
4 2 2 -1.1794 2.81067466331721 1.6334415888245122 1.6282321264612094 0 0 0
5 2 1 0.5897 3.012282527249468 1.7803449284070096 2.552345992066078 0 0 0
6 2 1 0.5897 1.8615277478333576 1.7418487989694211 1.5695304103794643 0 0 0
10 4 2 -1.1794 3.025669363330565 4.513125440439218 3.5738491702416066 0 0 0
11 4 1 0.5897 2.770324358185438 5.280830441536237 4.085340434484168 0 0 0
12 4 1 0.5897 2.521001675755445 4.585738657668015 2.7637791888710272 0 0 0
13 5 2 -1.1794 1.3027780967311675 2.8473046115321146 4.90498582312473 0 0 0
14 5 1 0.5897 2.0418564376426604 3.2430843132134797 4.4431985360756325 0 0 0
15 5 1 0.5897 1.4553797497027987 1.9046841119763311 4.838802383662014 0 0 0
22 8 2 -1.1794 1.483596559576412 4.603330984037563 1.401690957282462 0 0 0
24 8 1 0.5897 1.390804111105083 5.343034760985665 0.8013253695351744 0 0 0
23 8 1 0.5897 0.70612391551161 4.646953773715809 1.958244643720018 0 0 0
20 7 1 0.5897 3.8586063671799473 2.847038799322732 1.048465975532076 0 0 0
9 3 1 0.5897 4.766640528072485 4.449323138058064 3.3732214907440934 0 0 0
21 7 1 0.5897 5.3555303038409585 3.0349959771231596 0.9244183493251872 0 0 0
19 7 2 -1.1794 4.522059505239289 3.341646187505478 0.5674929892113519 0 0 0
27 9 1 0.5897 4.408044896135426 5.176280167781268 0.5521392395997635 0 0 0
28 10 2 -1.1794 1.5621641330059006 0.13498179519242456 4.775459178937899 0 0 0
98 33 1 0.5897 0.05456857158122366 5.485202718981951 3.7133393024379138 1 0 0
25 9 2 -1.1794 4.416435612290728 6.133091905076288 0.5268000544313144 0 0 0
7 3 2 -1.1794 5.718035515453297 4.477524007993568 3.4738439294595618 0 0 0
8 3 1 0.5897 5.879674996909796 5.253250120382674 4.010806637079818 0 0 0
387 129 1 0.5897 4.154213573103302 0.3252370646084683 1.2603805985404406 0 1 0
867 289 1 0.5897 4.547826174994121 0.019135144278146762 5.275241381832341 0 1 0
47 16 1 0.5897 6.0469926190195995 0.9928316714053589 1.5569027249805203 0 0 0
99 33 1 0.5897 0.1283566625323299 3.987826496488032 3.9236757284513635 1 0 0
16 6 2 -1.1794 0.10295110183288214 1.3979312759809273 1.7258032316258667 0 0 0
270 90 1 0.5897 0.787451567236218 12.174449264711413 4.151886366643093 0 0 0
26 9 1 0.5897 5.314815170094334 6.371343676616007 0.7553559416345542 0 0 0
148 50 2 -1.1794 1.2729229172180725 6.289758538585337 4.926540702048494 0 0 0
121 41 2 -1.1794 4.356536039464479 7.639442075364503 4.015589921741806 0 0 0
122 41 1 0.5897 3.6935130334370374 7.622787624116926 3.325465201774447 0 0 0
123 41 1 0.5897 5.146178919445931 7.9626815307046 3.5818915448059134 0 0 0
124 42 2 -1.1794 2.667626110452864 7.704875857396762 1.796568296340223 0 0 0
125 42 1 0.5897 3.1139109779103746 6.929614508162615 1.4560191461401335 0 0 0
126 42 1 0.5897 3.2266106493959326 8.437128404184449 1.5367532352201458 0 0 0
129 43 1 0.5897 5.0793184185651885 11.193069150328068 3.4821883780185394 0 0 0
130 44 2 -1.1794 3.188469695520575 11.092146268475819 3.4266618827996 0 0 0
132 44 1 0.5897 2.9461579387837027 10.201786058660648 3.6811091050915175 0 0 0
133 45 2 -1.1794 1.5712025157673206 8.905164321525579 4.977556654980875 0 0 0
135 45 1 0.5897 0.9766541169633944 9.360520308588596 4.381470427664582 0 0 0
137 46 1 0.5897 0.8785917747469004 7.791201124021542 2.0720111916426416 0 0 0
139 47 2 -1.1794 4.4522143426467276 9.49104148694914 0.8178312527844601 0 0 0
142 48 2 -1.1794 1.46937818880638 10.748940160976662 1.221349594501702 0 0 0
143 48 1 0.5897 2.0943309215891937 11.042634919494098 1.8841715306999227 0 0 0
144 48 1 0.5897 1.397388355181809 11.48669926719735 0.6157598680396043 0 0 0
149 50 1 0.5897 1.3436303069271858 7.227214578691239 5.106488157198366 0 0 0
131 44 1 0.5897 2.633265821595739 11.65534156081568 3.965854962716107 0 0 0
140 47 1 0.5897 4.4817222513397015 10.430969603724522 0.6393144171891924 0 0 0
136 46 2 -1.1794 -0.07121592947862254 7.769933929292561 2.1881378989776095 0 0 0
621 207 1 0.5897 4.401901303138728 8.946360108063722 5.5932042794190995 0 0 0
507 169 1 0.5897 4.392900352636611 6.580922413819871 5.417220914465143 0 0 0
218 73 1 0.5897 0.19198483965569108 10.482207444333813 2.5179851057915403 1 0 0
127 43 2 -1.1794 6.031843559650378 11.102862231225306 3.507300337812129 0 0 0
168 56 1 0.5897 6.082980058394851 8.579801223535894 1.4214202803979261 0 0 0
145 49 2 -1.1794 4.526146058434013 12.238464028523536 0.509085700608334 0 0 0
508 170 2 -1.1794 1.4200947740906278 0.0745594535585865 10.895435986493649 0 0 0
578 193 1 0.5897 0.10576473937169359 3.855031232643735 9.518427437167821 1 0 0
150 50 1 0.5897 1.2502673562268969 5.880408132683839 5.7914871648798485 0 0 0
527 176 1 0.5897 5.924658732604899 0.824614434329427 7.258484589151939 0 0 0
579 193 1 0.5897 0.1431995291615533 5.335641236893147 9.83182831233405 1 0 0
487 163 2 -1.1794 5.888240521745133 4.825064602941153 9.015687577784917 0 0 0
494 165 1 0.5897 1.3431234574792852 1.9442069756024498 10.993181623843492 0 0 0
504 168 1 0.5897 1.3997502645236677 4.009452223124843 6.595631457264053 0 0 0
501 167 1 0.5897 4.590489118059823 4.319267893655831 6.099478365719547 0 0 0
499 167 2 -1.1794 4.68836023829927 3.375426821131264 6.225111895340715 0 0 0
483 161 1 0.5897 4.359351104524201 2.2672491511822934 10.495683766459225 0 0 0
492 164 1 0.5897 2.7683200721030032 3.922708246688625 9.944104778920611 0 0 0
493 165 2 -1.1794 1.3939384528275554 2.8903182155108693 10.85719752168798 0 0 0
491 164 1 0.5897 2.7253679035783 4.237870092128081 8.464004705246136 0 0 0
485 162 1 0.5897 3.405816242558526 1.5479730499606237 8.55540801182413 0 0 0
481 161 2 -1.1794 4.354648554250593 1.5741022472112958 9.835580250470832 0 0 0
482 161 1 0.5897 5.074127486336887 1.7993848447577494 9.245890737991648 0 0 0
502 168 2 -1.1794 1.4149564996539266 4.788692071032115 7.151293560236781 0 0 0
500 167 1 0.5897 3.966175434752232 3.1343633345149042 6.805171689306603 0 0 0
490 164 2 -1.1794 3.2273329472157473 4.410688302635303 9.260461147369178 0 0 0
503 168 1 0.5897 0.6694148030383434 4.677425745641142 7.741136583465672 0 0 0
498 166 1 0.5897 1.0423196887091206 1.603760727788264 8.065585449326344 0 0 0
484 162 2 -1.1794 2.8968235284783366 1.5418704592451984 7.744804329892779 0 0 0
489 163 1 0.5897 4.940549918765585 4.770231551028823 9.137972606051248 0 0 0
486 162 1 0.5897 3.4125600361026596 1.0068214685279808 7.141553339659054 0 0 0
505 169 2 -1.1794 4.370292585335293 6.009678735085487 6.184932054951561 0 0 0
629 210 1 0.5897 2.2670123766615884 5.882953605443502 10.129835175870106 0 0 0
528 176 1 0.5897 5.870933395138619 2.336427669234583 7.316385910949386 0 0 0
496 166 2 -1.1794 0.10041327877836492 1.717229847018391 7.939045274378309 0 0 0
1347 449 1 0.5897 4.603689533019722 0.2665992258853338 11.139294633756725 0 1 0
1101 367 1 0.5897 4.509492082100348 9.264310701169311 11.258397887405613 0 0 0
134 45 1 0.5897 1.6441993086558229 9.48668197811702 5.734338896654264 0 0 0
604 202 2 -1.1794 2.7813752567886283 7.673617667170374 7.962502196158523 0 0 0
607 203 2 -1.1794 5.718562933635009 10.717106982853894 9.383439684485689 0 0 0
611 204 1 0.5897 3.855950597251247 10.827185661971834 8.95847286550681 0 0 0
628 210 2 -1.1794 1.557935015109821 6.2392024006229425 10.665028233484605 0 0 0
699 233 1 0.5897 0.19050245252237796 10.734735768170019 8.383669160566212 1 0 0
647 216 1 0.5897 5.860706273696209 7.679259493830131 8.536900985849371 0 0 0
619 207 2 -1.1794 4.404765398192259 9.505684029062925 6.369968831075976 0 0 0
613 205 2 -1.1794 1.4565849368286308 9.190689797944605 10.588136263834423 0 0 0
620 207 1 0.5897 5.0021343782365495 9.069583641398253 6.977524715511142 0 0 0
622 208 2 -1.1794 1.1539700426707127 10.822873551717704 6.954143064050246 0 0 0
603 201 1 0.5897 3.8681300999626695 7.722553451281556 9.32280725082842 0 0 0
610 204 2 -1.1794 2.900418370799243 10.774489723802207 8.974439614629526 0 0 0
614 205 1 0.5897 2.226839300776429 9.532561951041073 10.134317105635729 0 0 0
698 233 1 0.5897 0.13154895439490547 11.48554055838955 9.696933633136942 1 0 0
615 205 1 0.5897 0.7171655862488672 9.636211117437165 10.174740829599529 0 0 0
612 204 1 0.5897 2.631235509242478 11.476627173122155 9.56667302495685 0 0 0
605 202 1 0.5897 3.128675017322722 8.553979467220275 7.81921011068231 0 0 0
630 210 1 0.5897 1.5995441085954434 7.184446655411779 10.5201727247895 0 0 0
625 209 2 -1.1794 4.354384657709749 12.242479297305225 6.289388900212191 0 0 0
626 209 1 0.5897 4.499849726874791 11.296868382815157 6.260108880159074 0 0 0
623 208 1 0.5897 1.8948278281135602 10.890866593948326 7.556336018560166 0 0 0
606 202 1 0.5897 1.8401725922479177 7.759447388741909 7.81135581143106 0 0 0
601 201 2 -1.1794 4.605556514280822 7.88360782279304 9.911358169807421 0 0 0
602 201 1 0.5897 4.732190472594355 7.05317530047052 10.370213442815446 0 0 0
624 208 1 0.5897 1.2372764744312263 11.587118710626992 6.383884775081722 0 0 0
506 169 1 0.5897 3.641780291322407 6.34151186288385 6.709608774240517 0 0 0
648 216 1 0.5897 5.747672974096011 6.9374371192204976 7.222074993079691 0 0 0
609 203 1 0.5897 6.120824912647199 9.889735564478872 9.647675547562264 0 0 0
616 206 2 -1.1794 0.0773606702301492 7.721768887964757 7.665895403569233 0 0 0
961 321 2 -1.1794 4.3784500588282045 1.7498520329081992 15.605607862857592 0 0 0
962 321 1 0.5897 5.1441033674649 1.8141200314591277 15.034839436691742 0 0 0
963 321 1 0.5897 4.3945415040138505 0.848810297371187 15.928201801093437 0 0 0
964 322 2 -1.1794 2.759285021759129 1.4886411936081403 13.471762497573257 0 0 0
965 322 1 0.5897 3.1874601358372154 1.5540568243117983 14.325330918912968 0 0 0
966 322 1 0.5897 1.8234188829065872 1.521177542481047 13.669681964244152 0 0 0
970 324 2 -1.1794 3.1743220801841034 4.5258871359799135 14.814544891157494 0 0 0
971 324 1 0.5897 4.124873552315312 4.4237328526285 14.768836481728465 0 0 0
972 324 1 0.5897 2.890297263902807 3.8540049863373644 15.434305209010798 0 0 0
973 325 2 -1.1794 1.4446991019997348 2.924128980383107 16.349510013086924 0 0 0
975 325 1 0.5897 0.7260832375789948 3.3970389894097757 15.92989431063142 0 0 0
982 328 2 -1.1794 1.1252924364423946 4.794112643807168 12.81305646811615 0 0 0
983 328 1 0.5897 1.2802360995477458 5.285979181409142 12.006663906632344 0 0 0
984 328 1 0.5897 1.9529452145613408 4.849254994817901 13.29061160016371 0 0 0
980 327 1 0.5897 3.585901580223246 2.9368676841962627 12.67086106392871 0 0 0
981 327 1 0.5897 5.090666528999004 2.926955468954171 12.50630408718546 0 0 0
979 327 2 -1.1794 4.291659906678209 3.3054781805300397 12.139668112371664 0 0 0
990 330 1 0.5897 1.422933450526919 1.1510175413638533 16.461267633484344 0 0 0
986 329 1 0.5897 4.565521021689648 5.042674169537503 12.023717905837751 0 0 0
1109 370 1 0.5897 0.677519124064556 5.90128864491014 15.90905775335596 0 0 0
1110 370 1 0.5897 2.18215218468686 5.956933185221129 15.752602349462 0 0 0
1346 449 1 0.5897 3.9785535474452347 0.44970786124011003 12.505857342377517 0 1 0
985 329 2 -1.1794 4.593794761276963 5.99525999309549 11.93438079310125 0 0 0
1058 353 1 0.5897 -0.01708816331466359 4.6556597753133575 14.35018223219091 1 0 0
967 323 2 -1.1794 6.049159780369746 4.684512470911372 14.951586780336633 0 0 0
1008 336 1 0.5897 5.924675873146617 1.1123388003325514 12.953898900871815 0 0 0
1460 487 1 0.5897 4.455741619836291 2.612254429262594 17.077068432792696 0 0 0
988 330 2 -1.1794 1.4056225790892145 0.20899443084496122 16.292460028898816 0 0 0
976 326 2 -1.1794 -0.04932156428149456 1.7786362891687415 13.701810994530774 0 0 0
1345 449 2 -1.1794 4.743126511348372 0.07684641316352313 12.067069073007916 0 1 0
495 165 1 0.5897 1.2365297922263645 3.2660580967341484 11.723368831296993 0 0 0
987 329 1 0.5897 3.8907528233123356 6.310525837061481 12.502249346689387 0 0 0
1108 370 2 -1.1794 1.461591630887758 6.312567467642094 16.272648590855297 0 0 0
1081 361 2 -1.1794 4.960328385066916 7.643179640066038 15.678771727849787 0 0 0
1082 361 1 0.5897 5.047625136039862 8.452799404782619 16.181863586264726 0 0 0
1083 361 1 0.5897 4.831393398497098 6.962765759798943 16.339546112400676 0 0 0
1084 362 2 -1.1794 2.9841347420903537 7.508613770099591 13.522939397331397 0 0 0
1085 362 1 0.5897 3.676807364673066 7.411661923516918 14.176349381539575 0 0 0
1086 362 1 0.5897 3.277022751513058 8.231509037676505 12.96810381172474 0 0 0
1089 363 1 0.5897 5.076354191226421 10.959162957084612 14.952620095660894 0 0 0
1090 364 2 -1.1794 3.0922289218396743 10.76452246188387 15.293089997680145 0 0 0
1091 364 1 0.5897 2.66279220825845 11.553540120196681 15.62356488174285 0 0 0
1092 364 1 0.5897 2.6553480751933414 10.044846280866901 15.748479588155476 0 0 0
1095 365 1 0.5897 0.6944401952225653 9.423511684235214 16.046524330988575 0 0 0
1097 366 1 0.5897 1.1325789884266704 7.901622576815929 13.360601795903595 0 0 0
1099 367 2 -1.1794 4.523785786886766 9.487479179359132 12.189101997169075 0 0 0
1102 368 2 -1.1794 1.6540508548624593 11.028223310211825 12.759374013464853 0 0 0
1104 368 1 0.5897 2.3070766299545338 10.70082511568162 13.377850401450765 0 0 0
1093 365 2 -1.1794 1.3383773771693717 9.078757002394118 16.66510834289528 0 0 0
1103 368 1 0.5897 1.5731614320648168 10.333682696353055 12.105709584380243 0 0 0
1100 367 1 0.5897 5.308993653278737 9.056974584051336 12.527090213983344 0 0 0
1094 365 1 0.5897 1.3335368416592086 8.133481589198908 16.51466729299023 0 0 0
1107 369 1 0.5897 4.747966222137069 11.143896756170811 12.197738476183334 0 0 0
1127 376 1 0.5897 6.081684215670285 7.804493690312742 14.209722408515342 0 0 0
1096 366 2 -1.1794 0.18750963970798046 8.04056622265891 13.300475735682062 0 0 0
1128 376 1 0.5897 6.045459744934531 6.988225328263082 12.935265763165903 0 0 0
1105 369 2 -1.1794 4.891441257765747 12.088916789247081 12.248244330236613 0 0 0
1179 393 1 0.5897 0.18300026815676385 10.757434902557728 14.151298309383227 1 0 0
1178 393 1 0.5897 0.16592145539478675 11.423176078640498 15.510836819622075 1 0 0
1087 363 2 -1.1794 5.998903253087621 10.71667774982734 14.873950393025535 0 0 0
750 250 1 0.5897 1.3746250081831926 12.315587239292295 11.436667924394458 0 0 0
1538 513 1 0.5897 0.045509953450872886 4.023552305869244 20.93378481339523 1 0 0
974 325 1 0.5897 1.5205653771805532 3.3228616273387406 17.216383774969735 0 0 0
1487 496 1 0.5897 6.08659522165782 1.4573146999817685 20.161784210161773 0 0 0
1488 496 1 0.5897 6.006406990984875 0.6786874558136725 18.865961307432453 0 0 0
1826 609 1 0.5897 3.67865261566255 0.223488015213877 18.257258027470378 0 1 0
1468 490 2 -1.1794 1.3732816492990878 0.15947323532920374 21.89100402657263 0 0 0
1455 485 1 0.5897 1.369977672945074 3.4209516288177246 22.744213550870278 0 0 0
1539 513 1 0.5897 0.05888924659889866 5.534593687702141 21.025408834339718 1 0 0
1454 485 1 0.5897 2.1171957174085105 3.244041235837454 21.439555470072705 0 0 0
1464 488 1 0.5897 0.8555187097730017 4.748942484146851 19.197702180695078 0 0 0
1443 481 1 0.5897 4.631817523801336 2.4090278213751453 22.00457324236304 0 0 0
1450 484 2 -1.1794 3.4218950289484624 4.63203082412594 20.566793915002272 0 0 0
1469 490 1 0.5897 1.37870665253916 1.1139515288505284 21.96271157101345 0 0 0
1442 481 1 0.5897 3.9727842229895893 1.6250778208394052 20.889723180963845 0 0 0
1453 485 2 -1.1794 1.3433352555532971 2.942754713111866 21.915460741320306 0 0 0
1444 482 2 -1.1794 2.841994645439104 1.4181273812749544 19.44028846342519 0 0 0
1463 488 1 0.5897 1.4093048621294955 5.249941122438086 17.880835574118297 0 0 0
1452 484 1 0.5897 3.1345540168745165 4.559541996372521 19.656634752470328 0 0 0
1441 481 2 -1.1794 4.782520698489918 1.6853335061559642 21.39648684164842 0 0 0
1451 484 1 0.5897 4.377697861952176 4.618796712257602 20.518435585885506 0 0 0
1445 482 1 0.5897 1.8962195161972106 1.5328374309429245 19.348485515725486 0 0 0
1446 482 1 0.5897 3.2166794413366566 2.2277417331035547 19.093410635560904 0 0 0
1461 487 1 0.5897 5.3071431137180545 2.5857206547753213 18.328529133754348 0 0 0
1459 487 2 -1.1794 4.622654199058999 3.090395238004564 17.889305964869532 0 0 0
1462 488 2 -1.1794 1.5027016749181068 4.545759596955647 18.52240789279758 0 0 0
1466 489 1 0.5897 4.698980121607344 4.886562288025781 17.662485055006382 0 0 0
1465 489 2 -1.1794 4.562159362427938 5.8337266659526 17.681424809086057 0 0 0
1590 530 1 0.5897 2.3815833851966794 6.01309477720111 21.892675488856593 0 0 0
1447 483 2 -1.1794 6.097781095313281 4.527027142056164 20.71540946075003 0 0 0
1456 486 2 -1.1794 0.03158619089035555 1.4421144236085885 18.976960135513583 0 0 0
386 129 1 0.5897 4.875021835529695 0.4091398338537652 22.803439414631082 0 1 -1
141 47 1 0.5897 4.423332629483508 9.083186024506444 22.824020770898873 0 0 -1
1576 526 2 -1.1794 0.18953414330980506 7.7435100360205515 19.01134603778501 0 0 0
1582 528 2 -1.1794 1.5739202680765243 11.11225771927525 18.649113751545258 0 0 0
1710 570 1 0.5897 2.3895071369930014 11.998421254461899 21.931071830472145 0 0 0
1709 570 1 0.5897 0.9048901306906849 12.152573555944103 21.678773525132232 0 0 0
1571 524 1 0.5897 2.876150901562139 10.912962114084868 20.059766117169758 0 0 0
1581 527 1 0.5897 5.7639758867915605 8.783498078991627 18.34251564986155 0 0 0
1567 523 2 -1.1794 5.909917584041828 10.803336714024642 20.84183896031538 0 0 0
1577 526 1 0.5897 -0.035673593335726395 8.48891127412459 18.45469863458309 0 0 0
1589 530 1 0.5897 1.4840266898824435 7.2009608061574895 22.166676751022706 0 0 0
1566 522 1 0.5897 3.1604108894875647 6.937328140949989 18.605439060518172 0 0 0
1573 525 2 -1.1794 1.3082953990302706 9.067403272378632 21.859653278038042 0 0 0
1467 489 1 0.5897 5.420463873425178 6.195855321349533 17.90113415872403 0 0 0
1579 527 2 -1.1794 4.993885131685558 9.213109850694755 17.970344740242766 0 0 0
1585 529 2 -1.1794 4.6301854188812985 12.035708288662613 17.5808214246314 0 0 0
1565 522 1 0.5897 1.9784239002005761 7.622909093152162 19.2569824517286 0 0 0
1575 525 1 0.5897 1.9735262204245179 9.456467246587343 21.29198020134422 0 0 0
1562 521 1 0.5897 4.618484927744973 7.064649523924415 21.86604668681359 0 0 0
1588 530 2 -1.1794 1.474634049041643 6.246915590985013 22.089803137762086 0 0 0
1580 527 1 0.5897 4.251210719189653 8.729481115790893 18.33181843330199 0 0 0
1583 528 1 0.5897 0.7972712079756464 11.318163177301837 19.169247734338946 0 0 0
1587 529 1 0.5897 4.751279546730827 11.089291917963164 17.657174223285818 0 0 0
1584 528 1 0.5897 1.3138325263692445 10.360590210305398 18.116623924640432 0 0 0
1561 521 2 -1.1794 4.719491781497159 7.8565840984138715 21.337989384139235 0 0 0
1572 524 1 0.5897 4.1362861990819875 10.72483429005934 20.87724956678584 0 0 0
1658 553 1 0.5897 0.0005884858788380715 10.257843630644484 21.172628522249855 1 0 0
1563 521 1 0.5897 4.0810735617729295 7.757207433376494 20.631804400586965 0 0 0
1570 524 2 -1.1794 3.1816087333715086 10.7097543586076 20.94385085200215 0 0 0
1564 522 2 -1.1794 2.9326515564724174 7.6587246656968615 19.191878787981487 0 0 0
1574 525 1 0.5897 1.381384777260076 9.551813490129595 22.681978866426395 0 0 0
241 81 2 -1.1794 4.322978530501451 14.238645868493933 4.310581546352852 0 0 0
242 81 1 0.5897 4.20476989771559 13.456317485666846 4.8492786854663565 0 0 0
243 81 1 0.5897 3.6456210028780833 14.171293536557805 3.6376815043545085 0 0 0
244 82 2 -1.1794 2.5998245964403934 14.022031750647574 2.0225714992511223 0 0 0
245 82 1 0.5897 1.6934193890836224 14.263476207707717 2.2129080157956067 0 0 0
246 82 1 0.5897 2.962928712226292 14.786474236083931 1.575394611525936 0 0 0
250 84 2 -1.1794 3.0068599750264715 17.228792254653932 3.7669379247466392 0 0 0
251 84 1 0.5897 2.5285172313250706 17.160556788804726 2.94067129500928 0 0 0
252 84 1 0.5897 3.9075868142184937 16.995353008456057 3.5426984262118557 0 0 0
253 85 2 -1.1794 1.3024424925373186 15.371913412280737 4.776549732136791 0 0 0
255 85 1 0.5897 2.033038892733192 15.94146823674849 4.535799039351276 0 0 0
259 87 2 -1.1794 4.608499483178104 15.700758333217205 0.7521830459260557 0 0 0
262 88 2 -1.1794 1.460948211642485 17.111990508440897 1.5422688707304741 0 0 0
263 88 1 0.5897 1.5139786962681308 16.32444656202361 1.0008199676017349 0 0 0
264 88 1 0.5897 1.5342333795823233 17.83605421472852 0.9205234189009929 0 0 0
269 90 1 0.5897 1.1668906902437133 13.556350683053223 4.639916999768671 0 0 0
254 85 1 0.5897 0.5229708874582949 15.846859678464916 4.488511956084304 0 0 0
260 87 1 0.5897 4.725102410722878 16.64372239257304 0.6363332428277408 0 0 0
265 89 2 -1.1794 4.732983209339536 18.445638343014686 0.779402949661736 0 0 0
389 130 1 0.5897 2.025440517180606 18.38490641109567 4.601312237439229 0 0 0
338 113 1 0.5897 0.10970034375604745 17.09641323588132 2.8320909698337884 1 0 0
288 96 1 0.5897 5.781736558123036 14.51484913879278 1.5513555138692061 0 0 0
268 90 2 -1.1794 1.3827910798900929 12.630008529985844 4.747026556192987 0 0 0
147 49 1 0.5897 5.3245796431282635 12.552284144036573 0.9335068648844372 0 0 0
146 49 1 0.5897 3.815395039800502 12.590525612433016 1.0448276278345212 0 0 0
247 83 2 -1.1794 5.872645784801929 16.854013612109192 3.7034325849108027 0 0 0
287 96 1 0.5897 5.717920750501766 14.004541491038115 2.975212788539595 0 0 0
376 126 2 -1.1794 0.22387137766909743 20.375270772088037 2.2182705935295606 0 0 0
459 153 1 0.5897 0.17803667313980942 23.23103096018754 2.737317534751023 1 0 0
367 123 2 -1.1794 6.079730820577353 23.029036404662392 3.4946141072774104 0 0 0
267 89 1 0.5897 4.044539566346439 18.907668962804046 1.2576394780864868 0 0 0
388 130 2 -1.1794 1.377063070797499 18.833500955891225 5.144004903462159 0 0 0
361 121 2 -1.1794 4.628167794781078 20.173375496159643 4.254842639706141 0 0 0
362 121 1 0.5897 3.856533442009893 20.230334767075917 3.6914090805422615 0 0 0
364 122 2 -1.1794 2.9230599517849156 20.167480443452632 2.0785229556703513 0 0 0
365 122 1 0.5897 3.2026335364011143 20.94623997853266 1.5973087311668783 0 0 0
370 124 2 -1.1794 3.2162790363181317 23.29840109389204 3.3117372125397138 0 0 0
371 124 1 0.5897 4.169015223104519 23.238877778104452 3.242297287418496 0 0 0
372 124 1 0.5897 2.9685478647149566 22.553253690610788 3.859079060323918 0 0 0
373 125 2 -1.1794 1.8171837199620777 21.509375041089328 4.907478536177521 0 0 0
382 128 2 -1.1794 1.3895524202813543 23.351063557330605 1.3415686044382225 0 0 0
383 128 1 0.5897 2.1230277900306764 23.38653926525665 1.9554780311057316 0 0 0
375 125 1 0.5897 1.0720267071878213 21.919611318443096 4.468648658313813 0 0 0
366 122 1 0.5897 1.96685380188663 20.206115125542418 2.0627889007738123 0 0 0
384 128 1 0.5897 1.6038659425450068 22.62717943163235 0.7531273522016059 0 0 0
381 127 1 0.5897 5.167796142619051 21.634130400846423 1.2426419040930634 0 0 0
379 127 2 -1.1794 4.428441391337004 21.9814534127932 0.7437926813581943 0 0 0
380 127 1 0.5897 4.520174004345426 22.9319864913247 0.8091535519759018 0 0 0
390 130 1 0.5897 1.4998200932670567 19.761996701521696 4.946457820763194 0 0 0
363 121 1 0.5897 4.44029177843719 19.444541366780037 4.8462013716667345 0 0 0
385 129 2 -1.1794 4.783290668529351 24.626568901622115 0.7097817691133432 0 0 0
30 10 1 0.5897 1.7620882100150717 24.615759885979493 5.6665619291990525 0 -1 0
29 10 1 0.5897 2.228445353362485 24.481071203040763 4.232617755958807 0 -1 0
408 136 1 0.5897 5.697327262117558 20.26165527298601 2.900224874598157 0 0 0
458 153 1 0.5897 0.06824743086557836 23.89174324669245 4.094982087486936 1 0 0
407 136 1 0.5897 5.952289265801238 19.46321549716123 1.6395415890564309 0 0 0
627 209 1 0.5897 5.065796323214425 12.577963623738388 6.834804472413046 0 0 0
738 246 1 0.5897 -0.0271309460704785 13.660081773733433 8.44100378616722 0 0 0
736 246 2 -1.1794 0.1794898163485697 14.0050040531212 7.572358195740389 0 0 0
740 247 1 0.5897 4.588266640117037 15.312201832039282 5.770201690766904 0 0 0
748 250 2 -1.1794 1.2400198820862256 12.537668505513864 10.515373686830165 0 0 0
737 246 1 0.5897 1.1359614188350278 14.010703651422933 7.53772024885414 0 0 0
732 244 1 0.5897 3.003093032968986 16.251237597834766 9.630966867480426 0 0 0
725 242 1 0.5897 3.2040048075593126 14.742166980602873 7.190621869106403 0 0 0
726 242 1 0.5897 3.2014568094753284 13.23196063251581 7.295905523179624 0 0 0
730 244 2 -1.1794 3.403110190703001 17.03091493059953 9.245905266765485 0 0 0
728 243 1 0.5897 5.1441379747472045 16.94850710717494 9.220773299461852 0 0 0
733 245 2 -1.1794 1.6909217035413013 15.209656149514487 10.57047602530903 0 0 0
724 242 2 -1.1794 2.7703832715410694 14.015284046781545 7.637600068574673 0 0 0
742 248 2 -1.1794 1.680985751478327 17.000602126746962 7.234216562101253 0 0 0
721 241 2 -1.1794 4.462048305012854 13.728362270487846 9.906253926760794 0 0 0
743 248 1 0.5897 1.650220248647041 17.7648914483823 6.658783997255585 0 0 0
722 241 1 0.5897 3.6993490634761117 13.88213978097079 9.3487808809155 0 0 0
731 244 1 0.5897 2.978654644474876 17.122036450697827 8.392838913844189 0 0 0
735 245 1 0.5897 1.0137776907194818 15.717421930293547 10.123497118009851 0 0 0
741 247 1 0.5897 4.483202813305909 16.6527530859925 6.465694644460688 0 0 0
744 248 1 0.5897 1.424572918649961 16.268006742042658 6.674065626309659 0 0 0
739 247 2 -1.1794 4.711553342535906 15.736030434486006 6.6195437217433035 0 0 0
723 241 1 0.5897 5.189400476932954 13.620981871882792 9.29342329568171 0 0 0
749 250 1 0.5897 1.3721062973895608 13.48483887244355 10.475052402604094 0 0 0
869 290 1 0.5897 0.8191740435150835 18.04800906561183 10.528037062860523 0 0 0
870 290 1 0.5897 2.2686837992490605 18.420520619744288 10.75538206390665 0 0 0
818 273 1 0.5897 0.28815534408589166 16.979258129368354 8.460458072827537 1 0 0
768 256 1 0.5897 5.975205823216077 14.284917748503974 7.352118292321967 0 0 0
1221 407 1 0.5897 5.010886640835438 15.011297718770257 11.259939279930483 0 0 0
727 243 2 -1.1794 6.083658104248906 16.766464667187606 9.205318233953909 0 0 0
1106 369 1 0.5897 4.675171746338376 12.411582570180974 11.373415667194173 0 0 0
887 296 1 0.5897 5.789630683526851 20.898149544163175 7.513772197687768 0 0 0
510 170 1 0.5897 2.1034670433998266 24.39017696439054 10.40046523847501 0 -1 0
853 285 2 -1.1794 1.5053018264596723 21.335825996979075 10.730216757236876 0 0 0
868 290 2 -1.1794 1.3760974418474294 18.67629836082635 10.98766549622733 0 0 0
861 287 1 0.5897 4.703658264211961 21.43717871723988 5.805853827425787 0 0 0
852 284 1 0.5897 2.825540480899176 22.454119667138833 9.836684336450398 0 0 0
939 313 1 0.5897 0.2451828831020455 23.809343262480496 9.829758368828415 1 0 0
374 125 1 0.5897 1.889176807492077 21.97279636128153 5.741906081498357 0 0 0
843 281 1 0.5897 4.585606024467881 19.15934384686831 10.608610315657359 0 0 0
841 281 2 -1.1794 4.524617135012755 20.00467437424647 10.163744672161448 0 0 0
860 287 1 0.5897 4.008499093065776 21.455439097226105 7.150550203988529 0 0 0
745 249 2 -1.1794 4.331687753891744 18.62195747295697 6.605399566184849 0 0 0
862 288 2 -1.1794 1.5059822103133012 23.26556014649782 7.074520012678478 0 0 0
864 288 1 0.5897 0.6777608191237295 23.09615368387456 7.523358837079182 0 0 0
865 289 2 -1.1794 4.408899626364539 24.647367981254447 6.212010956680552 0 0 0
847 283 2 -1.1794 5.840054379750879 23.286074635270644 9.34865540854164 0 0 0
863 288 1 0.5897 2.103037350754234 23.542943844693987 7.769319583790837 0 0 0
747 249 1 0.5897 3.659150221731909 19.112204839930854 7.078153400726097 0 0 0
844 282 2 -1.1794 2.7859190164133945 20.25884972161736 7.9596784480783 0 0 0
888 296 1 0.5897 5.653360270582334 20.127506347135444 8.809681798028528 0 0 0
845 282 1 0.5897 3.2653230156710253 20.234961786082735 8.78780356752981 0 0 0
846 282 1 0.5897 1.8711315816811642 20.12648915898665 8.20812986595965 0 0 0
854 285 1 0.5897 1.2596920907461677 20.417081093386493 10.838730130836248 0 0 0
855 285 1 0.5897 0.7710922351904846 21.72616979925413 10.256193084617689 0 0 0
851 284 1 0.5897 4.056276883717207 23.29120421289032 9.560650430292366 0 0 0
746 249 1 0.5897 5.1555955083069085 18.89449178092358 7.009144538340597 0 0 0
850 284 2 -1.1794 3.103662111679972 23.292473233673483 9.467894023361957 0 0 0
842 281 1 0.5897 4.617142581439175 20.65128978709854 10.863416580017926 0 0 0
859 287 2 -1.1794 4.580358407770225 21.976512921154914 6.586968839557688 0 0 0
866 289 1 0.5897 4.409395576236914 23.69583688109779 6.3158988373906775 0 0 0
856 286 2 -1.1794 0.012276375825271732 20.08139372104904 7.795400548483719 0 0 0
848 283 1 0.5897 6.111163544807855 23.253119063910816 8.431257833676288 0 0 0
1201 401 2 -1.1794 4.857566152006462 14.180414994344412 15.786434873506998 0 0 0
1204 402 2 -1.1794 3.182968565432094 13.807083641266118 13.67688686069234 0 0 0
1205 402 1 0.5897 3.6854736300725093 13.943913607751032 14.479971181667048 0 0 0
1206 402 1 0.5897 3.6450626102035235 13.103277990612114 13.221582699269959 0 0 0
1210 404 2 -1.1794 3.277540784277306 17.16102386900024 14.924897484012808 0 0 0
1211 404 1 0.5897 2.9305477564173357 17.96547158616533 15.310443448898928 0 0 0
1212 404 1 0.5897 4.2245620900967475 17.225097861779545 15.047852364626287 0 0 0
1213 405 2 -1.1794 1.7298629076337027 15.410410182416332 16.408733769612034 0 0 0
1214 405 1 0.5897 0.9934608291725495 15.848880369510484 15.982601500086307 0 0 0
1215 405 1 0.5897 2.504469162810544 15.861464296300777 16.073095302385905 0 0 0
1218 406 1 0.5897 1.0020136259494432 13.96294364970798 13.491101314882247 0 0 0
1222 408 2 -1.1794 1.491607961441915 16.7542631277544 12.959346715591757 0 0 0
1223 408 1 0.5897 1.6046827469387783 17.45184011362459 12.313740073567631 0 0 0
1224 408 1 0.5897 2.1930274182732368 16.89893125013075 13.594344271604072 0 0 0