LAMMPS data file via write_data, version 30 Jul 2021, timestep = 11250000

1920 atoms
2 atom types
1280 bonds
1 bond types
640 angles
1 angle types

-0.04745466274151333 24.77745566273658 xlo xhi
-0.11446678084329243 24.84446778084325 ylo yhi
-0.051717577878180876 22.861717577870667 zlo zhi

Masses

1 1.008
2 15.999

Pair Coeffs # lj/cut/tip4p/long/omp

1 0 0
2 0.21084 3.1668

Bond Coeffs # harmonic/omp

1 450 0.9572

Angle Coeffs # harmonic/omp

1 55 104.52

Atoms # full

1 1 2 -1.1794 4.350759070664118 1.0817129839248054 3.9979522337221622 0 0 0
2 1 1 0.5897 4.467709815997994 1.969148098991305 4.337123135888184 0 0 0
3 1 1 0.5897 5.046427610740711 0.9794080668529768 3.348554208977926 0 0 0
4 2 2 -1.1794 2.9359414494142158 1.4256474821409595 1.6333194509359854 0 0 0
13 5 2 -1.1794 1.6498075790335691 3.0964272546249227 4.75127880745545 0 0 0
6 2 1 0.5897 2.0148640637910327 1.2061536898384675 1.7734161066924254 0 0 0
21 7 1 0.5897 5.2555863953468505 2.80383363698546 1.0273714998540064 0 0 0
9 3 1 0.5897 5.213330237470773 4.538902505144767 3.5129265362767135 0 0 0
10 4 2 -1.1794 3.4184197079838823 4.583343576540449 3.4487351499381638 0 0 0
11 4 1 0.5897 3.0296563788579407 5.020910033883314 4.206075127676981 0 0 0
12 4 1 0.5897 2.742617457381944 4.628658991245096 2.772433983198003 0 0 0
99 33 1 0.5897 -0.004855904277624612 3.8722037349880156 3.814276081921092 1 0 0
23 8 1 0.5897 0.6923873287976382 4.730417039324921 1.9465864601429537 0 0 0
19 7 2 -1.1794 4.586142979645175 3.2022833773530586 0.4712717446913638 0 0 0
15 5 1 0.5897 1.7120608547885592 2.142496694314251 4.702114028169255 0 0 0
28 10 2 -1.1794 1.5766628863414125 0.3346224154048835 4.8202864803112435 0 0 0
14 5 1 0.5897 2.39138390885364 3.4122578090220106 4.235071336252724 0 0 0
20 7 1 0.5897 3.756513429100199 2.896495342163039 0.8378459566612582 0 0 0
22 8 2 -1.1794 1.4656741715157422 4.589669667326955 1.4003565860088447 0 0 0
16 6 2 -1.1794 0.15804396516142086 1.4726615894703439 1.851924529886405 0 0 0
387 129 1 0.5897 3.8495006545465635 0.08881793014676034 0.9975781025928312 0 1 0
5 2 1 0.5897 3.357187351819081 1.240135316209644 2.4725165668144453 0 0 0
24 8 1 0.5897 1.44808653843881 5.309382715569619 0.7695568034297658 0 0 0
98 33 1 0.5897 0.26966966208255194 5.34861283014286 4.006260040489529 1 0 0
27 9 1 0.5897 4.739302126578182 4.985466947895264 0.3924341460123934 0 0 0
25 9 2 -1.1794 4.7635470533369215 5.925860710826624 0.5694652492584743 0 0 0
29 10 1 0.5897 2.334950647870483 0.01099965208895931 4.3340494133028935 0 0 0
26 9 1 0.5897 5.6336137684633965 6.078299559926175 0.9381210821307666 0 0 0
47 16 1 0.5897 6.10594155152737 0.7698258748058956 1.6460972014200763 0 0 0
17 6 1 0.5897 0.06995679777064367 1.5172407871933986 2.8039504702107614 0 0 0
500 167 1 0.5897 3.9677092676709016 2.716619188095001 6.576236564252173 0 0 0
481 161 2 -1.1794 4.388307246683529 1.1613252472099198 9.864224094508213 0 0 0
503 168 1 0.5897 2.058252430239581 4.431379813858229 7.619900880164025 0 0 0
488 163 1 0.5897 5.027970680418248 4.481642899774903 8.932130485130681 0 0 0
484 162 2 -1.1794 2.915493580296915 1.6296815603184711 7.573744266572833 0 0 0
485 162 1 0.5897 3.28594845030328 1.6932252954559965 8.45398776909748 0 0 0
486 162 1 0.5897 3.454128075430531 0.9721385384588024 7.1336091171719405 0 0 0
508 170 2 -1.1794 1.604066475207014 -0.016878670578826527 10.577976217585482 0 0 0
1347 449 1 0.5897 4.649243011103795 0.11570402955110126 11.099199113734825 0 1 0
490 164 2 -1.1794 3.013265889210965 4.2875737374480325 9.033933765342772 0 0 0
491 164 1 0.5897 3.064298772691544 5.060051812932786 9.59685946763972 0 0 0
492 164 1 0.5897 2.525618432801969 3.6459684796093654 9.55039737716141 0 0 0
493 165 2 -1.1794 1.4929870612989746 2.5807769986943816 10.663223424090175 0 0 0
483 161 1 0.5897 4.379058474646191 1.869474315162669 10.508142633447282 0 0 0
482 161 1 0.5897 5.144355346665904 1.3517631697638761 9.309003370466268 0 0 0
496 166 2 -1.1794 0.10778028982953206 1.7729736740253186 7.616616850186137 0 0 0
497 166 1 0.5897 1.01746816042611 1.4752449407263888 7.618602383392205 0 0 0
505 169 2 -1.1794 4.632779205820447 5.83170717117294 6.324576620964129 0 0 0
504 168 1 0.5897 1.4470796832931492 3.9662621640938367 6.315386170409534 0 0 0
502 168 2 -1.1794 1.2582883702952656 4.4852941624991995 7.097125162007707 0 0 0
150 50 1 0.5897 1.4168654723394791 6.068652170942252 5.8018548477646155 0 0 0
499 167 2 -1.1794 4.669206309330075 3.0524494276472796 6.018316722571207 0 0 0
501 167 1 0.5897 4.481044476695656 3.987066643240783 5.932545814464244 0 0 0
494 165 1 0.5897 1.5123433798047707 1.6269106531981317 10.585510783991067 0 0 0
578 193 1 0.5897 0.19835494382550678 4.317755699392086 8.522633747084038 1 0 0
629 210 1 0.5897 0.8258801746952223 5.651700538666117 9.975708394063904 0 0 0
527 176 1 0.5897 5.93681746379092 0.8152109551993901 7.530786392515572 0 0 0
579 193 1 0.5897 0.3816150332656594 3.685440117686827 9.885828946766189 1 0 0
487 163 2 -1.1794 5.980519013979555 4.433177289786052 8.851465234427911 0 0 0
867 289 1 0.5897 4.828422281025476 0.02291982872017434 5.7702438155037274 0 1 0
528 176 1 0.5897 5.804798415363145 2.323020995200332 7.563819017682673 0 0 0
30 10 1 0.5897 1.6444844613355971 -0.08519530594914926 5.677771861193416 0 0 0
983 328 1 0.5897 1.9116293402849374 4.639382815546651 13.362498982311758 0 0 0
961 321 2 -1.1794 4.769026221119083 1.0738494068324542 15.539071088001817 0 0 0
962 321 1 0.5897 5.381030337676201 1.3025285121099652 14.839580501471543 0 0 0
963 321 1 0.5897 5.103697623006612 0.24879522377710844 15.890539057108148 0 0 0
964 322 2 -1.1794 2.935489140125684 1.25847790620104 13.646273304458706 0 0 0
965 322 1 0.5897 3.432563996157473 1.1913273905617314 14.461455387493388 0 0 0
966 322 1 0.5897 2.0261199879513714 1.3596022389561222 13.927310013265446 0 0 0
985 329 2 -1.1794 4.442678404527335 5.818835803201235 12.024976528833491 0 0 0
970 324 2 -1.1794 3.2882093621093755 4.4013939642929065 14.42266579771452 0 0 0
971 324 1 0.5897 4.237011832891283 4.526791320716968 14.437341518916762 0 0 0
972 324 1 0.5897 3.151913635747646 3.5517165479796677 14.841851480291927 0 0 0
967 323 2 -1.1794 6.08276083398934 4.283566009630414 14.700526460317773 0 0 0
975 325 1 0.5897 0.751869340791298 2.9598582057481337 15.92910845422073 0 0 0
1460 487 1 0.5897 4.602813636522928 2.5527166262037944 17.07077948425733 0 0 0
1110 370 1 0.5897 2.0885872228935054 5.680862984869452 15.672054947615461 0 0 0
987 329 1 0.5897 4.4599860790733095 4.867470080454297 11.920684700481978 0 0 0
1108 370 2 -1.1794 1.3400098695279825 5.911729244465151 16.22205447943753 0 0 0
982 328 2 -1.1794 1.2451338909697074 4.45727822867703 12.700112191744209 0 0 0
979 327 2 -1.1794 4.430790499343668 2.9795228284599804 11.85236818877331 0 0 0
976 326 2 -1.1794 0.23905590059082593 1.6448843390112216 13.758458999240332 0 0 0
981 327 1 0.5897 5.135557007666456 2.810532257708151 12.477582262432916 0 0 0
984 328 1 0.5897 1.3311908426155854 5.172752495104229 12.070115810431966 0 0 0
980 327 1 0.5897 3.645145312404665 2.635997545710035 12.277709430012065 0 0 0
973 325 2 -1.1794 1.4905002838000383 2.518942430624083 16.348863463159354 0 0 0
990 330 1 0.5897 1.72483582575949 0.6602951916271097 16.545463425871326 0 0 0
1109 370 1 0.5897 0.6066074899684586 5.425248241360179 15.845704887335048 0 0 0
1346 449 1 0.5897 4.103339446166789 0.13633537412237473 12.51098582319089 0 1 0
1008 336 1 0.5897 5.9877099857216365 0.41059492421065924 13.053888372178408 0 0 0
978 326 1 0.5897 -0.03347499942388055 0.8729663598406909 13.262383623516302 0 0 0
986 329 1 0.5897 3.6408172063225765 5.991633663899494 12.518241288695577 0 0 0
495 165 1 0.5897 1.3021726573006487 2.7424596066807663 11.587100136083343 0 0 0
1469 490 1 0.5897 1.3204958583251312 0.8224433120049518 22.03555467242647 0 0 0
1463 488 1 0.5897 0.7341069108847356 4.375914011156225 19.019902779602766 0 0 0
1441 481 2 -1.1794 4.831982443179593 1.51047813716336 21.293132263697146 0 0 0
1442 481 1 0.5897 3.9514070754245765 1.5944320656142563 20.927481537904953 0 0 0
1538 513 1 0.5897 0.04096319278645577 4.100394171822768 21.13446458685194 1 0 0
1444 482 2 -1.1794 2.9687448411233923 1.0196120512532378 19.330229738290917 0 0 0
1465 489 2 -1.1794 4.219459883618121 5.6809500267405655 17.787464545206085 0 0 0
1446 482 1 0.5897 3.3301992646292806 1.7277720443944906 18.79724695446727 0 0 0
1466 489 1 0.5897 4.34876615494646 4.742867108599516 17.647635874423294 0 0 0
1450 484 2 -1.1794 3.067823091094591 5.0995648014699215 20.58342140951997 0 0 0
1451 484 1 0.5897 4.003645655363954 4.972162696833031 20.738885153829827 0 0 0
1452 484 1 0.5897 2.9193227112050955 4.742949722005223 19.707693371987233 0 0 0
1453 485 2 -1.1794 1.4827111034404352 3.0068346304987044 21.947287788126985 0 0 0
1449 483 1 0.5897 6.157154446034576 3.7935084748751184 21.08783178323609 0 0 0
1459 487 2 -1.1794 4.558436652588561 2.9004099641356924 17.961443603151466 0 0 0
1456 486 2 -1.1794 0.046824923318763784 1.1113341202127884 19.482799223065037 0 0 0
386 129 1 0.5897 4.812425961030322 0.1529396795743248 22.744702439226835 0 1 -1
1462 488 2 -1.1794 1.4441532474422822 4.212755528463808 18.399134133308777 0 0 0
1445 482 1 0.5897 2.043404312821823 1.242962933030225 19.43038146219412 0 0 0
1443 481 1 0.5897 4.8010181679658235 2.0082159894291847 22.1101005070366 0 0 0
1461 487 1 0.5897 5.309012960193055 2.5099921733385653 18.40908116315409 0 0 0
1464 488 1 0.5897 1.4519732609594207 4.985932685759627 17.83491234287618 0 0 0
1454 485 1 0.5897 2.2564702800910683 3.4463011200574183 21.59465804205913 0 0 0
1467 489 1 0.5897 4.974083187999312 5.95192848032815 18.31022247440101 0 0 0
1447 483 2 -1.1794 5.799497374422153 4.586453179460026 20.688398727243666 0 0 0
1826 609 1 0.5897 4.1586505279176835 -0.09975453777242649 18.441193380164087 0 1 0
1455 485 1 0.5897 1.3901581093370685 3.3578442486859323 22.83291776022168 0 0 0
974 325 1 0.5897 1.5697074790879955 2.9438301641989266 17.202874510877173 0 0 0
125 42 1 0.5897 3.3926517397236053 7.411170337844297 1.8385608247453125 0 0 0
121 41 2 -1.1794 4.379201699534067 7.511834615212195 4.40768381740995 0 0 0
122 41 1 0.5897 3.683883753097392 7.711525015512181 3.780948985672318 0 0 0
123 41 1 0.5897 5.182575587191952 7.526328949133728 3.8875620230525376 0 0 0
124 42 2 -1.1794 2.9545414185195407 8.217968852182741 2.109433641499114 0 0 0
139 47 2 -1.1794 4.930127742378104 9.600348125594154 0.6976681309333125 0 0 0
126 42 1 0.5897 3.344971419453144 8.898761600732902 1.5614529761479838 0 0 0
148 50 2 -1.1794 1.6026383784058715 6.267783096720923 4.884282756681144 0 0 0
143 48 1 0.5897 0.7730261258127834 11.412931441328583 1.8940019904895584 0 0 0
130 44 2 -1.1794 3.3868005998902224 10.99099184795839 3.232210987077043 0 0 0
135 45 1 0.5897 2.390316718931195 9.72771724709679 4.071361958876661 0 0 0
132 44 1 0.5897 2.9193076400485847 11.072851418117057 2.4010248605132785 0 0 0
219 73 1 0.5897 0.32957855170197153 10.54137875818749 3.7829669553270775 1 0 0
144 48 1 0.5897 1.4207763916659664 11.638337360971827 0.5444809010289567 0 0 0
131 44 1 0.5897 2.9480916267562804 11.60961706354051 3.816193475013256 0 0 0
137 46 1 0.5897 0.8128131901253418 7.7134581445034245 2.495980087367725 0 0 0
621 207 1 0.5897 4.372044208207615 9.217250099976924 5.6347518802242265 0 0 0
149 50 1 0.5897 1.6348687663455006 7.223783273560167 4.8479197415451 0 0 0
142 48 2 -1.1794 1.5236867633420608 11.150272453528292 1.361395120962677 0 0 0
129 43 1 0.5897 5.1251780240814595 10.860228330083446 3.3341936890818267 0 0 0
167 56 1 0.5897 6.033985413638148 8.447855811311245 1.721621034600163 0 0 0
133 45 2 -1.1794 1.8892418822274117 9.100356110465516 4.592461827612276 0 0 0
507 169 1 0.5897 4.753855022591555 6.438630012944407 5.594386910289105 0 0 0
140 47 1 0.5897 4.529286049510636 10.459874613751841 0.5680433921956932 0 0 0
127 43 2 -1.1794 6.078713374649062 10.85603198252639 3.417412261248123 0 0 0
134 45 1 0.5897 1.730509352551392 9.550314513167283 5.422205460243004 0 0 0
217 73 2 -1.1794 0.054812373127084424 11.447988850237131 3.645758249697698 1 0 0
136 46 2 -1.1794 -0.017640884033370486 7.972984077301723 2.0970425213256756 0 0 0
1574 525 1 0.5897 1.2609009778970912 9.819914439173054 0.26024140012258257 0 0 1
620 207 1 0.5897 5.23000479038767 8.97128780335335 6.857464878515623 0 0 0
625 209 2 -1.1794 4.473186741338692 12.312842224292275 6.495022439713871 0 0 0
601 201 2 -1.1794 4.678513946494288 7.672766270540186 9.885788882998229 0 0 0
628 210 2 -1.1794 1.5367104556346096 6.191501589329353 10.321441676154661 0 0 0
603 201 1 0.5897 3.9028731319122727 7.656084444128539 9.3252165306465 0 0 0
604 202 2 -1.1794 2.875359349192325 7.4167523720927395 7.766800847947539 0 0 0
605 202 1 0.5897 3.289256530966934 8.132319151190563 7.284244680284885 0 0 0
606 202 1 0.5897 1.9361184991590523 7.566524345131997 7.659272112043924 0 0 0
619 207 2 -1.1794 4.5279589523013435 9.530870864176876 6.525506630099496 0 0 0
610 204 2 -1.1794 3.0376144398899227 10.487100373938315 9.265579714168556 0 0 0
611 204 1 0.5897 3.942570341903916 10.50450708525411 8.954275736663773 0 0 0
630 210 1 0.5897 1.2155029169812335 7.089865194475053 10.243777874541758 0 0 0
615 205 1 0.5897 2.0223336191201957 9.295738922063085 10.223941899416351 0 0 0
750 250 1 0.5897 0.6272382911572445 12.282749600152929 10.342797510810552 0 0 0
607 203 2 -1.1794 5.86556495499039 10.673780290377946 9.166730714100419 0 0 0
506 169 1 0.5897 3.8980178029425603 6.194766580154404 6.819021873907592 0 0 0
626 209 1 0.5897 4.517542857691255 11.358506278315874 6.435393630158794 0 0 0
616 206 2 -1.1794 0.19874296188122134 7.617166317348314 7.77822171627098 0 0 0
622 208 2 -1.1794 1.522131289243841 10.528377245132322 6.883548641650646 0 0 0
623 208 1 0.5897 2.168775055972191 10.5802490390412 7.587315120616386 0 0 0
612 204 1 0.5897 2.955487587181473 11.2711410331491 9.808488335979668 0 0 0
613 205 2 -1.1794 1.2084007446353098 9.103495760118046 10.689464947166535 0 0 0
602 201 1 0.5897 4.48057837663083 7.052954758849444 10.5878063408163 0 0 0
624 208 1 0.5897 1.4808490718365297 11.416803714622857 6.529651269024094 0 0 0
648 216 1 0.5897 5.889465811724125 7.124617982447777 7.224548362793503 0 0 0
1101 367 1 0.5897 4.498079673951515 9.181591394458092 11.242452928509758 0 0 0
647 216 1 0.5897 5.808220902768282 7.942922164720407 8.495561159186185 0 0 0
698 233 1 0.5897 0.20135744963042157 10.216149144973224 9.704403262593335 1 0 0
699 233 1 0.5897 0.046369145191029304 10.689460739347886 8.274875671464693 1 0 0
1091 364 1 0.5897 2.526405760900999 11.42896855329653 15.744594206796911 0 0 0
1100 367 1 0.5897 5.138841062274981 9.025116658042338 12.604998403155165 0 0 0
1081 361 2 -1.1794 4.641312494478402 7.84639027602839 15.868133055353763 0 0 0
1082 361 1 0.5897 4.866398372714206 8.569445593947256 16.453564170419362 0 0 0
1107 369 1 0.5897 4.416764652686329 11.336175816370655 12.391023880317489 0 0 0
1084 362 2 -1.1794 3.042802674688586 7.690635337388879 13.526628540091792 0 0 0
1085 362 1 0.5897 3.5834512936418936 7.692105908022961 14.316453557036589 0 0 0
1086 362 1 0.5897 3.2033633691111127 8.544230538866909 13.12434244760535 0 0 0
1128 376 1 0.5897 5.686512079839951 7.052280669763007 12.817168957640451 0 0 0
1089 363 1 0.5897 5.214271791795771 10.66450742135459 15.20309637067019 0 0 0
1090 364 2 -1.1794 2.9965564781567045 10.706491963285343 15.32842118097904 0 0 0
1103 368 1 0.5897 1.6135857093238706 11.378978556410681 12.395765643065918 0 0 0
1092 364 1 0.5897 2.6943235593486525 9.92509801682719 15.791350317867037 0 0 0
1096 366 2 -1.1794 0.3580341392046765 7.218519051889521 13.52590613712291 0 0 0
1099 367 2 -1.1794 4.535507310713791 9.58075024768078 12.111588361558294 0 0 0
1083 361 1 0.5897 4.504054448828392 7.09951768124604 16.450841475001035 0 0 0
1127 376 1 0.5897 5.9760225114188845 7.549694098960127 14.217299199455182 0 0 0
1097 366 1 0.5897 1.2440596879106876 7.491015746203225 13.764396988211962 0 0 0
1087 363 2 -1.1794 6.1403466819291435 10.718096277398763 14.967143418478608 0 0 0
1094 365 1 0.5897 1.2568669903522702 7.7631501712537245 16.350463201996803 0 0 0
1102 368 2 -1.1794 1.4895043369934902 10.659693086625577 13.014987269167358 0 0 0
1093 365 2 -1.1794 1.5194204196362853 8.683187245549938 16.380045050596777 0 0 0
1104 368 1 0.5897 2.1344971530171266 10.821765294964907 13.703356646044051 0 0 0
1095 365 1 0.5897 0.7972712922237543 9.152414782114093 15.962302573997006 0 0 0
1179 393 1 0.5897 0.34775887777182124 10.587065708534888 14.51204830132116 1 0 0
1178 393 1 0.5897 0.050938104577358326 11.322426574691113 15.801559400695892 1 0 0
1105 369 2 -1.1794 4.512163368210396 12.28668340180289 12.45201584775707 0 0 0
614 205 1 0.5897 1.3352564958519018 9.480201143298912 11.560167651714778 0 0 0
1579 527 2 -1.1794 4.888043646473687 9.4225089319283 18.204646982979952 0 0 0
1581 527 1 0.5897 5.586339236967797 8.891935952229884 18.58813811610065 0 0 0
1710 570 1 0.5897 2.067894920223215 12.242680210023643 21.846468686183933 0 0 0
1561 521 2 -1.1794 4.519666905175304 7.909845265867281 21.48174755486683 0 0 0
1562 521 1 0.5897 4.451107657203519 7.128826002847654 22.030863033614374 0 0 0
1563 521 1 0.5897 3.7783013440185216 7.845731150100309 20.879746708722408 0 0 0
1564 522 2 -1.1794 2.8445555457635128 7.938744372890424 19.150268913933218 0 0 0
1565 522 1 0.5897 1.8897170769387697 7.908515105841239 19.209728384736565 0 0 0
1566 522 1 0.5897 3.087256680172139 7.099910201092946 18.758226595872827 0 0 0
1580 527 1 0.5897 4.083589003315905 8.947922307747692 18.413952820124685 0 0 0
1570 524 2 -1.1794 3.192901309801366 10.917585973027792 21.112246819985906 0 0 0
1571 524 1 0.5897 2.764617391102375 10.717211661138384 20.280051591020232 0 0 0
1572 524 1 0.5897 4.112269436457894 10.69292495835842 20.969213763105067 0 0 0
1584 528 1 0.5897 1.7708241838699985 10.017703956416824 18.092475133772908 0 0 0
1573 525 2 -1.1794 1.2044343748354607 9.265422817558589 22.395535052502517 0 0 0
1589 530 1 0.5897 1.152922807558346 7.261785724372699 22.55254783596893 0 0 0
1587 529 1 0.5897 4.611849612389425 11.318692211084084 18.47985443376293 0 0 0
1585 529 2 -1.1794 4.620103420210016 12.26724463100683 18.35158575473708 0 0 0
1709 570 1 0.5897 0.5801716118731434 12.14900264766669 21.582594980404743 0 0 0
1582 528 2 -1.1794 1.5482321335965814 10.742225647748278 18.67704292496027 0 0 0
1583 528 1 0.5897 0.7047552682933327 10.494563443600615 19.05568808915268 0 0 0
1575 525 1 0.5897 1.9332763307216665 9.550430213002567 21.84443248688123 0 0 0
1567 523 2 -1.1794 5.864136277237598 10.841163809762568 20.809014740143326 0 0 0
1588 530 2 -1.1794 1.176454374785431 6.314572540952825 22.416502600692183 0 0 0
141 47 1 0.5897 4.8206942516496065 9.15530075127906 22.770805692738186 0 0 -1
1576 526 2 -1.1794 0.23959317060217394 7.56870234395115 19.517445457500955 0 0 0
1608 536 1 0.5897 5.939824925821538 7.554639744406448 20.224445020705197 0 0 0
1590 530 1 0.5897 1.9455158011300397 6.170338515409284 21.86524197910682 0 0 0
261 87 1 0.5897 4.267676549380054 15.335837513098562 0.2533781917765406 0 0 0
255 85 1 0.5897 1.9945189662319502 15.855154907095079 4.763984100194131 0 0 0
241 81 2 -1.1794 4.681691982301125 14.040401175063014 4.30800161095335 0 0 0
268 90 2 -1.1794 1.7975749778079868 12.767373708915892 5.227492685703757 0 0 0
243 81 1 0.5897 3.843037031082432 14.267331078564945 3.906348711935759 0 0 0
244 82 2 -1.1794 2.6128397877586726 13.956615682132888 2.278322809029767 0 0 0
245 82 1 0.5897 1.6666534010114096 13.984306159528838 2.1364386651690035 0 0 0
246 82 1 0.5897 2.9510083253823476 14.706149953177404 1.788368583437502 0 0 0
260 87 1 0.5897 4.450924034351581 16.660002589662753 0.9639446935506613 0 0 0
250 84 2 -1.1794 3.264398053824712 16.84710480965296 3.9111854223661897 0 0 0
251 84 1 0.5897 2.8289872459657945 16.882978658771606 3.0595766093873933 0 0 0
252 84 1 0.5897 4.157318901714684 17.144590749723754 3.736920824250584 0 0 0
242 81 1 0.5897 4.474219112984137 13.32463861140676 4.908705475749423 0 0 0
253 85 2 -1.1794 1.1685079393884013 15.543240357474883 5.13355133359203 0 0 0
338 113 1 0.5897 0.24740343515479424 17.226158202306358 3.0210386646901872 1 0 0
264 88 1 0.5897 1.4590933299010036 18.000474241427014 1.2759225541216852 0 0 0
259 87 2 -1.1794 4.424429974386366 15.715608217046539 1.1178569921808308 0 0 0
269 90 1 0.5897 1.6557109294484569 13.712932563007417 5.182007835609161 0 0 0
262 88 2 -1.1794 1.45189075993426 17.194441646726624 1.7921459833986721 0 0 0
263 88 1 0.5897 1.4870444496767536 16.492722940304354 1.1421120133549092 0 0 0
147 49 1 0.5897 5.323137434572928 12.575692638077923 1.1551892990574992 0 0 0
254 85 1 0.5897 0.4961887481037396 16.05668611945051 4.685734306806256 0 0 0
146 49 1 0.5897 3.8305539993367734 12.722256031524346 1.3611970911446793 0 0 0
740 247 1 0.5897 5.138688298148928 15.664949658139024 5.532000198962091 0 0 0
288 96 1 0.5897 5.988416994474844 14.544124925228283 1.6955035083334922 0 0 0
256 86 2 -1.1794 -0.009913774489447455 14.427550009404243 2.1960798234486685 0 0 0
247 83 2 -1.1794 6.059074831406534 17.037433107522446 3.7236439005867283 0 0 0
265 89 2 -1.1794 4.591003198279971 18.387769304068627 0.8550805538150155 0 0 0
339 113 1 0.5897 0.08594022107960017 18.02612320295755 4.296058219484826 1 0 0
287 96 1 0.5897 5.927871994495494 13.717116504978183 2.9620258280934486 0 0 0
270 90 1 0.5897 1.2024636497375243 12.403588639134353 4.572011685151808 0 0 0
145 49 2 -1.1794 4.480303353252504 12.396178988012853 0.7385843901746059 0 0 0
726 242 1 0.5897 3.563699210449084 15.246318743401247 7.621283974757577 0 0 0
721 241 2 -1.1794 4.398936585155192 13.33395641266051 10.022014141152344 0 0 0
722 241 1 0.5897 3.7213364341445074 13.507641437551342 9.368695849068374 0 0 0
749 250 1 0.5897 1.504192413844053 13.473847519456529 10.665480755443317 0 0 0
724 242 2 -1.1794 3.0068450846746426 14.51897777752644 7.898980097461993 0 0 0
725 242 1 0.5897 3.0873584058325796 13.873375022553232 7.196912801666463 0 0 0
748 250 2 -1.1794 1.5174085683237317 12.518709471368306 10.60373409842052 0 0 0
735 245 1 0.5897 0.5382745222632913 15.596987806044504 10.86323906615599 0 0 0
728 243 1 0.5897 5.0118028801147165 16.966251431102407 9.3910445393877 0 0 0
730 244 2 -1.1794 3.1005665540093084 16.918690666734165 9.519401534890026 0 0 0
733 245 2 -1.1794 1.4112290643978531 15.209038884556472 10.923730318331936 0 0 0
732 244 1 0.5897 2.6389571021426783 16.225465322735815 9.991167030754491 0 0 0
744 248 1 0.5897 1.0877514398546946 16.705215296580626 6.507716253052884 0 0 0
869 290 1 0.5897 2.367794104360728 18.35432683447692 10.430349399899345 0 0 0
723 241 1 0.5897 5.222266580701876 13.409136230890537 9.539696784771413 0 0 0
737 246 1 0.5897 1.2942426642649405 14.71557615867028 8.020950627466505 0 0 0
727 243 2 -1.1794 5.963173770987423 16.88920817762925 9.319393901184483 0 0 0
739 247 2 -1.1794 5.093976488370095 15.973959862034176 6.436784447162197 0 0 0
742 248 2 -1.1794 1.116919675689265 17.284335707097483 7.2692475758651875 0 0 0
870 290 1 0.5897 0.8594400414917789 18.29747320702745 10.31474289454267 0 0 0
731 244 1 0.5897 2.669042910723288 16.956504714401163 8.665899049440085 0 0 0
741 247 1 0.5897 4.818885117798277 16.887977275524342 6.36493929206549 0 0 0
743 248 1 0.5897 1.1279375056687975 18.16708248133319 6.899252735782369 0 0 0
736 246 2 -1.1794 0.3599098330376523 14.50800116951111 8.010633462007133 0 0 0
745 249 2 -1.1794 4.461388211233358 18.578213791146652 6.27549458445575 0 0 0
1221 407 1 0.5897 4.596970625078064 14.816777813935333 11.219079943995164 0 0 0
738 246 1 0.5897 0.1476793948593593 14.311314484782061 8.922981778526395 0 0 0
627 209 1 0.5897 5.213065542614056 12.553099975230946 7.052718110246556 0 0 0
768 256 1 0.5897 5.8090301279950065 14.435248448333738 7.414511214837067 0 0 0
818 273 1 0.5897 0.024941726925789 17.16026486299387 8.788333661314946 1 0 0
1220 407 1 0.5897 3.7833777102905763 15.13196735471564 12.456149251895127 0 0 0
1201 401 2 -1.1794 4.331529544762296 14.025627559942196 16.053288098373955 0 0 0
1106 369 1 0.5897 4.6132358259675765 12.576404979747368 11.545389355067528 0 0 0
1203 401 1 0.5897 4.56167373869007 13.370100056923027 16.71169603248123 0 0 0
1204 402 2 -1.1794 2.6138681817874785 13.99925554359709 13.883226850156701 0 0 0
1205 402 1 0.5897 3.1985178996067214 13.949309526411756 14.63940748832956 0 0 0
1206 402 1 0.5897 2.9537344510800723 13.34434441735112 13.273490303295759 0 0 0
1228 410 2 -1.1794 1.104439749038351 12.674348979047085 16.54320435064524 0 0 0
1210 404 2 -1.1794 3.448005171021236 16.98348599884507 14.767620834016398 0 0 0
1227 409 1 0.5897 4.478663331712042 17.33444127307898 12.027546781554374 0 0 0
1212 404 1 0.5897 4.3869076313089925 16.82895820773647 14.871321544322639 0 0 0
1211 404 1 0.5897 3.2392274475475444 17.644477737547817 15.427684275617462 0 0 0
1215 405 1 0.5897 0.7053425148247778 15.88203625262179 15.83535097092521 0 0 0
1219 407 2 -1.1794 4.509098560097634 15.458178159785986 11.924102276238282 0 0 0
1350 450 1 0.5897 1.2886780813146816 18.26493408217882 15.778966535969321 0 0 0
1218 406 1 0.5897 0.7410175465412595 14.143736912293969 13.898096867360339 0 0 0
1214 405 1 0.5897 2.1929982447594094 15.62479887576213 15.946937676099157 0 0 0
1202 401 1 0.5897 5.04067320488682 13.980842917833371 15.412005977370951 0 0 0
1222 408 2 -1.1794 1.495131851730045 17.112978012684827 12.853742153276073 0 0 0
1223 408 1 0.5897 1.6367694749291766 17.88116260652891 12.30053177689746 0 0 0
1224 408 1 0.5897 2.209599548657755 17.140529555061782 13.490072607674847 0 0 0
1213 405 2 -1.1794 1.358847843457605 15.44294791210855 16.379691678470657 0 0 0
1229 410 1 0.5897 1.0713231398245746 13.610517667161192 16.3463117768953 0 0 0
734 245 1 0.5897 1.8175401977354102 15.64784801964138 11.671062524049109 0 0 0
1248 416 1 0.5897 5.753008756669204 13.0130992535942 13.540132238174493 0 0 0
1298 433 1 0.5897 0.08059182807743986 17.02719008535678 14.049203745057616 1 0 0
1247 416 1 0.5897 6.041680667913288 14.496322846378428 13.44674899016714 0 0 0
1225 409 2 -1.1794 4.299624127150551 18.272084417071213 12.098565689952574 0 0 0
1348 450 2 -1.1794 1.981860062443857 18.53735058179278 16.38016208119626 0 0 0
1779 593 1 0.5897 0.011789010570179462 17.618985453580464 21.263078710632435 1 0 0
1695 565 1 0.5897 1.069383047043639 14.421319528183396 22.62638195510722 0 0 0
1681 561 2 -1.1794 4.604658828627499 14.303889141941161 21.692338955470923 0 0 0
1699 567 2 -1.1794 4.293563426334384 15.682545991736811 18.232187279026803 0 0 0
1586 529 1 0.5897 5.373283019731178 12.57136331585309 18.857937911516466 0 0 0
1684 562 2 -1.1794 2.7129555355101465 13.903060116235805 19.581469085440425 0 0 0
1685 562 1 0.5897 3.1680795120661767 13.188314120821966 19.136262068492428 0 0 0
1686 562 1 0.5897 3.088126738186635 13.914851905391355 20.461929691576785 0 0 0
1694 565 1 0.5897 0.5552400377622141 15.759687787261978 22.140224332571968 0 0 0
1689 563 1 0.5897 4.867038263732289 16.943760463809653 20.975740220290554 0 0 0
1690 564 2 -1.1794 2.9965840930305747 17.036047711046656 20.95574408605429 0 0 0
1691 564 1 0.5897 2.699214170355552 16.226254156759225 21.370517138204427 0 0 0
1692 564 1 0.5897 2.6117818669247286 17.012253616245786 20.079688648393905 0 0 0
1704 568 1 0.5897 1.5198592345510082 17.76176097511742 18.046457945104052 0 0 0
1701 567 1 0.5897 3.68611784932883 15.23580178389202 18.82175626505103 0 0 0
1697 566 1 0.5897 0.9620963860034324 13.821873086919126 19.59349156122449 0 0 0
1682 561 1 0.5897 5.220600944235881 14.246323999379642 20.961959001859 0 0 0
1693 565 2 -1.1794 1.2968705295252754 15.350229687611472 22.58575757428597 0 0 0
1703 568 1 0.5897 1.4531760683501764 16.25105903555724 18.119496195135156 0 0 0
1687 563 2 -1.1794 5.813197447511416 17.04852566516894 21.075606605587303 0 0 0
1702 568 2 -1.1794 1.6500927040355586 17.026373860638472 18.645162368483106 0 0 0
1683 561 1 0.5897 4.71611397924445 13.479455850590442 22.16576357453752 0 0 0
1707 569 1 0.5897 4.53696964858211 17.418596993345126 17.772133081394202 0 0 0
1700 567 1 0.5897 4.2087835991841365 15.215194255848475 17.401207355490563 0 0 0
1830 610 1 0.5897 1.9656057691385591 18.218878336167137 22.026146533749866 0 0 0
1778 593 1 0.5897 0.28308108881770644 16.841803871953935 19.992611915066384 1 0 0
1728 576 1 0.5897 5.788912800851916 14.771773216899097 18.99123720656395 0 0 0
1705 569 2 -1.1794 5.020082415995016 18.236599568376242 17.889272799256986 0 0 0
1708 570 2 -1.1794 1.238562580056383 12.687196114949131 22.021972237351513 0 0 0
1696 566 2 -1.1794 0.013905637405002835 13.876077025782676 19.474496979093672 0 0 0
1230 410 1 0.5897 1.3462715906958296 12.63211395202302 17.468317406039155 0 0 0
458 153 1 0.5897 0.0358736207401955 24.211226257441353 4.237044631935585 1 0 0
267 89 1 0.5897 3.8497588307495962 18.839054187527182 1.258929906792721 0 0 0
361 121 2 -1.1794 4.448289053293031 20.32486928117298 4.240868988051723 0 0 0
362 121 1 0.5897 3.702432055347569 20.13383640224002 3.6722321560551694 0 0 0
384 128 1 0.5897 1.4324091204472662 22.752651144011963 0.6282537754852918 0 0 0
364 122 2 -1.1794 2.8370914154465647 20.082665458860973 2.085390414906706 0 0 0
365 122 1 0.5897 3.1189290512114467 20.901347383205774 1.6772608330133578 0 0 0
366 122 1 0.5897 1.8855060559591428 20.07826266469013 1.9822330828936328 0 0 0
375 125 1 0.5897 0.6704088298617996 22.259789028043798 4.432975439231936 0 0 0
370 124 2 -1.1794 3.2483405979977014 23.042722731734052 3.309281547727873 0 0 0
371 124 1 0.5897 4.200316067762381 23.04379677951809 3.4088322253955656 0 0 0
372 124 1 0.5897 2.9222990302934804 22.660227021432604 4.123854984651943 0 0 0
373 125 2 -1.1794 1.2514536321710439 21.726693149790847 4.975535394585496 0 0 0
408 136 1 0.5897 5.590421803286309 20.166809065926344 2.964361227149681 0 0 0
380 127 1 0.5897 4.472391675133041 22.778789494502462 0.5260633281903548 0 0 0
363 121 1 0.5897 4.36783672408458 19.698947932618324 4.960540375998641 0 0 0
381 127 1 0.5897 5.158134528289569 21.56713883344988 1.1206507279011386 0 0 0