LAMMPS data file via write_data, version 30 Jul 2021, timestep = 29250000

864 atoms
2 atom types
576 bonds
1 bond types
288 angles
1 angle types

0.6874167467045513 17.520155653276163 xlo xhi
1.9012173972975894 21.727960402684538 ylo yhi
0.8386468253586123 21.374548974630436 zlo zhi

Masses

1 1.00794
2 15.9994

Pair Coeffs # lj/cut/tip4p/long/omp

1 0 0
2 0.21084 3.1668

Bond Coeffs # harmonic/omp

1 450 0.9572

Angle Coeffs # harmonic/omp

1 55 104.52

Atoms # full

50 1 1 0.5897 2.940501819601237 5.844800876180262 3.4012139613495282 9 -4 -1
379 1 2 -1.1794 3.7277511473724085 3.5650302530894393 1.6105578505586622 10 3 1
51 1 1 0.5897 4.447344783456609 5.878563388426548 3.259937873380605 9 -4 -1
381 1 1 0.5897 3.1511233522846163 4.159562028161929 1.1307910270512982 10 3 1
658 1 2 -1.1794 1.9145897099701852 4.249964799024195 3.7955042578592715 -1 -1 2
49 1 2 -1.1794 3.693397336573141 6.4327434647236235 3.461457101887847 9 -4 -1
659 1 1 0.5897 2.4620941500552807 3.587647115878022 3.3739138883345383 -1 -1 2
660 1 1 0.5897 1.3637821574185862 3.755281665499568 4.402182008130453 -1 -1 2
380 1 1 0.5897 3.628481574483368 2.7233905279037627 1.1656621753154217 10 3 1
104 1 1 0.5897 4.481203512626408 6.359676230321408 5.095654597342365 9 2 8
525 1 1 0.5897 2.921986251402285 5.092367067772484 6.519764436178734 1 -3 -2
596 1 1 0.5897 3.963816421686641 3.594696614696981 9.464639516437263 0 -4 1
334 1 2 -1.1794 2.112372406654793 5.361524773882525 9.127934032491824 9 -3 3
22 1 2 -1.1794 1.5949313201997688 6.523097192201862 6.141617313034649 -3 -2 2
595 1 2 -1.1794 3.4960058849902618 2.8009822741349915 9.724130733068494 -1 -4 1
523 1 2 -1.1794 3.2553099570116175 4.320949648631612 6.978001703158921 1 -3 -2
336 1 1 0.5897 2.7929357786457345 6.025769587760596 9.019435849254586 9 -3 3
524 1 1 0.5897 4.178349729385273 4.274180289097707 6.729058633613685 1 -3 -2
24 1 1 0.5897 0.7588051105279464 6.077430102068083 6.277328580922946 -3 -2 2
335 1 1 0.5897 2.4812891044200214 4.57281769617583 8.730458339866885 9 -3 3
801 1 1 0.5897 2.1170959341977036 5.9357146877150475 10.881024289243278 1 -1 -1
597 1 1 0.5897 3.068644716041734 3.033017804580745 10.548563539857312 -1 -4 1
737 1 1 0.5897 1.625099957953665 3.398126530482036 6.569440252323441 4 -3 0
736 1 2 -1.1794 0.7741466628934169 3.0771581810197066 6.27108488577561 4 -3 0
216 1 1 0.5897 1.211735265989597 3.6893604199566505 13.0882499021488 0 1 4
76 1 2 -1.1794 2.885398182408737 3.366016884497488 12.177277501079415 -9 -8 1
77 1 1 0.5897 3.130815876863606 4.100848454323902 12.739363100809886 -9 -8 1
78 1 1 0.5897 3.1638378109158816 2.589333813747157 12.662436782571808 -9 -8 1
432 1 1 0.5897 2.767985175903962 5.897503428416855 13.247676855152415 -10 3 0
430 1 2 -1.1794 3.375462214424633 5.356997707854361 13.752628159952772 -10 3 0
47 1 1 0.5897 0.9483146295533904 3.573753961814364 15.548610465784419 3 -1 0
431 1 1 0.5897 4.242708950943536 5.615387093041711 13.440751179602787 -10 3 0
332 1 1 0.5897 3.232557867530214 5.476369261913082 15.764146600111582 1 3 3
82 1 2 -1.1794 4.828679227993241 3.1124809158855116 15.617767933211985 -8 -2 2
690 1 1 0.5897 3.9100507952625843 2.0721736306200675 14.620279970032932 6 -3 5
799 1 2 -1.1794 2.097487142103836 6.503515649421184 11.651390740764466 1 -1 -1
84 1 1 0.5897 4.508073638261696 3.974848075373542 15.881735724712524 -8 -2 2
194 1 1 0.5897 1.8322692377791097 2.820305032744814 19.13557480289444 10 -4 -1
725 1 1 0.5897 3.0496164420005827 5.820667218409225 20.34096244909344 4 -5 2
776 1 1 0.5897 1.5202614169804631 5.418066646102082 19.03891589600661 4 -1 0
745 1 2 -1.1794 3.721800283812399 3.246009286624761 18.694543702657292 2 3 -5
333 1 1 0.5897 4.035007360618328 6.10791788706193 16.88169089100139 1 3 3
726 1 1 0.5897 1.952052049203932 6.1995321147267095 21.312304785667056 4 -5 2
331 1 2 -1.1794 3.5291379870777586 5.325727837103477 16.661640645028758 1 3 3
747 1 1 0.5897 3.7954507449136132 3.7641804770763754 17.893152041806257 2 3 -5
777 1 1 0.5897 2.1089623026423543 5.385629109134813 17.64461829050757 4 -1 0
724 1 2 -1.1794 2.2122472856576314 5.518243796326098 20.692393589420497 4 -5 2
193 1 2 -1.1794 0.9557857481552509 2.4442244217948415 19.21616400455641 10 -4 -1
746 1 1 0.5897 4.462733300551118 3.52740224891231 19.231193449178534 2 3 -5
775 1 2 -1.1794 1.2758116311076275 5.361851957149645 18.115199916323924 4 -1 0
826 1 2 -1.1794 4.691912572613028 6.465721362029629 19.75433337504583 4 4 -1
48 1 1 0.5897 1.2460033188663537 3.9295160294383176 16.989617577162488 3 -1 0
828 1 1 0.5897 4.886017330510741 6.817335278412352 18.885509692404565 4 4 -1
46 1 2 -1.1794 1.4886089208874969 3.3165612271378206 16.2956597258761 3 -1 0
61 1 2 -1.1794 1.1905059263406252 11.285339422508354 3.479922209476924 0 1 4
435 1 1 0.5897 3.8153351952669183 9.216695528356762 4.29233580344977 -7 3 -6
598 1 2 -1.1794 4.801886006400703 9.663398671492423 5.9358222583765015 -1 -6 -4
433 1 2 -1.1794 3.327369195469767 9.157112107584076 3.4710476583881467 -7 3 -6
351 1 1 0.5897 2.433862009835761 11.586946564643377 5.042883782790265 -14 -2 -5
779 1 1 0.5897 3.172615966296274 10.401587497059102 2.059576364073341 -3 4 -5
434 1 1 0.5897 3.245419662450914 8.21747169247513 3.3082110343500886 -7 3 -6
778 1 2 -1.1794 3.1554034231654606 10.706451912802317 1.1524277613046232 -3 4 -5
62 1 1 0.5897 1.7233813291436877 10.497931080836738 3.5902614731313114 0 1 4
100 1 2 -1.1794 1.3465933354591477 7.930509040712208 1.5041563163880902 9 -6 -4
101 1 1 0.5897 1.020579418921723 7.98152439160474 2.402630880612222 9 -6 -4
780 1 1 0.5897 2.2653912965913428 10.520228969892154 0.8535217326842957 -3 4 -5
102 1 1 0.5897 0.9995060258399197 8.714171912946451 1.078072253148602 9 -6 -4
349 1 2 -1.1794 2.6998622261871428 11.563393937006943 5.9620345396271865 -14 -2 -5
346 1 2 -1.1794 0.8285503222603359 8.952573400769948 7.263791871080144 -1 6 0
347 1 1 0.5897 1.5856847137879027 9.26192246403156 7.761032964741425 -1 6 0
127 1 2 -1.1794 4.284145274815842 7.062812774639994 8.254283551455766 3 0 -7
23 1 1 0.5897 1.4946677591702366 7.363002777456579 6.589557910633991 -3 -2 2
578 1 1 0.5897 4.233490025296454 11.350718913429812 8.351319904122043 4 3 -6
171 1 1 0.5897 3.599753574469404 8.835842449883897 8.488275756328878 -5 3 1
478 1 2 -1.1794 1.4927496019697883 8.979659465917031 10.65063485564304 1 1 0
170 1 1 0.5897 2.5963784320547454 9.639112584804977 9.288116495534604 -5 3 1
169 1 2 -1.1794 3.110817759990268 9.658666547720227 8.481174661400264 -5 3 1
129 1 1 0.5897 4.52024305850799 7.063815224130369 7.326690769522729 3 0 -7
350 1 1 0.5897 3.345199049972876 10.857948802584334 6.007097877050869 -14 -2 -5
716 1 1 0.5897 1.7299355321540417 9.605050095568357 13.596018438129908 7 -9 -6
304 1 2 -1.1794 3.8747959805689005 11.602186284424594 15.666506598357364 5 1 -6
800 1 1 0.5897 2.3575139931291798 7.363794123270888 11.322037429483354 1 -1 -1
664 1 2 -1.1794 2.446485772497928 8.438057168889657 14.746815613085378 0 1 -3
406 1 2 -1.1794 4.4675750258587215 8.923176422944927 11.261242670101488 -4 -1 3
407 1 1 0.5897 4.491639174789787 8.75208583463427 12.202686328560223 -4 -1 3
4 1 2 -1.1794 3.558808218589878 11.683934847983194 11.43623169773065 -3 -5 -3
408 1 1 0.5897 4.139091277041004 9.819251927137067 11.188502559133928 -4 -1 3
715 1 2 -1.1794 1.2670544619136992 10.25200184126165 13.06369461744176 7 -9 -6
665 1 1 0.5897 1.6244946066341537 7.952312299966055 14.81409058805837 0 1 -3
717 1 1 0.5897 1.8423592332462713 11.016992867612588 13.061735282105483 7 -9 -6
290 1 1 0.5897 4.261055478526105 8.510707170937557 14.290901676624308 -7 -4 -5
666 1 1 0.5897 2.396320993957892 9.092322617985198 15.443641581543854 0 1 -3
306 1 1 0.5897 4.698341024375906 11.445543822404261 15.204573608730668 5 1 -6
479 1 1 0.5897 1.3602981308795976 9.499246657504294 11.44350070005765 1 1 0
305 1 1 0.5897 4.041568849447611 11.30633750492625 16.56138886819909 5 1 -6
822 1 1 0.5897 4.2962846686747405 8.684829352117282 17.818243944885403 4 7 10
632 1 1 0.5897 3.403308842428412 8.012409865998372 19.967308353905768 -2 0 2
585 1 1 0.5897 0.7832609699607747 9.282518324628274 16.928938564067398 -5 -10 3
702 1 1 0.5897 1.2196427184725565 8.493548943123924 18.757526603050334 7 0 -2
583 1 2 -1.1794 1.189508720735494 10.095084588206033 16.62751680305027 -5 -10 3
633 1 1 0.5897 3.309237308519246 9.519757704284359 20.071335537647045 -2 0 2
631 1 2 -1.1794 2.9864405405224104 8.774378597379432 19.56501793075256 -2 0 2
820 1 2 -1.1794 4.720520083972551 8.066357911164417 17.223535528377358 4 7 10
161 1 1 0.5897 3.6259393748112805 13.55856706261446 4.167736807050362 -3 8 2
160 1 2 -1.1794 3.3565877810533418 13.10174523687598 3.370921431767598 -3 8 2
397 1 2 -1.1794 4.584095294242911 14.54000014558305 5.42900294807655 1 4 -6
204 1 1 0.5897 2.5712508523336233 14.767285191254874 2.350095722812208 -5 1 -2
503 1 1 0.5897 1.4320390592578711 16.397059688668595 2.9935472478460627 -11 -3 7
63 1 1 0.5897 1.7966635544473135 11.938225645807755 3.1299855667931307 0 1 4
162 1 1 0.5897 4.171062747119677 12.960241212434324 2.8884413140921406 -3 8 2
202 1 2 -1.1794 2.519125797075513 15.50530378123433 1.7428430142958102 -5 1 -2
203 1 1 0.5897 3.3899946435807937 15.5536841611037 1.348637346928513 -5 1 -2
576 1 1 0.5897 3.1694752475735553 15.86470888238113 5.3704901756228045 -1 -1 2
574 1 2 -1.1794 2.8262765932350864 16.746708402396628 5.513490327910705 -1 -1 2
788 1 1 0.5897 3.5623768452967286 14.798956391943197 7.977482297832522 -3 -1 4
217 1 2 -1.1794 1.8354637747036622 13.948168212275316 7.397205774579815 3 -4 -2
804 1 1 0.5897 1.3549069146325954 15.532791054783482 7.759127855400657 7 -1 -7
219 1 1 0.5897 2.1180080818556197 13.211028745382707 6.855940862014584 3 -4 -2
123 1 1 0.5897 0.9668884702365677 13.567896017860173 10.392783820842027 0 1 5
6 1 1 0.5897 2.8780672219971546 12.10713530601726 10.913126366633307 -3 -5 -3
121 1 2 -1.1794 1.4547118179669218 12.862039064241467 9.96858909522194 0 1 5
789 1 1 0.5897 4.7441744817837606 15.744405018204366 8.011858161367922 -3 -1 4
218 1 1 0.5897 1.4840542615590588 13.54295813268416 8.189962266309546 3 -4 -2
579 1 1 0.5897 3.4343214651673324 12.626993179507872 8.506757098748055 4 3 -6
477 1 1 0.5897 3.6173746113149323 15.796350232572467 10.312917409274757 2 -3 -1
577 1 2 -1.1794 4.329605598973764 12.300852843837177 8.41588582073851 4 3 -6
802 1 2 -1.1794 0.9298142688585771 16.36829752426253 7.952441884426331 7 -1 -7
787 1 2 -1.1794 4.127202101129961 15.28300803653478 8.579842043384616 -3 -1 4
5 1 1 0.5897 4.3805487022622 12.014210206439952 11.073167311110534 -3 -5 -3
122 1 1 0.5897 0.8228965324366371 12.147382648391416 9.889711071347977 0 1 5
796 1 2 -1.1794 1.7551121723297787 15.7062113101568 14.612517786136308 2 -3 -2
153 1 1 0.5897 2.1262886690807834 13.921541641583374 13.980302779187875 3 -3 1
151 1 2 -1.1794 2.139921355635465 12.976139322856962 13.831313231395447 3 -3 1
235 1 2 -1.1794 0.7907728602654924 15.235761262867468 11.193089778494098 -3 -3 -5
475 1 2 -1.1794 3.690399151225748 15.98714216105649 11.248031852425571 2 -3 -1
152 1 1 0.5897 2.763259467305417 12.640641675186664 14.475554876788921 3 -3 0
175 1 2 -1.1794 4.241817201341121 14.950770459132837 15.841458872014435 6 0 1
177 1 1 0.5897 3.3861755513028178 15.09382789424665 15.436987663502313 6 0 1
338 1 1 0.5897 4.48419099475876 14.53450582031383 12.520761936704742 0 3 0
798 1 1 0.5897 0.8518754934953867 16.021329020143284 14.644350178997774 2 -3 -2
337 1 2 -1.1794 4.88742835843847 13.894115263146375 13.10680323913002 0 3 0
236 1 1 0.5897 1.7160851040118645 15.358902778964486 11.404704892142744 -3 -3 -5
176 1 1 0.5897 4.777810550272271 14.575659833061122 15.14277496244084 6 0 1
339 1 1 0.5897 4.272957484749889 13.160356963521274 13.119737151536379 0 3 0
797 1 1 0.5897 2.2827194629064405 16.49917516387429 14.517746057841912 2 -3 -2
454 1 2 -1.1794 1.4459917626454313 15.734578030553761 17.62943933312793 -6 6 -2
494 1 1 0.5897 4.5562498937385225 12.229618575519924 18.424759105383888 -2 -3 3
119 1 1 0.5897 1.7122687140842932 12.506557928478788 17.877327918160024 5 0 -2
324 1 1 0.5897 4.62141263801108 15.47909614000689 20.1111725944841 8 -5 -2
268 1 2 -1.1794 2.957680469995411 13.046387711791388 20.161671487464364 6 -3 2
270 1 1 0.5897 3.3382666856202663 12.426527089520665 20.783850595850694 6 -3 2
116 1 1 0.5897 4.129251491593408 13.91551546062871 19.060392152460057 -4 -2 5
455 1 1 0.5897 1.4619314179353764 14.8022781315573 17.413304342030486 -6 6 -2
90 1 1 0.5897 1.3519145756487778 15.493086952774808 20.916776181685766 8 -2 2
117 1 1 0.5897 4.567374464830544 14.414396189332344 17.699912752351718 -4 -2 5
269 1 1 0.5897 2.234852723338288 13.452870046596866 20.639644998237273 6 -3 2
120 1 1 0.5897 2.5401592596439997 12.41712375049921 16.61307448573657 5 0 -2
118 1 2 -1.1794 1.8974367490315291 12.968264035229803 17.059596633351113 5 0 -2
456 1 1 0.5897 1.1345427482195027 15.76593014811885 18.53397445435577 -6 6 -2
88 1 2 -1.1794 0.8118383742610311 15.868505943541354 20.221402627616396 8 -2 2
616 1 2 -1.1794 3.4765599233552753 20.423975303144378 4.757976946906652 -4 5 0
257 1 1 0.5897 1.2966752741814027 20.288924064685407 2.268614631869019 -4 5 0
438 1 1 0.5897 4.584549961603389 18.965156290293613 4.747154848196223 -1 8 2
575 1 1 0.5897 3.55667783020548 17.32637042518483 5.2974692416604885 -1 -1 2
721 1 2 -1.1794 4.609038948694886 18.554011092376605 1.7610001239497146 8 -6 1
618 1 1 0.5897 2.7982538043463836 20.71049604120221 4.146450895227401 -4 5 0
617 1 1 0.5897 3.308573355624714 20.926282094298635 5.555255370896239 -4 5 0
722 1 1 0.5897 4.244045500033799 19.38318785073652 1.452120246427613 8 -6 1
256 1 2 -1.1794 1.38659107196854 21.016077328203323 2.884493173001801 -4 5 0
723 1 1 0.5897 4.4782497829184145 17.94781287332265 1.0319095158510836 8 -6 1
502 1 2 -1.1794 0.8664223968064383 16.90416814135437 3.5758454633111474 -11 -3 7
504 1 1 0.5897 1.3744798161967111 16.998585086484436 4.381547711506318 -11 -3 7
719 1 1 0.5897 0.7844966067317461 18.18174126879367 2.2082076034696314 4 3 0
258 1 1 0.5897 0.6992584726552735 21.631951243413006 2.630648513192277 -4 5 0
260 1 1 0.5897 1.6619892109274286 17.86701265049719 10.549532940944975 3 1 14
806 1 1 0.5897 3.1249648862305266 17.51036395051706 7.728131041887285 2 -1 -3
728 1 1 0.5897 3.4052190937982307 20.017930157418533 7.856745877612902 -1 2 3
805 1 2 -1.1794 3.656594779113108 18.28459863664753 7.91274982847539 2 -1 -3
803 1 1 0.5897 0.9724636199163653 16.855309408375216 7.129544047750867 7 -1 -7
727 1 2 -1.1794 3.1789749247232 20.872827570120524 7.49048536173564 -1 2 3
846 1 1 0.5897 1.5268117226386977 20.352775336414332 7.51185735660544 3 -2 2
259 1 2 -1.1794 0.7530786793971558 17.797620163306707 10.25760323237652 3 1 14
807 1 1 0.5897 4.203895803810081 18.02843157833397 8.655068424936303 2 -1 -3
261 1 1 0.5897 0.8154551094733073 17.61254924517418 9.320577004839862 3 1 14
729 1 1 0.5897 3.1611218632830935 21.460411287167744 8.245848079518787 -1 2 3
669 1 1 0.5897 3.296586900530772 18.3711150118241 13.343269357583708 -3 1 1
569 1 1 0.5897 4.100674811044604 19.45049904063355 11.360782876504953 3 -6 2
568 1 2 -1.1794 3.3422558116267473 18.917591704593743 11.599435739915618 3 -6 2
570 1 1 0.5897 2.6681423416887537 19.553356039981725 11.839268130432016 3 -6 2
732 1 1 0.5897 1.571214488490471 21.702008626685114 12.108922943297507 3 -3 -3
688 1 2 -1.1794 3.4025373184236907 21.202863721519265 14.203043987862982 6 -4 5
689 1 1 0.5897 2.69080663102207 21.0235487187807 14.81739848306964 6 -4 5
667 1 2 -1.1794 3.5081083588639355 17.96667293105106 14.184604644870344 -3 1 1
401 1 1 0.5897 0.9804028262274262 19.270890778522915 14.736806168469391 -2 0 -2
668 1 1 0.5897 4.377971532981401 17.588232048283494 14.05699591138518 -3 1 0
476 1 1 0.5897 3.7513159326898537 16.941260635753395 11.294241975250639 2 -3 -1
730 1 2 -1.1794 1.2720967541905894 20.804084008381423 11.96607476337297 3 -3 -3
402 1 1 0.5897 0.7788219411812562 19.578435823834575 13.268305972144866 -2 0 -2
12 1 1 0.5897 4.637750567812429 19.442513924190884 15.126128940867735 -3 -2 0
685 1 2 -1.1794 3.4927467874350735 20.68520728970911 21.055838887621217 4 -8 -8
648 1 1 0.5897 4.179707311410073 17.418222025973954 17.978567811873283 -3 -4 -2
555 1 1 0.5897 2.0732187201657943 18.94166929716613 19.03837798990705 -6 -5 6
184 1 2 -1.1794 4.397939206249648 20.686260703384537 17.665410324993918 -2 8 4
646 1 2 -1.1794 3.314235668376335 17.472442319732213 18.38376300105149 -3 -4 -2
195 1 1 0.5897 1.1082084068703657 21.353272118368274 19.441470270704652 10 -5 -1
553 1 2 -1.1794 1.4783913358009608 19.56037556020581 19.462129859131107 -6 -5 6
554 1 1 0.5897 1.3669165929962521 19.217248923335816 20.348685897902712 -6 -5 6
392 1 1 0.5897 2.6764305967851234 20.11916378833515 16.694458838757832 5 6 1
185 1 1 0.5897 3.9755302320330856 21.456436021859165 18.045602324345957 -2 8 4
686 1 1 0.5897 2.846860382999578 20.268746368409776 20.485280566540215 4 -8 -8
391 1 2 -1.1794 1.877572266515425 20.52556359790638 16.358577242628222 5 6 1
393 1 1 0.5897 2.018413452432263 21.464957664282874 16.476338115403117 5 6 1
687 1 1 0.5897 4.3192858875488005 20.607602824549087 20.579413592755827 4 -8 -8
647 1 1 0.5897 2.7898229754111177 16.821356653899194 17.917659562008794 -3 -4 -2
519 1 1 0.5897 7.823592486471181 2.3232627905303973 1.9296502116979397 0 -1 -6
487 1 2 -1.1794 5.833715013766931 2.006164177970839 4.4465627558448695 0 -11 0
353 1 1 0.5897 6.276694313624175 4.906780222895546 2.351250377022538 7 3 -3
352 1 2 -1.1794 5.717946796347361 4.575735813379346 3.054395092214107 7 3 -3
229 1 2 -1.1794 8.277146721688904 4.166283922189873 3.9129975378783697 0 7 5
230 1 1 0.5897 7.359962188049426 4.402982357647327 3.7754925085441027 0 7 5
489 1 1 0.5897 6.144725992225903 2.1816014057005284 3.5585030994112863 0 -11 0
231 1 1 0.5897 8.255584054701444 3.5249050085642715 4.623156670862576 0 7 5
653 1 1 0.5897 8.634316415652039 5.451159246064891 5.319502970758261 -4 3 1
354 1 1 0.5897 5.030025041917602 4.085957424267932 2.603811560713565 7 3 -3
103 1 2 -1.1794 5.201309790106304 6.529320859643539 5.702960701412109 9 2 8
294 1 1 0.5897 6.6883574541597115 6.850131911836913 1.3370217924249153 -4 0 2
517 1 2 -1.1794 6.921123594665639 2.004470573763319 1.937875773871812 0 -1 -6
429 1 1 0.5897 5.983752967117449 3.3144410279935945 5.634360532065515 -1 -4 -1
292 1 2 -1.1794 7.013000478375318 6.024814502561966 0.97701683576115 -4 0 2
293 1 1 0.5897 7.966057316777539 6.105484383329651 1.013483328675264 -4 0 2
743 1 1 0.5897 7.398551499705588 2.9880464261196025 6.525291346979198 -4 1 5
742 1 2 -1.1794 8.215742638648662 2.5664869133034767 6.259497668183641 -4 1 5
522 1 1 0.5897 5.626850552369991 5.355323675700022 11.056135755469498 -2 3 -3
344 1 1 0.5897 8.523603494300406 5.58894099029755 8.115763915538611 6 0 1
428 1 1 0.5897 6.138218704655899 4.770940916348681 6.017041575867282 -1 -4 -1
427 1 2 -1.1794 5.939089575149916 3.909202071151546 6.383004926605766 -1 -4 -1
543 1 1 0.5897 5.905548328914164 4.012990138402553 9.137890172017954 5 1 7
538 1 2 -1.1794 6.686278799270214 2.300816812216591 8.905725291496596 0 -2 1
343 1 2 -1.1794 8.698178696060747 5.645398808564281 9.05519832700751 6 0 1
541 1 2 -1.1794 5.344988629908977 4.759450299554052 9.349364798104709 5 1 7
542 1 1 0.5897 5.136315587908125 5.150760671095242 8.501130323338959 5 1 7
233 1 1 0.5897 8.67953517803233 4.905702505312259 10.619893791516379 -4 4 -1
652 1 2 -1.1794 8.771204713867396 5.943641260842663 6.128785020647675 -4 3 1
735 1 1 0.5897 7.249537005917011 2.0714996515555897 14.040231498274407 -1 1 -7
466 1 2 -1.1794 6.1478586610206944 3.2003071548748014 13.073382398117342 7 -7 3
468 1 1 0.5897 5.692886342247109 3.389410733414314 13.893982206741233 7 -7 3
520 1 2 -1.1794 5.692765637699381 5.679921442375662 11.954159667047424 -2 3 -3
35 1 1 0.5897 6.602205668555272 6.432112115086009 15.640823095637005 -7 2 -2
521 1 1 0.5897 6.117803013089227 6.533416113279968 11.870242058367296 -2 3 -3
467 1 1 0.5897 6.132476847471406 4.0286514967376075 12.594054554509825 7 -7 3
36 1 1 0.5897 7.306830606309774 5.687071511935015 14.52719777448526 -7 2 -2
832 1 2 -1.1794 8.983437601257931 4.621314904550182 14.383900690596024 6 -3 1
34 1 2 -1.1794 6.616618426381548 6.330132809630689 14.68921345675271 -7 2 -2
234 1 1 0.5897 8.457334758594802 3.65897161989043 11.449330443831023 -4 4 -1
232 1 2 -1.1794 8.99001742488491 4.452906052790858 11.40393456046811 -4 4 -1
83 1 1 0.5897 5.648082736581731 3.003053293624068 16.100288556796936 -8 -2 2
511 1 2 -1.1794 7.127718134079736 6.205709376829435 17.39022276065364 3 3 -8
827 1 1 0.5897 5.46274134185575 6.682578387686954 20.278680387448695 4 4 -1
485 1 1 0.5897 6.455611479934223 4.402932580275839 20.372422529549745 1 1 -2
549 1 1 0.5897 6.993207164492539 3.112005984609115 18.167100618680568 4 3 3
484 1 2 -1.1794 6.16881876384111 3.5668851635925645 20.00508103899818 1 1 -2
513 1 1 0.5897 6.869682109609262 5.289596697781548 17.28869313224276 3 3 -8
512 1 1 0.5897 8.08465200840011 6.186089575723208 17.39769208982215 3 3 -8
548 1 1 0.5897 8.065213132465136 3.182676390684875 17.10052909610415 4 3 3
547 1 2 -1.1794 7.170274650627748 3.461721130188537 17.293879612132873 4 3 3
486 1 1 0.5897 6.232317250028193 2.950006907789679 20.734182771693245 1 1 -2
318 1 1 0.5897 8.104023411997705 7.518058092728834 3.654604408013784 -5 -1 0
636 1 1 0.5897 7.637379471920757 10.857199212656937 4.5711242561175665 -10 1 0
174 1 1 0.5897 8.989549013494392 11.485101232274332 3.090076186502041 0 0 -2
316 1 2 -1.1794 7.1872217365207485 7.408308796203031 3.906756399773386 -5 -1 0
317 1 1 0.5897 6.694682438229201 7.868343766469236 3.2271041781233714 -5 -1 -1
163 1 2 -1.1794 5.761710929520171 8.380538435602837 1.485117757339241 2 1 1
28 1 2 -1.1794 5.859800871691811 11.329690936726832 4.264412485819843 -9 -3 1
105 1 1 0.5897 5.8745805427641775 6.947230165867366 5.166104654110617 9 2 8
839 1 1 0.5897 8.899822567926295 9.21958889666291 5.3780665187605505 -8 -5 -5
600 1 1 0.5897 5.082055049957826 10.192903421866083 5.189306937732022 -1 -6 -4
165 1 1 0.5897 5.0187235079875405 8.594215489989462 2.04944073140706 2 1 1
490 1 2 -1.1794 8.776750602055902 8.914825544512702 0.9848933467538163 4 7 5
164 1 1 0.5897 5.953376012101624 9.195834073501878 1.021747100219867 2 1 1
634 1 2 -1.1794 8.594435688802552 10.84574669694896 4.562220450800487 -10 1 0
635 1 1 0.5897 8.848131346103651 11.435976512260575 5.271786620428886 -10 1 0
29 1 1 0.5897 5.788991432453362 11.765654842963567 3.415233613510327 -9 -3 1
840 1 1 0.5897 8.570993891252687 7.787381992583039 5.741869888628763 -8 -5 -5
492 1 1 0.5897 9.023682951232484 9.815463492609833 1.1948184680365017 4 7 5
599 1 1 0.5897 5.562059724204926 9.647043994753474 6.517219478898906 -1 -6 -4
838 1 2 -1.1794 8.89090868047478 8.608754441372074 6.114921065727487 -8 -5 -5
639 1 1 0.5897 8.678172230552374 11.004774658675275 9.932963860852896 -13 -4 6
756 1 1 0.5897 7.532078247671219 9.487059262794709 6.985646574620793 -6 3 -5
754 1 2 -1.1794 6.912025074304284 9.886965193999234 7.595389365875264 -6 3 -5
128 1 1 0.5897 5.114899275670811 7.185811790221229 8.713484256597972 3 0 -7
92 1 1 0.5897 7.0754031621601055 11.514006679667549 10.862441802813974 -2 -6 5
757 1 2 -1.1794 6.796444622266301 7.609270527809393 9.297045489137687 5 -2 4
759 1 1 0.5897 6.823782886320407 8.197417438133343 8.542399797884485 5 -2 4
755 1 1 0.5897 6.837329195296676 10.794619556218596 7.3008678175805155 -6 3 -5
638 1 1 0.5897 7.656057292983684 10.23490897085736 9.124095727712826 -13 -4 6
637 1 2 -1.1794 8.025429500538031 10.308340212250144 10.004054190819986 -13 -4 6
758 1 1 0.5897 7.4265912351473835 6.920067669669278 9.08711564044171 5 -2 4
532 1 2 -1.1794 6.163992826622256 11.245476092221326 14.205675434449967 -3 0 -1
291 1 1 0.5897 5.5451761799239945 7.71154364324535 14.226974099156468 -7 -4 -5
472 1 2 -1.1794 7.397755782449456 8.337092434869485 12.265425050335562 0 2 1
329 1 1 0.5897 8.908781587782173 7.3551640510678915 12.883833735893031 3 2 2
534 1 1 0.5897 5.846490846972049 10.348569028022679 14.101105838014727 -3 0 -1
289 1 2 -1.1794 5.149404624125882 8.532764969974085 13.935219297340655 -7 -4 -5
473 1 1 0.5897 6.732959617134137 8.345566416028362 12.953992561291422 0 2 1
533 1 1 0.5897 6.376104714478764 11.530132732257329 13.316781854978302 -3 0 -1
713 1 1 0.5897 8.01866074787972 11.091972966188393 14.454595430338358 -11 -3 0
474 1 1 0.5897 6.969384747031367 8.745554341296783 11.513218628028875 0 2 1
712 1 2 -1.1794 8.959754568526625 11.019591460570254 14.295651852731156 -11 -3 0
201 1 1 0.5897 7.693894795091956 9.091515674547317 16.117120303520934 0 -2 0
242 1 1 0.5897 7.386148788119347 8.854127768992463 18.500292660293333 1 0 5
7 1 2 -1.1794 6.068442835487123 10.87527247707353 20.564034262143853 1 -2 -1
243 1 1 0.5897 7.348508769148454 7.366805391739657 18.77989611429033 1 0 5
491 1 1 0.5897 8.279109450617721 8.98607827066225 20.706283168739265 4 7 4
241 1 2 -1.1794 7.5840303931256505 8.205727609703331 19.17600345617865 1 0 5
199 1 2 -1.1794 6.891628719823228 9.501335054773456 16.44051598899035 0 -2 0
9 1 1 0.5897 7.016180399927119 10.920852965059396 20.438076259404344 1 -2 -1
821 1 1 0.5897 5.58190925442787 8.448095338346931 17.054733935481597 4 7 10
709 1 2 -1.1794 8.66978886752473 11.491624750930725 19.625984168145905 -6 4 0
8 1 1 0.5897 5.701201561509341 11.199094243754153 19.74158272617614 1 -2 -1
495 1 1 0.5897 5.7686891160428715 11.641394198932755 17.735064153802526 -2 -3 3
493 1 2 -1.1794 4.915486202285363 11.404584885585647 18.098541267749685 -2 -3 3
200 1 1 0.5897 7.077956834002139 10.440025559321972 16.423466071302975 0 -2 0
221 1 1 0.5897 6.445662114225546 15.890209996487261 3.3143733104374733 7 -2 6
27 1 1 0.5897 7.8839519753942335 15.848331130429923 5.281585614888693 -1 9 6
415 1 2 -1.1794 7.957063788230961 13.928313280581143 1.7982840159399096 -6 3 1
30 1 1 0.5897 5.921826236890566 12.045246533071738 4.897102550514983 -9 -3 1
561 1 1 0.5897 6.379273799849954 13.167416208327172 2.04374706719514 5 2 3
222 1 1 0.5897 5.522091489044924 15.85306340445222 2.115477065049311 7 -2 6
220 1 2 -1.1794 5.5262752832803015 15.784197094724174 3.070155788761076 7 -2 6
417 1 1 0.5897 8.300037711827656 14.79980077243387 1.9958733824903119 -6 3 1
25 1 2 -1.1794 8.067739354925607 15.741400362795558 4.348345136529346 -1 9 6
559 1 2 -1.1794 5.529200475325735 12.74108878805291 1.9352655276856958 5 2 3
560 1 1 0.5897 5.704070920130077 12.001785453682134 1.3530309750812468 5 2 3
43 1 2 -1.1794 9.034041247529839 16.474397541984725 1.4574788971983499 7 11 0
26 1 1 0.5897 8.782687232036665 15.105840961380684 4.3158412951671234 -1 9 6
173 1 1 0.5897 8.89670876226946 12.437248248650453 1.9167962985388534 0 0 -2
416 1 1 0.5897 7.716088294169883 13.969392605059971 0.8728690070536299 -6 3 1
398 1 1 0.5897 4.912482704836947 15.084130464196855 4.713296874273123 1 4 -6
529 1 2 -1.1794 8.444156035723687 14.390742289766187 6.988235392443809 -2 -1 -6
198 1 1 0.5897 5.647338692819765 12.502365692154989 7.364293605459103 -3 -7 1
196 1 2 -1.1794 6.372558985368001 12.360051767987581 6.756058665297808 -3 -7 1
619 1 2 -1.1794 6.502007872275751 14.134094393204432 9.566070630122718 4 -3 3
620 1 1 0.5897 5.656020694544737 14.463424970869907 9.262718888202258 4 -3 3
621 1 1 0.5897 7.072933673317704 14.197906093305514 8.800455648294427 4 -3 3
399 1 1 0.5897 5.330669449925404 14.44522454119592 6.0204312972584875 1 4 -6
395 1 1 0.5897 6.6263417229372195 15.464934539369128 10.668005914081967 2 3 3
197 1 1 0.5897 7.020655969220997 13.022192065930104 6.9962405174879425 -3 -7 1
93 1 1 0.5897 6.6738545678729775 12.97176955133346 10.936222334091678 -2 -6 5
625 1 2 -1.1794 6.055465322280165 16.46119698437016 6.978104773614109 1 -2 3
374 1 1 0.5897 8.672256413275825 15.819644514993135 10.281876113039932 -2 6 -3
530 1 1 0.5897 8.793175087723343 14.928780778640133 7.698796635940047 -2 -1 -6
627 1 1 0.5897 6.954363451628083 16.550625249970473 7.294567147703769 1 -2 3
396 1 1 0.5897 6.500726553171701 16.311016302288607 11.917038140482974 2 3 2
651 1 1 0.5897 7.8139086643856075 14.169081316295534 14.023100523124295 0 -4 3
91 1 2 -1.1794 6.807480225293558 12.195035840060198 11.47935679156542 -2 -6 5
649 1 2 -1.1794 7.047440626613077 14.231667592439974 14.592991096116043 0 -4 3
650 1 1 0.5897 6.300530484180283 14.194356078977975 13.995588821951172 0 -4 3
394 1 2 -1.1794 7.017821321661751 16.213866289718535 11.11745313552948 2 3 3
500 1 1 0.5897 8.765113622767828 13.187419202860813 12.024739806827034 0 4 -4
680 1 1 0.5897 7.109740613703714 12.933908795266666 16.138644752095523 -15 -4 0
362 1 1 0.5897 6.672946019789892 16.563766828114133 14.252759606601984 5 -1 -4
671 1 1 0.5897 6.839673792362177 15.887095436081896 17.378367560403138 18 5 4
670 1 2 -1.1794 7.718970991383428 15.508950813157039 17.37100943503485 18 5 4
710 1 1 0.5897 8.44748857468631 12.40271998111343 19.434559312852805 -6 4 0
423 1 1 0.5897 6.64345327024077 13.81873042977885 19.248817940479974 -8 3 6
422 1 1 0.5897 7.95341083252241 14.521581295805964 18.96298128792604 -8 3 6
323 1 1 0.5897 5.615166486032261 16.57544989374508 20.430765421922736 8 -5 -2
672 1 1 0.5897 7.9077174776498635 15.358439613220892 16.44479686301559 18 5 4
681 1 1 0.5897 8.025561787536041 12.818636621785458 17.338503144937736 -15 -4 0
421 1 2 -1.1794 7.538697449361605 13.912769905036761 19.574145955760102 -8 3 6
679 1 2 -1.1794 7.285545358809498 12.391279235614812 16.90729357467565 -15 -4 0
322 1 2 -1.1794 4.917283123548286 16.049181387541974 20.820825799041003 8 -5 -2
255 1 1 0.5897 5.001624423285767 16.550996795746407 16.399155891430222 4 4 -4
115 1 2 -1.1794 4.901767513426204 14.195978729924585 18.56975889732857 -4 -2 5
74 1 1 0.5897 8.306956649703608 18.900081820064127 5.688785728412329 1 5 6
518 1 1 0.5897 6.9972225238090955 20.90073004134333 2.1489680210933875 0 -2 -6
75 1 1 0.5897 7.307779262387261 19.436061052601573 4.685763434402611 1 5 6
567 1 1 0.5897 6.350853731977577 19.069341972820567 2.045579619870583 -5 1 -10
566 1 1 0.5897 7.847450776678121 19.259083773078686 1.9194956225088295 -5 1 -10