LAMMPS data file via write_data, version 30 Jul 2021, timestep = 37750000

1920 atoms
2 atom types
1280 bonds
1 bond types
640 angles
1 angle types

0.01245837311737752 24.717542626869196 xlo xhi
0.03377123222887235 24.696229767753273 ylo yhi
0.041625320010188815 22.768374679994977 zlo zhi

Masses

1 1.008
2 15.999

Pair Coeffs # lj/cut/tip4p/long/omp

1 0 0
2 0.21084 3.1668

Bond Coeffs # harmonic/omp

1 450 0.9572

Angle Coeffs # harmonic/omp

1 55 104.52

Atoms # full

1 1 2 -1.1794 4.5885596038906185 1.4640965775927754 4.311866391215471 0 0 0
2 1 1 0.5897 4.499874842318851 2.203984251808856 4.912630673822929 0 0 0
3 1 1 0.5897 5.315135287704084 1.7067768146470785 3.7379216068698304 0 0 0
4 2 2 -1.1794 3.013240102116155 1.6939231357437545 2.043403002369454 0 0 0
5 2 1 0.5897 3.348047423013592 1.7187631437882498 2.939760787285772 0 0 0
6 2 1 0.5897 2.065110074077653 1.6087313963869063 2.143616124229389 0 0 0
10 4 2 -1.1794 3.08846397664526 4.630363360759726 3.6053710044347937 0 0 0
11 4 1 0.5897 2.604435115787624 5.369412366706501 3.9738342295622524 0 0 0
12 4 1 0.5897 2.719028323090452 4.514010640539261 2.7300697445571114 0 0 0
13 5 2 -1.1794 1.377610491520917 2.9073405864014594 4.969123129299283 0 0 0
14 5 1 0.5897 2.1053181936333067 3.2912150700130423 4.479930332800539 0 0 0
15 5 1 0.5897 1.4678349892784712 1.9641863265418993 4.832838015665147 0 0 0
22 8 2 -1.1794 1.5803007172252577 4.524262916935335 1.321855802538208 0 0 0
24 8 1 0.5897 1.5293223662187823 5.24706689551238 0.6964224186021964 0 0 0
23 8 1 0.5897 0.8217289002793595 4.646860438724143 1.8926100172909122 0 0 0
20 7 1 0.5897 3.9707374928038677 2.8333587744346898 1.078632563422562 0 0 0
9 3 1 0.5897 4.881995482361463 4.742172400566961 3.5756405216026463 0 0 0
19 7 2 -1.1794 4.685375928845739 3.320871773587454 0.668928448110725 0 0 0
21 7 1 0.5897 5.476367175688298 2.9907033904960554 1.0950220903398735 0 0 0
27 9 1 0.5897 4.654164843710035 5.1012067333985325 0.5966787765060025 0 0 0
7 3 2 -1.1794 5.833380642676213 4.6877870086134 3.485310141887128 0 0 0
16 6 2 -1.1794 0.1811762253720596 1.546484930298884 2.017785844285606 0 0 0
28 10 2 -1.1794 1.6550657287517676 0.16710587833317203 4.8094807665068515 0 0 0
387 129 1 0.5897 4.214866130446417 0.2829784066909194 1.4908714404595764 0 1 0
98 33 1 0.5897 0.11842007842188279 5.354684486318799 3.7816710854852937 1 0 0
99 33 1 0.5897 0.12224309969222842 3.8444637878164984 3.887340464356229 1 0 0
47 16 1 0.5897 6.095509744906109 0.915089821945711 1.7390380518237434 0 0 0
867 289 1 0.5897 4.779112735997149 0.08594601587555042 5.633131306411386 0 1 0
25 9 2 -1.1794 4.554107713951641 6.0531129499248095 0.585893087403905 0 0 0
8 3 1 0.5897 6.163641649051612 5.449265942636156 3.9620785652943566 0 0 0
150 50 1 0.5897 1.3888200835123534 6.12233681764292 5.569026156460571 0 0 0
386 129 1 0.5897 4.834068515578912 0.15325017249303585 0.11554897420349164 0 1 0
26 9 1 0.5897 5.245450408406775 6.373672241437874 1.1651210291767298 0 0 0
136 46 2 -1.1794 0.16575478248437167 7.751899427305939 2.1171135569805597 0 0 0
127 43 2 -1.1794 5.936199293350446 10.65207510152806 3.447583255837636 0 0 0
121 41 2 -1.1794 4.427285134728491 7.715823855271505 4.1832001123731715 0 0 0
122 41 1 0.5897 3.7175736950892926 7.654126218096533 3.5438930327751272 0 0 0
123 41 1 0.5897 5.221969262264596 7.783122046173457 3.653888720553824 0 0 0
124 42 2 -1.1794 2.841037969163773 7.710829575785094 1.990142291054928 0 0 0
125 42 1 0.5897 3.195113213068832 6.950415685517732 1.5290216820300302 0 0 0
126 42 1 0.5897 3.2236074725386366 8.46402788810666 1.5400664372581123 0 0 0
129 43 1 0.5897 4.995114501452621 10.721427216654673 3.6082145325546033 0 0 0
130 44 2 -1.1794 3.1661520244596457 10.904311231935202 3.5509769531906183 0 0 0
132 44 1 0.5897 2.786518570170194 10.151387161909842 4.003983699346957 0 0 0
133 45 2 -1.1794 1.5804694596935789 9.073875187165658 4.8063172229238065 0 0 0
135 45 1 0.5897 0.9090232077639837 9.613798859764175 4.389330937618089 0 0 0
137 46 1 0.5897 1.1179479145731 7.668546141579074 2.0657706906710143 0 0 0
139 47 2 -1.1794 4.812389553034901 9.432914602167777 0.7227230102244497 0 0 0
142 48 2 -1.1794 1.4278620700716629 10.718342282200638 1.3561031510054822 0 0 0
143 48 1 0.5897 2.158891697675454 10.883525659170441 1.9515241079472712 0 0 0
144 48 1 0.5897 1.4537961664386079 11.447292009434834 0.736287348246868 0 0 0
149 50 1 0.5897 1.3742519562003181 7.355995487966201 4.691674090146044 0 0 0
131 44 1 0.5897 2.8306173338035516 11.664500773965882 4.026115951092993 0 0 0
140 47 1 0.5897 4.844869238851788 10.381510121718032 0.5987636007289681 0 0 0
148 50 2 -1.1794 1.2552640516868887 6.406586269572595 4.664850742347463 0 0 0
168 56 1 0.5897 5.919916799991361 8.383959451848305 1.8099072971268833 0 0 0
218 73 1 0.5897 0.23996731065908758 10.889390160920367 2.7427504500835256 1 0 0
507 169 1 0.5897 4.492399929884309 6.501874862429991 5.566658121207184 0 0 0
270 90 1 0.5897 0.9741780176872403 12.284805321804429 4.497150952904379 0 0 0
1574 525 1 0.5897 1.5621260121620673 9.57602166901577 0.09310428590576525 0 0 1
621 207 1 0.5897 4.362082999437991 8.93402511883282 5.458697710789804 0 0 0
145 49 2 -1.1794 4.854188444831377 12.204495324467837 0.677194308688641 0 0 0
134 45 1 0.5897 1.6013043646747054 9.375713525992078 5.714408982413938 0 0 0
578 193 1 0.5897 0.1968981430588326 3.7719374024588785 9.359505086268452 1 0 0
496 166 2 -1.1794 0.05789315338428349 1.6900727165142917 7.819444928378119 0 0 0
487 163 2 -1.1794 6.0853271840737495 4.824395116033361 9.36092258799311 0 0 0
579 193 1 0.5897 0.16464192941845135 5.273336512397009 9.55108911798033 1 0 0
528 176 1 0.5897 6.0430745330962194 2.3382812432285975 7.284500199244561 0 0 0
494 165 1 0.5897 1.6409205356325742 2.005665091622128 10.346259353847065 0 0 0
504 168 1 0.5897 1.3687660590469883 4.030218441512963 6.487189603433234 0 0 0
501 167 1 0.5897 4.566067612102366 4.24298818432088 6.3600382216197735 0 0 0
499 167 2 -1.1794 4.739033416750072 3.3016041937418747 6.3716571619024 0 0 0
483 161 1 0.5897 4.5292538717527036 2.3260632784269424 10.48148968997718 0 0 0
492 164 1 0.5897 2.9160896255974698 4.004733607498226 9.634040795752616 0 0 0
493 165 2 -1.1794 1.5917149062507532 2.9615503381586765 10.33548791348137 0 0 0
491 164 1 0.5897 2.9089410754921907 4.729444871595062 8.304939913802396 0 0 0
485 162 1 0.5897 3.3904706572625263 1.6016872694951785 8.503092814357958 0 0 0
481 161 2 -1.1794 4.4679491897182135 1.5469099425721327 9.928874511408548 0 0 0
482 161 1 0.5897 5.254700308781444 1.5763364101454342 9.3844679230907 0 0 0
502 168 2 -1.1794 1.531935391298021 4.828939995658416 6.988833468753721 0 0 0
500 167 1 0.5897 3.9908966977064644 2.925845663898385 6.8356912671719545 0 0 0
490 164 2 -1.1794 3.358397673350202 4.701786414744666 9.149572625273596 0 0 0
503 168 1 0.5897 0.8410903809891355 4.841610747193216 7.651237483925144 0 0 0
498 166 1 0.5897 1.0132343079707262 1.6479533752697346 7.861892973325444 0 0 0
484 162 2 -1.1794 2.884999050228138 1.6354617798713214 7.6909697718241405 0 0 0
489 163 1 0.5897 5.15347626042645 4.692315258580897 9.186398378020003 0 0 0
486 162 1 0.5897 3.190061612353845 0.8810811621343622 7.186908048699081 0 0 0
527 176 1 0.5897 5.974835962307236 0.8347596495781793 7.447928608647049 0 0 0
505 169 2 -1.1794 4.533030667117005 5.98038702823515 6.3682724209772905 0 0 0
508 170 2 -1.1794 1.3938206065566 0.3450923073609995 10.299524673641763 0 0 0
629 210 1 0.5897 2.1306221681967688 5.98480151465077 10.047204478380724 0 0 0
1347 449 1 0.5897 4.621880100481048 0.3895787819999007 11.222309523761192 0 1 0
495 165 1 0.5897 1.361474621796983 3.2001367518017885 11.233395467420491 0 0 0
509 170 1 0.5897 1.4795859170970285 0.059470728261398875 11.209046911260575 0 0 0
622 208 2 -1.1794 1.3143327680441532 10.673259583781489 7.071056559332168 0 0 0
1101 367 1 0.5897 4.719503409936363 9.006877761161514 11.171486566462763 0 0 0
628 210 2 -1.1794 1.3648603090367024 6.272409235917774 10.544313300684836 0 0 0
614 205 1 0.5897 2.1950137263237104 9.373865749415167 10.14763413284517 0 0 0
699 233 1 0.5897 0.1663763785981468 10.776790477788564 8.479109128370364 1 0 0
623 208 1 0.5897 2.031047808977378 10.679075500358051 7.705484845547798 0 0 0
619 207 2 -1.1794 4.4315148160873115 9.400397403704714 6.291680210027586 0 0 0
602 201 1 0.5897 4.823357066074424 7.1974897103026105 10.455008025034594 0 0 0
624 208 1 0.5897 1.4335058647371974 11.478218186185245 6.567004848506142 0 0 0
606 202 1 0.5897 1.9481245097016584 7.74283502667545 7.9129349519405405 0 0 0
630 210 1 0.5897 1.4191645555979298 7.228051714589449 10.537183023676914 0 0 0
603 201 1 0.5897 4.134495882096825 7.88019174018845 9.292596209254869 0 0 0
698 233 1 0.5897 0.2927092427505348 11.482436451442979 9.812477627670354 1 0 0
607 203 2 -1.1794 5.87745090672428 10.700067768381807 9.15081864747057 0 0 0
648 216 1 0.5897 5.95487464715603 7.037343035335269 7.199028386454771 0 0 0
610 204 2 -1.1794 3.0673155768701617 10.619402830746454 9.111748357801284 0 0 0
604 202 2 -1.1794 2.9012463593624997 7.704304025708499 7.992467813607729 0 0 0
620 207 1 0.5897 5.104300028350373 8.92395332846067 6.778087465020589 0 0 0
647 216 1 0.5897 5.985228584747007 7.889553616465291 8.449869279670192 0 0 0
626 209 1 0.5897 4.49313112598075 11.156594021689934 6.276505338343828 0 0 0
611 204 1 0.5897 4.021969253803642 10.668110944835222 9.161914808032844 0 0 0
625 209 2 -1.1794 4.469949974199008 12.113503737680016 6.270321054411154 0 0 0
612 204 1 0.5897 2.7609090188430354 11.33566679111211 9.667896440547775 0 0 0
601 201 2 -1.1794 4.937898857380572 7.897825911360656 9.812651295909534 0 0 0
605 202 1 0.5897 3.21975651032174 8.375703834751826 7.38915346913972 0 0 0
616 206 2 -1.1794 0.22425578807176968 7.736687299458719 7.842719796071246 0 0 0
506 169 1 0.5897 3.9352738645345395 6.421368146353724 6.971960166552133 0 0 0
615 205 1 0.5897 0.6876517680966255 9.406545401057695 10.284534423904441 0 0 0
613 205 2 -1.1794 1.4669677114516324 8.951107487256447 10.60310655758866 0 0 0
961 321 2 -1.1794 4.542989114053492 1.6179179497530938 15.640773630279686 0 0 0
962 321 1 0.5897 5.229683288174627 1.5148749811550042 14.981956522173574 0 0 0
963 321 1 0.5897 4.685137359406271 0.8940988650088835 16.25077092781224 0 0 0
964 322 2 -1.1794 2.8958120783339334 1.6905498268494978 13.443911833652047 0 0 0
965 322 1 0.5897 3.2449917191625612 1.6534489225482283 14.334342436348626 0 0 0
966 322 1 0.5897 1.9519919332059301 1.57238058663084 13.551105042578214 0 0 0
970 324 2 -1.1794 3.2187341167577683 4.877276080474555 14.71390312104899 0 0 0
971 324 1 0.5897 4.159729712785398 4.701881395894899 14.709450375168386 0 0 0
972 324 1 0.5897 2.8549048106185793 4.220012054281647 15.307074075460783 0 0 0
973 325 2 -1.1794 1.633612351542933 3.043196946375608 16.31428622353426 0 0 0
975 325 1 0.5897 0.9756807283083014 3.4564911386118484 15.755238975607353 0 0 0
982 328 2 -1.1794 1.435002307234226 4.440921244743095 12.546511051734605 0 0 0
983 328 1 0.5897 1.3794946842080584 5.133958065917502 11.888614026327403 0 0 0
984 328 1 0.5897 2.105395693176042 4.744322150691293 13.158666375949096 0 0 0
980 327 1 0.5897 3.7892796457593154 3.0531061614911206 12.37583684657029 0 0 0
981 327 1 0.5897 5.301707529449023 3.0136930135155566 12.430199688786589 0 0 0
979 327 2 -1.1794 4.571472935698336 3.3878530922757037 11.937259763776805 0 0 0
990 330 1 0.5897 1.6442931626012953 1.3057495495501217 16.427050093236666 0 0 0
986 329 1 0.5897 4.732858896164206 5.16143732944586 11.911646828570207 0 0 0
1109 370 1 0.5897 0.7742913560964672 5.923259445415761 15.892303656669373 0 0 0
1110 370 1 0.5897 2.274019870121854 6.116110763660023 15.817678237883689 0 0 0
1346 449 1 0.5897 3.904200955589422 0.3004768340863564 12.552256881058703 0 1 0
1008 336 1 0.5897 5.931927888409445 0.9966070452687994 12.895125369828348 0 0 0
967 323 2 -1.1794 6.01984889181683 4.639385092572711 14.868039271637063 0 0 0
988 330 2 -1.1794 1.603674759427527 0.35480121256019526 16.325562401906318 0 0 0
985 329 2 -1.1794 4.7192581767304524 6.116781966811846 11.969834458089124 0 0 0
1058 353 1 0.5897 0.2263663758934455 4.6824207236615765 14.012414342070542 1 0 0
976 326 2 -1.1794 0.12375577822254137 1.4397908123653833 13.539662119985042 0 0 0
1460 487 1 0.5897 4.711625541290602 2.732652014994165 17.002344839985007 0 0 0
1087 363 2 -1.1794 6.064913684729615 10.85899791907082 14.815771937577473 0 0 0
1108 370 2 -1.1794 1.4969801388553534 6.402376564232966 16.297771021727648 0 0 0
987 329 1 0.5897 3.966678769883578 6.312527678610529 12.527980677798405 0 0 0
1081 361 2 -1.1794 4.526079673077263 7.701281389376974 15.641700472252417 0 0 0
1082 361 1 0.5897 4.578450695131376 8.455503071803706 16.228750712039627 0 0 0
1083 361 1 0.5897 4.598144086811658 6.941739492749832 16.219731463201818 0 0 0
1084 362 2 -1.1794 2.932827557703326 7.83358777075415 13.363409058843443 0 0 0
1085 362 1 0.5897 3.4377685281031374 7.805114647345139 14.176063467595915 0 0 0
1086 362 1 0.5897 3.3548411307469004 8.516806285728581 12.842503797212428 0 0 0
1089 363 1 0.5897 5.110187933762728 10.829675228153405 14.878151800468585 0 0 0
1090 364 2 -1.1794 3.351908708567663 10.85000132001576 14.867232341471471 0 0 0
1091 364 1 0.5897 2.9756797230890393 11.659597575796559 15.212551211427483 0 0 0
1092 364 1 0.5897 2.8970470810103683 10.153121463156452 15.34018987536151 0 0 0
1095 365 1 0.5897 0.9733206865790696 9.515373340049969 15.874848052529506 0 0 0
1097 366 1 0.5897 1.1371174268691904 7.933154049075969 13.56730475361404 0 0 0
1099 367 2 -1.1794 4.64819490312904 9.477991339416079 12.001635547243048 0 0 0
1102 368 2 -1.1794 1.5671551402107005 10.709767242755474 12.745245886077182 0 0 0
1104 368 1 0.5897 2.374481072347858 10.72058083274075 13.259378448307196 0 0 0
1093 365 2 -1.1794 1.6961189398221665 9.154869731876385 16.38848687668841 0 0 0
1103 368 1 0.5897 1.6931103914737693 9.999871973495777 12.115647051381691 0 0 0
1100 367 1 0.5897 5.334681212608002 9.10042027023722 12.55154242397265 0 0 0
1094 365 1 0.5897 1.5409759607770148 8.210318666278292 16.39110459512299 0 0 0
1107 369 1 0.5897 4.774664636371074 11.221752006098 12.159989991793722 0 0 0
1179 393 1 0.5897 0.31702232475274283 10.681053139415447 14.084914550677336 1 0 0
1178 393 1 0.5897 0.3477177208442866 11.50817327609086 15.352476490483687 1 0 0
1127 376 1 0.5897 5.772113262351085 7.763729677143845 14.31297002533113 0 0 0
1128 376 1 0.5897 5.902932903354115 7.133739503876034 12.942659990855887 0 0 0
1105 369 2 -1.1794 4.647307130925009 12.161619230151905 12.28914462747342 0 0 0
1096 366 2 -1.1794 0.19331949247309987 7.927139498757377 13.40773291033989 0 0 0
750 250 1 0.5897 1.5915852603182916 12.102933281181233 11.448105077142436 0 0 0
1230 410 1 0.5897 1.7632799119708285 12.137072468985709 17.050652974885224 0 0 0
1537 513 2 -1.1794 0.0505879549032997 4.607556817828412 20.53753065693187 1 0 0
974 325 1 0.5897 1.6693298465428037 3.598147977095759 17.093352584173815 0 0 0
1468 490 2 -1.1794 1.5308559597547495 0.03859480747099061 21.7958976516262 0 0 0
1826 609 1 0.5897 4.030373948440502 0.22599376159716406 18.175444723384025 0 1 0
1539 513 1 0.5897 0.42715408739181 5.416973841010322 20.88290331734546 1 0 0
1454 485 1 0.5897 2.337605849042768 3.35028168841431 21.468754143169562 0 0 0
1464 488 1 0.5897 1.0400939396740616 4.7167595572664816 19.059635084882046 0 0 0
1443 481 1 0.5897 4.712664714585849 2.1557679399786305 21.951173305646286 0 0 0
1450 484 2 -1.1794 3.3483241802026886 4.817618793150081 20.650791206904323 0 0 0
1469 490 1 0.5897 1.504158646554901 0.9885819144544407 21.910187549623004 0 0 0
1442 481 1 0.5897 4.067172330019524 1.4301135683794932 20.789893897439498 0 0 0
1453 485 2 -1.1794 1.6418309007519527 2.8583281486377907 21.904771155778704 0 0 0
1444 482 2 -1.1794 3.105658774953156 1.431417217580081 19.247119104689396 0 0 0
1463 488 1 0.5897 1.5916782838340715 5.447472945228904 17.853978799108923 0 0 0
1452 484 1 0.5897 3.0368741270234616 4.786208393730225 19.746258535292398 0 0 0
1441 481 2 -1.1794 4.789701445910981 1.3669085361971514 21.41452832585243 0 0 0
1451 484 1 0.5897 4.2990523340865785 4.898633782857626 20.574595031006275 0 0 0
1445 482 1 0.5897 2.158999448685326 1.5260183630478772 19.352674280937045 0 0 0
1446 482 1 0.5897 3.371790081242568 2.210725378078766 18.75918454815215 0 0 0
1461 487 1 0.5897 5.427055548717526 2.761703120453233 18.336166138044632 0 0 0
1459 487 2 -1.1794 4.755616996406623 3.216072918714045 17.827300256263783 0 0 0
1462 488 2 -1.1794 1.7711475077133854 4.713637610812549 18.44176543757498 0 0 0
1466 489 1 0.5897 4.647123258570697 5.073053286966241 17.762452045116596 0 0 0
1465 489 2 -1.1794 4.536231021368685 6.023341427313828 17.792585314932666 0 0 0
1590 530 1 0.5897 2.3049816083352686 6.103452221763088 21.592274408142778 0 0 0
1456 486 2 -1.1794 0.36280942888074247 1.6431060672603297 19.155304610769974 0 0 0
1538 513 1 0.5897 0.5056064443510001 3.9104412239199293 21.009989212276302 1 0 0
1487 496 1 0.5897 5.862081114354452 1.4993789629946832 20.06020992972452 0 0 0
1447 483 2 -1.1794 6.050803692731006 4.687066157133325 20.56021513390278 0 0 0
1488 496 1 0.5897 5.8460876647163795 0.8642457678724974 18.68612797256621 0 0 0
1455 485 1 0.5897 1.5594870406301684 3.270205387455996 22.7648595470556 0 0 0
1572 524 1 0.5897 4.313498334454279 10.873026545375543 20.573917043354278 0 0 0
1608 536 1 0.5897 6.062057797973469 7.620933669710318 19.81638848932073 0 0 0
1580 527 1 0.5897 4.090084678224116 8.924073878151704 18.19663684071645 0 0 0
1584 528 1 0.5897 1.7559607854689818 10.28079960057391 17.879957639992853 0 0 0
1467 489 1 0.5897 5.395557552149332 6.357188337738468 18.05016880874478 0 0 0
1588 530 2 -1.1794 1.5111750078121393 6.364092909575846 22.059362010033446 0 0 0
1710 570 1 0.5897 2.377933410869024 12.07750491786323 21.636210905318052 0 0 0
1583 528 1 0.5897 1.0921449678189659 10.966546760417256 19.05507576789615 0 0 0
1566 522 1 0.5897 3.366354250834515 7.089863215331752 18.622243230999842 0 0 0
1576 526 2 -1.1794 0.29016667224098047 7.662875443305285 19.188059430087257 0 0 0
1575 525 1 0.5897 2.203295394444594 9.59530076533731 21.44861815029398 0 0 0
1579 527 2 -1.1794 4.722624153321353 9.433496521240489 17.69007170028739 0 0 0
1567 523 2 -1.1794 6.037658397273066 10.918781496185069 20.576802730917215 0 0 0
1589 530 1 0.5897 1.5188944415821561 7.320835195501052 22.03042718887086 0 0 0
1582 528 2 -1.1794 1.873376886732643 10.99800202005447 18.50289140000025 0 0 0
1570 524 2 -1.1794 3.3673391542927353 10.829060557883798 20.712122286786467 0 0 0
1562 521 1 0.5897 4.686929391201654 7.065794773300833 21.888253958567013 0 0 0
1561 521 2 -1.1794 4.8894848732650855 7.743663453661636 21.24352578409996 0 0 0
1587 529 1 0.5897 4.641577333776877 11.297572245236639 17.595640353665488 0 0 0
1709 570 1 0.5897 0.8679103657908269 12.055177104881013 21.530015267791015 0 0 0
1564 522 2 -1.1794 3.0038543882274253 7.770384602466569 19.189431812477856 0 0 0
1565 522 1 0.5897 2.0553515745811537 7.670141348494593 19.10852570986586 0 0 0
1585 529 2 -1.1794 4.710096791197847 12.25232468125348 17.592683753150347 0 0 0
1571 524 1 0.5897 2.9949595279562553 10.846280718340058 19.8305278978006 0 0 0
1563 521 1 0.5897 4.164889379590861 7.705264787742777 20.619266081072176 0 0 0
1581 527 1 0.5897 5.576691836267605 9.130082215634728 17.997886751287027 0 0 0
1573 525 2 -1.1794 1.5308717665360656 9.149361723354476 21.96360282084911 0 0 0
1658 553 1 0.5897 0.2766397926315656 10.108608607291295 21.01446216132735 1 0 0
141 47 1 0.5897 4.886026013950444 9.072725551696044 22.5657231006065 0 0 -1
241 81 2 -1.1794 4.487051274938462 14.090031668483684 4.283314322497721 0 0 0
242 81 1 0.5897 4.4498233928001065 13.325268180774199 4.85774600133137 0 0 0
243 81 1 0.5897 3.7846635801842607 13.947921477594218 3.64875298699885 0 0 0
244 82 2 -1.1794 2.848769008074317 13.672443063434471 2.0513085713449155 0 0 0
245 82 1 0.5897 1.898160537859697 13.78164298279894 2.0772316851982437 0 0 0
246 82 1 0.5897 3.172213219991735 14.479483762572245 1.650927869882375 0 0 0
250 84 2 -1.1794 3.1451337371006436 17.08654756434398 3.804836246133909 0 0 0
251 84 1 0.5897 2.744912642089149 17.142435272736435 2.9371532408385823 0 0 0
252 84 1 0.5897 4.087004911784757 17.07606472028504 3.6344899771177017 0 0 0
253 85 2 -1.1794 1.51548692619959 15.348608179876523 5.086707395184271 0 0 0
255 85 1 0.5897 2.2686684181762757 15.724745466077385 4.631218783312699 0 0 0
259 87 2 -1.1794 4.601229512218333 15.580042462013454 0.8068050840629666 0 0 0
262 88 2 -1.1794 1.4034038273583318 16.786662538210514 1.443581629364471 0 0 0
263 88 1 0.5897 1.5793041226962221 16.106419510927683 0.7935505487862627 0 0 0
264 88 1 0.5897 1.3971229260582945 17.60197469619283 0.9421301575716067 0 0 0
269 90 1 0.5897 1.522394401476243 13.60497527849159 4.995678091845005 0 0 0
254 85 1 0.5897 0.7558183415314933 15.76070670895564 4.675230829763455 0 0 0
260 87 1 0.5897 4.6517312425359885 16.52260213597483 0.6478063219236837 0 0 0
147 49 1 0.5897 5.551658993370582 12.627640916106055 1.177903321315094 0 0 0
288 96 1 0.5897 5.895970621770344 14.712544878568577 1.7087599691997644 0 0 0
146 49 1 0.5897 4.045986408764388 12.487866915528539 1.1046808967350323 0 0 0
247 83 2 -1.1794 5.928710352801776 17.003276950757783 3.67326376061851 0 0 0
268 90 2 -1.1794 1.648756933572986 12.658612353983559 5.0640987821330485 0 0 0
287 96 1 0.5897 5.964796837456258 14.099525448496383 3.091227872544192 0 0 0
338 113 1 0.5897 0.27760934438555274 16.925289255712553 2.8299568065190344 1 0 0
740 247 1 0.5897 4.608006052584998 15.300363218900637 5.661426088555613 0 0 0
339 113 1 0.5897 0.1530628249208161 17.725485901412696 4.108999624470517 1 0 0
265 89 2 -1.1794 4.513124516030999 18.33994652271056 0.7804636199803809 0 0 0
389 130 1 0.5897 2.038218060610854 18.31228959158688 4.638988948203639 0 0 0
256 86 2 -1.1794 0.12567553847767565 13.863478418442192 2.2587054021678155 0 0 0
267 89 1 0.5897 3.790664258712865 18.743941611261377 1.2611577123002837 0 0 0
458 153 1 0.5897 0.30871356720547055 23.828018008235343 4.088795846106378 1 0 0
361 121 2 -1.1794 4.733117608885282 20.138579387321286 4.265325609701107 0 0 0
362 121 1 0.5897 3.982715383091783 20.10643200658781 3.671962883424217 0 0 0
364 122 2 -1.1794 2.8294377874877705 20.012573728913786 2.3134769561455277 0 0 0
365 122 1 0.5897 3.208761339596952 20.6896411530559 1.7531961786171393 0 0 0
370 124 2 -1.1794 3.296903496319261 23.0253241410369 3.4296907509593364 0 0 0
371 124 1 0.5897 4.253503314411721 23.056226909788943 3.444317221402965 0 0 0
372 124 1 0.5897 3.0715234343948055 22.295350269587455 4.00637020958456 0 0 0
373 125 2 -1.1794 1.6426821881953035 21.346050207541282 4.962765280778133 0 0 0
382 128 2 -1.1794 1.4796107385622195 23.253863382457194 1.4034212062119433 0 0 0
383 128 1 0.5897 2.2638311215306626 23.2054725757576 1.9501197831747588 0 0 0
375 125 1 0.5897 0.9950389568630619 21.79971882449348 4.423352843700317 0 0 0
366 122 1 0.5897 1.8852241979856446 20.0882407643816 2.1756857014157407 0 0 0
384 128 1 0.5897 1.558716316685172 22.51170748777802 0.8041205232465741 0 0 0
381 127 1 0.5897 5.2460392149674036 21.328463611751065 1.2962061719231392 0 0 0
379 127 2 -1.1794 4.530116401533939 21.671369357418442 0.7613287694605193 0 0 0
390 130 1 0.5897 1.4834320516571362 19.679825148471487 4.976617681829865 0 0 0
363 121 1 0.5897 4.603637510361994 19.396863859961407 4.856349537512817 0 0 0
380 127 1 0.5897 4.641965693938947 22.621550712253356 0.791288964603421 0 0 0
408 136 1 0.5897 5.9660067471056655 19.956967204381183 2.944176289659167 0 0 0
459 153 1 0.5897 0.2649064685469565 23.01902358296713 2.809973765192546 1 0 0
388 130 2 -1.1794 1.3034242165130117 18.74475575329643 5.074056066239513 0 0 0
376 126 2 -1.1794 0.0827190055118147 20.10225918498247 2.121479424820895 0 0 0
29 10 1 0.5897 2.3615167024836987 24.365264430600437 4.360499959088139 0 -1 0
367 123 2 -1.1794 6.146117166047511 23.16225369658775 3.61312663080712 0 0 0
385 129 2 -1.1794 4.830551755456169 24.41520356334502 0.984892018717214 0 0 0
407 136 1 0.5897 5.966768894540441 19.375359551401246 1.5465081207103033 0 0 0
861 287 1 0.5897 4.702571321292379 21.292623968061164 5.632871607411958 0 0 0
30 10 1 0.5897 1.5254578630182603 24.341023350066628 5.622325128645007 0 -1 0
627 209 1 0.5897 5.182724859739783 12.374604801772504 6.85341151090933 0 0 0
818 273 1 0.5897 0.22339559037324222 16.9840732190393 8.659987359510659 1 0 0
737 246 1 0.5897 1.1245580146548262 13.999242075469507 7.812644713677427 0 0 0
732 244 1 0.5897 2.7807898825227944 16.31236755158314 9.859277768564041 0 0 0
725 242 1 0.5897 3.4537142682926496 14.685995360076264 7.61542347746229 0 0 0
726 242 1 0.5897 3.2831526992936166 13.205466797694596 7.349181902697364 0 0 0
730 244 2 -1.1794 3.209340946350698 16.91818401752382 9.254672327942508 0 0 0
728 243 1 0.5897 5.046853570702925 16.837999642884565 9.328216724489005 0 0 0
733 245 2 -1.1794 1.7220135877418041 15.198481842177898 10.72107349778487 0 0 0
724 242 2 -1.1794 2.973993611716841 13.91347860841566 7.914302147014556 0 0 0
742 248 2 -1.1794 1.3255685387859049 17.04292003559388 7.250929836898972 0 0 0
721 241 2 -1.1794 4.818336228707205 13.7113844553238 9.978138808143267 0 0 0
743 248 1 0.5897 1.3063014252292109 17.81021557569124 6.678997694637773 0 0 0
722 241 1 0.5897 4.0086774741404 13.740936594763639 9.468427085317213 0 0 0
731 244 1 0.5897 2.595896629000271 17.002831164780556 8.524796941431614 0 0 0
735 245 1 0.5897 0.9037271477853039 15.581435679705777 10.404853422407603 0 0 0
741 247 1 0.5897 4.608746379661219 16.607087322636918 6.425857998554384 0 0 0
744 248 1 0.5897 1.4208320730149466 16.3008446918861 6.653883622754521 0 0 0
739 247 2 -1.1794 4.705773320960726 15.661948718576905 6.542260265497772 0 0 0
723 241 1 0.5897 5.513624132225065 13.832130616387875 9.331450281464232 0 0 0
749 250 1 0.5897 1.5829234151982432 13.418790694188091 10.699549631720974 0 0 0
869 290 1 0.5897 0.8063204236160799 18.205802412429197 10.474196753160959 0 0 0
736 246 2 -1.1794 0.16820449122443987 14.022681953885877 7.77961465687109 0 0 0
870 290 1 0.5897 2.3082057492757926 18.302996120428737 10.310376938619038 0 0 0
748 250 2 -1.1794 1.5579960596077715 12.471362041820171 10.565323370752083 0 0 0
745 249 2 -1.1794 4.725189443022277 18.443993983771335 6.442452387782053 0 0 0
727 243 2 -1.1794 6.0039506842393795 16.849175582793087 9.318531039069878 0 0 0
768 256 1 0.5897 5.89574658846027 14.575117843389224 7.311199166868886 0 0 0
855 285 1 0.5897 0.8945014375980767 21.71303981999903 10.16011586984151 0 0 0
851 284 1 0.5897 4.155486318455881 23.18847795385402 9.20440580408576 0 0 0
859 287 2 -1.1794 4.712064671277956 21.71006344317207 6.494166685127939 0 0 0
374 125 1 0.5897 1.5857485605189656 21.774159441508807 5.8169652459335 0 0 0
746 249 1 0.5897 5.3745261727082285 18.88456764864082 6.990612427590708 0 0 0
510 170 1 0.5897 2.1032279603227826 24.559071352238036 9.839266182929755 0 -1 0
845 282 1 0.5897 3.2288692126531524 20.07384016980129 8.702909876444991 0 0 0
868 290 2 -1.1794 1.5739339324994368 18.678166909160016 10.796505084822325 0 0 0
842 281 1 0.5897 4.595481111254765 20.822068332729263 10.506914861545189 0 0 0
853 285 2 -1.1794 1.5860763908714866 21.414784047707457 10.750865411566329 0 0 0
841 281 2 -1.1794 4.611575585417758 20.057831724326736 9.930806052525133 0 0 0
844 282 2 -1.1794 2.94043714218385 20.017767592021066 7.791959910008168 0 0 0
846 282 1 0.5897 1.9848426996234658 19.997194732598057 7.843611926750504 0 0 0
863 288 1 0.5897 2.3424991187086164 23.12945304168609 7.555214782539886 0 0 0
939 313 1 0.5897 0.08612841796083534 23.753160553897462 9.731800008240343 1 0 0
847 283 2 -1.1794 5.922936726993635 23.126704931959292 9.291165426580614 0 0 0
852 284 1 0.5897 2.931313340991472 22.628370277912566 9.89692755562697 0 0 0
747 249 1 0.5897 3.8834488146491055 18.77994951049582 6.750428967288298 0 0 0
887 296 1 0.5897 5.986359912822063 20.70255137580794 7.275572830354721 0 0 0
888 296 1 0.5897 5.942059841496127 20.064373903018435 8.647621414784924 0 0 0
843 281 1 0.5897 4.546349429221026 19.309039041324535 10.5234869790082 0 0 0
860 287 1 0.5897 4.065136151696443 21.22264160881626 7.004197486578694 0 0 0
865 289 2 -1.1794 4.644094414515032 24.427362130885214 6.524691897312947 0 0 0
866 289 1 0.5897 4.7027848242453905 23.475010456138623 6.448317400986377 0 0 0
856 286 2 -1.1794 0.19202890948667792 19.941168882970533 7.681653028529554 0 0 0
854 285 1 0.5897 1.5361317198380504 20.45951694268027 10.715909107498575 0 0 0
864 288 1 0.5897 0.846128586246779 22.966328377037136 7.71710631592707 0 0 0
850 284 2 -1.1794 3.2000659394937383 23.245721200810152 9.216591028167866 0 0 0
862 288 2 -1.1794 1.527151982531001 23.08767272879543 7.055524487397204 0 0 0
1201 401 2 -1.1794 4.596629446392372 14.124264386751083 15.637278040409699 0 0 0
1204 402 2 -1.1794 2.8894540031312257 13.943522747488634 13.54895495510239 0 0 0
1205 402 1 0.5897 3.2935753679223505 14.039470921656049 14.41131007353148 0 0 0
1206 402 1 0.5897 3.317427748662302 13.177081024869477 13.167323848568085 0 0 0
1210 404 2 -1.1794 3.4604273908489636 16.966983609093642 15.045654060496252 0 0 0
1211 404 1 0.5897 3.144036110581223 17.741075730972206 15.511388026311451 0 0 0
1212 404 1 0.5897 4.410754144424602 17.077301432363768 15.01464675873216 0 0 0
1213 405 2 -1.1794 1.6579793236475158 15.211870553985086 16.340674411320762 0 0 0
1214 405 1 0.5897 0.8716523630158954 15.648888263516184 16.013646749408906 0 0 0
1215 405 1 0.5897 2.3835314219790287 15.710316124760233 15.964690377375396 0 0 0
1218 406 1 0.5897 1.1286440026803501 13.780623511876213 13.683587561368636 0 0 0
1222 408 2 -1.1794 1.6529658630292918 16.87128551429812 12.948117902303148 0 0 0
1223 408 1 0.5897 1.7287926932343782 17.627626675199366 12.366383403892502 0 0 0
1224 408 1 0.5897 2.3282586863094505 17.010562557786884 13.612038988188164 0 0 0
1229 410 1 0.5897 1.6620002141484675 13.470919490311752 16.341787223026245 0 0 0