LAMMPS data file via write_data, version 30 Jul 2021, timestep = 14500000

864 atoms
2 atom types
576 bonds
1 bond types
288 angles
1 angle types

0.7393669118154254 17.46820548817633 xlo xhi
1.9624078297252439 21.666769970269733 ylo yhi
0.9020259054535167 21.31116989454643 zlo zhi

Masses

1 1.00794
2 15.9994

Pair Coeffs # lj/cut/tip4p/long/omp

1 0 0
2 0.21084 3.1668

Bond Coeffs # harmonic/omp

1 450 0.9572

Angle Coeffs # harmonic/omp

1 55 104.52

Atoms # full

409 1 2 -1.1794 3.134131722036693 3.7277742007132755 4.178358926719897 6 5 -7
860 1 1 0.5897 4.3583210254000075 6.088619598938755 3.1483139785998917 -2 -1 3
68 1 1 0.5897 1.3531111427789342 2.7611589298897474 1.7579980473521937 4 -6 -1
69 1 1 0.5897 2.360282599446273 2.904137042113241 2.879334738255192 4 -6 -1
859 1 2 -1.1794 4.205745786406906 5.608856172077427 2.334125377210948 -2 -1 3
410 1 1 0.5897 3.9037841766639394 3.624302298310046 4.738066322581783 6 5 -7
67 1 2 -1.1794 2.2844483865232794 2.6625758937948505 1.956151598052212 4 -6 -1
411 1 1 0.5897 3.3809582341769104 4.410822379258856 3.554748585767971 6 5 -7
82 1 2 -1.1794 1.4223113453985141 5.395439723170666 5.349316904300346 -6 -1 -7
84 1 1 0.5897 2.1958630331392537 4.865454527244126 5.15673293318949 -6 -1 -7
102 1 1 0.5897 1.238307751225389 5.933042541384417 3.427647342679273 4 -2 -4
100 1 2 -1.1794 1.0346127798545481 6.059061429673383 2.500841120359171 4 -2 -4
530 1 1 0.5897 3.379150870851361 4.417132795580004 10.265080638725799 0 -4 -4
531 1 1 0.5897 3.2425128984607245 4.539479592478965 8.762227288827646 0 -4 -4
64 1 2 -1.1794 4.451975716329624 6.6531617393656335 7.14795761547342 0 5 -2
529 1 2 -1.1794 3.217281343852598 3.901179002034606 9.475186484480043 0 -4 -4
87 1 1 0.5897 0.7790317791479757 6.345395550815271 8.979744003750275 -5 1 0
287 1 1 0.5897 1.548200818112293 6.588578665498162 6.628179785860696 6 0 5
145 1 2 -1.1794 4.450384774890115 4.044080075653163 6.693282136227349 -4 -1 -4
233 1 1 0.5897 1.2968796361294312 3.1218830192455993 9.290758074205513 -6 -1 1
147 1 1 0.5897 4.427057071035643 4.997212305739083 6.778913235372403 -4 -1 -4
788 1 1 0.5897 4.642062316108257 2.880234077834977 9.42371237920053 3 1 12
86 1 1 0.5897 1.3555620644267674 5.876164854938351 10.298683789056962 -5 1 0
509 1 1 0.5897 3.0364749356054483 2.5853481212502007 6.786646352889232 1 3 0
66 1 1 0.5897 4.88504741106113 6.6345427662756205 8.00144747028407 0 5 -2
602 1 1 0.5897 1.6378459630001332 3.7244096945741445 12.079099924932569 2 5 7
184 1 2 -1.1794 3.2809780890474745 2.9557517823042216 12.45892747422507 0 9 3
655 1 2 -1.1794 3.169048224448637 3.8304514738407462 15.19487863397207 -4 1 -4
657 1 1 0.5897 3.726839080784045 4.491106618040538 15.605676703890607 -3 1 -4
644 1 1 0.5897 2.2063676037795146 6.091273125369779 12.092223541965165 7 -4 -4
186 1 1 0.5897 3.4423206337646315 3.165509637917947 13.378889208997455 0 9 3
237 1 1 0.5897 1.1693340403768908 5.232330375182336 14.11114321812738 1 -8 -3
236 1 1 0.5897 2.542162570767061 5.862224867546766 14.214972296097233 1 -8 -3
235 1 2 -1.1794 1.644912752610801 6.044319765501967 13.935460004098681 1 -8 -3
656 1 1 0.5897 2.695682916752493 3.429145921237742 15.923751977714467 -4 1 -4
643 1 2 -1.1794 2.7924623730105886 6.241770416170751 11.350481547334528 7 -4 -4
430 1 2 -1.1794 4.782254295166891 5.892748062884703 15.968654512907566 -15 -1 2
431 1 1 0.5897 4.690819609804071 6.4918114050505 15.22763316288847 -15 -1 2
185 1 1 0.5897 3.0010197167401023 2.0403742633316213 12.4670040835679 0 9 3
110 1 1 0.5897 1.5406439525106306 4.890995435377443 17.110271526025624 -1 3 -7
557 1 1 0.5897 3.932169399568588 6.716630170965242 17.447880873633892 4 5 3
780 1 1 0.5897 3.934424438557024 3.4051716236602214 20.04361309484319 -2 -2 -6
652 1 2 -1.1794 2.657122740799714 5.067622911219212 20.333067853925744 -4 0 0
706 1 2 -1.1794 2.0632689483920004 3.014726407567923 17.418497147444864 -3 -3 -10
778 1 2 -1.1794 4.721587442020308 2.8611954946919926 20.014762143512645 -2 -2 -6
653 1 1 0.5897 2.8312611927362026 5.409669902357067 21.210019850362496 -4 0 0
707 1 1 0.5897 1.2508095157690873 2.515804838859208 17.332671672671125 -3 -3 -10
708 1 1 0.5897 2.7067552100013197 2.3749232837854537 17.723424781756812 -3 -3 -10
804 1 1 0.5897 1.085073883902587 4.388970109894707 20.27104785384492 9 -3 -8
654 1 1 0.5897 2.7279986475969262 5.830661225577987 19.759384319488426 -4 0 0
111 1 1 0.5897 0.8452780596492812 6.222835979585245 16.923654880287856 -1 3 -7
556 1 2 -1.1794 3.216390431966254 6.818025047507275 18.07535550538422 4 5 3
132 1 1 0.5897 1.3413454513780456 9.276761624089895 5.4577011473038946 1 2 1
827 1 1 0.5897 1.506098699288142 10.95416126229095 3.8337590103716632 -7 -1 3
776 1 1 0.5897 4.340792161481391 10.561546638872146 5.9893402052192375 10 -2 1
525 1 1 0.5897 4.191562396724068 11.150572709416815 3.6097022844182862 5 1 4
306 1 1 0.5897 4.201199133361024 9.13642075610001 1.610695168871991 8 0 -3
745 1 2 -1.1794 4.056801269794935 7.60118843544168 4.604943221439717 3 0 -9
746 1 1 0.5897 3.9821104870871635 7.373603344526312 5.531764302402428 3 0 -9
96 1 1 0.5897 2.7761412384267 8.754484133527647 3.8979602256489216 -6 -3 -8
95 1 1 0.5897 1.5903040582507195 8.762435562521228 2.956734879245081 -5 -3 -8
304 1 2 -1.1794 4.597287744507219 9.651739211881285 2.313485364834479 8 0 -3
94 1 2 -1.1794 1.9275933144675201 9.17313923676361 3.752917199654096 -6 -3 -8
747 1 1 0.5897 4.918742013337301 8.010241537674771 4.5269746566848195 3 0 -9
775 1 2 -1.1794 3.5852133062377307 10.664493423410406 6.568080707622246 10 -2 1
533 1 1 0.5897 3.570272920991903 9.174834579492192 9.525876881242656 -8 -2 -5
288 1 1 0.5897 1.565399138563795 8.016060403737367 7.132377720097517 6 0 5
251 1 1 0.5897 1.320367615853999 11.097674932015146 8.529140419253954 4 -4 -1
413 1 1 0.5897 1.2359738103430076 9.026393991446113 9.878594143419285 1 -2 8
777 1 1 0.5897 3.2724427908162497 11.553194714528297 6.398555474036147 10 -2 1
130 1 2 -1.1794 1.253678175916476 9.584705211343426 6.359828807395613 1 2 1
534 1 1 0.5897 3.9432573665698447 10.089587989940627 8.378585574863397 -8 -2 -5
412 1 2 -1.1794 2.025332548428567 8.715025303778013 10.321667867858919 1 -2 8
532 1 2 -1.1794 4.324577804776645 9.535844865254546 9.059988998271232 -8 -2 -5
131 1 1 0.5897 2.1105371401896162 9.955484609342374 6.5712141390549945 1 2 1
252 1 1 0.5897 1.7840069515108683 11.74106334001629 9.81881545181987 4 -4 -1
250 1 2 -1.1794 2.060786175203616 11.561582168264637 8.92019250056113 4 -4 -1
200 1 1 0.5897 4.5348422488170215 10.856529837060995 10.62593398804287 -2 -5 3
65 1 1 0.5897 3.5562005808662187 6.931174990798311 7.339368829973369 0 5 -2
286 1 2 -1.1794 1.7643880358389679 7.117618360228779 7.396128491509288 6 0 5
645 1 1 0.5897 2.5148235788353315 7.085030094314043 10.992463641104715 7 -4 -4
266 1 1 0.5897 2.3065253388371527 9.020067675714856 13.556498593014034 -1 -6 2
864 1 1 0.5897 2.7816736034959333 10.754557928057197 14.949303548400058 8 2 1
560 1 1 0.5897 2.3410017444154887 11.525271100400662 12.233760690551538 -3 6 4
267 1 1 0.5897 1.0397350507815162 9.820682114366775 13.34083562016928 -1 -6 2
862 1 2 -1.1794 2.1155402080937873 10.546097554805677 15.604407682043883 8 2 1
265 1 2 -1.1794 1.7893277657071196 9.44974692697646 12.875137154422124 -1 -6 2
40 1 2 -1.1794 3.671060862569136 8.13540072670366 14.462489258554323 -4 -4 4
41 1 1 0.5897 4.107053895013568 8.663402393093193 15.131428671238734 -4 -4 4
42 1 1 0.5897 4.194526150403746 8.269158343239301 13.672277056097473 -4 -4 4
230 1 1 0.5897 4.299020019664802 11.537502934608488 12.980522714122651 2 0 1
229 1 2 -1.1794 4.166092016101215 11.53646442070617 13.928507172356552 2 0 1
446 1 1 0.5897 2.049971636370259 8.337592924670743 15.909879600898764 6 -8 -3
782 1 1 0.5897 4.636346628711493 7.50636597737699 11.342591671669014 -5 0 0
199 1 2 -1.1794 4.90926658345214 11.483667409846145 11.244679148868906 -2 -5 3
414 1 1 0.5897 1.98640947547666 9.114871863905886 11.190551848280162 1 -2 8
595 1 2 -1.1794 2.9591094372628093 8.37350294129795 20.727201638337597 -2 -7 -1
12 1 1 0.5897 2.761821406211679 10.344965915543227 21.128573625463098 -3 3 4
596 1 1 0.5897 2.1120718324373 8.013348940964853 20.464229785962484 -1 -7 -1
394 1 2 -1.1794 2.8399621074724366 11.583048708590065 17.877031937842023 10 0 3
447 1 1 0.5897 1.184388896001677 8.865586426400878 17.034303380881408 7 -8 -3
445 1 2 -1.1794 1.3595319489013953 8.077519966116402 16.519852077867426 6 -8 -3
396 1 1 0.5897 3.156858325380674 11.35643153052156 18.75142608924911 10 0 2
597 1 1 0.5897 3.4907935867038318 8.341735211359307 19.931799256053267 -2 -7 -1
558 1 1 0.5897 2.518841207480128 7.243916594226583 17.576951740122006 4 5 3
122 1 1 0.5897 1.0883399267333316 10.99809464091498 18.133638447141934 0 2 3
10 1 2 -1.1794 2.844815256419071 11.281547272745428 20.948952168628924 -3 3 4
863 1 1 0.5897 2.527700595958798 10.758663926802319 16.44183689877937 8 2 1
11 1 1 0.5897 1.9450621183885117 11.608210067481028 20.957471131266356 -3 3 4
273 1 1 0.5897 4.699360710067563 11.695612269868189 20.576099209676904 1 -4 3
575 1 1 0.5897 1.7122609758972938 14.827783532216168 3.892238603430303 -3 2 -3
576 1 1 0.5897 2.263322850779078 15.205134619523513 2.5335253885783198 -3 2 -3
828 1 1 0.5897 1.5609085356762704 12.312300382895057 4.500550787121236 -7 -1 3
435 1 1 0.5897 3.080564936210126 16.565243494266042 3.7833222294142836 -3 2 -5
473 1 1 0.5897 4.235978232659042 15.312945162035822 5.303327271849033 3 2 0
474 1 1 0.5897 4.62002560101224 14.43537782320081 4.130916278986257 3 2 0
574 1 2 -1.1794 2.531454998611543 14.910557931553736 3.4039672875630873 -3 2 -3
523 1 2 -1.1794 4.090253895690786 12.075584293776272 3.8342849894556887 5 1 4
826 1 2 -1.1794 1.3710242309710892 11.886594778919385 3.6644487419597302 -7 -1 3
524 1 1 0.5897 3.1890033938305438 12.284882509807368 3.5887160157991462 5 1 4
376 1 2 -1.1794 4.213416259633011 13.71332353482716 8.442775026788988 4 -1 0
363 1 1 0.5897 3.21595029222387 14.956400113035361 7.280378791285806 2 -5 0
43 1 2 -1.1794 2.9010162859322315 16.410635286114637 9.515029725814923 -1 11 -1
378 1 1 0.5897 4.714930154376383 13.38578934872461 7.696072055406383 4 -1 0
377 1 1 0.5897 3.6032621413049353 13.005728413212696 8.6510419511555 4 -1 0
361 1 2 -1.1794 2.761288318767315 15.279762976625694 6.502512235613132 2 -5 0
719 1 1 0.5897 2.026268957499588 13.736839749760042 6.207415533346379 1 3 2
720 1 1 0.5897 0.9273718910991072 12.708945427457925 6.374807939699383 1 3 2
362 1 1 0.5897 2.4438751854906524 16.147336136829175 6.75333546541401 2 -5 0
477 1 1 0.5897 0.7865205236761432 13.611215975492827 8.884349163848217 1 -2 -1
718 1 2 -1.1794 1.8492394431896615 12.79902171545225 6.133155637746316 1 3 2
44 1 1 0.5897 3.845117129716373 16.55593211764011 9.577674437812037 -1 11 -1
198 1 1 0.5897 2.7576675006999936 15.023010160372312 10.820580372734696 0 -2 3
201 1 1 0.5897 4.599023603229279 12.336294900868879 10.939525789538784 -2 -5 3
197 1 1 0.5897 4.005566979301456 14.827884352696175 11.655375702805003 0 -2 3
727 1 2 -1.1794 2.670311404758695 13.767342941600532 14.369283552563907 1 1 1
728 1 1 0.5897 1.7374245437705458 13.612752023081407 14.518446752068582 1 1 1
196 1 2 -1.1794 3.088285225991281 14.561709379606386 11.591474744975894 0 -2 3
821 1 1 0.5897 4.558020201935622 16.34210583040539 14.53146284974395 -1 3 0
231 1 1 0.5897 3.585458737737004 12.28014806314181 14.090244064511902 2 0 1
729 1 1 0.5897 2.696951399470279 14.399709537417182 13.65111241291293 1 1 1
561 1 1 0.5897 2.3167141874699135 13.003621955202757 11.90808339457882 -3 6 4
559 1 2 -1.1794 1.882015867430312 12.175925080217834 11.702417765630129 -3 6 4
422 1 1 0.5897 3.5504516767226515 14.225201854605668 16.025147620898608 -2 -3 2
389 1 1 0.5897 0.995834316465853 15.592058858137028 15.06720715092924 7 7 4
840 1 1 0.5897 2.305023289156546 16.519787601876804 13.253418634453546 -1 -5 -1
388 1 2 -1.1794 0.8951846510736985 16.464071678533873 15.449061490404365 7 7 5
551 1 1 0.5897 1.5858443921301761 13.159018914673155 17.47528127821154 -1 11 -6
291 1 1 0.5897 2.2618888621451516 15.36168470362887 17.719096563633023 -2 -4 -7
421 1 2 -1.1794 3.60546233458596 14.16475194606247 16.97891099171537 -2 -3 2
395 1 1 0.5897 3.576765190274423 12.033622330256499 17.463995021992666 10 0 3
290 1 1 0.5897 1.579307459697943 16.52945329107438 17.038938738453677 -2 -4 -7
423 1 1 0.5897 4.54385871926115 14.184705047373154 17.166932532282008 -2 -3 2
599 1 1 0.5897 3.4118927705048887 14.956886313722505 21.11429359857637 -3 -6 -5
564 1 1 0.5897 1.2075536430512135 14.824858852887486 20.24781846516279 7 2 6
289 1 2 -1.1794 2.0595511006294474 16.290499670181518 17.831808194585463 -2 -4 -7
598 1 2 -1.1794 2.597670883911894 15.458391466812182 21.158128144562003 -3 -6 -5
600 1 1 0.5897 2.8001468926729283 16.283724150312313 20.71748014230627 -3 -6 -5
663 1 1 0.5897 3.545712771278268 19.769914800195103 2.3626076791878976 2 -4 -2
568 1 2 -1.1794 4.4502239605397005 19.902798395349098 5.477476631062829 2 0 0
570 1 1 0.5897 4.520275853149494 20.17751631450364 4.563165207177303 2 0 0
662 1 1 0.5897 3.7078181385356004 21.2746961816251 2.323515885010263 2 -4 -2
709 1 2 -1.1794 2.0866184445479328 18.605956826350965 1.8005245925061195 -3 -7 1
661 1 2 -1.1794 4.179712524608781 20.46756746385823 2.5289483005615985 2 -4 -2
711 1 1 0.5897 1.2923995852878591 19.01338549049363 2.1463181113701104 -3 -7 1
433 1 2 -1.1794 3.3082564298688544 17.488672532467273 3.891860859460996 -3 2 -5
434 1 1 0.5897 2.9432902535579735 17.91840225090884 3.118229652167618 -3 2 -5
723 1 1 0.5897 2.330493246690501 17.736587557977693 5.575023006343551 4 -3 1
282 1 1 0.5897 4.684595067748425 17.26226519786961 2.5952723051236624 -4 -1 2
721 1 2 -1.1794 1.8892903171202744 17.83767915844504 6.418502991232959 4 -3 1
329 1 1 0.5897 4.487040320760578 19.32924049189955 8.959010981055284 4 3 0
45 1 1 0.5897 2.511848709297315 17.174476838775732 9.94101800616982 -1 11 -1
152 1 1 0.5897 1.1444849143642795 19.545621423143448 9.550963298916699 5 4 -8
21 1 1 0.5897 2.2837369408807895 18.86894121775615 7.911157925538408 -3 1 0
20 1 1 0.5897 2.4025835514748795 20.378188112988838 7.895454167166223 -3 1 -1
19 1 2 -1.1794 2.4848376278312143 19.618329424910847 8.471819778398434 -3 1 0
722 1 1 0.5897 1.0060889054484035 17.499955004839947 6.269369286272383 4 -3 1
508 1 2 -1.1794 2.486758372027336 21.562406395179664 6.494777573022719 1 2 0
510 1 1 0.5897 3.106961066583116 20.900658071639626 6.188510846139491 1 2 0
464 1 1 0.5897 2.5926402573963934 18.14942699943213 15.039508526622965 6 7 2
481 1 2 -1.1794 1.0537661640073093 17.249477445192518 12.117092947651514 1 5 -2
465 1 1 0.5897 3.562609871944737 19.30949964627894 15.113998182576134 6 7 2
375 1 1 0.5897 2.5638337972164242 19.442131827602314 13.360377215819176 6 10 0
215 1 1 0.5897 4.4843898938069495 20.167083283444118 11.669848849006351 2 -5 -4
463 1 2 -1.1794 2.654429728539882 19.069118337900328 15.297745640053265 6 7 2
839 1 1 0.5897 3.7307746963450983 16.986185830059185 13.048778789018257 -1 -5 -1
373 1 2 -1.1794 2.5703250435870766 19.841150045622186 12.49025998595863 6 10 0
374 1 1 0.5897 2.0153859671761056 19.269249206028547 11.95984643154718 6 10 0
195 1 1 0.5897 1.1745172040568042 20.88568587193235 14.375688771457215 5 -5 -4
838 1 2 -1.1794 3.092743865744769 16.778969237925317 13.731668705274066 -1 -5 -1
216 1 1 0.5897 4.790668093159495 21.513054061789173 12.291711406954601 2 -5 -4
822 1 1 0.5897 4.918156727950766 16.84071564557653 15.914892044027006 -1 3 0
454 1 2 -1.1794 3.800287294338035 20.507506633420164 17.68439854153052 3 -4 1
536 1 1 0.5897 3.7191220388528916 16.829504278103293 17.961333434632138 4 3 4
717 1 1 0.5897 1.606921576369452 19.664290377541903 16.722357293344622 12 -9 -8
716 1 1 0.5897 1.0162341440743332 19.25575313182465 18.05523462121722 12 -9 -8
360 1 1 0.5897 3.2261640188041616 20.689773943250106 19.40142695323523 6 0 -1
535 1 2 -1.1794 4.591061513278186 17.20182874704848 17.829301251207262 4 3 4
406 1 2 -1.1794 4.827881148895815 18.649005812259883 20.227880466895723 -8 -6 5
358 1 2 -1.1794 2.698629184660263 20.41958537703652 20.153120505578517 6 0 -1
455 1 1 0.5897 3.993738486935537 19.60536741030599 17.429235654466932 3 -4 1
456 1 1 0.5897 4.458819622742453 21.032204624731357 17.22901758379579 3 -4 1
408 1 1 0.5897 4.08922703850601 19.224698193262466 20.42622449429933 -8 -6 5
359 1 1 0.5897 2.730920626349746 21.16717046594586 20.75013269856325 6 0 -1
636 1 1 0.5897 1.1488035831031171 17.195563111652476 19.106519290955518 -7 1 6
715 1 2 -1.1794 0.7757050510050781 19.59135301539765 17.191569197637286 12 -9 -8
786 1 1 0.5897 0.9440467421896297 20.560470316912337 20.099285307388303 6 6 5
537 1 1 0.5897 4.85647548497304 17.505209955630317 18.697562838203734 4 3 4
634 1 2 -1.1794 0.8782015676950423 17.90381676580143 19.690890373079952 -7 1 6
710 1 1 0.5897 1.8829823480555732 18.42376422850231 21.292235406646288 -3 -7 0
752 1 1 0.5897 6.243345550939491 3.34796550583502 2.4304201578596203 2 -1 0
753 1 1 0.5897 7.074942304371709 4.361756358377395 1.6735592749287749 2 -1 0
136 1 2 -1.1794 6.21521874040315 3.0135435737102396 4.360290099992515 5 -4 6
751 1 2 -1.1794 6.213044560492257 3.9453646011141217 1.6830672768175148 2 -1 0
742 1 2 -1.1794 6.762018121498474 5.732165052709224 4.392589572643818 -5 2 -2
744 1 1 0.5897 6.9756278437255865 6.435584179865703 3.7794754655314056 -5 2 -2
743 1 1 0.5897 6.728565367921163 6.161073899549858 5.247729101761813 -5 2 -2
138 1 1 0.5897 7.014748865944735 2.6700103740921404 4.759143430969111 5 -4 6
137 1 1 0.5897 6.271953737935423 3.960763836389977 4.4863765477149755 5 -4 6
478 1 2 -1.1794 8.845086443981254 4.866040294207412 1.7442800508209064 -5 7 -3
259 1 2 -1.1794 8.750749905403525 2.944366175618769 5.602400452870112 4 2 5
393 1 1 0.5897 8.83930408832211 5.474851328683904 4.484183000558096 4 0 -1
861 1 1 0.5897 4.969222357818264 5.03830441582204 2.245091416120278 -2 -1 3
479 1 1 0.5897 9.066143768495031 5.680528571905413 2.196097355399206 -5 7 -3
490 1 2 -1.1794 7.009875895329998 4.68333548098988 7.644236577646798 -1 1 3
210 1 1 0.5897 9.006226239909068 5.635381963308137 10.321589303474793 3 0 0
146 1 1 0.5897 5.327419593203903 3.7980666698900754 6.987616668228933 -4 -1 -4
491 1 1 0.5897 7.6302659588729735 4.155025591626856 8.146581675814494 -1 1 3
166 1 2 -1.1794 8.560625178172035 2.5684413912914015 9.08627659899118 2 -2 7
308 1 1 0.5897 6.406339265125189 5.834330640235365 8.873617568884832 0 7 -2
167 1 1 0.5897 8.2616520750198 2.182472136680143 9.90967341124075 2 -2 7
492 1 1 0.5897 7.538434360053959 5.394547362422181 7.282103585959187 -1 1 3
260 1 1 0.5897 8.181100107696373 2.579983099877103 6.279947516809822 4 2 5
309 1 1 0.5897 5.74329262580769 5.51283182241491 10.196211870291537 0 7 -2
307 1 2 -1.1794 5.756544679802706 6.163857898167285 9.494537905204682 0 7 -2
787 1 2 -1.1794 5.396053947975808 2.2939973921545502 9.48871893025646 3 1 12
239 1 1 0.5897 6.0330843414481174 3.498823414430288 10.6757278756979 -5 -4 1
209 1 1 0.5897 7.698474991187019 5.407609610270626 11.049668308656011 3 0 0
208 1 2 -1.1794 8.590452257768895 5.730275985808714 11.17859933420366 3 0 0
437 1 1 0.5897 6.639533302627092 5.59262620578085 13.227983606695938 -4 7 5
238 1 2 -1.1794 6.177035656778705 4.220855360882021 11.287560745772574 -5 -4 1
695 1 1 0.5897 5.669034710110556 2.647767182424535 14.632519392332336 0 -5 0
240 1 1 0.5897 5.882362954384131 3.88158594896851 12.132787049573572 -5 -4 1
694 1 2 -1.1794 6.098785433179261 3.0780392786519255 13.893247394957715 0 -5 0
794 1 1 0.5897 8.91316702784198 2.9352213221106687 13.858471286751664 -3 -1 3
39 1 1 0.5897 7.451135541907132 4.404221092558528 15.434900745119121 -2 4 -4
795 1 1 0.5897 8.828737849489428 4.024536933766081 12.810414118075764 -3 -1 3
793 1 2 -1.1794 8.95063114042864 3.885534603645307 13.749654218279566 -3 -1 3
436 1 2 -1.1794 6.475032761514805 6.457153668124615 13.60464456205174 -4 7 5
696 1 1 0.5897 6.9077032979382125 2.5826572879021317 13.764383908298553 0 -5 0
432 1 1 0.5897 5.6696382425489285 5.543233034521082 15.88662820156724 -15 -1 2
697 1 2 -1.1794 5.971860811511643 2.425294886847082 16.916138348559507 -1 3 -6
161 1 1 0.5897 8.436248557937745 3.6420426843818947 19.610539241429997 0 11 1
667 1 2 -1.1794 5.7141318016266585 5.198087104964407 18.832252329104094 -11 -3 -1
37 1 2 -1.1794 7.390314654959811 4.825526406321635 16.292306984530175 -2 4 -4
160 1 2 -1.1794 8.680553016213318 4.374388071980043 19.04454802102776 0 11 1
698 1 1 0.5897 5.924887316909673 3.277156323651142 17.350334872990327 -1 3 -6
162 1 1 0.5897 7.974184109507566 4.426034529856377 18.400521302875063 0 11 1
669 1 1 0.5897 5.889932052649246 5.809102037892968 19.547868788521615 -11 -3 -1
668 1 1 0.5897 5.430604438415385 4.393983903327261 19.267432091351502 -11 -3 -2
38 1 1 0.5897 8.11804638760088 5.447259918253985 16.306376159558525 -2 4 -4
779 1 1 0.5897 5.145052013450189 3.0067844256252023 20.86082562445746 -2 -2 -6
699 1 1 0.5897 6.900077960342818 2.192867614852695 16.9434501628449 -1 3 -6
71 1 1 0.5897 8.863755454556197 6.024549169311213 19.791834315579102 0 1 -5
849 1 1 0.5897 6.714317620666999 6.697367841775259 17.703144995911526 2 1 3
371 1 1 0.5897 5.306249505658281 6.761708115629523 21.021879243316008 -2 5 -1
126 1 1 0.5897 6.683727049318577 7.703690538431984 2.0075759159525015 -7 -2 1
305 1 1 0.5897 5.460421472439374 9.258367346297634 2.442372125931092 8 0 -3
398 1 1 0.5897 6.880588063743738 9.55591102716545 4.865378890482541 6 1 -7
124 1 2 -1.1794 6.774566678995168 8.133636086388929 2.858022387939843 -7 -2 1
397 1 2 -1.1794 6.09531373672388 9.653939276570068 5.403968300451934 6 1 -7
125 1 1 0.5897 7.583269822964422 8.64066158075477 2.7854453627368505 -7 -2 1
625 1 2 -1.1794 7.489760771375735 10.12507774204802 1.068082121393675 2 -7 1
757 1 2 -1.1794 9.05418862599161 8.563657195816386 4.6710713823995125 1 4 4
343 1 2 -1.1794 7.620695829173167 7.266816048613922 6.703947647208739 -4 6 1
31 1 2 -1.1794 6.908190685784257 9.576216357101048 8.022205206742154 2 5 5
33 1 1 0.5897 6.0554015629143 9.458992603778768 8.44096576969655 2 5 5
344 1 1 0.5897 7.536663353656595 7.839873186409139 7.466104423596197 -4 6 1
32 1 1 0.5897 7.235915710941746 10.404482625398245 8.372841742724631 2 5 5
399 1 1 0.5897 6.391035131128407 9.468843190324954 6.295389626416986 6 1 -7
158 1 1 0.5897 8.659407542580391 8.647299318479586 9.792879422574224 2 4 0
345 1 1 0.5897 8.053167313530984 7.807983885707447 6.043292334929247 -4 6 1
276 1 1 0.5897 7.710488055906723 10.040889221310865 12.144385465563895 -1 7 -5
187 1 2 -1.1794 7.526492901761488 8.314201060913962 15.066051918778879 -9 6 1
783 1 1 0.5897 5.740681262743476 8.535133160051293 11.222624314982408 -5 0 0
5 1 1 0.5897 7.2369854212507825 9.783576314558772 14.298230954881697 -1 2 -3
189 1 1 0.5897 7.572838218668748 7.944685914955321 15.94792249487831 -9 6 1
274 1 2 -1.1794 8.054777671716103 9.672012255162148 11.330898746782957 -1 7 -5
188 1 1 0.5897 7.262305155822774 7.579798660550753 14.511747680956809 -9 6 1
781 1 2 -1.1794 5.188443939165581 8.088724713542836 11.864575453129358 -5 0 0
6 1 1 0.5897 6.249185160172188 10.913227489228474 14.097484901150185 -1 2 -3
4 1 2 -1.1794 7.140537111518066 10.639602817276923 13.880785897809021 -1 2 -3
275 1 1 0.5897 8.742186142325172 9.068522912555405 11.613100011769486 -1 7 -5
293 1 1 0.5897 5.837037749065206 8.842173408072401 16.049617342397035 3 -3 5
438 1 1 0.5897 5.994172878547093 6.928005649809274 12.923887220416804 -4 7 5
178 1 2 -1.1794 5.207368106491984 9.302169221242684 19.305634767717844 -3 3 -2
179 1 1 0.5897 5.486026044212205 10.189067149142645 19.533926167754164 -3 3 -2
847 1 2 -1.1794 7.147693822216276 7.550729063012507 17.72124012992074 2 1 3
627 1 1 0.5897 7.88964676023059 10.043738897204374 20.611293198395877 2 -7 0
469 1 2 -1.1794 7.7743460798833715 10.283468171041548 18.341682913869974 3 -12 2
294 1 1 0.5897 5.227112674291132 10.185965477546539 16.388025927308675 3 -3 5
848 1 1 0.5897 7.84158611949209 7.4537441627249645 18.373530346508776 2 1 3
471 1 1 0.5897 8.537159497704199 10.337762164253819 17.765909320046628 3 -12 2
470 1 1 0.5897 7.507522993039741 9.365061351586771 18.300609451611738 3 -12 2
372 1 1 0.5897 5.967833283560193 7.884329015724602 20.251029964840708 -2 5 -1
370 1 2 -1.1794 6.147548884490365 7.03619862257434 20.65690109986727 -2 5 -1
180 1 1 0.5897 5.312226014431149 9.254772593017456 18.35529774580114 -3 3 -2
174 1 1 0.5897 6.563191975895525 11.492458710571974 17.58666198099885 7 1 -1
292 1 2 -1.1794 5.027263246845999 9.250315008961273 16.356299499279473 3 -3 5
626 1 1 0.5897 6.566695448009902 10.305793319504534 21.2993072093673 2 -7 0
462 1 1 0.5897 5.714166016912088 15.210211723258121 1.1759801328729607 5 2 2
451 1 2 -1.1794 6.787874447347873 13.07777198871074 3.0822100020777157 1 0 3
453 1 1 0.5897 5.902184737984376 12.72473548007752 3.167405573932096 1 0 3
770 1 1 0.5897 8.473916065054812 13.287701157493894 2.296250705314465 5 -6 2
346 1 2 -1.1794 8.135750082227322 14.662769476728037 4.99076465100342 -4 2 -1
348 1 1 0.5897 7.941018235290175 15.419036112189678 4.437160507827034 -4 2 -1
347 1 1 0.5897 7.789857661975505 14.899843307209602 5.851284943621586 -4 2 -1
452 1 1 0.5897 6.970355307800394 13.476117805430585 3.9333037674624247 1 0 3
527 1 1 0.5897 8.71612359455893 12.805443689806655 4.946478551640884 -1 -3 4
831 1 1 0.5897 8.591688924838188 16.66361737863859 2.7707747537195377 2 3 4
472 1 2 -1.1794 4.994660822095039 14.95448491437863 4.842614368301959 3 2 0
468 1 1 0.5897 5.5950410254493725 13.503874755162453 5.767437010772003 6 -3 6
467 1 1 0.5897 5.736242034386188 11.999354339930415 5.674043235269421 6 -3 6
605 1 1 0.5897 8.640550664958557 15.296714550107065 10.923867287123354 -7 0 -2
680 1 1 0.5897 7.996040458665939 15.854321125721539 7.625821145843628 -3 -6 2
320 1 1 0.5897 7.718600229197411 12.705998213016434 8.621815716348204 -1 -7 1
466 1 2 -1.1794 5.777860543207262 12.72648784583176 6.295262044174919 6 -3 6
679 1 2 -1.1794 7.101249155906673 15.69343520600151 7.326084362108316 -3 -6 2
517 1 2 -1.1794 7.21584027606996 12.914776267232469 10.511562925945595 3 0 0
852 1 1 0.5897 6.204454400886804 15.976007062275587 8.776010233388934 0 1 0
851 1 1 0.5897 5.106977948927601 15.111894136463503 9.360057614502376 0 1 0
850 1 2 -1.1794 5.612260583891786 15.90802193340491 9.52505364185246 0 1 0
606 1 1 0.5897 7.345362956892591 15.825885763375508 10.345360440251046 -7 0 -2
321 1 1 0.5897 7.50252124687079 12.422273739684202 7.150420283826146 -1 -7 1
519 1 1 0.5897 6.582681553091663 12.249310405568687 10.78105421395046 3 0 0
319 1 2 -1.1794 8.143679221327826 12.323146986668197 7.854304205610822 -1 -7 1
681 1 1 0.5897 6.9538755587217445 16.35126898242883 6.646471722876121 -3 -6 2
814 1 2 -1.1794 5.710451037276127 14.61581652569697 12.419892688611796 0 10 -4
615 1 1 0.5897 6.045236932534895 14.70189628841409 15.265261973178902 -9 -5 3
118 1 2 -1.1794 8.466558554420777 13.27969207267992 13.518005572542672 1 -1 0
740 1 1 0.5897 8.710314710130438 15.686853713193806 15.466761224173366 3 -4 3
816 1 1 0.5897 5.718433051678289 14.189126653038146 13.276758051840856 0 10 -4
119 1 1 0.5897 8.680794431660622 12.350275079649661 13.599558848065774 1 -1 0
810 1 1 0.5897 7.742568740465434 16.09754867735932 13.07315927908305 -1 2 -2
808 1 2 -1.1794 7.811127249215681 16.498160806205686 13.93984964631204 -1 2 -2
613 1 2 -1.1794 6.025877131599781 13.756986620418921 15.113241645973654 -9 -5 3
809 1 1 0.5897 6.945577721613289 16.37571178838261 14.330020564271932 -1 2 -2
820 1 2 -1.1794 5.297296191168947 16.442589285808427 15.131240400002236 -1 3 0
614 1 1 0.5897 6.826767029406905 13.576646134702639 14.620878192641026 -9 -5 2
815 1 1 0.5897 6.509044688534262 14.308059457255215 11.9910799112527 0 10 -4
604 1 2 -1.1794 7.913243744100538 15.889558472665092 11.113351867231835 -7 0 -2
518 1 1 0.5897 7.833096553445455 12.968251710294528 11.24130882858035 3 0 0
272 1 1 0.5897 5.240613638464003 12.387991066412035 19.34327775026136 1 -4 3
325 1 2 -1.1794 8.549092232470045 13.187400520010286 19.328605690288192 2 -5 -3
548 1 1 0.5897 8.433138397711524 16.331735674645074 17.557908732368745 7 -7 9
26 1 1 0.5897 7.8880347486945 15.852644144234604 19.972868438320795 2 5 1
327 1 1 0.5897 7.8647614669665185 13.810532925743159 19.084176593638244 2 -5 -3
326 1 1 0.5897 8.144271528316803 12.327966632184543 19.210924339696156 2 -5 -3
247 1 2 -1.1794 6.084449544319336 14.423213264233953 18.575739671462326 3 -1 -2
271 1 2 -1.1794 5.516820869352313 11.957838470252044 20.152615833593398 1 -4 3
249 1 1 0.5897 6.20415313477338 15.318605372252096 18.259068223591516 3 -1 -2
248 1 1 0.5897 5.727820925750208 14.526365379511624 19.458085699192377 3 -1 -2
173 1 1 0.5897 6.0299858763939715 12.563668537565986 16.659105534839025 7 1 -1
25 1 2 -1.1794 8.033108003154418 15.912455499636708 20.917185923169583 2 5 1
27 1 1 0.5897 8.836037100381464 15.41371525839116 21.068680359378785 2 5 1
172 1 2 -1.1794 5.753694981338159 11.819428518638407 17.19401289322902 7 1 -1
771 1 1 0.5897 8.821632139699206 13.244696047678325 21.23248412685486 5 -6 1
749 1 1 0.5897 8.747931109750605 13.090162393073665 16.32013787587134 7 4 -2
460 1 2 -1.1794 5.115951405963124 14.55357860140559 21.2283152134376 5 2 1
461 1 1 0.5897 5.602835214176569 13.731124201438046 21.281702269713527 5 2 1
739 1 2 -1.1794 8.742750582053 15.096946762126318 16.21995427674518 3 -4 3
748 1 2 -1.1794 8.903688794437818 12.14586560524838 16.30062799201037 7 4 -2
207 1 1 0.5897 7.252413356227628 20.10633807400632 5.406283565835658 -5 2 0
762 1 1 0.5897 6.958572659316938 20.37403634813398 2.8765015522158874 1 -9 -3
761 1 1 0.5897 5.852353818737711 20.757281545247313 1.9164417113884895 1 -9 -3
829 1 2 -1.1794 8.021062031762908 16.824831147481987 3.522272968797822 2 3 4
281 1 1 0.5897 5.572366331034173 18.030666843553252 1.639417534777965 -4 -1 2
205 1 2 -1.1794 7.469774187117023 19.763490407530508 4.539353361461007 -5 2 0
47 1 1 0.5897 8.394133976902332 21.638975813032673 1.1463273700152388 1 -4 0
206 1 1 0.5897 8.36160605833145 19.427881342073146 4.630673100525128 -5 2 0