#include		in.partitions
include		in.temp
variable        temperature equal 262.71
variable	tempDamp equal 100.0
include		in.pressure
variable        pressure equal 7250.0
variable        pressureDamp equal 1000.0 # This is 1 ps
include		in.seed
variable        seed equal 745823

units		real
atom_style	full

read_restart	restart.lmp.${pid}
read_restart	restart.lmp.0
Reading restart file ...
  restart file = 30 Jul 2021, LAMMPS = 30 Jul 2021
  restoring atom style full from restart
  orthogonal box = (0.036596187 0.034604460 0.097479264) to (19.963405 19.965397 20.602519)
  2 by 4 by 4 MPI processor grid
  restoring pair style lj/cut/tip4p/long/omp from restart
  restoring bond style harmonic/omp from restart
  restoring angle style harmonic/omp from restart
  972 atoms
  648 bonds
  324 angles
Finding 1-2 1-3 1-4 neighbors ...
  special bond factors lj:    0        0        0       
  special bond factors coul:  0        0        0       
     2 = max # of 1-2 neighbors
     1 = max # of 1-3 neighbors
     1 = max # of 1-4 neighbors
     2 = max # of special neighbors
  special bonds CPU = 0.002 seconds
  read_restart CPU = 0.009 seconds
include 	in.setup
variable	out_freq equal 1000
variable	out_freq2 equal 10000
variable	out_freq3 equal 1000

timestep	2.0

neigh_modify    delay 7 every 1

include		in.tip4p
# This is TIP4P/Ice

# create groups ###
group ox type 2
324 atoms in group ox
group hy type 1
648 atoms in group hy

# set charges - beside manually ###
set group ox charge -1.1794
Setting atom values ...
  324 settings made for charge
set group hy charge 0.5897
Setting atom values ...
  648 settings made for charge

# ### TIP3P Potential Parameters ###
pair_style lj/cut/tip4p/long/omp 2 1 1 1 0.1577 8.5
pair_coeff 1 1*2 0.000 0.000
pair_coeff 2 2 0.21084 3.1668
bond_style  harmonic
bond_coeff  1 450 0.9572
angle_style harmonic
angle_coeff 1 55 104.52
kspace_style pppm/tip4p/omp 1.0e-5
pair_modify tail yes

thermo          ${out_freq}
thermo          1000
thermo_style    custom step temp pe etotal epair emol press lx ly lz vol pxx pyy pzz pxy pxz pyz enthalpy

restart 	${out_freq3} restart.lmp.${pid} restart2.lmp.${pid}
restart 	1000 restart.lmp.${pid} restart2.lmp.${pid}
restart 	1000 restart.lmp.0 restart2.lmp.${pid}
restart 	1000 restart.lmp.0 restart2.lmp.0


include         in.dump
dump            myDump all atom ${out_freq2} dump.water.${pid}
dump            myDump all atom 10000 dump.water.${pid}
dump            myDump all atom 10000 dump.water.0
dump            myDump2 all dcd ${out_freq2} dump.dcd
dump            myDump2 all dcd 10000 dump.dcd
dump_modify     myDump append yes
dump_modify     myDump2 append yes


variable natoms 	equal  "count(all)"                        # NUMBER ATOMS
variable H      	equal  "enthalpy/v_natoms"                 # ENTHALPY-per-atom
variable Vol      	equal  "vol/v_natoms"                 # volume-per-atom
fix AVG all 		ave/time ${out_freq} 1 ${out_freq} v_Vol v_H file vol_enthalpy.dat
fix AVG all 		ave/time 1000 1 ${out_freq} v_Vol v_H file vol_enthalpy.dat
fix AVG all 		ave/time 1000 1 1000 v_Vol v_H file vol_enthalpy.dat


timer           timeout 02:55:00 every 1000
New timer settings: style=normal  mode=nosync  timeout=02:55:00

fix 		1 all shake 1e-6 200 0 b 1 a 1
       0 = # of size 2 clusters
       0 = # of size 3 clusters
       0 = # of size 4 clusters
     324 = # of frozen angles
  find clusters CPU = 0.000 seconds
fix             2 all nph aniso ${pressure} ${pressure} ${pressureDamp}
fix             2 all nph aniso 7250 ${pressure} ${pressureDamp}
fix             2 all nph aniso 7250 7250 ${pressureDamp}
fix             2 all nph aniso 7250 7250 1000
fix             3 all temp/csvr ${temperature} ${temperature} ${tempDamp} ${seed}
fix             3 all temp/csvr 262.71 ${temperature} ${tempDamp} ${seed}
fix             3 all temp/csvr 262.71 262.71 ${tempDamp} ${seed}
fix             3 all temp/csvr 262.71 262.71 100 ${seed}
fix             3 all temp/csvr 262.71 262.71 100 745823


run             250000
PPPM initialization ...
  extracting TIP4P info from pair style
  using 12-bit tables for long-range coulomb (../kspace.cpp:340)
  G vector (1/distance) = 0.37182088
  grid = 24 24 24
  stencil order = 5
  estimated absolute RMS force accuracy = 0.0035542522
  estimated relative force accuracy = 1.0703525e-05
  using double precision FFTW3
  3d grid and FFT values/proc = 3211 432
Last active /omp style is kspace_style pppm/tip4p/omp
Neighbor list info ...
  update every 1 steps, delay 7 steps, check yes
  max neighbors/atom: 2000, page size: 100000
  master list distance cutoff = 10.8154
  ghost atom cutoff = 10.8154
  binsize = 5.4077, bins = 4 4 4
  1 neighbor lists, perpetual/occasional/extra = 1 0 0
  (1) pair lj/cut/tip4p/long/omp, perpetual
      attributes: half, newton on, omp
      pair build: half/bin/newton/omp
      stencil: half/bin/3d
      bin: standard
Per MPI rank memory allocation (min/avg/max) = 10.18 | 10.19 | 10.19 Mbytes
Step Temp PotEng TotEng E_pair E_mol Press Lx Ly Lz Volume Pxx Pyy Pzz Pxy Pxz Pyz Enthalpy 
21000000    268.89855   -4663.6785   -4145.0851   -4663.6785            0    8109.9753    19.926809    19.930792    20.505039    8143.7216    7940.9993    7947.3752    8441.5514    324.68429   -269.29183   -250.29054   -3181.8809 
21001000    262.58701   -4697.9885   -4191.5674   -4697.9885            0    9118.8532    19.671778    19.890279    20.692302    8096.4249    10525.153    8756.1651    8075.2418   -261.12061    702.62627    1143.5522    -3114.831 
21002000    263.40851   -4690.7776   -4182.7722   -4690.7776            0    7710.5702    20.018203    19.673814    20.743053     8169.328    8731.9044    8574.0519    5825.7542   -87.154317    652.30378   -1646.2721    -3264.125 
21003000     259.8473   -4695.2823   -4194.1449   -4695.2823            0    6564.9138    19.591663    20.169094    20.619249    8147.6157     8313.059    4825.4614    6556.2211   -443.64076    72.003942    282.09292   -3414.0716 
21004000    248.86603   -4713.9921    -4234.033   -4713.9921            0     5931.553    20.108746    19.761008    20.710139    8229.5693    5680.6258    7812.1638    4301.8693     230.6812    -637.6524   -969.54242   -3522.1291 
21005000    271.89619   -4717.4793   -4193.1046   -4717.4793            0    6137.6876    19.820053    20.047638    20.665725    8211.4278    6968.1517    5177.5711    6267.3399    471.11001    -772.8917   -397.45477   -3458.0843 
21006000    268.31385   -4684.8061   -4167.3403   -4684.8061            0    5405.1083    20.158371    19.741434    20.570149    8185.9968    5215.9168    4439.0697    6560.3385   -310.39055   -136.86468   -119.76954   -3522.0548 
21007000    262.41173   -4686.3328   -4180.2497   -4686.3328            0    8588.2545    19.676688    20.079297    20.500795    8099.7422    9429.6395    7634.3211     8700.803   -416.18404   -292.80991    375.44858   -3165.7499 
21008000    273.69504   -4714.7039   -4186.8601   -4714.7039            0    6564.6734    20.155423    19.683671    20.742342    8229.1655    5966.0107    7079.4008    6648.6088   -95.021934   -321.01132   -65.233619   -3399.0077 
21009000    273.22219   -4695.6082   -4168.6762   -4695.6082            0    7806.6289    19.993055    20.010898    20.459939    8185.5916    8145.4555    6938.0298    8336.4014     291.8671   -1484.5187    1187.2355   -3236.7329 
21010000     267.9061   -4690.2899   -4173.6104   -4690.2899            0    7456.5463    20.045966    20.030821    20.394978    8189.3417    7437.4588    7256.9937    7675.1863   -195.42292   -11.076091    449.14635   -3283.0516 
21011000    261.87794   -4701.5552   -4196.5015   -4701.5552            0    8053.2778    19.782879    19.892174    20.740604    8161.9354    11071.692    5907.4506    7180.6905    739.60774    1120.3318     479.6078    -3237.892 
21012000    268.09266   -4658.3348   -4141.2956   -4658.3348            0    6842.5507    20.009996    19.754456    20.744585    8200.0561    7077.9727     6294.825    7154.8544    454.56704   -515.62356    433.10594    -3322.999 
21013000    281.98907    -4690.589   -4146.7493    -4690.589            0     7321.668    20.040207    19.824364    20.618242    8191.3051    6812.3928    8191.7697    6960.8413   -80.162025   -789.21833    208.04816   -3272.0898 
21014000    272.44819   -4733.0203    -4207.581   -4733.0203            0    7833.1225    20.017861    19.931861    20.442263    8156.3248    7908.6959    6769.1883    8821.4833   -368.06754   -361.01756   -56.017098   -3275.8183 
21015000    253.67713   -4687.4155   -4198.1778   -4687.4155            0    7343.2619    19.913852    19.844266    20.789756    8215.6077    8534.7596     6539.457    6955.5691    695.69895   -1092.2157   -296.94339    -3318.336 
21016000    251.98335   -4672.5538   -4186.5827   -4672.5538            0    7973.0012    19.982933    19.864784    20.550081    8157.4909    8544.6969     6508.541    8865.7658   -247.80905   -874.93535     436.8091   -3238.0456 
21017000    260.01031   -4705.3633   -4203.9116   -4705.3633            0    6588.2439    19.917336    19.976295     20.74708    8254.7358     4590.999    8258.9917    6914.7411     168.0656    53.088155   -827.48317   -3410.7736 
21018000    256.57885   -4717.4396   -4222.6057   -4717.4396            0    6805.9517    20.071113    19.915662     20.56029    8218.5547     6631.055    7719.9291    6066.8709   -219.44908    57.649864    938.21893   -3406.8499 
21019000    262.98574   -4700.1688   -4192.9787   -4700.1688            0    5753.6513    19.917463    20.062626    20.521531    8200.3342    8304.5087    3326.0751      5630.37   -381.55855    109.60266   -105.02339   -3504.8796 
21020000    259.58498   -4704.5926   -4203.9611   -4704.5926            0    6073.8888    20.065925    19.884602    20.588289     8214.788    7088.6323    4346.0407    6786.9933    217.83061   -1090.4202    2930.6113   -3476.2834 
21021000    261.77155   -4714.3769   -4209.5284   -4714.3769            0    7502.5838    20.021302    20.004355    20.400689     8170.746    6820.2637    7819.6669    7867.8209   -145.67363     469.0298    1090.8083   -3315.5059 
21022000    263.17588   -4696.5047   -4188.9479   -4696.5047            0    6421.6552    20.048151    19.698952    20.730063    8186.8733    5549.5309    8129.0303    5586.4043   -547.18897   -257.33092   -98.911045   -3422.2206 
21023000    263.85464    -4732.524   -4223.6581    -4732.524            0    6136.6164    19.934695    20.055884    20.531234      8208.55    5921.7729    5642.7555    6845.3208    533.14743   -657.76263   -392.66953   -3489.0236 
21024000    270.82974   -4667.1518   -4144.8339   -4667.1518            0    7105.2273    20.118055      19.8227    20.583159    8208.4435    5895.9231    7827.6552    7592.1037     226.0422   -1026.6015   -917.59588   -3294.2548 
21025000    266.03137   -4661.0146   -4147.9508   -4661.0146            0    9991.4257    19.795349    19.977338    20.497774    8106.0163     9875.726     9008.498    11090.053   -729.84793    481.30955   -1293.3877   -2966.7851 
21026000    281.29105   -4691.0344   -4148.5409   -4691.0344            0    8002.4719    19.949901    19.771015    20.602146    8126.1003    8645.0652    7853.0576    7509.2928   -537.15245    256.48485    1051.2165   -3200.1613 
21027000    269.17886   -4680.4263   -4161.2922   -4680.4263            0    7929.7301    19.897412    20.045216    20.585465    8210.4702    9338.3931    7174.8902     7275.907   -960.59369     156.2174   -1253.6196   -3211.7762 
21028000    253.63651   -4678.0374   -4188.8781   -4678.0374            0    8334.2381    20.117881    19.906384    20.205818    8091.9098    8967.5254    6853.8239    9181.3651    375.69737    1362.2825   -413.72976   -3205.3362 
21029000    262.94854   -4679.8407   -4172.7223   -4679.8407            0    7653.3307    19.810911    20.068255    20.573685    8179.4884    10681.814    4109.9981    8168.1804   -583.26272    1064.9575   -318.04491   -3259.7607 
21030000    270.74157   -4697.1049    -4174.957   -4697.1049            0    5626.3976     19.98623    19.853212    20.735666    8227.7223    4331.4115    6647.7144     5900.067    7.2191059    -41.11643     912.4105   -3499.8293 
21031000    267.23886   -4663.2181   -4147.8255   -4663.2181            0     7669.928    19.907416    19.845907    20.649715    8158.3043    7502.4655    7311.0316    8196.2869    621.95028    334.26267   -423.12025   -3235.2536 
21032000    258.27609   -4671.1969   -4173.0898   -4671.1969            0    7183.3488    20.079318    19.780219    20.499579    8141.8856    5684.1663    8518.8458    7347.0343   -408.68681   -769.22441    745.96904   -3320.1314 
21033000    266.11627   -4696.4015   -4183.1739   -4696.4015            0    8778.8896     19.92668    19.911718    20.463395     8119.352    9656.3665    8687.2988    7993.0036    -350.5029   -2124.4935    43.620622   -3143.6443 
21034000    250.51649   -4689.5172   -4206.3751   -4689.5172            0    7880.4528    19.744087    20.080914    20.601261    8167.9737    9108.2029    7960.3491    6572.8065   -490.89652    1638.8685    64.363709   -3267.6436 
21035000    248.59996   -4705.6169    -4226.171   -4705.6169            0    9582.4396     19.93596    19.686623    20.585143    8079.0867    8284.4746    11017.745    9445.0993   -116.73735    2642.7664   -165.58516   -3097.1182 
21036000    251.25287   -4695.9314   -4211.3691   -4695.9314            0    7429.6203    19.884858    19.702152    20.733985    8123.0465    8346.7276    5532.1135    8410.0197    395.38669    186.73056    1237.7343   -3331.2095 
21037000    257.78198   -4691.6252    -4194.471   -4691.6252            0    6778.3848       19.838    19.938217    20.620246    8156.0154    6548.5075     7259.168    6527.4788   -246.43667   -68.648887    -222.6006   -3388.2016 
21038000    268.85804   -4673.2858   -4154.7704   -4673.2858            0    9549.3079    20.087363    19.660144    20.508951    8099.4045    9597.8021    9699.3843    9350.7371    290.79454    1367.5104   -594.60368   -3026.7918 
21039000    263.04334   -4721.7649   -4214.4637   -4721.7649            0    6715.4723    19.675278    19.903759    20.849699    8164.9921    7475.5365    6828.5308    5842.3495    243.65299    -1187.181   -276.32413   -3414.7985 
21040000    262.91837   -4701.5974   -4194.5372   -4701.5974            0     6763.666     19.92141    19.820935    20.585361    8128.3559    7190.8339    7458.6522    5641.5119   -366.32057    237.58419   -1217.5243    -3392.747 
21041000    262.63165   -4686.6694   -4180.1622   -4686.6694            0    7715.5299    19.931962     20.05544    20.376643    8145.4459    6709.7219    7969.4897    8467.3782    416.13452       988.55   -623.29491   -3263.6115 
21042000    265.73054   -4702.0277    -4189.544   -4702.0277            0    8603.7986    19.821568    20.066685    20.565003    8179.7951    8332.5577    8122.3155    9356.5226    508.96516    1544.3078    673.06879   -3163.1632 
21043000    272.19287   -4699.6483   -4174.7014   -4699.6483            0    6440.7587    19.848526     19.70667    20.916909    8181.6148    8648.6876     5351.992    5321.5963   -1.4747931   -1388.4924   -407.68051   -3406.1872 
21044000    260.81225   -4729.7537   -4226.7553   -4729.7537            0    7502.4587    19.988049    19.954648    20.474443     8166.323    5192.8373    8772.5431    8541.9957   -1098.4988   -314.07119    1002.0844   -3333.2317 
21045000     258.4077   -4721.6222   -4223.2612   -4721.6222            0    7242.8913    20.187201    20.004869    20.190152    8153.6377    3397.5764    9700.0274    8631.0702   -549.25297    1635.1484   -224.15979   -3361.9913 
21046000     261.6108   -4715.0311   -4210.4926   -4715.0311            0    6350.7747    19.861431    20.080431    20.516806    8182.6377    7107.9393    5251.3863    6692.9987   -820.18831    1164.7892    223.89191   -3452.6205 
21047000    263.71551   -4706.3111   -4197.7136   -4706.3111            0     7149.485     19.83679    19.929301    20.809121    8226.5397    8554.0412    6639.7067    6254.7072   -676.96604    916.43186    970.60449   -3339.9495 
21048000    260.01402   -4720.1345   -4218.6756   -4720.1345            0    7236.7675    19.999081    19.798966    20.599901    8156.7602    6598.1503    7402.5327    7709.6196    345.48118    320.47042    1216.2607   -3357.8044 
21049000    271.54371   -4708.1557   -4184.4608   -4708.1557            0    6078.2212    19.947716    19.971703    20.648229    8226.0452    5659.1914    5740.7462     6834.726    462.71011    850.35739    484.19685   -3455.2662 
21050000    254.12424   -4709.6223   -4219.5223   -4709.6223            0    7127.4624    19.926808    19.921593    20.547885    8156.9713     6663.859    7314.3659    7404.1623    378.63737   -491.01615    733.39717   -3371.6318 
21051000    284.69184   -4673.8493   -4124.7972   -4673.8493            0    7761.0399    20.141287    19.790749    20.582711    8204.4982    5959.6518    9820.8183    7502.6495   -652.61211     601.1831   -152.20762   -3196.1562 
21052000    256.67896    -4722.527      -4227.5    -4722.527            0    5398.5968    19.889181    20.177202    20.630934    8279.3592    6988.9582    4295.7467    4911.0856   -350.98474   -300.98041   -426.04834   -3575.6413 
21053000    241.81204   -4701.1042   -4234.7493   -4701.1042            0    6532.7539    19.866419    20.016054    20.650113    8211.4621    5053.5647    8227.8498    6316.8471    678.78277   -35.565294   -255.12371   -3452.4145 
21054000    262.49105   -4665.9215   -4159.6854   -4665.9215            0    5676.7512    20.104777    19.967569    20.483972    8223.1578    5039.7524    7364.7388    4625.7624    1356.0276   -1249.5652    1.7453207   -3478.8935 
21055000    267.11116    -4694.086   -4178.9396    -4694.086            0    7583.7711    19.843543    19.975101    20.415432     8092.203    6695.4026    8751.5062    7304.4046    87.372864   -303.76144   -373.29686   -3283.9297 
21056000    274.69687   -4681.4221   -4151.6461   -4681.4221            0     7198.514    19.953868    19.912821    20.588041    8180.4067    5385.8462    7880.1748    8329.5211   -1081.2993    2394.1495    373.18629   -3292.8429 
21057000    249.59151   -4707.0296   -4225.6713   -4707.0296            0     9042.779    19.803074    20.192592    20.282375    8110.4227     9871.906    7728.8149    9527.6161   -950.46059   -62.665304    1230.8901   -3156.0716 
21058000    271.87738   -4715.7994    -4191.461   -4715.7994            0    6940.4699     20.03775    19.759937      20.6311    8168.7742    5469.2992    8570.7182    6781.3922   -607.57752    310.81462    334.74517   -3364.6207 
21059000    262.14865   -4708.6703   -4203.0945   -4708.6703            0    8265.8741    19.906389    19.799374    20.680495    8150.8869    8808.1359    8363.0057    7626.4808   -762.32748    75.728437    -759.2291   -3220.5109 
21060000    267.41364    -4712.856   -4197.1264    -4712.856            0    6702.9507    20.020207    19.953455    20.502847    8190.3193    6480.8749    6824.6907    6803.2866   -197.24761    625.68374    553.61081   -3396.4763 
21061000    264.40986   -4691.4175   -4181.4809   -4691.4175            0    9093.9478    19.927886    20.035795    20.462998    8170.2826    10796.561    7276.4522    9208.8298   -175.43901    353.75391   -1212.2464   -3097.8898 
21062000    267.37691   -4663.1279    -4147.469   -4663.1279            0    6555.6809     20.06532    19.696796    20.771747    8209.4618    6682.5752    6351.3352    6633.1323   -10.111241   -260.97902     299.5527   -3362.5798 
21063000    265.69469   -4670.8754   -4158.4609   -4670.8754            0      8142.86    19.710069     19.91542    20.780509    8157.0627    10341.662    6541.0115    7545.9065    358.29104   -847.71608    653.17014   -3189.7668 
21064000    260.95505   -4687.4518    -4184.178   -4687.4518            0    5357.6821    20.027615    19.899644    20.518829    8177.6236    5773.0154    5033.8922    5266.1388    528.88992    1060.6231   -325.91898   -3545.2088 
21065000    266.18034   -4709.2939   -4195.9427   -4709.2939            0    8629.4518    19.865237    20.037257    20.483473     8153.341    8453.7709    8975.0854    8459.4993    85.296624     75.16315   -179.65146   -3169.8309 
21066000    268.06964   -4672.7688   -4155.7739   -4672.7688            0     4582.432     20.12876    19.981873    20.519099    8252.9936      4035.89    4136.5059    5574.9002    94.450423    49.336004   -236.32178   -3604.2258 
21067000    253.83161   -4696.3954   -4206.8598   -4696.3954            0    7751.4314    19.622463    19.981681    20.819609     8163.156    10296.248    7448.9261    5509.1204    70.242711   -766.05999    -366.7792   -3284.0421 
21068000    264.28744   -4705.7701   -4196.0696   -4705.7701            0    6837.5278    20.019265    19.749207    20.768058    8210.9551    7055.7202    8737.5976    4719.2657    44.274464   -1014.9992    848.02176   -3377.2869 
21069000    250.25171   -4705.9321   -4223.3006   -4705.9321            0    6986.0091    19.855998    20.002612    20.632108    8194.4922    6949.2662    7175.4617    6833.2993     843.6134    1112.3211    126.19811   -3388.4148 
21070000    273.05432   -4704.2654   -4177.6571   -4704.2654            0    6568.1535    20.027312    19.968922     20.40484    8160.3818    6474.0623    6103.9561     7126.442   -473.20594    -624.1793     -513.183    -3395.976 
21071000    254.01315   -4671.1634   -4181.2777   -4671.1634            0    7530.0907    20.044598    19.794955    20.615838    8179.9917    6772.6496    9101.2717    6716.3507   -1726.5973   -25.559622   -1040.6632    -3282.962 
21072000    285.96972   -4686.8951   -4135.3785   -4686.8951            0    7660.5213    19.867142    19.897655    20.804101    8224.0598    7262.4968    6396.1324    9322.9347   -441.63498    1131.2552   -910.36925   -3216.5796 
21073000    248.46745   -4707.3795   -4228.1891   -4707.3795            0    6121.0283    20.022464    19.900319    20.567795    8195.3084    5205.3076    6336.1896    6821.5877   -178.82369   -132.74117    141.32126   -3496.6028 
21074000    259.81516    -4725.858   -4224.7826    -4725.858            0    7308.7706    20.122206    19.812082    20.613153    8217.6972    5837.9046    9361.8664    6726.5407   -553.42781    634.42373    580.63948   -3348.8507 
21075000    258.88424   -4703.9441   -4204.6641   -4703.9441            0    7413.8389    19.824126    20.018807     20.73045      8226.99    7715.7737    6679.2818    7846.4612   -305.28031   -231.24712   -282.85613   -3315.1353 
21076000    267.72709   -4704.9449   -4188.6107   -4704.9449            0    6239.8963    20.128943    19.883624    20.499675    8204.7148      6589.98    5275.7041    6854.0047   -1091.2668   -199.27965   -1635.1171   -3441.9612 
21077000    260.25266   -4728.8412   -4226.9221   -4728.8412            0     8305.081    19.808978    19.985633    20.437869    8091.2497    8554.5379     7022.246     9338.459   -754.39438    571.74148     1200.126   -3246.9011 
21078000    280.39087   -4686.6336   -4145.8762   -4686.6336            0    7412.2672    20.062166    19.765863    20.569379    8156.7054    5586.9511    9760.6588    6889.1916   -853.35528    65.992945   -562.79934   -3264.1338 
21079000    257.22603   -4704.5937   -4208.5117   -4704.5937            0    7725.7128    19.847815    20.170012    20.334727    8140.6144    6541.1319    7596.1153    9039.8911    429.30692   -1098.4104   -294.28757   -3291.2956 
21080000    264.26187   -4679.8531   -4170.2018   -4679.8531            0      7497.29    19.993433    19.895246    20.572524    8183.2206    7424.8769    7582.0336    7484.9594    -585.9292    210.97081    778.47704   -3275.4462 
21081000    272.49858   -4707.8272   -4182.2908   -4707.8272            0    6734.2104    20.123548    19.846317     20.46984    8175.2102     6257.351    6713.7813    7231.4989    163.66135   -27.154188   -485.16605   -3379.3907 
21082000    256.55605   -4717.9784   -4223.1885   -4717.9784            0    5949.4164    20.064224    20.019966    20.432536    8207.4447    3550.3279    7650.1182    6647.8031    132.27785   -405.40578   -24.592221   -3511.0602 
21083000    264.62548   -4701.2734   -4190.9209   -4701.2734            0    6193.6874    19.810084    19.848773    20.882615    8211.1666    7471.6843    6091.1111    5018.2667   -179.95073    921.32521   -993.35013   -3449.2179 
21084000     272.0539   -4670.3938    -4145.715   -4670.3938            0    7505.9419    20.093489    19.845777    20.517296    8181.7006    8566.7979    5268.3032    8682.7246   -183.92968     1047.732   -1111.3759   -3250.0932 
21085000    270.91912   -4730.4738   -4207.9835   -4730.4738            0    7556.6656    19.989556    20.015249    20.420265    8170.0653    6628.6545    7050.2304    8991.1119     212.2617    79.787372   -113.15912   -3307.5915 
21086000    255.68374   -4714.6374   -4221.5298   -4714.6374            0    6099.9792    20.163393    19.878746    20.672129     8285.864    2924.9252    9432.2377    5942.7748   -133.76924    1007.2328    600.32874   -3484.4033 
21087000    256.89262   -4699.3298   -4203.8908   -4699.3298            0    7316.6798    19.905641    19.955428    20.562868    8168.0974    7193.6366    7915.8061    6840.5967   -31.561083   -509.41657   -933.09026   -3332.3036 
21088000    267.61932   -4703.4363   -4187.3099   -4703.4363            0    7118.5366    20.097058     19.91599    20.378517    8156.5587    8548.0769    4937.6643    7869.8685    442.07632   -630.17905    220.79052   -3340.5241 
21089000    256.16962   -4725.8882   -4231.8436   -4725.8882            0    8283.0475    19.816918    19.898744    20.637682    8138.0938    8443.2608    8546.3298     7859.552   -364.78517    775.50294    221.97494   -3248.7638 
21090000    247.69267   -4684.6271   -4206.9309   -4684.6271            0    6446.9925    20.158252    19.926295    20.535349    8248.6241    6888.2903    5638.6068    6814.0803    213.52962    32.589251    474.29728   -3431.3724 
21091000    253.42487   -4688.8915   -4200.1403   -4688.8915            0    7835.3875    19.871538    20.208071    20.247322    8130.6248     6929.255     8342.204    8234.7035   -778.92076    1214.6202   -45.411457    -3271.045 
21092000    260.18007   -4704.4541   -4202.6749   -4704.4541            0    7890.6254    20.017897    19.885397    20.513585    8165.7162    5974.6638    9921.0989    7776.1135    28.004918    130.09963    442.15379   -3262.9914 
21093000    252.40901   -4647.1359   -4160.3439   -4647.1359            0    5847.5532    19.593137    20.163833    20.726295    8188.3943    6197.5365    5549.6152     5795.508   -189.34099   -1.5814966    -463.4183    -3462.033 
21094000    264.91013    -4713.231   -4202.3295    -4713.231            0    5867.8149    19.846405    20.108292    20.621584    8229.6065     5372.076    5214.8199    7016.5488   -92.889394    4.6668899    1063.6168   -3498.0722 
21095000    250.46631   -4710.4868   -4227.4414   -4710.4868            0    8663.2653    19.868457    19.855574    20.437145    8062.4456    8283.0654    9083.8893    8622.8412   -388.37642   -576.06928   -534.72093   -3208.7931 
21096000    269.31757   -4700.0588   -4180.6572   -4700.0588            0    5591.8378    19.878753     20.03708    20.588449      8200.63    6503.2334    4269.8139    6002.4661    -796.1417    797.62553    46.669817   -3511.8858 
21097000    262.08619     -4699.85   -4194.3948     -4699.85            0    7039.0192    19.996738    19.741936    20.752149    8192.4151    8474.1223    6686.6455    5956.2897    447.53203   -56.392373    2231.3488    -3353.387 
21098000    261.59559    -4701.416   -4196.9069    -4701.416            0    6379.3694    19.762103    20.087608    20.610063    8181.6461    4847.1631    7451.4358    6839.5093    796.10239   -192.41263    1003.2047   -3435.7147 
21099000    275.93605   -4723.2225   -4191.0566   -4723.2225            0    8662.1391     20.06674    19.643346    20.552968    8101.5262    8132.7679    9244.0573    8609.5921    335.43365    368.91403    1167.1796   -3167.6037 
21100000    264.75252   -4701.1089   -4190.5114   -4701.1089            0    8593.6756    19.709514    19.923011    20.772902     8156.955     8768.117    8139.9611    8872.9487    180.63301    187.25848    623.51551   -3168.2007 
21101000    245.66038   -4709.4532   -4235.6765   -4709.4532            0    6349.0461    19.939154    20.117463    20.431946    8195.7686      5952.47    7021.4674     6073.201    753.86231   -432.24239    1875.8115   -3476.7949 
21102000    272.40259   -4720.4081   -4195.0568   -4720.4081            0    7267.8809    20.057893    19.908074    20.522799    8195.0411    7049.4125      6321.88    8432.3501    979.27706     198.2803    -225.3881   -3326.4268 
21103000    257.44569   -4677.5309   -4181.0252   -4677.5309            0    4845.0289    20.082532    20.077954     20.47863    8257.3145    4887.6636    3494.6395    6152.7837    448.63492   -367.42772    602.66137   -3597.5652 
21104000    266.17198   -4692.7747   -4179.4397   -4692.7747            0    6626.9115    19.804699    19.983327    20.673606    8181.8645    5182.3829    8142.3413    6556.0104    168.46049    992.68834    534.54309   -3388.6894 
21105000    269.49745   -4654.6255    -4134.877   -4654.6255            0    6788.0845    19.958205    19.903221    20.568766    8170.5837    8026.4935    7543.5627    4794.1974   -113.38274   -228.88125    1496.0228   -3326.0117 
21106000    256.17352    -4702.651   -4208.5988    -4702.651            0    8451.1193    19.811947    19.981805    20.440386    8091.9088    11394.121    6336.2698    7622.9669   -855.26531   -1291.1538   -238.77582   -3211.2637 
21107000     262.1404   -4694.9491   -4189.3893   -4694.9491            0    6217.4994     19.73421    20.099827    20.694874     8208.709    7073.1584    5528.2735    6051.0662    -1053.119   -362.62548    108.36825   -3445.0576 
21108000    259.96875   -4670.3255   -4168.9539   -4670.3255            0    7067.5264    20.172505    19.826837    20.463421    8184.4879    6133.9479    7932.1616    7136.4696   -129.67621   -1451.8691    1808.7192   -3325.3573 
21109000    264.32045   -4701.1131   -4191.3489   -4701.1131            0    6945.6588    19.925883    20.000759    20.547076    8188.6834    10555.872    2341.1094    7939.9948    792.85728   -1487.3574    1482.5488   -3361.8737 
21110000    266.00466   -4678.6064    -4165.594   -4678.6064            0    8146.2325    19.857146    19.950511    20.569672    8148.8855    5190.2392    11239.206    8009.2525    187.20709     658.8419    373.47916   -3197.4702 
21111000    269.34108   -4676.5975   -4157.1506   -4676.5975            0    7583.2938    19.674242    20.044847     20.77985    8194.8903    8766.0824    7286.5312    6697.2679    390.42675    338.84838    897.00686   -3250.8403 
21112000    264.82985   -4687.5618   -4176.8151   -4687.5618            0    6168.3839    20.031674    19.924917    20.525316    8192.2582    7325.4135    5353.4697    5826.2686    6.8402376   -609.57731    188.47407   -3439.8433 
21113000    259.88964    -4718.937    -4217.718    -4718.937            0    6177.2881    20.173587    19.848429     20.43118    8180.9303    6566.9623    5124.8063    6840.0957    349.89362    -927.9392   -423.43266   -3480.7028 
21114000     252.2984    -4668.619   -4182.0403    -4668.619            0    7175.5125    19.779917    19.966541    20.775194    8204.8833    7334.1065     6277.952     7914.479     1120.744   -572.34641   -428.19144   -3323.4198 
21115000    254.30197   -4684.0543   -4193.6115   -4684.0543            0    8376.0749    19.961926    19.662348    20.814804    8169.7757    8292.0294    9138.0588    7698.1364    101.82395    872.48894     596.7417   -3195.6207 
21116000    258.06085   -4710.6674   -4212.9753   -4710.6674            0    7586.8405    19.877916    19.930224    20.447628    8100.7639    9066.0032    6907.4368    6787.0814    64.502134   -730.92923    832.03105   -3316.6559 
21117000    250.71052   -4705.5018   -4221.9855   -4705.5018            0    5442.5182     20.11095    19.904001    20.535279    8220.0334    4928.5059    5143.9279    6255.1207    163.77552   -588.94852   -110.56947   -3569.5323 
21118000    256.46483   -4697.4804   -4202.8664   -4697.4804            0    7716.7545    19.983661    19.815957    20.450343    8098.2409    8114.2796    6824.8794    8211.1046    757.07266    1617.2846   -588.81801   -3291.4827 
21119000    256.76739   -4725.0924   -4229.8949   -4725.0924            0    6914.2956    20.003437    20.115164    20.370292    8196.4439    7199.4077    5868.0981    7675.3811    427.34693   -297.95187    53.867478   -3403.3826 
21120000    265.45694   -4704.1179   -4192.1618   -4704.1179            0    8436.1537    19.992065    19.834767     20.63722    8183.4412    9467.9803    7838.1553    8002.3253   -188.03174     644.4756    830.41117   -3185.3314 
21121000    259.47288    -4724.576   -4224.1607    -4724.576            0    6543.3693    19.743654    20.032543    20.650898    8167.7522    6827.7144     7179.194    5623.1995    1162.0043    625.52652    458.17591   -3444.7258 
21122000    264.60729   -4671.7734    -4161.456   -4671.7734            0    8932.2809    20.047926    19.504355    20.881715    8165.2072    6938.1379     12542.08    7316.6244   -224.67467    837.95705   -933.15127   -3097.7895 
21123000    270.36291   -4723.1039   -4201.6863   -4723.1039            0    6168.2194    20.013149    19.816449    20.697428    8208.3837    6728.5622    7117.2544    4658.8417    470.18615   -157.80482   -1398.9707   -3463.2835 
21124000    267.70945   -4699.7758   -4183.4756   -4699.7758            0    6692.0432    19.903832    20.059007    20.519306    8192.3558    8709.0856    4565.2455    6801.7984   -1228.7341   -645.68457    692.96394   -3383.9296 
21125000    271.94143   -4683.8161   -4159.3542   -4683.8161            0    7367.4522    20.376856    19.643463    20.451029    8185.9746     4562.937    7663.2431    9876.1764    214.91591    2466.4479    216.72115    -3279.798 
21126000     251.8282   -4712.4374   -4226.7656   -4712.4374            0    7267.7863    19.747869    19.893367    20.744696     8149.587    7938.4293    8343.1489    5521.7807   -93.089887    270.74607   -212.02941   -3362.9647 
21127000    252.40231   -4675.3004   -4188.5213   -4675.3004            0    7822.2768    19.889845    19.790887    20.603059    8110.1403    7863.9146     8113.574    7489.3416    1259.5372    201.11319   -687.45117   -3263.3174 
21128000    258.39486   -4702.3861   -4204.0499   -4702.3861            0    7599.8864    19.885956    19.960929    20.484237    8131.0568     8485.621    6564.1739    7749.8642   -267.24979    1495.9656    575.64425   -3302.8316 
21129000    283.24083   -4698.7946   -4152.5409   -4698.7946            0    6708.5793    20.032448    19.918478    20.551741    8200.4705    5662.9302    7416.1529    7046.6547    906.30408    694.41566    447.85676   -3350.2253 
21130000    255.87322   -4728.9367   -4235.4637   -4728.9367            0    7563.0341    19.797419    19.866691    20.699804    8141.4233    8329.4942    8046.0099    6313.5981    561.07575    649.58298    1539.4176    -3337.472 
21131000    248.85232   -4719.6064   -4239.6738   -4719.6064            0    6665.3185    19.860293    19.917286    20.752103    8208.7666    6919.6655    7975.3357    5100.9542    380.01109   -1879.0455    1091.8634   -3441.7256 
21132000     265.7698   -4686.2621   -4173.7026   -4686.2621            0    5016.5416    20.173462    19.983727    20.564124    8290.2406    3727.3719    5187.2427    6135.0101    345.17411    358.64282   -529.09599   -3567.1794 
21133000    265.30903   -4671.3496   -4159.6788   -4671.3496            0    7271.4697    20.278889    19.711361    20.358278    8137.7027    5742.3523    7609.8141    8462.2428    1045.5658   -194.17712   -118.66167   -3296.7004 
21134000    253.06002   -4697.4289   -4209.3814   -4697.4289            0    7085.4156    19.999313    19.676789    20.719399    8153.5449    6718.7619    6685.4491    7852.0357    668.57452    82.253959    734.34351   -3366.8469 
21135000    276.45347   -4725.1854   -4192.0216   -4725.1854            0    8422.6249    19.630731    19.824264    20.852504    8115.0604    9269.4982    7842.2835    8156.0928    260.04132   -222.75713    -653.8787   -3195.2054 
21136000    271.65333    -4695.244   -4171.3377    -4695.244            0    8268.0051    19.970528    19.655435     20.68877    8120.9506    8194.7776    8251.6248    8357.6129    716.87554   -1772.8881    244.87556   -3192.1105 
21137000      257.851   -4698.5216   -4201.2342   -4698.5216            0    9427.6069    20.089096    19.830891     20.36012    8111.1597    6502.8446    11216.702    10563.274   -1075.5675      516.995   -741.45315   -3086.0148 
21138000    261.18233   -4707.2372   -4203.5251   -4707.2372            0    5435.7307    20.070914    20.033182    20.500301    8242.8486    4340.9488    6752.4751    5213.7681    314.41742    79.309014   -104.28706    -3550.077 
21139000     243.9596   -4712.5862   -4242.0896   -4712.5862            0    6431.1766    19.909207     19.90571    20.708381    8206.8745    3247.4717    8791.4533    7254.6048    339.02395   -711.71954    1542.6809   -3472.3495 
21140000    263.18194   -4687.7137   -4180.1452   -4687.7137            0    4941.0917     20.02413    19.922026     20.75213    8278.4659    3880.1199     5588.033    5355.1223   -732.85627   -196.48435    823.62837   -3583.5927 
21141000     256.0785   -4688.8594   -4194.9905   -4688.8594            0    7601.4298    19.980376    19.992964    20.386724    8143.8218    6983.9798    7073.8746     8746.435    150.26883    347.21998    639.80802   -3292.1741 
21142000    253.64752    -4689.271   -4200.0904    -4689.271            0    6638.0399    19.982751    19.959847    20.557448    8199.3924    6789.3464    6123.5034    7001.2698   -224.83173    155.50936    59.151265   -3406.3154 
21143000    267.60772   -4724.8853   -4208.7814   -4724.8853            0    7337.8546    19.947196    19.919401    20.749231    8244.4206     6612.555    7309.5181    8091.4907    367.77494    1382.3388    185.76577    -3326.504 
21144000    261.98533   -4690.8566   -4185.5959   -4690.8566            0    7798.3741    19.913556    19.680326    20.798253     8150.945    7257.1755    10556.693    5581.2541    1000.2089   -54.365604   -1048.4611   -3258.5784 
21145000    261.62679    -4698.137   -4193.5677    -4698.137            0    7230.1047    19.881371    20.063075    20.484754    8170.9878    7185.2893    7354.5295    7150.4954    -108.6228   -82.761174    -1833.692   -3331.9889 
21146000    257.73939   -4712.7235   -4215.6515   -4712.7235            0    5371.0121    20.253961    19.998186    20.285796    8216.6093    3704.9748    6176.8264    6231.2353     855.3327    756.27127   -358.44678   -3572.0387 
21147000    245.96649   -4699.0091    -4224.642   -4699.0091            0    4200.7233    19.961008    19.924142    20.739405    8248.1854    4558.2809    4943.7985    3100.0906   -89.762868    305.66408   -108.99599   -3719.3314 
21148000    256.85602   -4703.1029   -4207.7345   -4703.1029            0    9059.7707     19.96849    19.695425    20.675192    8131.3023    6595.6136    11980.241    8603.4572    824.23572    1676.6828   -709.64197   -3133.3661 
21149000    270.48606    -4685.955   -4164.2999    -4685.955            0    11709.151    19.905101     19.99952    20.321236     8089.731    11578.163    11763.511     11785.78   -163.52442    -274.8171   -434.95601   -2782.8492 
21150000    253.46962   -4693.3531   -4204.5157   -4693.3531            0     6216.996    19.929685    19.780327    20.736043    8174.4732    6611.6177    5965.2246    6074.1456   -54.043987   -1101.4728   -198.75038   -3463.3484 
21151000    275.30095    -4684.013    -4153.072    -4684.013            0      7832.57    19.901048    19.831405     20.66399    8155.3688     8894.817     7548.494    7054.3989    1348.5224    76.619107    308.37007   -3221.4842 
21152000    263.32677   -4685.6471   -4177.7993   -4685.6471            0    7956.5418    20.031336    19.865632    20.546396     8176.133    8691.1709    7861.2671    7317.1873   -326.58791    667.27917   -889.02754   -3229.0571 
21153000    266.79011   -4712.2186   -4197.6915   -4712.2186            0    6735.8905    19.828401    20.075705    20.471349    8149.0121    7368.6388    5501.9371    7337.0956   -237.82253    546.84767   -58.068339   -3397.1647 
21154000      263.856   -4697.6948   -4188.8263   -4697.6948            0    8884.0169    19.920884    20.070917    20.336503    8131.1521    8380.8846    8641.2287    9629.9373    484.11508   -227.48787    152.44904   -3135.3195 
21155000    258.68566   -4698.9029   -4200.0058   -4698.9029            0    6956.4686    19.996414    19.857598    20.572395    8168.9019    7183.5384    6568.3904    7117.4769   -538.60253    529.77728   -656.10334   -3371.2466 
21156000    259.53011   -4718.2603   -4217.7347   -4718.2603            0    8542.6351     19.90812      19.8522    20.682445    8174.1154    12345.221    6222.7039    7059.9801    -908.8755    439.85341   -15.576413   -3199.3579 
21157000    257.44931   -4685.9165   -4189.4039   -4685.9165            0    6472.7533    19.968331    19.934912    20.554248    8181.9663    7452.1246    5173.6445    6792.4908   -16.512499   -296.84029    1638.0114   -3417.0388 
21158000    255.14326   -4711.1272    -4219.062   -4711.1272            0    6794.4011    19.743464    19.674296    20.816569    8085.9622    6823.4839    7066.5464     6493.173    229.16363     1295.154   -59.879254   -3417.8291 
21159000    254.28264   -4700.9973   -4210.5918   -4700.9973            0    7644.2879    19.963875    19.760328    20.550095    8106.8628    7995.2784    8124.1092    6813.4761   -239.56999    453.06856   -1182.6836   -3306.8055 
21160000    264.04261   -4692.5207   -4183.2923   -4692.5207            0    8333.0745    19.994512    19.890479    20.382077    8105.9603    8796.0852    8516.7255    7686.4127   -62.290958     98.32821   -299.24478   -3198.1803 
21161000    258.98417   -4718.8088   -4219.3361   -4718.8088            0    7638.8862    19.854778    19.993716    20.443823    8115.6006    7003.3281    8057.9912    7855.3393   -615.61519    1565.6151    73.965542    -3315.215 
21162000    267.78269   -4711.1051   -4194.6637   -4711.1051            0    6061.1507    19.850698    19.958929    20.820913     8249.218     5049.467    6543.2417    6590.7434    560.28985   -2382.3537   -1534.9848   -3465.4685 
21163000      273.213    -4712.429   -4185.5147    -4712.429            0    7639.0605    19.846663    19.853084    20.665992    8142.7616    7313.8406    8306.7206    7296.6202   -983.50532   -934.52149    304.85762   -3278.3471 
21164000    252.49943   -4698.6154    -4211.649   -4698.6154            0    5689.1821     20.03136    20.151179    20.495899    8273.2829    6675.2543    3697.9744    6694.3176    30.707635   -448.73088     967.9586   -3525.2074 
21165000    261.97656   -4695.9947   -4190.7509   -4695.9947            0    8558.0836    19.978264    19.844465    20.525101      8137.34    6597.9345    9759.9566    9316.3597   -279.97225    892.08883    886.86891   -3175.1224 
21166000    275.82917   -4705.8342   -4173.8744   -4705.8342            0    8233.8717     19.73748    20.026824    20.562447    8127.9042    6919.4263    9685.1294    8097.0596   -286.47578    497.02446   -606.47765   -3197.8548 
21167000    266.92398   -4707.7493    -4192.964   -4707.7493            0    8017.7029     19.91515    19.920461     20.54753    8151.5949    7571.9971    9577.5446    6903.5671   -145.43226    1656.0332   -281.12443   -3239.7982 
21168000    275.97024   -4692.0313   -4159.7995   -4692.0313            0    8511.7004     19.97605    20.003074    20.353935    8133.0745    7936.0601     8540.434    9058.6072     1041.525   -180.42887   -2537.3251    -3150.205 
21169000    270.62212   -4689.3616   -4167.4441   -4689.3616            0    7130.4141    20.005369    19.968837    20.653345      8250.68    4622.9536    10488.696    6279.5924    249.35481   -1025.1998    145.32474   -3309.4577 
21170000    277.27998   -4702.6781   -4167.9203   -4702.6781            0    6370.0223    19.789011    19.822767    20.841733     8175.648    6696.9033     6476.419    5936.7445    520.61581    303.71911    114.31862   -3408.4007 
21171000    260.24248   -4672.9969   -4171.0974   -4672.9969            0    6610.6627    19.965688    19.962239    20.604796    8212.2438    4993.4163    8441.7072    6396.8647   -292.82804   -1300.6775   -1028.0712   -3379.3571 
21172000    263.40533   -4715.1855   -4207.1862   -4715.1855            0    5769.7179    20.136657    19.984095    20.329242    8180.7485    4217.0013     5204.805    7887.3475    260.08899    2060.8155   -909.99657   -3518.8136 
21173000    247.49788   -4696.1699   -4218.8494   -4696.1699            0    7459.5521    19.907974    19.930856    20.580397    8165.9509    7030.5382    8157.3349    7190.7832    675.65901   -381.46945   -1254.7547   -3330.4763 
21174000    264.78626    -4697.276   -4186.6135    -4697.276            0    7283.0241    19.759268     19.99032    20.683406    8169.8228    8146.0133     7747.454     5955.605   -64.264321    -538.3735     709.1266   -3318.8522 
21175000    267.01215   -4706.3728   -4191.4174   -4706.3728            0    7034.8326    20.095465    19.612624    20.582133    8111.9287    6475.2977    7979.8763    6649.3238     221.3647   -155.81412   -647.61889   -3359.1674 
21176000    256.91971   -4730.9798   -4235.4885   -4730.9798            0    6482.2733     19.94234    20.058176    20.533485     8213.537    6248.4385    6796.5317    6401.8497   -866.62758   -223.59915    156.42703   -3459.0028 
21177000    260.02507    -4685.737   -4184.2568    -4685.737            0    7887.1466    20.037309    19.944546    20.381299     8145.081     7651.905    8173.7508     7835.784   -30.487334   -1455.9292   -63.646011   -3247.3612 
21178000      256.253   -4682.0861   -4187.8806   -4682.0861            0    9077.2619    19.822084    19.795888    20.709252    8126.2227    10342.842    8598.3992     8290.545     473.2206   -925.29068   -295.52532   -3112.1105 
21179000    269.80087   -4679.2854   -4158.9517   -4679.2854            0    6777.3223    20.060044    19.712868    20.656376     8168.378    5650.9063     7656.748    7024.3127    1021.2309   -589.83183   -735.04889   -3351.5868 
21180000    271.31515    -4695.579    -4172.325    -4695.579            0    7808.8002    19.918583    20.290158    20.301043     8204.691    7264.9944    6934.2015    9227.2048    627.37547   -737.59246    729.23599   -3237.9473 
21181000    257.83962     -4692.27   -4195.0046     -4692.27            0    7757.6375    20.187191    19.790385    20.481268    8182.5179    6406.2653    9965.6209    6901.0262   -319.72772   -161.60744    368.77331   -3269.2576 
21182000    261.91299   -4700.0849   -4194.9637   -4700.0849            0    7450.6824    19.835829    20.112376    20.555124    8200.3771    6934.3891    7859.2667    7558.3915    531.22536   -884.40637    185.01994   -3303.9061 
21183000    264.59915   -4731.5257    -4221.224   -4731.5257            0    7691.3862    19.862108     19.52545    20.915164    8111.2478    6103.3109    9141.2839    7829.5638    322.00618    195.66321   -919.12756   -3311.3774 
21184000    259.57287   -4726.5523   -4225.9442   -4726.5523            0    7136.0973    19.819727    19.928257    20.711332    8180.4091    7439.1039    6308.6371    7660.5508    673.05903    696.45669    206.18327   -3374.5872 
21185000    286.47734   -4723.0936   -4170.5979   -4723.0936            0    7170.1561    20.092092    19.956769    20.436715    8194.5756    5459.9969    8815.3385    7235.1329    -289.0443    949.78156   -1161.4394   -3313.6963 
21186000    264.16538   -4679.8069   -4170.3418   -4679.8069            0    6349.0113    19.948371    19.989368    20.644337    8232.0397    6179.7192    6757.4102    6109.9045    -389.5237   -751.67866    385.44617   -3408.1058 
21187000    256.65472   -4697.4697   -4202.4895   -4697.4697            0    7521.7231    20.113451    19.863178    20.461179    8174.5898    5643.1725    9082.5635    7839.4334    377.56729    1132.6434    761.61959   -3305.7646 
21188000    266.60625   -4678.3595   -4164.1869   -4678.3595            0    9673.8904    19.996151    19.767516    20.525453    8113.1829     6803.001    10359.658    11859.012    311.78806    -1090.221   -2236.1495   -3019.5485 
21189000    257.45331   -4733.1241   -4236.6037   -4733.1241            0    6404.0644    19.813049    20.049746    20.737001    8237.7033    6519.6234    5769.1522    6923.4174   -313.49421    353.08708   -241.19534   -3467.2293 
21190000    281.13417   -4695.5301   -4153.3392   -4695.5301            0    8121.4318    19.849878    19.880535    20.650631    8149.2796    9959.1967    6738.6552    7666.4434    621.68593   -1053.0449    797.86144   -3188.1161 
21191000    255.04513    -4666.187    -4174.311    -4666.187            0    9076.4862    19.700052    19.878008    20.608143    8070.1031    10810.568    7420.0983    8998.7923   -315.38613    559.71416   -717.69456   -3106.0614 
21192000    271.33233   -4709.2658   -4185.9786   -4709.2658            0    7545.1835    19.900865    19.988758    20.506697    8157.4323    7292.3097     7041.516    8301.7247    79.985679   -596.15421   -932.47112   -3288.3448 
21193000    259.79696   -4692.5684   -4191.5281   -4692.5684            0    7901.0098    20.038837    19.857452    20.456473    8140.0447    6197.2004    8884.4604    8621.3685   -237.92138   -356.37428    386.53234    -3253.566 
21194000     275.0197   -4703.3266    -4172.928   -4703.3266            0     6549.933    19.844413    20.053625    20.540412    8174.1064    6827.9368    6752.0877    6069.7746   -162.06189   -657.64574    736.55781   -3392.1042 
21195000    263.65386   -4705.2779   -4196.7993   -4705.2779            0    5895.2766    20.098178    19.717741     20.67962    8195.1402    5353.9281    7108.7077    5223.1942     282.2477    -661.5916   -821.18388   -3492.2093 
21196000    265.47025   -4697.2101   -4185.2284   -4697.2101            0    8404.5315    19.787809    19.910325     20.47502    8066.7832    8422.1564    8933.3225    7858.1155   -100.81574   -11.460326    223.99493   -3196.4709 
21197000    265.06043   -4684.8772   -4173.6858   -4684.8772            0     6695.617     20.02097    19.986806    20.282806    8116.2715    6740.4751    5554.5271    7791.8489    385.79257   -454.88918   -798.29284   -3381.1424 
21198000     265.6947   -4699.0167   -4186.6021   -4699.0167            0    7161.5508    19.932592    19.962648    20.609486     8200.665    7450.6181    7657.2423    6376.7919   -818.94085    433.62487   -233.21512   -3330.0929 
21199000    268.05871   -4682.1584   -4165.1846   -4682.1584            0    8082.1152    19.985688    19.784406    20.623179    8154.5073     6611.596    10069.415    7565.3348   -457.46293    1341.8439   -980.69277    -3204.018 
21200000    251.38319   -4693.5918   -4208.7781   -4693.5918            0    6413.9025    19.840924    20.212561    20.507981    8224.4363     7131.534     4550.631    7559.5425    1188.2682    295.23019   -984.23396   -3439.4628 
21201000    259.79383   -4711.0256   -4209.9914   -4711.0256            0    4967.6778    20.166559    19.873595    20.625028    8266.1407    3759.1206    6161.7715    4982.1414     -529.014    149.26442    508.94585    -3611.122 
21202000    260.28504   -4691.5703   -4189.5887   -4691.5703            0    6864.0954    19.948461    19.772817    20.769677    8192.3348    6937.9832    7362.5589    6291.7442   -1054.6319   -854.80336   -95.916068   -3369.4886 
21203000    246.70865    -4703.681   -4227.8826    -4703.681            0    7042.3745    19.879831    19.915584     20.70515    8197.5509    5008.9792    9384.2594    6733.8848    36.113162   -942.65006   -337.47104   -3385.9465 
21204000    253.45825   -4706.6527   -4217.8371   -4706.6527            0    8774.0467    20.041969      19.8134    20.514427    8146.2695    9974.3794    7123.8496    9223.9111   -165.52262   -228.32592   -484.79622   -3175.4367 
21205000    258.58203   -4719.0354   -4220.3382   -4719.0354            0    10002.831    19.850493    19.953626    20.383886    8073.8396    10190.247    8073.1822    11745.063    181.12261    1516.0163    631.17543   -3042.5182 
21206000    263.91671   -4731.7233   -4222.7378   -4731.7233            0    6676.2551    19.912335    19.999543    20.531999    8176.6142     8086.102    6097.4718    5845.1914   -437.17732    549.34915    902.66196   -3426.6108 
21207000    261.76461   -4699.9171   -4195.0821   -4699.9171            0    7243.4128    19.917002    19.924289    20.582814    8167.9216     7803.054    5627.6087    8299.5756    117.48294    1363.8247    86.782854   -3332.2412 
21208000     253.0544    -4671.672   -4183.6353    -4671.672            0    7209.2394    19.750663    20.083187    20.635667    8185.2663    5503.0741    7588.1066    8536.5376   -22.223164   -16.312598   -437.61577   -3323.0416 
21209000    257.96078   -4695.3702   -4197.8711   -4695.3702            0    8852.1897    20.055808    19.790827    20.592453    8173.5775    7594.1728    9238.9676    9723.4286    400.47422    1851.9231    60.566067   -3142.6614 
21210000    269.36314   -4685.9165    -4166.427   -4685.9165            0     7534.002    19.900415    19.942069    20.585763    8169.5725    7174.0142    9490.9557     5937.036   -257.06781    1212.1342   -1488.2683   -3268.7896 
21211000    267.91598   -4712.9332   -4196.2347   -4712.9332            0    6802.8303     20.06198    19.958268    20.561917    8233.0401    6549.8215    7630.5501    6228.1193    654.31051    7.2013637   -75.040457   -3379.4159 
21212000    274.31332   -4723.7429   -4194.7066   -4723.7429            0    5130.9979    20.051467    19.834276    20.733113    8245.6903     6538.831    4055.7247    4798.4378    409.85984   -564.92314    200.09209   -3577.6787 
21213000    277.26334   -4690.4265   -4155.7008   -4690.4265            0     8529.415    19.613204    19.852175    20.889421    8133.6042      11209.6    7953.8461    6424.7992    926.27022    814.14604    809.67783   -3143.9393 
21214000    268.71147   -4695.3602   -4177.1276   -4695.3602            0    6332.9023    20.084823    19.781206    20.540254    8160.6843    6449.7869    6171.7014    6377.2185    762.54935   -387.54487     157.8876   -3423.4159 
21215000    254.08454   -4729.4393   -4239.4159   -4729.4393            0    7447.0494    19.930932    19.878213      20.5724    8150.6063    6025.0956    8452.4442    7863.6083    126.64266   -1154.5421     2802.053   -3354.1983 
21216000     260.7549    -4711.531   -4208.6433    -4711.531            0    7923.7683    19.937448    19.906398    20.515019    8142.0575    8409.0512    6618.5237      8743.73    751.53679    1091.4279    722.49825   -3267.7468 
21217000    243.63036   -4708.7522   -4238.8906   -4708.7522            0    7870.3515    20.010359    20.054004    20.319462    8153.9524    7171.0941    8387.9477    8052.0128    514.73435   -801.83413    -826.9304   -3302.9717 
21218000    257.02954   -4677.9846   -4182.2815   -4677.9846            0    4368.7548    19.988458    20.176637     20.51555    8273.9187    4193.0094    3414.1318    5499.1231   -295.81239    1175.9359    377.46447   -3655.1186 
21219000    261.89269   -4691.4649   -4186.3829   -4691.4649            0     5223.035    20.060481    19.854413    20.650176    8224.7392    5447.4639    5059.4101    5162.2309     120.6966   -58.524976   -392.19912    -3559.883 
21220000    251.66002   -4703.4307   -4218.0832   -4703.4307            0    7501.3753    19.925564    19.801714    20.740456    8183.3608    7646.6689    8856.0026    6001.4543   -97.895421    949.00448    325.13433   -3322.8247 
21221000    261.79334   -4700.1503   -4195.2599   -4700.1503            0    7147.8142    19.831606    19.992555    20.649923    8187.3735    9374.2224    5547.8923    6521.3279    463.08971    1151.5691   -331.44974   -3341.7791 
21222000    263.83075   -4729.7615   -4220.9417   -4729.7615            0     6855.081    20.093438    19.885033    20.587427    8225.8851      5089.93    7889.4199    7585.8932   -607.66772   -1074.5018   -1085.0335   -3398.5644 
21223000    256.77895   -4701.7885   -4206.5687   -4701.7885            0    7930.8877    19.823467     20.07225    20.449961    8137.0716      8350.18     7524.201    7918.2822   -1301.6579   -748.42197    485.73086   -3265.4035 
21224000    249.66696   -4683.8022   -4202.2985   -4683.8022            0    5453.2421    19.961668    19.970526    20.802327    8292.7438    6607.0898    5327.0645    4425.5719    519.47004   -1275.8893   -770.95397    -3542.777 
21225000    256.03991   -4714.1899   -4220.3954   -4714.1899            0    6070.5721     19.84161    19.961957    20.805691    8240.6636    5756.6159    5604.3572    6850.7433   -892.31569   -88.354758   -691.53478   -3490.8242 
21226000    259.58636   -4687.9102   -4187.2761   -4687.9102            0    9350.5924     19.71379    19.997546    20.545019    8099.4096    10383.379    9273.5954    8394.8033    965.30321     299.6937    1252.5159   -3082.7693 
21227000    279.10859   -4657.5088   -4119.2244   -4657.5088            0    5181.6426    20.033184    19.982323    20.554745    8228.2606    3818.1657    5591.2301     6135.532    -291.9999    996.25199   -152.58314   -3497.4234 
21228000    274.76599   -4690.4867   -4160.5773   -4690.4867            0    7709.7222    20.120338     20.00615    20.384432    8205.3556    7766.6399    6714.5776     8647.949   -645.82093    1032.3738   -352.53955   -3237.9804 
21229000    274.05179   -4698.3759    -4169.844   -4698.3759            0    8423.7426    20.025866    19.956002     20.45853    8175.9695    7274.1461    9034.4822    8962.5995    39.033329    1188.4204    515.29413   -3165.4127 
21230000    268.37271   -4686.8529   -4169.2736   -4686.8529            0    6147.3242    19.917655    19.807862     20.97816    8276.4329    5352.4719    6826.2226    6263.2783   -80.558344   -126.57601   -601.44052   -3427.2713 
21231000    268.45903   -4687.8486   -4170.1027   -4687.8486            0    8621.6295    19.987497    19.861462    20.496188    8136.5955     5649.111     10824.13    9391.6472    1044.2194     534.4439   -1129.8331   -3147.0266 
21232000    253.86172   -4679.5279   -4189.9342   -4679.5279            0    7117.9619    19.923491    20.114893    20.459092    8199.1633    5328.6506    8195.1338    7830.1014    97.618275    377.05109    448.68711   -3338.7941 
21233000    258.06232   -4707.3161   -4209.6213   -4707.3161            0    6230.3622    20.000888    19.895451    20.580299    8189.4501    6162.0467    5890.3472    6638.6927    452.39773    1276.6859    1120.7546   -3465.4996 
21234000    267.21374   -4686.8806   -4171.5364   -4686.8806            0     7634.807    19.792466    19.799577    20.837657    8165.9121    9208.0278    5967.2675    7729.1258   -1084.6761    -156.7893   -166.11273   -3262.2961 
21235000    257.61048   -4714.0934   -4217.2699   -4714.0934            0    7809.2791    19.974917    19.723421    20.627928    8126.8615    6671.0844    9271.2209     7485.532    338.63705    -1080.745    -464.5673    -3291.699 
21236000    245.32709   -4694.6051   -4221.4712   -4694.6051            0    4863.9787    19.977978    20.026707      20.7671    8308.7737    4183.1036    4877.9046    5530.9279     831.3626   -1133.8732     637.3626   -3632.0789 
21237000    259.39933   -4688.4649   -4188.1915   -4688.4649            0    8105.7459    19.929325    19.922806    20.520342    8147.5624    8265.9214    7745.2476    8306.0687   -251.01655    114.40608   -1481.6978   -3225.0356 
21238000    266.50349   -4692.0581   -4178.0837   -4692.0581            0    6855.9351    20.066259    19.997116    20.406139    8188.3167    8143.5066    5554.9593    6869.3393    46.247414   -313.45098   -458.59094   -3359.3603 
21239000    262.02199   -4711.1942   -4205.8627   -4711.1942            0    6406.9163    19.970153    20.004176    20.505341    8191.6057    8309.2649    4464.3999    6447.0842   -163.69543   -1008.2369   -812.20109    -3440.453 
21240000    269.65702   -4701.1588   -4181.1025   -4701.1588            0    7367.8592    19.971273    19.950884    20.588324    8203.3053    8604.5619    5969.9225    7529.0931    253.67399   -601.70549   -1944.9618   -3299.6355 
21241000    254.38091   -4708.4422   -4217.8472   -4708.4422            0    6559.6286    19.834353    20.052315    20.481762    8146.1024    5578.7818    6931.1105    7168.9936   -20.051644   -471.61529     444.3237   -3438.5466 
21242000    262.23154   -4697.5052   -4191.7697   -4697.5052            0    8528.3383     19.92445     19.82856    20.589797    8134.4759    9158.5817    8144.0563    8282.3768   -55.732297    705.61764   -30.865435   -3180.0274 
21243000    269.56468   -4682.9356   -4163.0575   -4682.9356            0    8177.5447    19.863799    20.059418    20.444674    8146.3081    8761.4692    6889.2165    8881.9485   -327.78548   -873.58407   -174.49641   -3191.5198 
21244000    259.02704   -4679.0113   -4179.4559   -4679.0113            0    6048.2666    20.129442    19.781641    20.562833     8187.984    6108.3367     5267.454    6769.0091    738.54867   -1303.3468    312.28803   -3457.2121 
21245000    279.22925   -4685.8601    -4147.343   -4685.8601            0    8790.8741    19.713815    19.932659    20.795577    8171.5962    10541.222    9314.1199    6517.2805    491.62576    54.806245   -1115.3147   -3099.6963 
21246000    267.04448   -4696.8123   -4181.7945   -4696.8123            0    5936.1395    20.088823    19.846451     20.68411    8246.5857    5300.2947    6427.2591    6080.8646    959.13898   -517.06105   -803.28214    -3467.867 
21247000    252.44287   -4682.5228   -4195.6655   -4682.5228            0    7412.6972    19.937498    20.155617    20.383148    8191.0204    7513.2037    6235.2906    8489.5974    1326.2516   -542.79122    314.02087   -3310.1623 
21248000    271.07994   -4691.1659   -4168.3655   -4691.1659            0    8206.7642    19.950619    19.797567    20.674599    8165.9237    8513.5976    8544.3075    7562.3874   -349.61784   -86.577797    351.02278   -3191.0086 
21249000    259.95859   -4716.7092   -4215.3572   -4716.7092            0    6756.7415    19.952374    19.895006    20.592636    8174.3004     6787.002    6815.1849    6668.0376   -596.09814   -850.76757   -712.02495   -3409.8604 
21250000    265.05419   -4651.2777   -4140.0984   -4651.2777            0    6328.4336    20.221398    19.841773    20.450579     8205.353    5722.8179     7036.952     6225.531    39.203424     477.0697   -26.219897   -3382.7959 
Loop time of 449.593 on 64 procs for 250000 steps with 972 atoms

Performance: 96.087 ns/day, 0.250 hours/ns, 556.058 timesteps/s
192.4% CPU use with 32 MPI tasks x 2 OpenMP threads

MPI task timing breakdown:
Section |  min time  |  avg time  |  max time  |%varavg| %total
---------------------------------------------------------------
Pair    | 29.054     | 35.967     | 44.296     |  75.4 |  8.00
Bond    | 0.91876    | 1.1794     | 1.7153     |  16.1 |  0.26
Kspace  | 186.52     | 203.12     | 219.37     |  55.9 | 45.18
Neigh   | 2.3004     | 2.9104     | 3.6791     |  26.0 |  0.65
Comm    | 84.115     | 97.828     | 110.08     |  70.5 | 21.76
Output  | 0.49745    | 0.49783    | 0.49933    |   0.0 |  0.11
Modify  | 87.874     | 90.804     | 96.746     |  21.1 | 20.20
Other   |            | 17.28      |            |       |  3.84

Nlocal:        30.3750 ave          36 max          24 min
Histogram: 2 0 3 5 4 6 2 3 5 2
Nghost:        2641.16 ave        2675 max        2599 min
Histogram: 1 1 2 4 5 5 5 3 5 1
Neighs:        9584.28 ave       12305 max        7615 min
Histogram: 2 6 2 6 4 4 4 2 0 2

Total # of neighbors = 306697
Ave neighs/atom = 315.53189
Ave special neighs/atom = 2.0000000
Neighbor list builds = 7977
Dangerous builds = 1

unfix		3
unfix		2
unfix		1

write_data	data.final.${pid}
write_data	data.final.0
System init for write_data ...
PPPM initialization ...
  extracting TIP4P info from pair style
  using 12-bit tables for long-range coulomb (../kspace.cpp:340)
  G vector (1/distance) = 0.37162124
  grid = 24 24 24
  stencil order = 5
  estimated absolute RMS force accuracy = 0.0035790963
  estimated relative force accuracy = 1.0778342e-05
  using double precision FFTW3
  3d grid and FFT values/proc = 3211 432
Last active /omp style is kspace_style pppm/tip4p/omp
WARNING: Not all mixed pair coeffs generated from mixing. Use write_data with 'pair ij' option to store all pair coeffs. (../write_data.cpp:312)

write_restart   restart.lmp.${pid}
write_restart   restart.lmp.0
System init for write_restart ...
PPPM initialization ...
  extracting TIP4P info from pair style
  using 12-bit tables for long-range coulomb (../kspace.cpp:340)
  G vector (1/distance) = 0.37162124
  grid = 24 24 24
  stencil order = 5
  estimated absolute RMS force accuracy = 0.0035790963
  estimated relative force accuracy = 1.0778342e-05
  using double precision FFTW3
  3d grid and FFT values/proc = 3211 432
Last active /omp style is kspace_style pppm/tip4p/omp
Total wall time: 0:07:29
