LAMMPS data file via write_data, version 30 Jul 2021, timestep = 8500000

1296 atoms
2 atom types
864 bonds
1 bond types
432 angles
1 angle types

-10.819040251207563 12.799040251207563 xlo xhi
-9.280532307516951 12.270530307516951 ylo yhi
-0.04878061945390755 21.90877961946111 zlo zhi
-9.0487167034075 2.2620210217626204 2.9527568488221223 xy xz yz

Masses

1 1.008
2 15.999

Pair Coeffs # lj/cut/tip4p/long/omp

1 0 0
2 0.21084 3.1668

Bond Coeffs # harmonic/omp

1 450 0.9572

Angle Coeffs # harmonic/omp

1 55 104.52

Atoms # full

298 100 2 -1.1794 -5.719001703021855 -7.394909594995782 4.163540189664329 1 1 0
270 90 1 0.5897 -8.513352293068445 -7.271091293154997 1.5249639825799681 1 1 0
269 90 1 0.5897 -9.245595171523018 -5.981738380779474 1.8303421119639636 1 1 0
268 90 2 -1.1794 -9.193428477934651 -6.9019589494311 2.0884357836054352 1 1 0
163 55 2 -1.1794 -7.085329789597742 -7.978615951499875 0.7476012291034978 1 1 0
164 55 1 0.5897 -6.31902477221479 -8.388415413922875 1.1490630245683904 1 1 0
299 100 1 0.5897 -6.409909028820035 -8.01399492102471 4.399180901608138 1 1 0
75 25 1 0.5897 -9.163752506119913 -3.319633551610872 4.591167790900388 1 0 0
260 87 1 0.5897 -7.010327438634222 -6.104683258349283 0.2879247939605303 1 1 0
314 105 1 0.5897 -9.00028677374538 -6.7108722751064835 4.083122090859497 1 1 0
280 94 2 -1.1794 -9.713591939863331 -4.391458189189758 1.0614635759068953 1 1 0
324 108 1 0.5897 -6.988714015298066 -4.436646224361835 3.362180672902068 1 1 0
282 94 1 0.5897 -10.585607547873588 -4.1295869373989404 1.3568992887366245 1 1 0
300 100 1 0.5897 -4.947125716264978 -7.941419008840371 4.015832019284933 1 1 0
73 25 2 -1.1794 -8.417651274894435 -3.8555161894424606 4.8603728747040575 1 0 0
323 108 1 0.5897 -6.2552309038091325 -5.756690649927102 3.255786991276928 1 1 0
165 55 1 0.5897 -7.357595070665393 -8.59395186006089 0.06680061201117884 1 1 0
313 105 2 -1.1794 -9.130177654486623 -6.454562627910551 4.996207777804249 1 1 0
322 108 2 -1.1794 -6.30058778344422 -4.882616818999567 2.868377275288005 1 1 0
275 92 1 0.5897 -10.67408194844534 -8.018503497304893 3.402006398922279 1 1 0
259 87 2 -1.1794 -6.708811482769113 -5.20643691559977 0.15248484429117712 1 1 0
315 105 1 0.5897 -8.978468719436488 -5.509552197520577 5.004118544958622 1 1 0
419 140 1 0.5897 -8.873917949728718 -5.605836553631091 8.736948814756426 1 0 0
418 140 2 -1.1794 -9.542376965242592 -6.2639627368531805 8.927125649486056 1 0 0
618 206 1 0.5897 -7.634161139354558 -7.385651610190781 6.613231845506823 1 1 0
427 143 2 -1.1794 -5.664873069130746 -6.922054818888418 9.83175268323806 1 0 0
428 143 1 0.5897 -6.305466632731832 -6.897137804097197 10.542567961101469 1 0 0
420 140 1 0.5897 -9.11115516288584 -6.8795762399434235 9.51986742721374 1 0 0
414 138 1 0.5897 -6.752149521660852 -5.164905167072634 7.31487033643585 1 0 0
413 138 1 0.5897 -7.527410107295287 -3.907604476319544 7.646600072691308 1 0 0
412 138 2 -1.1794 -7.418847379750542 -4.821468006206264 7.909697922922003 1 0 0
626 209 1 0.5897 -10.540456079721078 -6.714839401396519 7.550129594274329 1 1 0
350 117 1 0.5897 -7.052891505057413 -4.048814506590304 10.305735988557627 0 0 0
429 143 1 0.5897 -6.190572113603666 -7.024819942818981 9.038391003159864 1 0 0
627 209 1 0.5897 -10.625629045409939 -6.901336662148784 6.050114148283072 1 1 0
616 206 2 -1.1794 -7.206883859356141 -7.939442621192196 7.266706541399545 1 1 0
641 214 1 0.5897 -4.246375434797188 -8.24670992527294 6.95248626405402 1 1 0
74 25 1 0.5897 -7.991322008798425 -3.3449605009146515 5.548744207576991 1 0 0
633 211 1 0.5897 -5.598530423267722 -6.178204331572269 5.453807486625069 1 1 0
661 221 2 -1.1794 -9.15092410867544 -4.4889045995472925 12.268692984810892 0 0 0
767 256 1 0.5897 -10.786603517521984 -3.241130795762892 15.00825916618277 0 0 0
780 260 1 0.5897 -7.296055053659714 -3.9771221922066093 15.206324452025916 0 0 0
779 260 1 0.5897 -6.820429370155089 -2.879873945383249 14.278177035728822 0 0 0
778 260 2 -1.1794 -7.612432467282941 -3.256061463534805 14.662077476452145 0 0 0
663 221 1 0.5897 -8.377716421848584 -4.2012199810139315 11.783330299011439 0 0 0
662 221 1 0.5897 -8.932052461074408 -4.327273279630834 13.186455844941332 0 0 0
652 218 2 -1.1794 -5.433109365164249 -5.577858132075663 12.885367983564239 0 0 0
654 218 1 0.5897 -5.794517596783107 -5.039009752579336 12.181588396511922 0 0 0
653 218 1 0.5897 -6.153924223827421 -6.1532855636627275 13.141221114388742 0 0 0
729 243 1 0.5897 -8.1029462620616 -7.201410568414024 12.106984259914961 1 0 0
788 263 1 0.5897 -4.419787157887248 -4.525172583156129 15.83255540274527 0 0 0
684 228 1 0.5897 -8.69413172871729 -6.821569953295473 14.43336124905445 0 0 0
766 256 2 -1.1794 -10.181949251830662 -2.504285993062286 14.921175348757044 0 0 0
768 256 1 0.5897 -9.317239971296809 -2.909722421437955 14.856506942426078 0 0 0
682 228 2 -1.1794 -7.975778123392701 -7.034887626127476 13.837778547718198 0 0 0
740 247 1 0.5897 -10.897273672692078 -3.299897765559944 12.058184239494045 1 0 0
351 117 1 0.5897 -6.544316244689952 -2.8945701281990415 11.142952567576396 0 0 0
727 243 2 -1.1794 -7.90964474680597 -7.460678760417686 11.206041010389068 1 0 0
349 117 2 -1.1794 -6.7578235668110755 -3.826463931880987 11.188810574070756 0 0 0
1089 363 1 0.5897 -6.2028558142464245 -4.735640627596563 17.381698026149486 0 0 0
1130 377 1 0.5897 -6.761951415785685 -1.697031000586291 18.84613924289056 0 0 0
1227 409 1 0.5897 -8.812499136728238 -3.0540753607741014 20.85273050161581 0 0 0
1248 416 1 0.5897 -5.633313409646393 -1.4235923589040782 20.953649371950327 0 0 0
1129 377 2 -1.1794 -7.272642741655674 -1.8964039285167846 18.061424362559023 0 0 0
1219 407 2 -1.1794 -10.314121908303408 -2.052346027607787 20.43322888479516 0 0 0
1152 384 1 0.5897 -6.267352871016662 -3.851331153366111 19.63102082251955 0 0 0
1225 409 2 -1.1794 -7.899066593191832 -3.3302721523172387 20.928027800416032 0 0 0
1151 384 1 0.5897 -5.513479418473954 -5.143944081431064 19.401447335603006 0 0 0
1150 384 2 -1.1794 -5.732828574880873 -4.3111654773487365 18.98364916580204 0 0 0
1109 370 1 0.5897 -8.363007974521224 -3.4717003701323037 17.783272503974775 0 0 0
1108 370 2 -1.1794 -9.066419204813728 -4.107974942336359 17.65466194411138 0 0 0
1088 363 1 0.5897 -6.433983656602661 -6.006307014885072 16.591888427651227 0 0 0
1097 366 1 0.5897 -8.598289458205864 -5.610650601542224 18.727837111919552 0 0 0
1110 370 1 0.5897 -9.870785512616381 -3.6078218514615017 17.792947352448383 0 0 0
1087 363 2 -1.1794 -6.273064761368837 -5.0686410860464175 16.48700261310044 0 0 0
1226 409 1 0.5897 -7.506744073677665 -2.6999592510548833 21.53221087272361 0 0 0
1142 381 1 0.5897 -8.366872456622417 -6.233721367201202 20.970840826680003 0 0 0
1131 377 1 0.5897 -6.656924004971993 -1.7787717551970799 17.338048091067762 0 0 0
1096 366 2 -1.1794 -8.520153003986612 -6.442952746378758 19.19402903516931 0 0 0
1143 381 1 0.5897 -8.060807847291407 -4.928223179832364 21.673552907957912 0 0 0
1141 381 2 -1.1794 -8.336980292522261 -5.829750166228286 21.838140958544113 0 0 0
69 23 1 0.5897 -11.346710393204813 -2.281549132434783 3.245169328043918 1 0 0
1010 337 1 0.5897 -13.261907837883701 1.0316207684945642 0.12323618399139136 0 -1 1
272 91 1 0.5897 -9.609051678788461 -1.2550087442792712 1.1801203958957796 1 1 0
271 91 2 -1.1794 -10.46050496081302 -1.0289109608144962 0.8056246362436067 1 1 0
82 28 2 -1.1794 -8.819553134258735 0.201720579130507 4.213800266875918 1 0 0
83 28 1 0.5897 -9.603277039407324 -0.3231571517101326 4.37644873251472 1 0 0
99 33 1 0.5897 -11.853208399825247 1.407145068552735 4.90173464352641 1 0 0
68 23 1 0.5897 -11.520632382576382 -2.2009788787218376 4.746929234387214 1 0 0
98 33 1 0.5897 -11.779791285368306 -0.06009798626673479 4.536300260910054 1 0 0
54 18 1 0.5897 -11.74555641074832 -0.4203802304171109 2.016454668971081 1 0 0
53 18 1 0.5897 -12.698368195822633 0.755216036785713 1.9712178365910895 1 0 0
52 18 2 -1.1794 -12.568300921726278 -0.09820282336779051 2.3846400608583016 1 0 0
258 86 1 0.5897 -12.374054463790172 -2.8834978509362887 1.196706366936897 1 1 0
301 101 2 -1.1794 -8.23168050875115 -2.1572727697878076 1.6438929476482869 1 1 0
67 23 2 -1.1794 -10.902151919676333 -1.999700402964617 4.0446877578627864 1 0 0
84 28 1 0.5897 -8.097423927085853 -0.42507187155252524 4.257881355052066 1 0 0
302 101 1 0.5897 -7.749541742967574 -1.718246582112326 2.3446790859168085 1 1 0
107 36 1 0.5897 -9.151407369788247 1.7460836430069744 3.28821809879034 1 0 0
97 33 2 -1.1794 -11.643627893731647 0.5464136026810937 5.264222122317286 1 0 0
44 15 1 0.5897 -10.071798294840422 0.7018686768488767 0.15095742432336023 1 0 0
281 94 1 0.5897 -9.189833437482626 -3.592592128360767 1.1217370634162156 1 1 0
256 86 2 -1.1794 -12.100693120898377 -3.378232829892081 1.9692240662537275 1 1 0
273 91 1 0.5897 -10.554090751092373 -1.612389921918206 0.0525923521502598 1 1 0
426 142 1 0.5897 -8.694640469523188 -1.829803867569824 6.712868238667373 1 0 0
430 144 2 -1.1794 -12.209124774503099 -2.4262516741182916 8.51747853371304 1 0 0
528 176 1 0.5897 -12.661889145634335 0.624784631115034 9.543241343002595 1 0 0
402 134 1 0.5897 -10.677757321253978 -0.4591637606820118 6.522899100611679 1 0 0
401 134 1 0.5897 -10.94260707858578 -1.3731832380626203 7.70023774083346 1 0 0
400 134 2 -1.1794 -10.238308437814956 -0.9177842852490645 7.239028183558891 1 0 0
527 176 1 0.5897 -12.113982744597951 1.633105242393361 8.555945130373635 1 0 0
526 176 2 -1.1794 -12.927183583068437 1.2134389332485753 8.83659445091335 1 0 0
424 142 2 -1.1794 -7.815580837856987 -2.1821883907997544 6.852118275088367 1 0 0
537 179 1 0.5897 -8.946605219354222 -0.21763564134109714 8.461777357708694 1 0 0
536 179 1 0.5897 -9.37332250493008 -0.03837719567086317 9.903226524640846 1 0 0
535 179 2 -1.1794 -8.622397279489249 0.061431865188005474 9.318123972883473 1 0 0
425 142 1 0.5897 -7.295875725043098 -1.427949611546441 7.129989399757695 1 0 0
435 145 1 0.5897 -7.198261821666867 -0.7863170645058464 10.062719902945421 0 0 0
417 139 1 0.5897 -8.679020326582592 1.0459535792394892 5.693524709532486 1 0 0
411 137 1 0.5897 -13.439535669312338 0.10500494584937847 5.9998058435816075 1 0 0
836 279 1 0.5897 -11.470473988518588 -1.1826712282605651 10.676885802497544 1 0 0
835 279 2 -1.1794 -11.201167349088283 -0.2660445643723559 10.735150144461633 1 0 0
522 174 1 0.5897 -9.65303283921096 2.069181586615274 7.690784618432401 1 0 0
520 174 2 -1.1794 -10.277552111620581 2.549877390652492 8.234081378607879 1 0 0
760 254 2 -1.1794 -8.576506068247074 1.454801066764757 12.57042744947219 0 0 0
790 264 2 -1.1794 -10.614701672775935 -0.09963238141140174 13.634089465623129 0 0 0
791 264 1 0.5897 -10.518464617634601 -0.9761892889836279 14.006299212196309 0 0 0
837 279 1 0.5897 -11.209401414781482 -0.0725642775505797 11.67258758073006 1 0 0
762 254 1 0.5897 -8.99647957552045 2.065572046023597 11.964741714982965 0 0 0
761 254 1 0.5897 -9.285004728994123 0.8813491374463283 12.862541812402016 0 0 0
897 299 1 0.5897 -7.63430639254872 2.558125425633545 14.136948651375597 0 0 0
792 264 1 0.5897 -11.355121373524828 0.28156974245885813 14.106030951550878 0 0 0
896 299 1 0.5897 -7.601148264650279 2.5233840970634027 15.650144562656982 0 0 0
770 257 1 0.5897 -11.79491212311795 2.8106390975259625 13.199101778259578 0 0 0
888 296 1 0.5897 -10.222440483213571 3.3032658743609815 15.21244062382399 0 0 0
769 257 2 -1.1794 -12.062944132418336 2.5378283581349486 12.321575986303944 0 0 0
857 286 1 0.5897 -13.258675649931146 1.2245660091176944 12.178084765871525 1 0 0
866 289 1 0.5897 -11.997208369411474 1.6430803264690166 16.03412655628356 0 0 0
1196 399 1 0.5897 -9.31361823234512 1.1444831476343271 16.004778954990805 0 0 0
865 289 2 -1.1794 -12.430235651904853 1.0831250451937517 15.389758745544034 0 0 0
771 257 1 0.5897 -11.40502276165563 2.9191434380097228 11.740272850653774 0 0 0
1195 399 2 -1.1794 -9.351781085411481 2.081124770754613 16.198184804144276 0 0 0
1216 406 2 -1.1794 -12.33206830198026 2.877920951442338 17.881643682828898 0 0 0
1260 420 1 0.5897 -10.150770707217614 2.7472730292593734 19.655071865063995 0 0 0
1235 412 1 0.5897 -9.048656406493038 -0.5389056102470047 20.41776930743549 0 0 0
1259 420 1 0.5897 -9.110100218188396 1.6505263538013004 19.576810392609136 0 0 0
1258 420 2 -1.1794 -9.37631995518895 2.472221383912377 19.164324025345703 0 0 0
1236 412 1 0.5897 -7.619941173459344 -0.05529566440652367 20.288330409239023 0 0 0
1206 402 1 0.5897 -11.155723471279078 -0.00916834159461466 18.396448802480514 0 0 0
1249 417 2 -1.1794 -11.35617210000376 0.6608777241657595 21.70799569828384 0 0 0
1234 412 2 -1.1794 -8.501403734449191 0.2401312945382692 20.516430525853668 0 0 0
1205 402 1 0.5897 -11.824040862961597 1.3184752941270563 18.683681359298014 0 0 0
1246 416 2 -1.1794 -5.934433835191886 -0.8584335947066499 20.242194561747766 0 0 0
1099 367 2 -1.1794 -9.684648766396108 -0.6523248911170558 17.178561976291988 0 0 0
1100 367 1 0.5897 -8.911540947780944 -1.128527259907191 17.48161836466318 0 0 0
1011 337 1 0.5897 -12.12639620705685 3.9692074882404444 21.069392834175826 0 -1 0
1197 399 1 0.5897 -9.357004102607577 2.12879240816366 17.15421863588038 0 0 0
1009 337 2 -1.1794 -11.322027351193253 3.5112724918854834 21.313535284720434 0 -1 0
1229 410 1 0.5897 -7.746415176132452 3.6058176770724124 18.61629506955173 0 0 0
1251 417 1 0.5897 -11.167513520322188 1.5975791060917484 21.763851278167273 0 0 0
1217 406 1 0.5897 -11.824030832615032 3.6873065889009045 17.93578092959333 0 0 0
1204 402 2 -1.1794 -11.64745350157599 0.46073745214323303 19.06998166756432 0 0 0
1101 367 1 0.5897 -10.078941773907845 -1.2273139170437393 16.52268669453575 0 0 0
42 14 1 0.5897 -15.955131513900788 4.052667585684372 1.0611105859163603 1 0 0
66 22 1 0.5897 -13.714326237161242 2.7672312694254355 1.6094626878290312 1 0 0
176 59 1 0.5897 -14.423839709742941 4.717252073667936 4.4104270489800586 1 0 0
56 19 1 0.5897 -12.622738577607896 5.865635325779337 1.1066213974863985 1 0 0
65 22 1 0.5897 -12.26733622316433 3.0998918403759674 1.3137429475117217 1 0 0
64 22 2 -1.1794 -12.879536768306366 2.3661019275133643 1.367583261459155 1 0 0
177 59 1 0.5897 -14.569892350631452 4.599784907825702 2.908118173769308 1 0 0
190 64 2 -1.1794 -11.865245254895282 7.125966897101682 3.985876369201863 1 0 0
108 36 1 0.5897 -10.222870422653576 2.794097437341625 3.5017993108223675 1 0 0
183 61 1 0.5897 -12.49736932327427 3.734987313308224 3.989880926152768 1 0 0
162 54 1 0.5897 -14.780090233790048 6.957134520989149 1.7974278176543945 1 0 0
191 64 1 0.5897 -12.63865212997964 6.577124572897935 3.8561890544078588 1 0 0
55 19 2 -1.1794 -13.501632104514936 6.0876340678641565 0.7990604127490177 1 0 0
175 59 2 -1.1794 -13.94205929334991 4.834209052888493 3.5916300533317242 1 0 0
181 61 2 -1.1794 -11.703212407083656 3.3289092840891197 4.337357129204848 1 0 0
40 14 2 -1.1794 -15.468506287707696 3.5594765909252697 1.7216129211970612 1 0 0
57 19 1 0.5897 -13.654776943557286 5.495833452748718 0.06245362222688394 1 0 0
85 29 2 -1.1794 -11.080455861270769 4.709662197654417 1.3618397000006923 1 0 0
182 61 1 0.5897 -11.35977987685184 3.9685067056979477 4.961232646458991 1 0 0
43 15 2 -1.1794 -10.078441674106765 1.6470013307054483 -8.090244316096701e-05 1 0 0
106 36 2 -1.1794 -9.497914602638442 2.559867977868187 2.922290142300644 1 0 0
45 15 1 0.5897 -10.0544896527791 2.030319715513601 0.8767252002965383 1 0 0
192 64 1 0.5897 -11.133897003119573 6.508786294418783 4.008226606298326 1 0 0
1033 345 2 -1.1794 -16.8880864127888 5.4614280345383115 0.04232575379539927 0 -1 1
1035 345 1 0.5897 -16.501551458863155 6.334010181654673 0.11525619671517318 0 -1 1
508 170 2 -1.1794 -13.28600924041282 6.563533852110961 7.063329334328782 1 0 0
533 178 1 0.5897 -10.37650971106002 5.596034640711693 6.557204866765578 1 0 0
510 170 1 0.5897 -13.69558255243438 7.0092404374189226 6.321776355866407 1 0 0
509 170 1 0.5897 -14.013805333740107 6.146407392700315 7.524287219840296 1 0 0
644 215 1 0.5897 -12.7067978280283 7.372563751721733 10.066590864378925 1 0 0
645 215 1 0.5897 -12.213384615849064 7.10925132026089 8.659752620061974 1 0 0
643 215 2 -1.1794 -11.916879625326334 7.387951895270865 9.526196127361327 1 0 0
521 174 1 0.5897 -10.451305866663427 3.3543559166371946 7.745394622371667 1 0 0
543 181 1 0.5897 -10.347663593576174 6.016858943542948 9.461234197248453 0 0 0
532 178 2 -1.1794 -11.055986147076474 4.925686838363365 6.628599968976355 1 0 0
534 178 1 0.5897 -11.879039571797891 5.412233512955536 6.582124215634202 1 0 0
457 153 2 -1.1794 -9.953728835337996 3.3387323232561528 10.884371790262952 0 0 0
459 153 1 0.5897 -9.727937491808992 4.247333397212424 10.685440539221203 0 0 0
458 153 1 0.5897 -10.10687390458727 2.936767996984372 10.029226233447817 0 0 0
519 173 1 0.5897 -16.82423165338379 7.333527649832861 5.7503160597960195 1 0 0
900 300 1 0.5897 -14.489357756316299 7.971738442648055 14.381566523815339 0 0 0
898 300 2 -1.1794 -13.711350900082088 7.70455600689956 13.892097459591957 0 0 0
847 283 2 -1.1794 -14.444120631333346 4.419311704890582 11.693296787253717 1 0 0
887 296 1 0.5897 -10.011143500480577 4.270843469199054 14.067487578340383 0 0 0
899 300 1 0.5897 -13.47637082314883 6.853135624057304 14.260955627211029 0 0 0
944 315 1 0.5897 -14.517028926012552 6.151109398542355 11.174287637811213 1 0 0
874 292 2 -1.1794 -13.328760534392178 4.857812721422995 14.789873452622778 0 0 0
876 292 1 0.5897 -12.440881645323262 4.518854352138412 14.904293888790738 0 0 0
945 315 1 0.5897 -14.304034065286045 7.502272622667261 11.822953988515204 1 0 0
848 283 1 0.5897 -13.64188528600073 4.134490869878114 12.131060061026067 1 0 0
965 322 1 0.5897 -16.073978840731122 8.403068791333359 12.581085234782318 1 0 0
875 292 1 0.5897 -13.897106428920303 4.113157786531746 14.986309966464631 0 0 0
943 315 2 -1.1794 -14.274864243025096 7.055786368786064 10.976735996458363 1 0 0
886 296 2 -1.1794 -10.696773699822112 3.851115158145925 14.587010290688395 0 0 0
1043 348 1 0.5897 -12.23790711474551 9.043954110598714 19.943704502017376 0 -1 0
1208 403 1 0.5897 -12.721080675868755 6.215154802601969 17.54997084560976 0 0 0
1207 403 2 -1.1794 -13.475610588430293 6.684143394713052 17.19352127456939 0 0 0
1209 403 1 0.5897 -13.865979586761636 6.071976814482829 16.5697303624685 0 0 0
1018 340 2 -1.1794 -11.756636702673802 7.402702590275583 20.523782728495647 0 -1 0
1019 340 1 0.5897 -12.40079301748731 6.714271350891398 20.688897558423566 0 -1 0
1020 340 1 0.5897 -10.946485053211298 6.931621324545377 20.32879518700943 0 -1 0
1030 344 2 -1.1794 -9.372140272027425 5.993658677679436 19.98279047907109 0 -1 0
1237 413 2 -1.1794 -10.969572021607165 5.282247616063712 17.683073550289485 0 0 0
990 330 1 0.5897 -14.318253993862442 7.30762307386137 18.595818865022522 0 -1 0
1032 344 1 0.5897 -8.944245090810856 5.440440271413804 20.636349543418888 0 -1 0
1238 413 1 0.5897 -10.475517370902516 5.422925340196418 18.490822872905813 0 0 0
1239 413 1 0.5897 -10.299866925209963 5.14935349486009 17.01219118392596 0 0 0
1003 335 2 -1.1794 -13.350816892434246 5.212280601772873 20.63908744966411 0 -1 0
980 327 1 0.5897 -12.568990474450981 8.355432875197897 16.730006604643332 0 -1 0
1031 344 1 0.5897 -8.67385222472873 6.559040219766551 19.65282888625835 0 -1 0
1034 345 1 0.5897 -14.671869221317621 8.249902681748098 21.057960984881554 0 -1 0
989 330 1 0.5897 -15.138645261050788 8.538602937823823 18.917608032460766 0 -1 0
650 217 1 0.5897 -15.434696389510911 8.844423785465084 16.700715710085948 0 -1 0
174 58 1 0.5897 -16.473943469778078 10.382866735187209 1.8590052005759667 1 0 0
173 58 1 0.5897 -15.19400632820867 10.590755290419365 1.0777196654277224 1 0 0
172 58 2 -1.1794 -15.757019670963198 9.906722461349043 1.4399868784130427 1 0 0
161 54 1 0.5897 -15.399835651482672 8.253074098447057 2.2752530831896194 1 0 0
193 65 2 -1.1794 -13.983108578221804 12.023016348873222 1.2450878065949542 1 0 0
215 72 1 0.5897 -12.333065932185916 8.833530073137362 3.4007060179257182 1 0 0
148 50 2 -1.1794 -18.277965938311922 11.144834828384463 1.8497999473716833 1 0 0
160 54 2 -1.1794 -15.401657686051767 7.309281564295164 2.4345366852533155 1 0 0
150 50 1 0.5897 -18.696278300160287 11.622690322371602 1.1335831234693476 1 0 0
291 97 1 0.5897 -15.174363030033913 10.922873018912872 4.550614369688092 1 0 0
289 97 2 -1.1794 -14.428065788673397 10.520632621154762 4.995104519453683 1 0 0
285 95 1 0.5897 -17.07653719113327 11.816121514973906 3.0077597618925824 1 0 0
284 95 1 0.5897 -17.16962744503674 11.476346262292948 4.480130743927654 1 0 0
283 95 2 -1.1794 -16.56611038863634 11.812453327220046 3.817573804068961 1 0 0
216 72 1 0.5897 -13.144809651125396 10.099978416439937 3.5711538447697713 1 0 0
1118 373 1 0.5897 -16.180472341917778 8.841342761770699 0.026969392929582545 0 -1 1
206 69 1 0.5897 -14.982589290748997 7.544269622069267 4.120896223084542 1 0 0
152 51 1 0.5897 -13.02810359134611 8.016723410691386 0.3210820430636348 1 0 0
153 51 1 0.5897 -12.849840856302421 9.192790528352122 1.2575528175528567 1 0 0
214 72 2 -1.1794 -12.527178673085523 9.670653991554753 2.979147458103511 1 0 0
151 51 2 -1.1794 -12.76356124271546 8.936400304780184 0.3393395244711078 1 0 0
205 69 2 -1.1794 -14.81408395982325 7.772195796171131 5.035212854104247 1 0 0
207 69 1 0.5897 -14.636947697649887 8.712671638257218 5.019369417418587 1 0 0
646 216 2 -1.1794 -18.21323550415694 12.039510801723408 8.488310290201579 1 0 0
640 214 2 -1.1794 -13.875515426775447 12.54463623514273 6.906825181159278 1 0 0
566 189 1 0.5897 -12.908181870987477 10.032835331290913 9.728415066460018 0 0 0
630 210 1 0.5897 -12.73499270351077 9.504592433821651 7.3182050172409925 1 0 0
629 210 1 0.5897 -13.326702041645142 10.773700296833136 7.893631151782555 1 0 0
628 210 2 -1.1794 -13.198646749155523 9.844366697652754 8.083606291301873 1 0 0
635 212 1 0.5897 -14.903904703722596 9.361968214287893 8.23190649220729 1 0 0
634 212 2 -1.1794 -15.700038537959847 8.873796965249722 8.441737233736598 1 0 0
617 206 1 0.5897 -16.938011948555264 13.002167492446953 7.547812020649425 1 0 0
642 214 1 0.5897 -14.75194358099319 12.903450765683905 7.046181252750128 1 0 0
565 189 2 -1.1794 -12.886331303271717 10.26418576667338 10.657019080493072 0 0 0
567 189 1 0.5897 -12.644918207112763 11.190317675744579 10.66799780409118 0 0 0
636 212 1 0.5897 -15.432945899121583 8.263152667099321 9.128773277285967 1 0 0
327 109 1 0.5897 -13.154597024380271 13.315037915208466 10.010883291949913 0 -1 0
518 173 1 0.5897 -16.827781080322627 7.953618060141357 7.131446632722059 1 0 0
583 195 2 -1.1794 -18.488005242514696 11.37792686073927 5.722722486213979 1 0 0
624 208 1 0.5897 -17.186789901432554 9.522961064314371 9.016071746754495 1 0 0
290 97 1 0.5897 -14.134237308027256 11.184216282681527 5.619261946207955 1 0 0
525 175 1 0.5897 -11.739565398910969 8.25424636587598 5.4803835148234645 1 0 0
585 195 1 0.5897 -18.526546044148105 11.646970417480295 6.640561806326572 1 0 0
879 293 1 0.5897 -14.545233022004233 9.899421864669991 11.696014855657493 0 0 0
870 290 1 0.5897 -11.903738812084505 9.400844772728915 11.974637973992628 0 0 0
877 293 2 -1.1794 -15.075906049258716 10.049866862419234 12.478323964235948 0 0 0
658 220 2 -1.1794 -15.969932956656619 12.140203836146101 15.076479906759321 0 -1 0
672 224 1 0.5897 -13.13674022772209 10.093834150970421 15.329785969579797 0 -1 0
671 224 1 0.5897 -12.598553484162828 10.996543669496985 14.240202134210296 0 -1 0
670 224 2 -1.1794 -13.409247155432407 10.743394796143749 14.681669818429906 0 -1 0
660 220 1 0.5897 -15.067241169787039 11.826870162203994 15.133793072726037 0 -1 0
680 227 1 0.5897 -10.742992138398247 9.770045438877814 15.969561009170295 0 -1 0
878 293 1 0.5897 -14.438413183883364 10.222632681215666 13.171213582802437 0 0 0
683 228 1 0.5897 -16.653209274328717 13.707112732316881 14.189609315874096 0 -1 0
956 319 1 0.5897 -16.63525409960624 10.817484324659167 11.767841275530383 1 0 0
868 290 2 -1.1794 -11.6165790391497 9.209197627368136 12.867460579405158 0 0 0
728 243 1 0.5897 -17.020209650544913 13.135260175423094 11.212644096252845 1 -1 0
955 319 2 -1.1794 -17.479853788630056 11.15228140209888 11.466361901874887 1 0 0
659 220 1 0.5897 -16.481327625457638 11.360581943230942 14.86010981882882 0 -1 0
869 290 1 0.5897 -12.351946053124314 8.738998522499157 13.260286796772062 0 0 0
1022 341 1 0.5897 -13.020185818628526 12.540823713651507 18.72119101090482 0 -1 0
1140 380 1 0.5897 -11.454487950452188 12.734116626945992 20.930342788249508 0 -1 0
992 331 1 0.5897 -15.043456106450545 13.43325527745674 17.613660267927486 0 -1 0
981 327 1 0.5897 -12.343301733404058 9.461147676793816 17.739147419160755 0 -1 0
1119 373 1 0.5897 -14.858675193187377 11.241911779908454 20.93423633409702 0 -1 0
1138 380 2 -1.1794 -11.958740858274437 13.29681668724126 20.34264681028206 0 -1 0
1128 376 1 0.5897 -13.470373316669836 14.242942833521012 20.375998981325765 0 -1 0
1042 348 2 -1.1794 -12.245217082452447 9.94339823611278 19.616500651577244 0 -1 0
1127 376 1 0.5897 -14.97544456865317 14.079667566543401 20.366018775857334 0 -1 0
1002 334 1 0.5897 -16.110972013969494 10.651587074534168 18.280702971679244 0 -1 0
1023 341 1 0.5897 -12.975127509546866 12.502817077733882 17.208384204675536 0 -1 0
1000 334 2 -1.1794 -15.306300728828742 10.161622416970465 18.11122009224123 0 -1 0
979 327 2 -1.1794 -12.256439279030221 9.256734360193933 16.808037579556263 0 -1 0
1044 348 1 0.5897 -12.813808936599598 10.415492502156335 20.224848311261606 0 -1 0
991 331 2 -1.1794 -15.900562401590797 13.78797964408533 17.377321978523863 0 -1 0
1021 341 2 -1.1794 -13.579361595108193 12.453645841167466 17.94913685110796 0 -1 0
1111 371 2 -1.1794 -16.143511110512925 12.647737682955396 20.486907084014156 0 -1 0
1001 334 1 0.5897 -14.640595666633565 10.834754183526131 17.97026598450322 0 -1 0
1117 373 2 -1.1794 -13.993186902264336 11.108437781907478 21.320818072332994 0 -1 0
1126 376 2 -1.1794 -14.286211236915419 14.74358002292814 20.384310507521317 0 -1 0
1098 366 1 0.5897 -17.094763429124015 14.537717400531703 18.588939900726764 0 -1 0
1113 371 1 0.5897 -16.56648799790699 12.372380425238036 19.67352108882249 0 -1 0
993 331 1 0.5897 -16.13502494715319 13.331011873787252 16.569555905052407 0 -1 0
1013 338 1 0.5897 -10.875924176659783 10.958268987843754 18.810111016872888 0 -1 0
241 81 2 -1.1794 -0.9059146725535197 -6.5878596565317 5.278121383281436 0 1 0
318 106 1 0.5897 -2.940192470459402 -4.013280692016431 1.549628904168343 1 1 0
305 102 1 0.5897 -2.0115183354720223 -6.076996861869244 2.233803328739908 1 1 0
304 102 2 -1.1794 -1.5623482435743306 -6.8689192737646145 2.529333279116502 1 1 0
316 106 2 -1.1794 -2.0802386437736953 -4.430847773111815 1.500868087261921 1 1 0
242 81 1 0.5897 -1.000335780534833 -6.943393208767949 4.394389872587536 0 1 0
306 102 1 0.5897 -1.0085937206896158 -7.120735571936761 1.790279562278537 1 1 0
311 104 1 0.5897 -2.8183508723830286 -8.013616733869853 3.078245211312381 1 1 0
310 104 2 -1.1794 -3.4032269767450227 -8.682014169246102 3.435022828665356 1 1 0
199 67 2 -1.1794 0.3704154618496318 -7.837722062805547 0.6861115348277601 1 1 0
293 98 1 0.5897 -5.142759733069739 -3.624909487906602 2.2068655544611664 1 1 0
261 87 1 0.5897 -6.515408612223345 -4.882948748403587 1.032407912936845 1 1 0
243 81 1 0.5897 -0.8311258828086583 -5.6423297365945135 5.149653373234544 0 1 0
317 106 1 0.5897 -1.458314532082289 -3.716165171830599 1.6372549772616596 1 1 0
1262 421 1 0.5897 -1.917743269790618 -5.498577239766405 -0.03157811152283504 0 0 1
348 116 1 0.5897 -1.2249777019940087 -6.2704450365761595 9.919263155001058 0 0 0
347 116 1 0.5897 -0.9945616331204334 -5.316949239584164 8.766212937777867 0 0 0
346 116 2 -1.1794 -1.6814777762294462 -5.809326472971389 9.215499848627863 0 0 0
336 112 1 0.5897 -3.2712304086555193 -5.041898112375529 9.351531865172547 0 0 0
404 135 1 0.5897 -5.050129651329167 -3.561018057677609 5.959863324038065 1 0 0
334 112 2 -1.1794 -4.096293273573035 -4.64832532341946 9.635521388795887 0 0 0
555 185 1 0.5897 -2.3897091981810803 -6.597954635674284 6.637996526342714 0 1 0
546 182 1 0.5897 0.1788482344813218 -7.352012067358576 6.6236713906332865 0 1 0
554 185 1 0.5897 -2.89152626195178 -6.894992491572499 8.035084119710158 0 1 0
356 119 1 0.5897 1.136889981433871 -6.945647286712929 10.410351209614616 0 0 0
553 185 2 -1.1794 -3.164505749814559 -6.890986497938827 7.117590277205358 0 1 0
632 211 1 0.5897 -4.524745736047388 -5.759982433886417 6.435739268282656 1 1 0
631 211 2 -1.1794 -5.378048576892046 -5.497884148145172 6.090044937655813 1 1 0
359 120 1 0.5897 -4.491051912848553 -2.9317315526248464 8.959659620976437 0 0 0
544 182 2 -1.1794 0.4755433667956659 -7.800766143999195 7.415426868321165 0 1 0
335 112 1 0.5897 -4.690302857312786 -5.390483753282364 9.747243014166422 0 0 0
357 119 1 0.5897 1.3088947678341274 -6.980461189339439 8.906610546835733 0 0 0
789 263 1 0.5897 -4.498132811337087 -4.771187206228205 14.340768294577154 0 0 0
816 272 1 0.5897 0.80020892575115 -4.310219134994776 15.439909538919906 0 0 0
657 219 1 0.5897 -0.0940620739855671 -7.121517471454336 12.13009724006686 0 0 0
795 265 1 0.5897 -2.1820259622093996 -5.577596525223746 15.200375870386324 0 0 0
655 219 2 -1.1794 -0.3761963816763245 -7.420397520864601 11.26558180178269 0 0 0
668 223 1 0.5897 -2.78663292072458 -3.427788844646223 11.972642510210486 0 0 0
678 226 1 0.5897 -3.9554554859105533 -6.416119923360756 13.052375769776143 0 0 0
697 233 2 -1.1794 -1.352544136055279 -4.595123966897417 12.593595355092837 0 0 0
699 233 1 0.5897 -0.924215169100739 -4.421875468808813 11.755298143024122 0 0 0
677 226 1 0.5897 -2.587333620183621 -5.912859665345048 12.643958214858175 0 0 0
804 268 1 0.5897 -1.2303467492900637 -3.130225773922051 15.293792802705651 0 0 0
676 226 2 -1.1794 -3.0753053206791536 -6.7160878589203366 12.825127882944074 0 0 0
667 223 2 -1.1794 -3.6603340072109063 -3.0522691423850237 11.863354706126291 0 0 0
720 240 1 0.5897 -0.23827328655325353 -6.423560021058642 14.38726141135587 0 0 0
814 272 2 -1.1794 0.4914463566306235 -3.7409246486831123 14.735044087716892 0 0 0