#include		in.partitions
include		in.temp
variable        temperature equal 122.41
variable	tempDamp equal 100.0
include		in.pressure
variable        pressure equal 5043.8
variable        pressureDamp equal 1000.0 # This is 1 ps
include		in.seed
variable        seed equal 745823

units		real
atom_style	full
box tilt large
read_restart	restart.lmp.${pid}
read_restart	restart.lmp.0
Reading restart file ...
  restart file = 30 Jul 2021, LAMMPS = 30 Jul 2021
  restoring atom style full from restart
  triclinic box = (-10.550852 -9.1919793 0.15539509) to (12.530852 12.181977 21.704604) with tilt (-9.1931295 1.8052945 2.7643440)
  4 by 4 by 4 MPI processor grid
  restoring pair style lj/cut/tip4p/long/omp from restart
  restoring bond style harmonic/omp from restart
  restoring angle style harmonic/omp from restart
  1296 atoms
  864 bonds
  432 angles
Finding 1-2 1-3 1-4 neighbors ...
  special bond factors lj:    0        0        0       
  special bond factors coul:  0        0        0       
     2 = max # of 1-2 neighbors
     1 = max # of 1-3 neighbors
     1 = max # of 1-4 neighbors
     2 = max # of special neighbors
  special bonds CPU = 0.007 seconds
  read_restart CPU = 0.021 seconds
include 	in.setup
variable	out_freq equal 1000
variable	out_freq2 equal 10000
variable	out_freq3 equal 1000

timestep	2.0

neigh_modify    delay 7 every 1

include		in.tip4p
# This is TIP4P/Ice

# create groups ###
group ox type 2
432 atoms in group ox
group hy type 1
864 atoms in group hy

# set charges - beside manually ###
set group ox charge -1.1794
Setting atom values ...
  432 settings made for charge
set group hy charge 0.5897
Setting atom values ...
  864 settings made for charge

# ### TIP3P Potential Parameters ###
pair_style lj/cut/tip4p/long/omp 2 1 1 1 0.1577 8.5
pair_coeff 1 1*2 0.000 0.000
pair_coeff 2 2 0.21084 3.1668
bond_style  harmonic
bond_coeff  1 450 0.9572
angle_style harmonic
angle_coeff 1 55 104.52
kspace_style pppm/tip4p/omp 1.0e-5
pair_modify tail yes

thermo          ${out_freq}
thermo          1000
thermo_style    custom step temp pe etotal epair emol press lx ly lz vol pxx pyy pzz pxy pxz pyz enthalpy

restart 	${out_freq3} restart.lmp.${pid} restart2.lmp.${pid}
restart 	1000 restart.lmp.${pid} restart2.lmp.${pid}
restart 	1000 restart.lmp.0 restart2.lmp.${pid}
restart 	1000 restart.lmp.0 restart2.lmp.0


include         in.dump
dump            myDump all atom ${out_freq2} dump.water.${pid}
dump            myDump all atom 10000 dump.water.${pid}
dump            myDump all atom 10000 dump.water.0
dump            myDump2 all dcd ${out_freq2} dump.dcd
dump            myDump2 all dcd 10000 dump.dcd
dump_modify     myDump append yes
dump_modify     myDump2 append yes


variable natoms 	equal  "count(all)"                        # NUMBER ATOMS
variable H      	equal  "enthalpy/v_natoms"                 # ENTHALPY-per-atom
variable Vol      	equal  "vol/v_natoms"                 # volume-per-atom
fix AVG all 		ave/time ${out_freq} 1 ${out_freq} v_Vol v_H file vol_enthalpy.dat
fix AVG all 		ave/time 1000 1 ${out_freq} v_Vol v_H file vol_enthalpy.dat
fix AVG all 		ave/time 1000 1 1000 v_Vol v_H file vol_enthalpy.dat


timer           timeout 10:00:00 every 1000
New timer settings: style=normal  mode=nosync  timeout=10:00:00

fix 		1 all shake 1e-6 200 0 b 1 a 1
       0 = # of size 2 clusters
       0 = # of size 3 clusters
       0 = # of size 4 clusters
     432 = # of frozen angles
  find clusters CPU = 0.001 seconds
fix             2 all nph tri ${pressure} ${pressure} ${pressureDamp}
fix             2 all nph tri 5043.8 ${pressure} ${pressureDamp}
fix             2 all nph tri 5043.8 5043.8 ${pressureDamp}
fix             2 all nph tri 5043.8 5043.8 1000
fix             3 all temp/csvr ${temperature} ${temperature} ${tempDamp} ${seed}
fix             3 all temp/csvr 122.41 ${temperature} ${tempDamp} ${seed}
fix             3 all temp/csvr 122.41 122.41 ${tempDamp} ${seed}
fix             3 all temp/csvr 122.41 122.41 100 ${seed}
fix             3 all temp/csvr 122.41 122.41 100 745823


run             250000
PPPM initialization ...
  extracting TIP4P info from pair style
  using 12-bit tables for long-range coulomb (../kspace.cpp:340)
  G vector (1/distance) = 0.36906183
  grid = 30 40 32
  stencil order = 5
  estimated absolute RMS force accuracy = 0.0041641462
  estimated relative force accuracy = 1.2540203e-05
  using double precision FFTW3
  3d grid and FFT values/proc = 5168 640
Last active /omp style is kspace_style pppm/tip4p/omp
Neighbor list info ...
  update every 1 steps, delay 7 steps, check yes
  max neighbors/atom: 2000, page size: 100000
  master list distance cutoff = 10.8154
  ghost atom cutoff = 10.8154
  binsize = 5.4077, bins = 7 5 4
  1 neighbor lists, perpetual/occasional/extra = 1 0 0
  (1) pair lj/cut/tip4p/long/omp, perpetual
      attributes: half, newton on, omp
      pair build: half/bin/newton/tri/omp
      stencil: half/bin/3d/tri
      bin: standard
Per MPI rank memory allocation (min/avg/max) = 9.445 | 9.451 | 9.456 Mbytes
Step Temp PotEng TotEng E_pair E_mol Press Lx Ly Lz Volume Pxx Pyy Pzz Pxy Pxz Pyz Enthalpy 
12250000     127.5785   -6684.0701   -6355.8822   -6684.0701            0    5571.8837    23.081704    21.373957    21.549209    10631.245     5533.407    6414.9816    4767.2626   -23.872044    496.09233   -285.68243    -5491.985 
12251000    123.17072   -6700.7691   -6383.9199   -6700.7691            0     4401.986    23.070125    21.511496    21.510259    10674.959    4774.9059    3445.6937    4985.3585    150.95607    680.13694    220.32402   -5698.6041 
12252000    128.49831   -6715.4641     -6384.91   -6715.4641            0    3940.9566    23.041806    21.521636    21.587242    10705.056    4922.6803    3404.4077    3495.7818    796.88016     39.38284   -357.74528    -5769.639 
12253000    125.01081   -6698.8994   -6377.3167   -6698.8994            0    6038.7862    23.108055    21.399497    21.428131    10596.227    5547.5022    6187.5555    6381.3008   -18.077895    1329.3458   -448.08705   -5444.1123 
12254000    113.08044   -6690.9611   -6400.0685   -6690.9611            0    5502.5245    23.115242    21.303968    21.616356    10644.896    6630.8177    5009.4267     4867.329    289.72139   -594.07451   -160.50516   -5545.8297 
12255000    122.57383   -6702.8255   -6387.5118   -6702.8255            0    3852.2351    23.250702     21.40034    21.486869    10691.284    3957.8819    3089.5425    4509.2809   -580.05907    109.45741    848.86804   -5786.8658 
12256000    123.35656   -6695.6737   -6378.3465   -6695.6737            0     4615.579    23.156649    21.326242    21.626648    10680.197    5402.3045    4596.3111    3848.1215    932.89831   -597.01173   -455.68104   -5659.4252 
12257000    118.56188   -6691.7449   -6386.7516   -6691.7449            0    6034.4456    23.148715    21.278976    21.566123    10623.061    5868.4438    6124.0712    6110.8218    717.11964    -490.4947     511.8773   -5451.8564 
12258000    126.92767   -6704.0582   -6377.5445   -6704.0582            0    5213.2377    23.128271    21.243464    21.674114    10649.025    5497.0073     5095.077    5047.6289   -14.860316    104.36991   -519.27144    -5567.902 
12259000    127.19609   -6690.5522    -6363.348   -6690.5522            0    4875.6157    23.315525    21.364077      21.4085    10663.888    4042.6797    5001.8058    5582.3618   -783.02802    369.42447    13.322784   -5605.0831 
12260000    123.46598   -6699.3668    -6381.758   -6699.3668            0    4843.3229    23.117551     21.31997    21.660859     10675.89    4903.2952    5277.3213    4349.3521    405.32716    27.622029   -714.35964   -5627.6677 
12261000    122.33331   -6696.0103   -6381.3153   -6696.0103            0    5175.2605    23.235638    21.249036    21.547826    10638.915    4741.7669    4856.5445    5927.4701    510.52655     287.2125    410.86382    -5578.334 
12262000    126.20436   -6688.0299   -6363.3769   -6688.0299            0    5600.4756    23.142898     21.28819    21.643339    10663.032     5802.379    5785.8571    5213.1908   -114.57196   -432.46464   -95.479677   -5492.4504 
12263000    130.04267   -6705.1737   -6370.6468   -6705.1737            0    4960.1861    23.277064    21.335521    21.478253    10666.708    4285.4032    6013.7955    4581.3595     143.9939    693.06164   -740.44504   -5599.0254 
12264000    122.51077   -6715.9786   -6400.8271   -6715.9786            0    5097.5391    23.172291    21.254626    21.633317    10654.806    5460.1194    5133.0658    4699.4321    243.23403   -556.81802   -298.79329   -5608.7235 
12265000    125.56102    -6701.188   -6378.1899    -6701.188            0     5977.725    23.103301    21.296586    21.569739    10612.774    6849.1054    6308.9902    4775.0793   -951.44102    651.81741    251.97524    -5452.979 
12266000     125.5109   -6707.6847   -6384.8155   -6707.6847            0    5146.6635    23.174918    21.315883    21.572964    10656.911    5315.2409    5346.4335    4778.3159    104.47244   -50.279233   -923.23575   -5584.9205 
12267000    123.01038    -6697.738   -6381.3013    -6697.738            0    5540.7565    23.171224    21.345409    21.553301    10660.247    5978.0123    4901.6047    5742.6525    602.60197   -357.55296    -411.8877   -5519.8867 
12268000     119.2093   -6704.8961   -6398.2375   -6704.8961            0    4981.2034    23.281999     21.23924    21.551408    10656.998     4476.429    4614.6806    5852.5007    732.80466   -43.581478    105.81208   -5624.0519 
12269000    122.62041   -6701.6249   -6386.1914   -6701.6249            0     4693.776    23.170416    21.204348    21.696643    10659.855      5285.32    4795.8012    4000.2067    124.21571   -952.66916    1254.9323   -5656.4826 
12270000    119.04813   -6698.4306   -6392.1866   -6698.4306            0    4913.4772    23.287253    21.243101    21.568462    10669.778    4440.2347    4587.1053    5713.0915    358.53465    63.041255    663.64048   -5627.6114 
12271000    124.65483   -6719.1893   -6398.5224   -6719.1893            0    5122.2281    23.305717     21.20185     21.53111    10639.045    4412.2234    6062.5194    4891.9415   -122.61133   -274.96834   -592.87919   -5603.7597 
12272000    121.94567   -6696.1788    -6382.481   -6696.1788            0    4690.5499    23.351838    21.167728    21.574426    10664.354    3296.4293    5629.2622    5145.9582   -257.77188    191.18914     392.2143    -5652.966 
12273000    121.61852   -6704.4122   -6391.5559   -6704.4122            0    5042.6726     23.29316    21.148308     21.62101    10650.746    4350.0126    5104.4845    5673.5208    233.35249    30.852091    1182.2319   -5608.2766 
12274000    134.27796   -6696.1862   -6350.7644   -6696.1862            0    5248.1595    23.289604    21.254166     21.53746    10661.066    4326.2541    5282.3563    6135.8682     144.6656   -434.06849    486.76857   -5534.7768 
12275000    128.07823   -6695.3581   -6365.8847   -6695.3581            0    3468.2605    23.391875    21.238078    21.617411    10739.497     3380.473    3455.5192    3568.7893   -37.591165   -1150.1243    30.293669   -5822.6699 
12276000    121.78894   -6675.0872   -6361.7926   -6675.0872            0    6189.7885    23.176772    21.206739     21.59507    10614.058    6807.7256    6203.3872    5558.2527    165.76539    16.879763    1311.1571   -5403.6433 
12277000    122.85238   -6693.3874   -6377.3572   -6693.3874            0     5525.659    23.259933    21.216555    21.549434    10634.552    5080.1007    5663.5459    5833.3305    202.00098     461.2656    69.664035   -5520.3604 
12278000     121.7718   -6711.5196   -6398.2691   -6711.5196            0    5293.3892    23.200063    21.270699    21.595274    10656.869    5314.6252    5571.0212    4994.5213   -394.52164    293.80517    -572.9828   -5575.5732 
12279000    120.51755   -6710.0462   -6400.0221   -6710.0462            0    4205.7217    23.271422    21.265261    21.597053    10687.795    3470.8844    5198.8569    3947.4238   -585.10704    655.91948    41.758281    -5744.474 
12280000    127.79616   -6692.1974   -6363.4496   -6692.1974            0    5610.8934    23.133887     21.28143    21.634659    10651.222    6442.9185    5392.4703    4997.2915    -362.9824   -82.950497    709.96811   -5491.8694 
12281000    125.69423    -6693.873   -6370.5322    -6693.873            0    4782.0489     23.24368    21.330984    21.515679    10667.701    4478.8251    4368.5668    5498.7547   -327.87355   -1073.2992    170.46189   -5626.5531 
12282000    124.54238   -6699.5919   -6379.2142   -6699.5919            0    4487.4406    23.270822     21.28217    21.613879    10704.351    4547.1097    4785.3703    4129.8418   -1430.0345    -361.5372   -310.48436   -5678.6709 
12283000    122.38478   -6698.0126   -6383.1852   -6698.0126            0    5262.7144    23.200668    21.301251    21.578321    10664.077    6075.5623    4902.7241    4809.8569   -138.55232    -1161.395    4.2218113   -5564.7036 
12284000    123.75031    -6703.539   -6385.1989    -6703.539            0    5774.2533    23.069626    21.252909     21.65625    10617.987    6934.1599    4734.4697    5654.1301   -343.69123    706.20477   -53.024986   -5491.0416 
12285000    119.80011   -6705.9902   -6397.8117   -6705.9902            0    4928.2672    23.208033    21.394949    21.479457    10665.295     4781.141    4144.4017    5859.2589    136.89993   -51.375064    390.87067   -5631.2572 
12286000    123.21358   -6712.1329   -6395.1735   -6712.1329            0    4569.0164    23.098063    21.367045       21.634    10677.187    5065.6688    3842.4008    4798.9797    -733.7173     458.6339    230.81094   -5683.7054 
12287000    119.19917   -6682.3265   -6375.6939   -6682.3265            0    6044.9225    23.163008    21.354056    21.445284    10607.356    5681.7522     5544.641    6908.3742    537.73566    -189.6748   -164.16254   -5440.5601 
12288000    121.00793   -6696.6673   -6385.3818   -6696.6673            0    5293.5888    23.030584    21.339829    21.698963    10664.362    4948.4324    5671.1025    5261.2316    101.27336     784.2105     899.3278   -5562.0764 
12289000    123.00471   -6698.5008   -6382.0787   -6698.5008            0    4617.9525    23.240605    21.388448     21.44607    10660.423    4725.1284    4290.5234    4838.2056    408.63896    245.96698   -70.588084   -5664.1195 
12290000     120.8333   -6704.0276   -6393.1913   -6704.0276            0     4976.621    23.104299      21.3778    21.597983    10667.656    5027.6223    5705.1555    4197.0851   -587.78893    368.78241   -986.37418   -5618.9444 
12291000    120.27287   -6705.1025   -6395.7079   -6705.1025            0    5052.9286    23.210171    21.338002    21.516706    10656.336     4583.563    4788.2328    5786.9899   -246.91689    288.42066     126.7395   -5610.4236 
12292000     124.6755   -6708.7936   -6388.0735   -6708.7936            0    4441.2299    23.146432    21.318267    21.654028    10685.003    5329.3916    4158.0562    3836.2419   -150.13965    220.37563    231.33169   -5695.9975 
12293000    123.25742   -6691.8163   -6374.7441   -6691.8163            0    5807.1605    23.199708     21.36057    21.422063    10615.896    5402.2494    5327.4959    6691.7361   -1129.2369    164.43338    758.47236   -5475.6682 
12294000     122.5994   -6694.2288   -6378.8493   -6694.2288            0     5202.498    23.181416    21.273085    21.607816    10655.683    5984.8757    4698.2823    4924.3361    210.19453    137.49913    835.73461   -5570.3696 
12295000    114.71233    -6715.391   -6420.3005    -6715.391            0    4145.7545    23.250788     21.30041    21.571839    10683.482    3503.1552    5064.2104     3869.898   -832.44744    124.45164    256.95549   -5774.3604 
12296000    123.37836    -6697.238   -6379.8547    -6697.238            0    4886.2616    23.273678    21.139574    21.694737    10673.716    4059.5512    5865.9016    4733.3322    460.49874   -225.72255    159.98331   -5619.2338 
12297000    122.16096   -6710.6261   -6396.3745   -6710.6261            0    4690.7238    23.331429    21.233742    21.502845    10652.801    4417.7137    5020.3042    4634.1536    86.069559    83.830175   -237.63723   -5667.6229 
12298000    122.94862   -6687.5915   -6371.3136   -6687.5915            0    5117.7594    23.217811    21.233407     21.62852    10662.714    4840.2032    5287.9854    5225.0896    29.494958    226.59415    20.677421   -5575.4778 
12299000    124.57369   -6693.6311   -6373.1729   -6693.6311            0    5090.7649     23.34412    21.185523    21.529713    10647.679    4384.1407    5344.5818    5543.5723   -223.34643    165.53899   -21.156265    -5582.651 
12300000    124.88381   -6706.5184   -6385.2624   -6706.5184            0    4688.0731    23.205809    21.252468    21.633385    10669.168    4863.7969    4755.0735    4445.3491    -34.73013   -490.95784    74.179105   -5655.8035 
12301000     126.8949   -6695.8598   -6369.4304   -6695.8598            0    5033.4452    23.277494    21.300967    21.527738    10674.166     4331.953    5317.0553    5451.3272   -625.90586    401.35285    123.53038   -5585.8651 
12302000    118.66739   -6701.0313   -6395.7666   -6701.0313            0    4688.6056    23.120225    21.250151      21.7123    10667.432    5278.7741    5017.0714    3769.9712   -39.745214   -167.73635   -139.76255   -5666.3436 
12303000     121.8871   -6707.4252   -6393.8781   -6707.4252            0    5134.7435    23.288776    21.361008    21.435421    10663.517    3815.1137     4554.616    7034.5009    388.99563    593.25236    1176.8884    -5595.341 
12304000    124.67875   -6693.9452   -6373.2167   -6693.9452            0    5430.5659    23.094617    21.292992    21.683201     10662.79    6139.5373    5085.9637    5066.1966   -669.90656    132.47904   -332.12485   -5528.7319 
12305000    126.59575   -6705.1679   -6379.5081   -6705.1679            0    5713.7898    23.136563    21.353544    21.525296    10634.521    6087.1017    5426.3265    5627.9413   -722.53645   -145.89661    512.18035   -5493.3359 
12306000    121.46229   -6674.5183    -6362.064   -6674.5183            0    5724.3861    23.140975    21.327588     21.53987    10630.813    5170.4713    5835.6519    6167.0351     814.4554    941.91014    563.29818    -5474.558 
12307000     123.2529   -6693.8234   -6376.7629   -6693.8234            0    6392.2729    23.055698    21.418879    21.478764    10606.798    6409.6854    5940.7257    6826.4075    705.38605   -1014.5644   -717.94166   -5387.9469 
12308000    125.45374   -6709.1505   -6386.4284   -6709.1505            0    5086.9917    23.116191      21.4133    21.526572    10655.523    5581.3538    4041.9426    5637.6788   -43.675417    1090.1512    734.60833   -5595.9106 
12309000    121.06189   -6699.1261   -6387.7018   -6699.1261            0    4212.7057    23.108126    21.379712    21.666661    10704.307    4237.3283    4162.4274    4238.3614     262.7155    776.04976    -294.7611   -5730.0506 
12310000     119.6285   -6710.1927   -6402.4557   -6710.1927            0    5830.1081    23.099974    21.415234    21.481239    10626.583    5541.6322    5490.3652     6458.327    372.61122    448.79261    -81.43574   -5498.9183 
12311000    122.51058   -6700.4323   -6385.2813   -6700.4323            0    4815.0875    23.130269    21.382802    21.605233    10685.731    4681.9853    5118.7671      4644.51    336.60045   -302.25513   -285.12897    -5634.896 
12312000     125.0258   -6697.0653   -6375.4441   -6697.0653            0    4867.1143    23.199475    21.397866    21.464374    10655.329    3861.4269    4874.8683    5865.0477    239.57505    1095.1735     1520.367   -5619.1089 
12313000    130.10931    -6699.383   -6364.6847    -6699.383            0     5272.947    23.096317    21.292616    21.668902    10656.355    5100.9395    5742.8783    4975.0233    440.10448    602.89657    349.10873   -5545.2054 
12314000    118.78078   -6693.1892   -6387.6329   -6693.1892            0    5520.4736    23.275997    21.285419    21.494688    10649.314    5363.4566    4538.0342    6659.9299   -48.183978   -25.256864    436.99886   -5530.2519 
12315000    116.06327    -6706.362   -6407.7963    -6706.362            0    5067.6184    23.223108    21.196195    21.622309    10643.398    5067.8855    5340.9382    4794.0314   -244.59949    305.37151   -233.24392   -5621.1851 
12316000    127.63357   -6700.9536    -6372.624   -6700.9536            0    3760.2281    23.343356    21.214319     21.64215    10717.483    2796.3164    3854.0594    4630.3085    367.88766   -332.85438     328.8499   -5784.8872 
12317000    118.21115   -6708.1937   -6404.1027   -6708.1937            0    5443.5137    23.304175    21.208399    21.499106     10625.81    5568.8971    5846.5179    4915.1262    154.58741   -439.79625   -211.57387   -5560.5403 
12318000    119.57404   -6703.7005   -6396.1035   -6703.7005            0    5558.2081    23.214061    21.219888    21.615999    10648.036    5569.8022    5844.3739    5260.4484    277.00219   -21.969979    750.30355   -5532.9656 
12319000    116.86848   -6711.5556   -6410.9186   -6711.5556            0    4292.6885    23.212679    21.239935    21.661941    10680.113    3451.3374    6039.3671    3387.3609    1170.5659    419.84244    735.54476   -5742.2959 
12320000    122.65689   -6707.6536   -6392.1262   -6707.6536            0    5066.5826    23.206593    21.306846    21.558373    10659.738    4802.7955    5121.0647    5275.8876    395.52295   -162.16226   -62.926935   -5604.4684 
12321000    123.48212   -6698.1372    -6380.487   -6698.1372            0    5342.6006    23.176905    21.256033    21.623877    10652.983    6295.7517    5085.4625    4646.5877   -376.49302    -249.4785   -96.455762   -5550.4454 
12322000    127.00538   -6681.5759   -6354.8623   -6681.5759            0    5209.9256    23.281027     21.24306    21.537774    10651.727    4491.0714    5976.2817    5162.4237   -178.75045    620.14871    183.19539   -5545.5289 
12323000    119.16084   -6705.9151    -6399.381   -6705.9151            0    4939.4901    23.106344    21.297989    21.692718    10675.391     5536.703     5279.181    4002.5861    317.33096   -203.38913    117.44134   -5630.3537 
12324000    123.59105   -6707.4559   -6389.5254   -6707.4559            0    4290.5238    23.214224    21.405292    21.489737    10678.406    5312.0907    2757.7957     4801.685     284.2892    13.273308    33.676842   -5721.3467 
12325000    124.75717   -6706.1502     -6385.22   -6706.1502            0    5350.7077    23.076018    21.371898     21.59352    10649.456    5311.1428     5213.832    5527.1483    317.68145    143.65727    251.09145   -5554.1941 
12326000    124.43023   -6706.4592   -6386.3701   -6706.4592            0    4536.5397    23.195257    21.478552    21.396025    10659.511    3650.0445    3796.0706     6163.504    1076.4094    1029.4389    566.39024   -5681.1285 
12327000    122.62571    -6713.301   -6397.8538    -6713.301            0    5432.4909    22.963016     21.38659    21.668463    10641.395    6147.9203    5196.8528    4952.6997    38.628755   -461.54163   -424.10442   -5554.7647 
12328000    127.35285   -6692.8933   -6365.2858   -6692.8933            0    4973.8002    23.177615     21.46664    21.445136    10669.932    4211.1433    5601.8516    5108.4058    87.564996    649.05729    84.373057   -5591.3127 
12329000    115.37746   -6696.4948   -6399.6933   -6696.4948            0    4506.6654    23.094115    21.412769    21.618671    10690.626    5338.2337    4724.3758    3457.3866    478.41278   -716.92006   -534.04921   -5697.0509 
12330000    122.93335   -6679.8788   -6363.6402   -6679.8788            0    5803.9613    23.051521    21.506646    21.479313    10648.604    5552.1363    5593.1184    6266.6292   -340.98293   -36.963239    677.15226    -5462.291 
12331000    119.32655   -6701.4312   -6394.4709   -6701.4312            0    4766.9929    23.035395    21.395211    21.624363    10657.506    5423.9979    3919.3062    4957.6747   -1.8827454    524.67201   -385.38088    -5653.543 
12332000    124.62465    -6712.906   -6392.3167    -6712.906            0    5340.5244    23.115134    21.395049    21.541745    10653.458     5702.619    5252.9898    5065.9645    709.91209    137.93797    24.407203   -5562.5608 
12333000    121.71427   -6698.8116    -6385.709   -6698.8116            0    4819.6419    23.062343    21.393529    21.646538    10680.075    5903.1368    4144.1256    4411.6633    610.42425   -385.42097   -126.66012   -5635.0115 
12334000    128.63204   -6682.8783   -6351.9802   -6682.8783            0    5813.8801    23.170448    21.322446    21.455662    10600.183    5099.9992    6119.1553    6222.4859   -316.59437   -192.60095    381.60842   -5453.1962 
12335000     118.1939   -6699.2612   -6395.2146   -6699.2612            0    3927.6081    23.201155    21.357854    21.642056    10724.221    3769.9228    3907.2154     4105.686   -193.64541    414.68408    631.65331   -5780.9298 
12336000     119.1517   -6698.4982   -6391.9877   -6698.4982            0    5581.2277    23.232075    21.259247    21.539565    10638.314    5717.9683    5198.8451    5826.8696   -232.73712    5.3686744    371.79833   -5526.0664 
12337000    124.07895   -6721.3995   -6402.2139   -6721.3995            0    4442.2575    23.239013    21.195271    21.666698    10672.088    4068.1601    5171.2242    4087.3881   -205.45516   -571.47169   -98.568347   -5710.8145 
12338000     122.9784   -6699.0814    -6382.727   -6699.0814            0    4446.0224    23.359385    21.227597    21.521661    10671.809    4143.9109    4764.7011    4429.4552    637.23227   -534.88559   -18.739883   -5690.7596 
12339000     119.3869   -6716.1273   -6409.0118   -6716.1273            0    5207.6205    23.279519    21.210134    21.587423    10659.043      4485.69    6310.0289    4827.1426   -682.48337    31.065385   -406.76096   -5599.4808 
12340000    118.63654   -6697.0405   -6391.8552   -6697.0405            0    5506.1136    23.308602    21.122951    21.609052     10639.14    5679.7408    5872.2114    4966.3885   -88.756277    503.56319    428.16253   -5537.5214 
12341000     119.8445   -6709.6367    -6401.344   -6709.6367            0    4754.5628    23.284593     21.20723     21.58038    10656.429    4728.1214    5050.6975    4484.8696     -111.339   -448.74762   -78.130584   -5662.4227 
12342000    121.64343   -6697.8823    -6384.962   -6697.8823            0     5058.597    23.228589    21.221966     21.62943    10662.365    4771.9117     5824.456    4579.4232    351.65635   -441.83604   -280.40314   -5598.3519 
12343000    121.27453   -6701.8971   -6389.9258   -6701.8971            0     4038.004    23.298493    21.230333      21.5954    10681.836    3594.4957    4758.4447    3761.0716    1524.5198   -713.79468   -72.236046   -5760.8709 
12344000    121.42927     -6688.63   -6376.2606     -6688.63            0    6146.2369    23.172184    21.260704    21.534881    10609.308    6035.6502    6623.8631    5779.1976    -991.6051    116.24533   -112.59218   -5425.2787 
12345000    120.23447   -6717.6155   -6408.3196   -6717.6155            0    4569.6375    23.198946    21.313683    21.586029     10673.32    4280.4799    4338.0763    5090.3564    277.75995    163.19837     891.5945   -5697.0125 
12346000    126.81622   -6699.9109   -6373.6839   -6699.9109            0     4799.128     23.22558    21.236806    21.628072    10667.769    5343.5713    4849.4177    4204.3948    94.353973   -73.316946   -233.80492    -5627.043 
12347000    122.38808   -6707.0221   -6392.1863   -6707.0221            0    4944.5515    23.199145    21.360393    21.544843    10676.393    4649.5555    5359.6575    4824.4414   -340.99433   -136.63799     185.5561   -5622.2986 
12348000    119.19872   -6712.6414   -6406.0099   -6712.6414            0    4898.5367    23.213773    21.302969    21.560952    10662.371    5243.5457    4666.4235    4785.6409    511.20699    390.72414    265.81135   -5644.2887 
12349000    126.83852   -6710.8842   -6384.5998   -6710.8842            0    4425.0616    23.164316    21.321602    21.612326    10674.335    4140.5551    4070.5393    5064.0903    214.52468     350.4704    909.40871   -5695.7318 
12350000    121.94102   -6712.2481   -6398.5622   -6712.2481            0    4985.8936     23.14695    21.287363    21.645114     10665.36    4768.4753    5136.8318    5052.3736    531.74488    18.181444   -16.150982   -5623.0397 
12351000     118.8163   -6706.3568   -6400.7092   -6706.3568            0    5346.7932    23.260715     21.29773    21.499043    10650.635    4821.1179    5227.5736    5991.6881    35.469705   -32.763823   -473.16289   -5570.1993 
12352000    124.74577   -6710.1258   -6389.2249   -6710.1258            0    5355.6983    23.109182    21.364696    21.565312    10647.239     5556.488    5579.7586    4930.8484   -737.57044   -575.47247   -98.883496    -5557.597 
12353000    127.43439    -6698.871   -6371.0538    -6698.871            0    5406.0858    23.145164    21.354633    21.533599    10643.121    5561.1139    4926.1482    5730.9954    661.83935     100.6552     781.3837   -5531.9266 
12354000    125.56393   -6708.3238   -6385.3182   -6708.3238            0    3769.9908    23.144049    21.452962    21.588074     10718.66    3995.3476    3873.7496    3440.8751    826.74857   -745.35837    331.44354   -5795.9908 
12355000    120.35598   -6684.7922   -6375.1838   -6684.7922            0    6349.5912    23.102705    21.337466    21.544232    10620.298    6500.4011      6230.08    6318.2926    266.07322   -566.50736   -652.54239     -5391.72 
12356000    122.04445   -6707.1771   -6393.2252   -6707.1771            0    5482.9606    23.204229    21.320295    21.478788    10626.008    5523.0617    5028.6966    5897.1236    193.97733   -376.25856     254.9296    -5543.534 
12357000    120.06664   -6702.4048   -6393.5407   -6702.4048            0    4298.8429    23.160807     21.35186    21.648473    10705.739    4670.9828    3641.5672    4583.9788     70.94151   -329.42456    966.98618   -5722.3528 
12358000    121.48308   -6700.0059   -6387.4981   -6700.0059            0    6668.3746    23.186436    21.291928    21.463122    10595.998    5432.4756     6939.931    7632.7171    461.00284    818.22277    100.38375   -5357.0224 
12359000    123.72021   -6712.9015   -6394.6388   -6712.9015            0    5192.6636    23.192211    21.311947    21.553512    10653.279    5197.5511    5070.3556    5310.0841    -60.92573   -423.07401     334.7863   -5587.8694 
12360000    119.76987   -6699.3196   -6391.2189   -6699.3196            0    5226.2048    23.157639    21.274323    21.594059    10638.596    6258.2734    5287.7823    4132.5588   -711.40765    152.01568   -442.99424   -5580.3575 
12361000    123.07854   -6699.3995   -6382.7875   -6699.3995            0    4890.0173    23.209434    21.411692    21.449437    10659.367    4860.6702    4695.0641    5114.3175   -132.47663   -28.485823   -475.39564   -5622.6052 
12362000    123.37721   -6705.4308   -6388.0504   -6705.4308            0    4263.0612    23.188818    21.341779    21.625947    10702.478    3925.3753    4612.3121    4251.4961   -277.58344   -80.701916   -44.880995   -5722.6519 
12363000    122.44633   -6691.7225   -6376.7368   -6691.7225            0    6522.3294    23.150465    21.369587    21.396707     10585.29    6701.0336    5291.9716    7573.9831    869.90696   -1084.7396    794.71458   -5369.8483 
12364000      121.209   -6691.0285   -6379.2258   -6691.0285            0    4416.7143    22.992099    21.402005    21.746825    10701.113    5696.9524     4244.217    3308.9736    62.576906   -598.39847    -669.8176   -5689.9324 
12365000    122.63482   -6695.7535   -6380.2829   -6695.7535            0    4928.9708    23.205809    21.383345    21.493072    10665.246    5326.3219     4553.062    4907.5284   -575.15637   -987.74512   -75.498461   -5613.6225 
12366000    120.86095   -6717.5849   -6406.6775   -6717.5849            0    5446.9743    23.107267    21.339281    21.555817    10629.011    5855.7917    5727.1537    4757.9774    249.90283   -295.81776   -658.85646   -5562.3244 
12367000    117.43309   -6720.9717   -6418.8822   -6720.9717            0    4695.2908    23.180583    21.335178    21.525444    10645.663    4129.8846    5184.1948    4771.7931   -913.31434    1442.7565    -188.8018   -5689.9097 
12368000    118.08336   -6702.7316   -6398.9694   -6702.7316            0    4816.2577    23.130502     21.31982    21.617777     10660.55     5329.569    5091.3965    4027.8077   -310.99119   -204.19234   -186.13232   -5650.1704 
12369000    123.85611   -6710.9789   -6392.3666   -6710.9789            0    5603.4516    23.160149    21.384438    21.475436     10636.07    4977.2424    5314.9811    6518.1313    370.20307    1145.4694   -242.36386   -5523.1807 
12370000    121.89033   -6705.1092   -6391.5538   -6705.1092            0    4420.5422    23.086918    21.407007    21.617214    10683.699      5914.82    4364.4222    2982.3843   -909.99864   -766.39338   -644.24461   -5702.7856 
12371000    119.54295   -6701.3875   -6393.8705   -6701.3875            0    5036.6256    23.181023    21.314631    21.555724    10650.574    5765.2539    4300.1903    5044.4325   -73.581994   -580.04548    231.95977   -5611.5431 
12372000    126.63382   -6694.0029   -6368.2452   -6694.0029            0    5032.9151    23.073479    21.350738    21.656644    10668.839    5795.9274    4527.4177    4775.4002    184.41833   -369.25069    1408.2969   -5585.1534 
12373000    119.51269   -6695.3281    -6387.889   -6695.3281            0    5617.9929    23.098607    21.402507    21.485965    10621.976     6222.937    4806.6049    5824.4368   -489.37994   -600.64911    114.74716   -5517.6022 
12374000    123.32924    -6699.116   -6381.8591    -6699.116            0    4841.2559    23.165643    21.375372    21.559883    10675.898    5053.1781    3760.4134    5710.1761     216.5777   -333.05513    901.36694   -5628.0899 
12375000    125.78782   -6696.4592   -6372.8777   -6696.4592            0    4895.3072    23.131311     21.35198    21.580189     10658.44    4718.8169    5336.5366    4630.5681    -703.8917   -79.290392   -479.65954   -5611.9393 
12376000    125.74248   -6711.2097   -6387.7448   -6711.2097            0    5442.5291    23.189227    21.342999    21.485088    10633.564    5584.8755    5233.2796     5509.432   -652.09269    756.52226   -356.58674   -5543.7194 
12377000    128.31911   -6720.5082   -6390.4151   -6720.5082            0    4613.2953    23.121585    21.340291    21.641578    10678.417    4438.5806    5584.4852    3816.8201   -131.33732   -356.98593   -363.49135   -5671.9693 
12378000    124.60431   -6704.8222   -6384.2852   -6704.8222            0     5348.651    23.206468    21.385005    21.452536    10646.259    5534.8829    5048.1278    5462.9422   -268.49261   -324.28441   -712.63281   -5553.8281 
12379000    125.69424   -6692.7817   -6369.4409   -6692.7817            0    4918.0638    23.102489    21.323856    21.689221    10684.851    4760.4289     5793.871    4199.8916   -419.35088   -44.459488   -442.02933   -5603.0709 
12380000      120.626   -6718.3502   -6408.0471   -6718.3502            0    4757.7474     23.18443    21.382378      21.4523    10634.725    5561.9626    4018.0769    4693.2027    585.62135   -443.34213   -132.10641   -5670.1369 
12381000    121.16271   -6716.4958   -6404.8121   -6716.4958            0    5602.7639    23.051326    21.354575    21.603811    10634.503    6624.2127    5140.3193    5043.7595   -1155.8768    424.95583    380.16959   -5535.8608 
12382000     128.5445   -6700.7053   -6370.0324   -6700.7053            0    4637.1224     23.20786    21.397657    21.500991     10677.26    4223.8679    4048.5992    5638.8999    318.71358   -359.64698   -376.02281   -5647.9542 
12383000    123.01996   -6694.9513     -6378.49   -6694.9513            0    4846.3511    23.049573    21.324622    21.685676    10659.018     4918.156    5200.8667    4420.0305   -1159.3361    827.65002   -934.36635   -5625.1206 
12384000    122.68906   -6716.7214   -6401.1113   -6716.7214            0    6153.9162    23.103408     21.37148    21.455735    10593.855    7202.9757    4633.3688    6625.4041    1336.5685   -430.89723    695.53051    -5450.328 
12385000     119.7682   -6715.0712   -6406.9748   -6715.0712            0    4187.2684    23.082572    21.404435    21.659505    10701.299    4811.6793    3908.2313    3841.8945    200.33869   -533.26506    1086.5008   -5753.4784 
12386000    130.54249   -6707.6502   -6371.8376   -6707.6502            0    4992.1553    23.248638    21.443174    21.363377    10650.169    4602.6793    3836.8975    6536.8891    112.18721    328.26814    441.54256   -5596.4472 
12387000    124.58787   -6715.5026   -6395.0079   -6715.5026            0     4139.094    23.071592    21.355174    21.734357    10708.471    4518.2546    4019.1249    3879.9025    369.97076    691.33962    262.72488    -5748.597 
12388000     123.5337   -6718.2135   -6400.4306   -6718.2135            0    5082.9286    23.197895    21.392753    21.473396    10656.534    4680.5853     3837.542    6730.6584   -140.66474    588.35719    574.95507   -5610.4692 
12389000    121.44916   -6706.8815   -6394.4609   -6706.8815            0    5962.4055    23.118543    21.375296    21.534495    10641.609    5829.7349    6160.6937    5896.7879    135.14641   -198.33943   -1175.0262   -5469.1137 
12390000    124.09254   -6706.5734   -6387.3529   -6706.5734            0    4576.0853    23.219803    21.375828    21.492741    10667.761    4384.4998    4714.0036    4629.7524   -607.66051    60.810326     -246.252   -5675.4131 
12391000    122.56247   -6711.7172   -6396.4327   -6711.7172            0    5351.1542    23.129103    21.304126    21.569388    10628.215    4374.5649    6177.6525    5501.2452    180.33844    41.845729   -102.02729   -5566.9952 
12392000    124.40816   -6707.4966   -6387.4641   -6707.4966            0    5867.1253    23.130768    21.390896      21.4966    10636.256     5100.897    5530.0592    6970.4196    678.90659    151.44421   -57.224384   -5477.3622 
12393000    118.68339   -6694.7953   -6389.4895   -6694.7953            0    3688.4308     23.20425    21.483995    21.528318    10732.297    3662.7216    3867.0421    3535.5288   -123.76813    -283.5395   -504.07004    -5812.178 
12394000    122.31468   -6703.9498   -6389.3027   -6703.9498            0    5616.4782    23.130335    21.237765    21.631322    10626.097    5659.5446     6974.428     4215.462    219.39048    607.98365   -543.53511    -5518.913 
12395000    120.68739   -6679.8243   -6369.3633   -6679.8243            0    5496.0314    23.160158     21.29014    21.628935     10664.86    5502.5588    6411.0959    4574.4395   -92.384791   -133.09847   -830.01223   -5514.5323 
12396000    125.09194   -6711.3223   -6389.5309   -6711.3223            0    5008.2315    23.256632    21.302303     21.47719    10640.226    4331.8895    5910.4083    4782.3967   -455.22653    1015.7128   -1158.4773   -5612.3696 
12397000    120.43179   -6709.2496   -6399.4462   -6709.2496            0    4911.1141    23.328292    21.252626    21.512418    10665.587    4249.4871    5585.5978    4898.2572   -756.79819    7.1576934   -624.14285   -5635.5389 
12398000    117.39551   -6702.2061   -6400.2134   -6702.2061            0    4611.7281    23.298619    21.183589    21.606166    10663.688    3896.7064    5475.0898    4463.3882   -304.62039    337.69311    461.26719   -5683.0022 
12399000     124.7606    -6693.128    -6372.189    -6693.128            0    5305.4369    23.253988    21.193894    21.635231    10662.763     4417.646    6266.3977     5232.267   -101.58635    -17.53937   -574.48028   -5547.1646 
12400000    118.68479   -6697.4226   -6392.1132   -6697.4226            0    5020.4173    23.331471    21.278542     21.46562    10656.815    4413.4565    5490.8608    5156.9348   -164.04001   -731.95117   -483.60081   -5611.8464 
12401000    122.57063   -6690.5474   -6375.2419   -6690.5474            0    5189.9731     23.34295    21.143897    21.609252    10665.483    5079.8462    4933.4688    5556.6045   -82.510592    821.05407    824.87784   -5567.9669 
12402000    123.87819   -6717.7261    -6399.057   -6717.7261            0    4847.2455    23.234093    21.199063    21.643984     10660.55    4655.4072    4832.7173    5053.6119   -76.885733    136.04875    1005.6821   -5645.4403 
12403000    124.93845    -6693.516   -6372.1194    -6693.516            0    5034.0425    23.285819     21.26844     21.51542    10655.577    4086.9884    5024.5465    5990.5926    543.14929   -664.36356   -415.55376   -5589.8259 
12404000    120.59461   -6700.0632   -6389.8409   -6700.0632            0    4467.1544    23.284563    21.283963    21.609639    10709.473    4224.9782    4557.3154    4619.1695   -18.007796   -1004.3803    -76.49206    -5692.131 
12405000    121.90996    -6711.776   -6398.1701    -6711.776            0    5264.0013    23.196084    21.233706    21.595442    10636.594    5065.1764    5286.6859    5440.1416   -15.284965    -159.2191    428.60642   -5581.5981 
12406000     120.6271   -6726.7219    -6416.416   -6726.7219            0     5020.138    23.228758    21.204939    21.603102    10640.919     4392.475    5755.7142    4912.2249    148.49782     181.1554   -247.98661   -5637.3564 
12407000     117.2019   -6696.4821   -6394.9874   -6696.4821            0    5263.8741    23.287935    21.315401    21.461644    10653.381    5070.9496     4600.876    6119.7966    187.81705   -168.89387  -0.36885537   -5577.1464 
12408000    120.16937   -6706.6328   -6397.5044   -6706.6328            0    4850.1115     23.18506     21.28699    21.594639    10657.822    4416.0415    5800.6975    4333.5956    458.90233    281.93433   -571.48469   -5643.6351 
12409000    125.38121   -6710.3739   -6387.8383   -6710.3739            0    5233.6731    23.169397    21.272523    21.587018    10639.627    5336.2853    5302.9413    5061.7926    2.5186367   -72.449936    539.58664   -5575.7396 
12410000    119.55511   -6699.0961   -6391.5479   -6699.0961            0    5550.5239    23.110605    21.328887    21.581084    10637.823    6193.4054    5224.3261    5233.8401     83.31462   -1210.7051    7.3093345   -5530.4299 
12411000    115.20132   -6703.0705   -6406.7222   -6703.0705            0    3749.0961    23.153281    21.495008    21.519265    10709.707    3102.6414    3323.4858    4821.1612    172.81011     281.0548   -802.21238   -5821.1505 
12412000    119.80325   -6693.3129   -6385.1264   -6693.3129            0    6501.7253    23.056091    21.349569    21.550096    10607.768    7002.3276    6445.4834     6057.365    261.18064    208.58115     718.8841   -5379.2873 
12413000    116.99774   -6692.1711   -6391.2016   -6692.1711            0    5066.0958    23.063047    21.410446    21.575971    10654.001    5361.9691    4961.9721    4874.3462    845.64329   -313.87155   -214.26167   -5604.0434 
12414000     122.9927   -6714.0216   -6397.6303   -6714.0216            0    5051.1667     23.05961    21.453964    21.535184    10653.887    5400.0353    5338.1188     4415.346    201.93588    329.16221   -506.30206   -5612.8001 
12415000    118.48015   -6688.7407   -6383.9578   -6688.7407            0    5544.8515    22.953215    21.459799    21.583246     10631.29    6106.6335    5471.3101    5056.6109    1181.3875    122.54363     1.210472   -5524.2482 
12416000    121.49244   -6684.7172   -6372.1853   -6684.7172            0    4102.1101    23.110185    21.499273    21.534196    10699.312    4240.2168    3336.7041    4729.4095   -868.19653    324.45457   -211.39367   -5732.0982 
12417000    123.54787   -6710.4035   -6392.5841   -6710.4035            0    5550.1406    23.102012     21.34556    21.589571    10646.366    5918.0641    5830.6198    4901.7379    457.45879   -34.974782    -1028.324   -5530.8342 
12418000    126.97121   -6699.7214   -6373.0957   -6699.7214            0    5383.6791    23.180494    21.359137    21.486684    10638.387     5617.311    4492.0774     6041.649   -10.538395    891.58329    -513.5915   -5537.8181 
12419000    127.73827   -6688.7498   -6360.1509   -6688.7498            0    4975.4318    23.093275    21.280994    21.694193    10661.564    5212.3769    5727.0117    3986.9068    124.96479   -190.96061    -184.3241    -5586.531 
12420000    123.36406   -6708.0077   -6390.6612   -6708.0077            0    5157.4852       23.239     21.31667    21.521839    10661.448     4223.671    4475.5548    6773.2299   -848.63297    753.71099    819.20181    -5588.743 
12421000    121.64688   -6699.2099   -6386.2807   -6699.2099            0    5214.6938    23.207603    21.242228    21.616561    10656.558    5857.4352    4947.8809    4838.7652   -281.68491   -591.53428   -375.29183   -5575.8392 
12422000    124.85003   -6705.1188   -6383.9498   -6705.1188            0    4696.7282    23.281123    21.291332    21.493441        10654    4050.3063    4324.5063    5715.3718   -55.022296   -624.77615    582.82084   -5654.1831 
12423000    119.44359    -6701.772   -6394.5106    -6701.772            0    5399.4282    23.159067    21.244291    21.637103    10645.411    5537.1412    5793.5107    4867.6327    -311.2254    313.52249   -278.03275   -5556.2364 
12424000    117.49206   -6704.1119   -6401.8707   -6704.1119            0    4626.5689     23.25163     21.30523     21.55747    10679.168    4229.2273     3650.149    6000.3304    -23.18447     994.6674    355.43672    -5681.307 
12425000    120.98238   -6693.5894   -6382.3696   -6693.5894            0     5103.718     23.22092    21.283213    21.579177     10664.77    4537.8479    5777.7853    4995.5209   -515.15505   -240.46775    398.26458   -5588.5642 
12426000    121.07517   -6705.6783   -6394.2198   -6705.6783            0    6846.7336    23.217271    21.179635    21.536751    10590.339    6686.8144    7202.0791    6651.3074     -567.411    664.74295   -216.27616   -5336.7471 
12427000    123.29516   -6689.1351   -6371.9658   -6689.1351            0    4417.2147    23.314943    21.232499    21.615507    10700.422    3375.1368     5896.261    3980.2462     -453.984   -186.45381    341.99758   -5682.6388 
12428000    121.49393   -6689.5638    -6377.028   -6689.5638            0     5768.107    23.316014    21.122774    21.605904    10640.884    5629.4917    6589.9116    5084.9178    300.73408    -108.8979    -369.8958   -5481.8964 
12429000    120.45829   -6699.7929   -6389.9213   -6699.7929            0     4262.567    23.285425     21.24934    21.600151    10687.753    4018.0131     4606.798    4162.8898   -511.86562    89.566143   -224.11909   -5725.5153 
12430000    122.54321   -6698.1167   -6382.8818   -6698.1167            0    5899.2472    23.225825    21.196775    21.611673    10639.698    6252.8776     6756.201     4688.663   -218.41555    11.651681   -79.481434    -5467.501 
12431000    123.85147    -6707.842   -6389.2416    -6707.842            0     5011.195    23.248343    21.231458    21.548169    10636.095    5347.9903    4963.8943    4721.7003   -706.33116    745.91514   -602.07511   -5611.9224 
12432000    119.23688   -6688.0598   -6381.3302   -6688.0598            0     4940.383     23.22191    21.289303    21.596213    10676.698    4252.4367    5327.3963     5241.316    559.94335    463.93464    106.69336   -5612.0696 
12433000    117.47972   -6699.9373   -6397.7279   -6699.9373            0    5318.0723    23.190239    21.256153    21.630507     10662.44    6619.9832    5141.9556    4192.2779   -570.74775    352.62467   -250.24021   -5570.7637 
12434000    119.68463   -6704.3113   -6396.4298   -6704.3113            0      4844.52    23.242118    21.324942    21.529687    10670.906    3267.5063    5595.6789    5670.3746      1.78943   -11.901514    5.1730067   -5642.5052 
12435000    126.23076   -6703.7291   -6379.0082   -6703.7291            0    4326.0993     23.23838    21.267249    21.639743    10694.717    4270.5499    4727.8491    3979.8987   -155.81382    923.34532   -901.33879   -5704.2601 
12436000    126.02865    -6696.738   -6372.5369    -6696.738            0    6150.2612    23.240334    21.316984    21.433296    10618.351     5558.841    6415.2233    6476.7193   -272.51712    452.82899    775.65084   -5420.1213 
12437000    115.92533   -6702.3223   -6404.1114   -6702.3223            0    4656.3763     23.17502    21.290661    21.625473    10670.257    4735.2108     4938.751    4295.1671    16.364583    -295.6054    127.49648   -5679.5105 
12438000    124.11648   -6692.6563   -6373.3742   -6692.6563            0    4682.5162    23.257168     21.32238    21.530443    10676.907    4856.8099     4453.197    4737.5417   -1015.7861   -452.78809   -819.99639   -5644.2515 
12439000    116.37866   -6709.8461   -6410.4691   -6709.8461            0    4614.9798    23.171748    21.421055    21.516184    10679.844    3869.6596    5432.6997    4542.5801    1128.1657   -753.66941   -772.30461   -5691.6649 
12440000    127.36721   -6688.9272   -6361.2828   -6688.9272            0    4468.4303    23.125867     21.36201    21.592932    10667.232    4515.8535    4347.0062    4542.4313     808.9038    135.52157    58.355961   -5666.1262 
12441000    119.94444   -6684.2344   -6375.6846   -6684.2344            0    5359.9137    23.133817    21.367805    21.556572    10655.821    5141.3977    4877.8092    6060.5341    215.78097   -888.96069    421.08582   -5542.7314 
12442000    120.96221    -6693.233   -6382.0651    -6693.233            0    4688.1156    23.167725    21.396418    21.541639    10678.327    4090.1206    5249.4682     4724.758    661.22438    65.348081   -273.12094   -5651.9734 
12443000    118.32671   -6703.2133    -6398.825   -6703.2133            0    3462.4362    23.085974    21.461321    21.651849    10727.528    4358.6304    2169.6419    3859.0363    491.86014    219.86157   -75.343393   -5857.1269 
12444000    121.17203   -6700.0033   -6388.2957   -6700.0033            0    4783.6941    23.157824     21.39314    21.535307    10668.991    5252.1396    4573.3666    4525.5762   -584.11348    874.62892    -409.2744   -5643.9706 
12445000    129.48856   -6701.7492   -6368.6478   -6701.7492            0    7046.3889    22.913395    21.398833    21.572628    10577.489     8212.076    6465.0523    6462.0383    401.46397    489.85297    -959.4446    -5281.659 
12446000    118.52867   -6698.6303   -6393.7225   -6698.6303            0    4705.6445    23.025259    21.475047    21.594031    10677.568    5626.5196    3444.1966    5046.2173    588.35547   -153.33244    -259.4278    -5660.953 
12447000    121.14466   -6696.2539   -6384.6167   -6696.2539            0    5411.4563    23.087088    21.472242    21.473668    10645.175    6501.4714    4031.0524    5701.8451   -545.67023   -400.75841    353.91937   -5544.4937 
12448000    124.21848   -6700.4235    -6380.879   -6700.4235            0    5164.7179    23.037958    21.488107    21.552334    10669.313    5809.4431     4258.797    5425.9136    173.84846    232.34832    42.947107   -5577.2438 
12449000    125.95708   -6697.5945   -6373.5776   -6697.5945            0    5873.8003    23.091723    21.362497    21.569497    10640.165    6625.0502    5137.4768    5858.8739   -159.01935    472.02157     -241.053   -5462.1054 
12450000    119.68757   -6705.0139    -6397.125   -6705.0139            0    4134.0016     23.20523    21.363172    21.559693    10687.944    3992.1377    4321.5087    4088.3585   -344.63868    62.566534   -115.41503    -5752.747 
12451000    124.27463   -6698.7656   -6379.0767   -6698.7656            0    5753.0225    23.161651    21.330072    21.518952    10631.216    6594.7073    5347.4686    5316.8915    -743.3982   -260.13139   -1037.9655   -5487.0971 
12452000    123.26171   -6704.6367   -6387.5534   -6704.6367            0     5018.753    23.167979    21.295683    21.550567    10632.574    5296.5619    4644.6721     5115.025   -33.321835   -521.42302    103.10233   -5609.3195 
12453000    115.66847   -6709.9038   -6412.3537   -6709.9038            0    5034.6809    23.112352    21.280517    21.676061    10661.215    4785.7943    5351.6796    4966.5688   -403.38933    1107.8085    170.59669    -5629.547 
12454000    122.95038   -6704.9418   -6388.6595   -6704.9418            0    5802.4209    23.275771    21.270745    21.422073    10605.918    4782.0905    6949.7966    5675.3755    254.67735    480.92578   -410.37963   -5491.1617 
12455000    120.74617   -6708.2542    -6397.642   -6708.2542            0    5060.3794     23.18536    21.279892    21.594763    10654.466    5233.8335    5663.2749    4284.0299   -713.71244    66.309509   -657.11512   -5611.3377 
12456000    116.20011   -6704.2271   -6405.3094   -6704.2271            0    4340.1021    23.321568    21.312214    21.481527    10677.055    3983.9757    4491.3702    4544.9604    342.69102   -297.38739   -219.77619   -5729.4952 
12457000    118.25314    -6707.162    -6402.963    -6707.162            0    5274.3533    23.096634    21.272219    21.706071    10664.554    5123.6884    5555.7874    5143.5841   -324.18655   -603.06429    786.62947   -5582.6345 
12458000    122.96247   -6706.3898   -6390.0764   -6706.3898            0    4201.4947    23.284497      21.3503    21.503461    10690.037    3078.7863     4294.631    5231.0669    593.59746   -82.968461   -407.20998   -5735.0498 
12459000    124.49666   -6697.7229   -6377.4629   -6697.7229            0    5543.2679    23.105529     21.28933    21.643307    10646.369    5165.9225    6234.2023    5229.6788     1138.129     19.06731    -79.87492   -5516.7797 
12460000    122.75019    -6705.668   -6389.9006    -6705.668            0    5327.3995    23.215876    21.320479    21.483906    10633.966    5767.9196    5007.1708    5207.1081   -435.53121   -438.98302   -11.631119   -5563.6983 
12461000    121.55059   -6689.5606   -6376.8791   -6689.5606            0    4895.2595    23.211447    21.297314    21.592184    10673.912    5156.5363    4929.3871    4599.8549    19.542568   -646.99036   -743.25442   -5614.8435 
12462000    122.74531   -6715.1816   -6399.4267   -6715.1816            0    4616.9029    23.173587    21.294542    21.594532    10656.274    5184.5644    4644.9734    4021.1708   -272.70457   -239.62416   -576.17331   -5681.9101 
12463000    121.39807   -6706.4258   -6394.1366   -6706.4258            0    4868.8633    23.228546    21.274764    21.590966    10669.863    4413.9465    5087.9902    5104.6532    -57.61935   -235.92507   -11.329872   -5636.4976 
12464000    122.01358   -6697.9754   -6384.1029   -6697.9754            0    5062.5161     23.23176    21.288981    21.508059    10637.466    5141.9063    5377.5737    4668.0682     -1472.05    554.46852   -885.84832   -5598.7217 
12465000    114.22388   -6698.4225   -6404.5886   -6698.4225            0    5339.4647    23.174042    21.265688    21.578798     10634.29    6018.8678     5406.393    4593.1335    471.97371   -481.71029     96.76674   -5576.4899 
12466000    121.10729   -6701.0202   -6389.4791   -6701.0202            0    5270.0365    23.209338    21.312477    21.521241     10645.45    4676.0026    5474.3054    5659.8015    48.723914    1183.1171    565.48121   -5571.2903 
12467000    124.04913   -6711.3021   -6392.1932   -6711.3021            0    4378.0105    23.187451    21.362986    21.583748    10691.579    4526.2134    4056.4588    4551.3594   -470.23579    361.89133   -199.83504   -5709.5488 
12468000    123.38276   -6694.6435   -6377.2488   -6694.6435            0    5865.0614    23.191016    21.287274    21.555129    10641.196    5872.1944    5892.7427    5830.2471    226.69255    748.34904    111.18614   -5467.0445 
12469000    122.32758   -6707.7976   -6393.1174   -6707.7976            0    5358.0805     23.18616    21.278355    21.604482     10658.86    4578.7436    5260.0827    6235.4152    -280.1042   -234.94396    782.23039   -5560.2116 
12470000    115.03861   -6703.3189   -6407.3891   -6703.3189            0    5275.0969    23.315572    21.273608    21.483703    10656.053    5450.8727    5297.8861    5076.5319   -96.149904    341.15155   -686.73431    -5587.599 
12471000    117.24729    -6698.275   -6396.6635    -6698.275            0    5188.8867    23.194639    21.258066    21.598907    10649.842    5004.6565    5167.3111    5394.6926   -191.89691   -47.538116   -304.66038   -5590.7411 
12472000    119.98719   -6704.0167    -6395.357   -6704.0167            0    5273.3903    23.276544    21.235533    21.509429    10631.892    5615.2229    4095.5204    6109.4277    160.03687   -196.07101    905.88438   -5577.6902 
12473000    117.89047   -6704.9652   -6401.6992   -6704.9652            0    4175.0918    23.275555    21.197136    21.710315    10711.329    4327.2198    4571.5686    3626.4871    -1253.603     402.4543    727.55402   -5749.4924 
12474000    125.23272   -6692.7701   -6370.6166   -6692.7701            0    5327.9267     23.28363     21.24758    21.486963    10630.047    4737.5828    4924.9813     6321.216    172.18416   -169.29527    716.87147   -5544.6369 
12475000    118.63679   -6704.8778   -6399.6919   -6704.8778            0    5503.6224    23.220194    21.215326    21.622917    10651.968    5234.0075    6342.8455    4934.0141    -156.2331    2.9880067   -319.07297    -5544.715 
12476000    121.73538   -6704.9145   -6391.7576   -6704.9145            0    5308.2788    23.304401    21.232978    21.534206    10655.595    5511.9738    4676.2864    5736.5764   -860.46709   -404.19421    415.50064   -5566.8461 
12477000     126.8314   -6686.7039   -6360.4378   -6686.7039            0    4753.1179    23.252158    21.153062    21.691517    10669.067    4261.4293    5456.7592    4541.1652    29.035274    262.84156   -387.14599    -5620.865 
12478000    126.02641   -6690.2367   -6366.0414   -6690.2367            0    5240.8498    23.288967    21.319099    21.462629    10656.191    4581.6756    5216.1237    5924.7501   -685.49889     448.3172   -74.376105    -5551.563 
12479000    123.99523   -6699.5378   -6380.5676   -6699.5378            0    5490.4524    23.242707    21.216668    21.608562    10655.891    5222.5132     5967.699    5281.1451    57.165892    64.187886   -995.11806   -5527.3225 
12480000    123.67473   -6689.2252   -6371.0795   -6689.2252            0    5200.5306    23.329621    21.164161    21.594405    10662.277    4344.8316    5557.0468    5699.7135   -256.76112     145.9483    502.89559   -5562.4054 
12481000    125.92282   -6697.5793   -6373.6505   -6697.5793            0    4494.6002    23.231652    21.262469    21.644801    10691.716    4496.2671    4589.4864    4398.0472   -319.61811    127.84655   -317.60885   -5672.8178 
12482000    121.16712   -6698.4509   -6386.7559   -6698.4509            0    4597.9352    23.334047    21.239593    21.570903    10690.662    4084.3289    4559.0178    5150.4589    45.173962   -487.60963    259.38933   -5669.8811 
12483000    116.40152   -6691.3875   -6391.9517   -6691.3875            0    6200.0494    23.333241    21.156392    21.489775    10608.367    5240.3725    6847.1116    6512.6642   -694.42175   -279.48075   -6.3015717   -5432.7287 
12484000    119.45303    -6695.897   -6388.6113    -6695.897            0    4792.6205    23.310172    21.130812    21.649168    10663.576    4594.5556    6091.9331    3691.3728   -343.28528   -96.707939   -253.88318   -5643.2758 
12485000    116.55085   -6690.8058   -6390.9858   -6690.8058            0    5122.5428    23.292436    21.227933    21.549459    10655.136    5182.6931    4585.1476    5599.7876   -371.98547    199.40368    939.49305   -5594.9723 
12486000    125.33728   -6713.6193   -6391.1968   -6713.6193            0    5397.4162    23.209431    21.151379     21.69219    10648.945    5562.4059    5863.9882    4765.8547     931.7798   -845.31214   -352.93277   -5552.9568 
12487000    119.39027   -6706.8616   -6399.7374   -6706.8616            0     4231.722    23.356856    21.303617    21.488926    10692.578    3196.6601    4500.6125    4997.8934    1174.7884   -155.03233    62.829783   -5739.8414 
12488000    126.54576   -6694.5811   -6369.0498   -6694.5811            0    5683.9136    23.170295    21.240098    21.605818    10633.073     6460.279    5905.4009     4686.061   -365.18932   -407.44145   -506.31563   -5487.6314 
12489000    124.41069   -6711.6045   -6391.5655   -6711.6045            0    4175.1406    23.212941    21.329098    21.582073    10685.524    2918.6107    4597.5848    5009.2262    350.40209    743.55746    1381.2602   -5740.9225 
12490000    124.79163   -6702.7108   -6381.6919   -6702.7108            0    4391.6089    23.172462    21.358754    21.597746    10689.478     4802.723    3813.7355    4558.3682   -839.11498    236.72628   -29.537714   -5697.0617 
12491000    121.01864   -6704.5756   -6393.2625   -6704.5756            0    5352.3515    23.135274    21.410483    21.503527    10651.501    5820.6642    5208.8179    5027.5725    -960.8529   -304.96683   -705.14826   -5561.8217 
12492000    120.15433   -6702.6411   -6393.5514   -6702.6411            0    5411.1377    23.086828    21.412418    21.515278    10635.966     6606.755    3857.4039    5769.2542    177.57033   -839.64081    505.83354   -5554.2047 
12493000    118.40963   -6688.6772   -6384.0757   -6688.6772            0    4229.9429    23.138341      21.3835    21.625958    10700.064    5083.2416    4598.4643    3008.1228   -37.072915   -232.41613   -748.52914   -5723.9954 
12494000    121.81325   -6698.3173   -6384.9601   -6698.3173            0    4958.7914    23.092658    21.451655    21.489157    10645.207    5393.0061    4170.2125    5313.1556    271.99749    -739.7431   -623.22013   -5615.1106 
12495000    129.61403   -6696.6205   -6363.1963   -6696.6205            0    6254.6433    23.019953    21.450603    21.488176    10610.687    6972.2097    5808.7197    5983.0005    60.228995    565.54052   -98.409039   -5395.3154 
12496000    121.00988   -6707.0746    -6395.784   -6707.0746            0    4067.7076    23.109356    21.427425    21.600092    10695.804    4808.5769    3301.4223    4093.1237    292.62342    626.17565    476.22025   -5761.2732 
12497000    122.24175   -6700.4086   -6385.9491   -6700.4086            0    5845.1938    23.057573    21.370673    21.537613    10612.785    5731.7762    5488.0353      6315.77    1101.0444   -609.07769    482.05598     -5481.25 
12498000    121.46407   -6697.8211   -6385.3621   -6697.8211            0     4727.202    23.104389    21.443968    21.548238    10676.069    4904.4065    4955.3855    4321.8139    32.859522    7.3431559   -751.98679   -5649.3391 
12499000     123.7424    -6707.588   -6389.2682    -6707.588            0    6528.3295    23.056595    21.381788    21.504689    10601.623    6962.5118    6197.8766       6424.6    632.17758   -491.22435   -365.41607   -5379.8984 
12500000    126.16382   -6688.7589   -6364.2101   -6688.7589            0    4306.6341    23.166866    21.399604    21.578118    10697.606    4257.6114    4322.1485    4340.1424    258.37317   -125.93637    558.65092   -5692.3166 
Loop time of 541.078 on 64 procs for 250000 steps with 1296 atoms

Performance: 79.841 ns/day, 0.301 hours/ns, 462.040 timesteps/s
99.1% CPU use with 64 MPI tasks x 1 OpenMP threads

MPI task timing breakdown:
Section |  min time  |  avg time  |  max time  |%varavg| %total
---------------------------------------------------------------
Pair    | 30.099     | 41.216     | 52.71      | 111.8 |  7.62
Bond    | 0.27998    | 0.28936    | 0.29978    |   0.7 |  0.05
Kspace  | 273.77     | 285.48     | 296.86     |  42.7 | 52.76
Neigh   | 1.7447     | 1.7609     | 1.7746     |   0.6 |  0.33
Comm    | 92.039     | 93.273     | 95.263     |   9.9 | 17.24
Output  | 0.64547    | 0.64578    | 0.64742    |   0.0 |  0.12
Modify  | 105.6      | 107.41     | 110.3      |   9.9 | 19.85
Other   |            | 11.01      |            |       |  2.03

Nlocal:        20.2500 ave          27 max          13 min
Histogram: 5 4 11 4 4 9 3 11 8 5
Nghost:        2612.95 ave        2649 max        2585 min
Histogram: 3 4 12 11 8 13 6 2 3 2
Neighs:        6529.97 ave        8685 max        4145 min
Histogram: 5 4 8 7 6 7 3 11 8 5

Total # of neighbors = 417918
Ave neighs/atom = 322.46759
Ave special neighs/atom = 2.0000000
Neighbor list builds = 3150
Dangerous builds = 0

unfix		3
unfix		2
unfix		1

write_data	data.final.${pid}
write_data	data.final.0
System init for write_data ...
PPPM initialization ...
  extracting TIP4P info from pair style
  using 12-bit tables for long-range coulomb (../kspace.cpp:340)
  G vector (1/distance) = 0.3698872
  grid = 30 40 32
  stencil order = 5
  estimated absolute RMS force accuracy = 0.0039722309
  estimated relative force accuracy = 1.1962255e-05
  using double precision FFTW3
  3d grid and FFT values/proc = 5168 640
Last active /omp style is kspace_style pppm/tip4p/omp
WARNING: Not all mixed pair coeffs generated from mixing. Use write_data with 'pair ij' option to store all pair coeffs. (../write_data.cpp:312)

write_restart   restart.lmp.${pid}
write_restart   restart.lmp.0
System init for write_restart ...
PPPM initialization ...
  extracting TIP4P info from pair style
  using 12-bit tables for long-range coulomb (../kspace.cpp:340)
  G vector (1/distance) = 0.3698872
  grid = 30 40 32
  stencil order = 5
  estimated absolute RMS force accuracy = 0.0039722309
  estimated relative force accuracy = 1.1962255e-05
  using double precision FFTW3
  3d grid and FFT values/proc = 5168 640
Last active /omp style is kspace_style pppm/tip4p/omp
Total wall time: 0:09:01
