LAMMPS data file via write_data, version 30 Jul 2021, timestep = 750000

1008 atoms
2 atom types
672 bonds
1 bond types
336 angles
1 angle types

-3.1641599544980963 14.774158954048644 xlo xhi
-0.20098267149420046 22.780981671493763 ylo yhi
-0.05368003600644755 19.283678036005277 zlo zhi
-0.2597462826771041 -6.337926434783633 0.18940282443653322 xy xz yz

Masses

1 1.008
2 15.999

Pair Coeffs # lj/cut/tip4p/long/omp

1 0 0
2 0.21084 3.1668

Bond Coeffs # harmonic/omp

1 450 0.9572

Angle Coeffs # harmonic/omp

1 55 104.52

Atoms # full

21 7 1 0.5897 1.1250904550925513 2.3614781480321714 0.6741044211652435 0 0 0
31 11 2 -1.1794 1.537559502438791 1.4772614988917758 2.4377482746674617 0 0 0
32 11 1 0.5897 1.2833118129858399 1.5395733799200912 3.3584838202137384 0 0 0
55 19 2 -1.1794 -0.2605698698976173 4.301330288287739 3.7688018709549453 0 0 0
56 19 1 0.5897 -1.0061450011325013 3.9076041334108806 3.3158110070993274 0 0 0
57 19 1 0.5897 0.4386854941403593 4.312611801220609 3.1151607609380902 0 0 0
86 29 1 0.5897 -2.3001399169732686 1.4347813379305547 3.9256818407191116 1 0 0
121 41 2 -1.1794 -2.3111777949277372 2.7511902332106146 2.364371161655402 1 0 0
122 41 1 0.5897 -2.0971495540717218 2.300676767496433 1.5473473271240994 1 0 0
46 16 2 -1.1794 2.0707242117981393 4.65797988252445 2.221403259008311 0 0 0
123 41 1 0.5897 -3.2408624221557454 2.9645566951759132 2.284476209535803 1 0 0
602 201 1 0.5897 -0.4177984461252757 5.386276824794531 0.3848182662201901 1 0 1
78 26 1 0.5897 0.42961351579692053 2.4820049034991944 4.632630298028211 0 0 0
53 18 1 0.5897 4.572041427716311 2.896917359242008 2.883482836018967 0 0 0
114 38 1 0.5897 -2.764005119583594 5.479970210896934 1.9748671452442124 1 0 0
158 53 1 0.5897 -4.4248063241265365 4.458900175197404 4.405589920280989 1 0 0
16 6 2 -1.1794 5.587722175981847 4.985151712376433 0.1697336872292059 0 0 0
33 11 1 0.5897 0.8979144033283051 0.8787359384903752 2.052122451291589 0 0 0
52 18 2 -1.1794 3.886457449828076 2.9362531177588695 3.55038603477729 0 0 0
101 34 1 0.5897 -2.7566501588753507 4.5537076967469226 0.21170013064918664 1 0 0
6 2 1 0.5897 4.014003857511554 1.3869575963273368 4.707858636572516 0 0 0
54 18 1 0.5897 3.12090768784185 3.276962393781362 3.0877733304866672 0 0 0
71 24 1 0.5897 3.1544043856767887 0.9983434612471793 1.576812598514288 0 0 0
70 24 2 -1.1794 3.6863237813468954 0.4459333801348847 1.003861907301656 0 0 0
47 16 1 0.5897 2.2815422836191095 5.0137947918027175 1.358140853546493 0 0 0
48 16 1 0.5897 2.3245263203672577 5.348253527558042 2.834015382247503 0 0 0
163 55 2 -1.1794 -2.0147277258149217 1.2398378391616698 0.20793368730322187 1 0 0
72 24 1 0.5897 4.199375860016194 -0.09687079788842842 1.602503971232031 0 0 0
482 161 1 0.5897 -0.609301091805095 0.11570113874836424 0.7019274709623562 1 1 0
85 29 2 -1.1794 -2.2471664614252482 0.9770516120627453 4.7646825285103365 1 0 0
165 55 1 0.5897 -2.576924581258961 0.47564111356996297 0.08107082998542875 1 0 0
603 201 1 0.5897 -0.4768090640341254 3.9289275746934624 -0.020828568733380876 1 0 1
527 176 1 0.5897 4.050385731155074 1.9491013921272167 0.03662735300363468 0 0 1
124 42 2 -1.1794 -4.6441735664404735 2.3125528084926317 7.331040228915109 1 0 0
44 15 1 0.5897 -0.3559914554300039 5.088553171520584 8.04788342245912 0 0 0
68 23 1 0.5897 -3.095711432546366 0.19646087715101462 8.113760533015588 0 0 0
34 12 2 -1.1794 0.036497766212167715 1.0498486723257143 7.425959955626015 0 0 0
35 12 1 0.5897 0.23001834177143987 1.687324675178421 8.113237487842719 0 0 0
36 12 1 0.5897 -0.810354238484277 0.6791304259704233 7.674202733810931 0 0 0
43 15 2 -1.1794 -0.17100464710037455 4.917295616155385 7.124436473875908 0 0 0
77 26 1 0.5897 0.5707615643461379 1.4992852200582256 5.775551482675404 0 0 0
22 8 2 -1.1794 0.5144108349812009 2.926381296530813 9.346439359797683 0 0 0
58 20 2 -1.1794 2.318866384910156 3.989342648825695 6.219916230894574 0 0 0
59 20 1 0.5897 1.9619887646828031 3.265231875269218 5.705646925563456 0 0 0
60 20 1 0.5897 2.738126486889616 3.5672989908203543 6.969796817226409 0 0 0
67 23 2 -1.1794 -2.247674618232275 0.3377821828829629 8.534464800230854 0 0 0
126 42 1 0.5897 -3.7413757555428733 2.6280253717662476 7.290865596572878 1 0 0
69 23 1 0.5897 -2.348303498650528 1.1651730158691 9.005186595344105 0 0 0
134 45 1 0.5897 -1.8019777888884025 2.3989029200814547 6.025545264238383 1 0 0
159 53 1 0.5897 -3.2141057491773948 4.145989684115272 5.25883964481253 1 0 0
45 15 1 0.5897 0.7213315798689268 4.570892402904804 7.11855466483963 0 0 0
135 45 1 0.5897 -1.3782233563026511 3.711961213344857 6.648509799537942 1 0 0
520 174 2 -1.1794 2.4287133719874845 4.893646420719403 9.530798328635653 0 0 0
98 33 1 0.5897 -3.6313257437548 5.1145034475339495 8.396892952429242 1 0 0
133 45 2 -1.1794 -2.1440907880869746 3.158003352111977 6.497825122267732 1 0 0
669 223 1 0.5897 -5.236773045930394 1.3897812311020825 8.68222364746683 1 0 0
90 30 1 0.5897 -5.076874045152446 1.2415899309306084 5.887614175008487 1 0 0
157 53 2 -1.1794 -3.746277877837092 4.874046342563684 4.937906188271139 1 0 0
97 33 2 -1.1794 -3.6625903251184604 4.635515734794046 9.225045345206219 1 0 0
24 8 1 0.5897 0.9655997774454246 3.7668201721518604 9.42560990454895 0 0 0
125 42 1 0.5897 -5.170434277177966 3.051403732202911 7.02538351123279 1 0 0
5 2 1 0.5897 3.464201096482456 0.03951944119445827 5.124973743366054 0 0 0
87 29 1 0.5897 -3.1590767330587366 0.8388731975047519 5.020743395779174 1 0 0
606 202 1 0.5897 -5.775534069845708 4.427359925376772 9.396310580433639 1 0 0
667 223 2 -1.1794 -5.540834481966391 0.9130466062450997 9.45458505477653 1 0 0
76 26 2 -1.1794 1.0347520304303988 1.8454764899553013 5.013228995366044 0 0 0
11 4 1 0.5897 2.2827409529127483 5.308525652554742 5.029455499098336 0 0 0
401 134 1 0.5897 2.1533390595303628 0.07423401505850347 9.17765815958273 0 1 0
627 209 1 0.5897 -6.570296660443651 2.4627896642280405 11.970532399973669 1 0 0
626 209 1 0.5897 -5.586210732648572 1.4673919770578439 12.547323170256448 1 0 0
668 223 1 0.5897 -5.527653477192555 1.5621850517850153 10.157911496854384 1 0 0
575 192 1 0.5897 1.1106014134527644 0.03611292092654678 11.70220961542509 0 0 0
574 192 2 -1.1794 0.6181885786272248 0.6324419996906342 11.138178534311077 0 0 0
99 33 1 0.5897 -3.534116233698585 5.306556108566288 9.895428914981707 1 0 0
521 174 1 0.5897 2.3133859568836783 5.2435162195460965 10.414304240521933 0 0 0
587 196 1 0.5897 -0.9071391510476468 5.517897831592545 10.488377155439354 0 0 0
535 179 2 -1.1794 -1.8404124932289134 0.895733027214354 12.297802759361451 0 0 0
536 179 1 0.5897 -2.0414455947375494 1.3246483163116165 13.12960527911011 0 0 0
537 179 1 0.5897 -2.1768957559781232 1.4948309928186354 11.63140074410887 0 0 0
557 186 1 0.5897 0.3655070587691558 2.546356388358184 13.347531908647035 0 0 0
525 175 1 0.5897 -1.2924410287208836 2.70266262193209 9.793886997433953 0 0 0
524 175 1 0.5897 -2.6440606927472063 3.38127630956814 9.725795768641323 0 0 0
556 186 2 -1.1794 0.6820291925556639 3.3355924039698124 12.908104007854922 0 0 0
576 192 1 0.5897 -0.2082775914090993 0.7724422594562634 11.600405608862822 0 0 0
558 186 1 0.5897 -0.10011787552920559 3.874711350127477 12.790230869978105 0 0 0
559 187 2 -1.1794 -3.7448698910241918 4.032617659145805 12.743088905838453 0 0 0
560 187 1 0.5897 -4.346276165293062 3.4779765133266114 12.246298128036265 0 0 0
552 184 1 0.5897 -2.216043255994869 5.030573963672276 12.007567016988808 0 0 0
625 209 2 -1.1794 -5.670265601032521 2.1493922224505497 11.880985775192098 1 0 0
550 184 2 -1.1794 -1.3212937630435126 5.367568919580933 12.052463440532582 0 0 0
561 187 1 0.5897 -3.2719728620995774 3.4247674752119326 13.311527597055901 0 0 0
513 171 1 0.5897 -3.8598473355878515 5.502590987622627 13.673680564256788 0 0 0
23 8 1 0.5897 0.8478020127961381 2.405210185904455 10.076826071159626 0 0 0
662 221 1 0.5897 -7.3218979846171255 4.411223574601502 14.269090447820396 1 0 0
523 175 2 -1.1794 -2.189455983690025 2.6376701115212913 10.12158624853626 0 0 0
589 197 2 -1.1794 -5.670208401948524 0.7564050573456803 14.282301919159824 1 0 0
663 221 1 0.5897 -6.443724028391853 5.600714781477958 13.943986591941991 1 0 0
618 206 1 0.5897 -6.2103345790592694 5.631913095539927 11.309165716883939 1 0 0
563 188 1 0.5897 -0.7971652051219529 4.920702418812528 15.783607545208215 0 0 0
547 183 2 -1.1794 -3.7366837110175997 4.9380447803153595 16.686878574934703 0 0 0
582 194 1 0.5897 -1.8425532960659528 3.0051740301816485 14.859557310139868 0 0 0
628 210 2 -1.1794 -8.106807968439163 2.188653837828392 17.110581629928767 1 0 0
639 213 1 0.5897 -5.777375804975467 3.745458662786226 15.4000783901942 1 0 0
581 194 1 0.5897 -2.7750129201867777 1.888044172485472 15.277134905254004 0 0 0
526 176 2 -1.1794 -2.4032151576821867 2.8498003053723244 18.743966027522198 0 0 0
590 197 1 0.5897 -5.476420761518606 1.5700002107873916 14.747745467016744 1 0 0
538 180 2 -1.1794 -2.9913662194159585 0.8715716725338303 16.827823992095276 0 0 0
539 180 1 0.5897 -2.92551769956854 1.6235652384849313 17.416386420136547 0 0 0
540 180 1 0.5897 -3.8081811712780906 0.4407073200847653 17.07959852312598 0 0 0
580 194 2 -1.1794 -2.451770137719982 2.356350780312123 14.507402467693884 0 0 0
638 213 1 0.5897 -6.287253567394595 2.842996937929069 16.503520768899058 1 0 0
549 183 1 0.5897 -4.269564668038763 4.172174371988907 16.473369880374683 0 0 0
562 188 2 -1.1794 -0.9554907254226492 4.127171963256414 16.294961017886894 0 0 0
593 198 1 0.5897 -7.463605040762746 0.5095145384446296 14.891438112505817 1 0 0
564 188 1 0.5897 -1.8717639117358464 4.193786143359447 16.56385920591887 0 0 0
528 176 1 0.5897 -3.2674654822093547 3.209439157162417 18.944027854344263 0 0 0
629 210 1 0.5897 -8.635807521692112 2.9450571576342117 16.857038258423945 1 0 0
164 55 1 0.5897 -8.112735257142912 1.7004748624985038 18.65920893762877 1 0 -1
20 7 1 0.5897 -5.317911969877496 2.3805865532445303 18.510833594793894 0 0 -1
637 213 2 -1.1794 -5.513241808001348 3.023101077499968 15.96988772146204 1 0 0
601 201 2 -1.1794 -7.253640557273055 4.958889666892249 19.185740337713444 1 0 0
630 210 1 0.5897 -8.413544165464579 1.4805330015517912 16.544375729478585 1 0 0
18 6 1 0.5897 -1.361663715517989 4.51163752042197 19.18648468341169 0 0 -1
571 191 2 -1.1794 -5.552148056194886 0.45196598773300245 18.061345332372106 0 0 0
510 170 1 0.5897 0.6168236979130155 1.197851453349083 15.547657202164245 0 0 0
548 183 1 0.5897 -3.8709581301449694 5.536337768120961 15.95188102616483 0 0 0
661 221 2 -1.1794 -6.698450052196151 5.021731755154461 14.662416857654932 1 0 0
591 197 1 0.5897 -4.931115158760763 0.1825099847711727 14.48393696386263 1 0 0
84 28 1 0.5897 -3.814387466131378 5.713864351698979 18.454875421381647 0 0 -1
508 170 2 -1.1794 0.6377904465735247 1.0136188612251926 14.608568928593256 0 0 0
19 7 2 -1.1794 -5.231381036392857 3.046616353038048 19.192852931432547 0 0 -1
289 97 2 -1.1794 -2.7660586311136988 10.156768731999104 2.456164039960356 1 0 0
112 38 2 -1.1794 -2.546584028350197 6.11877375989535 2.6537282828326267 1 0 0
145 49 2 -1.1794 0.011750358577768516 6.940391568662216 1.6601849339629522 1 0 0
147 49 1 0.5897 -0.5130319017585814 7.54530464356042 1.1358468492086242 1 0 0
255 85 1 0.5897 -2.600169282794 8.60878525170176 3.8115075344451212 1 0 0
146 49 1 0.5897 -0.6205269613511843 6.512703233651215 2.2377069466717425 1 0 0
332 111 1 0.5897 -2.258333726186812 9.08411815135121 0.9893976631815753 1 0 0
291 97 1 0.5897 -3.5674425609115903 10.571470410990813 2.775770630751539 1 0 0
188 63 1 0.5897 -0.04959848516431986 10.0560178713528 0.6738630106962806 0 0 0
200 67 1 0.5897 1.1833907068035252 8.063411169482785 2.4997185337017758 0 0 0
12 4 1 0.5897 1.327573482902876 6.3430683652938535 4.473271535284712 0 0 0
290 97 1 0.5897 -2.0678646021824183 10.764616584248987 2.6994311934201005 1 0 0
173 58 1 0.5897 3.183409283221926 7.80152860481593 4.739443578719494 0 0 0
199 67 2 -1.1794 1.6943978241146924 8.84610680079364 2.705662827373161 0 0 0
10 4 2 -1.1794 2.2583161996850247 6.171957735370413 4.616976100013624 0 0 0
245 82 1 0.5897 1.1982525660559258 9.950113701678962 3.8562832366188897 0 0 0
9 3 1 0.5897 -0.49694774902742544 5.861074674850483 4.735086318377461 0 0 0
221 74 1 0.5897 4.5161634852152694 11.094549656924498 2.8730451444056464 0 0 0
201 67 1 0.5897 2.590870834174895 8.619346099973932 2.458204906356481 0 0 0
240 80 1 0.5897 3.9112086084331414 7.355532505697406 0.7155928141766984 0 0 0
331 111 2 -1.1794 -1.9539758989564666 8.562599242030736 0.24663232609151398 1 0 0
174 58 1 0.5897 3.4259163211348618 9.2254216518201 4.286063382820527 0 0 0
220 74 2 -1.1794 3.722152614872991 11.188743897355321 3.399357137660908 0 0 0
239 80 1 0.5897 3.7448187441006757 8.854766988026446 0.8444035688267763 0 0 0
238 80 2 -1.1794 3.930370005329001 8.067059352311535 1.3556074513744207 0 0 0
113 38 1 0.5897 -2.9816722380471434 5.790349329985064 3.4405711263846177 1 0 0
253 85 2 -1.1794 -2.683532279015358 8.359294991753577 4.7318675573599815 1 0 0
244 82 2 -1.1794 0.956878617499128 10.375564074139348 4.679112388536526 0 0 0
189 63 1 0.5897 1.3895142330402717 10.464478031935919 0.44156386805038217 0 0 0
187 63 2 -1.1794 0.5103579194725714 10.54647507087559 0.07207008305952786 0 0 0
694 232 2 -1.1794 3.273654440477867 10.450278962769762 -0.041705724420967975 0 0 1
292 98 2 -1.1794 -4.811137373538996 10.76966413412597 7.3074617122768 1 0 0
8 3 1 0.5897 -0.19382278805174646 6.747679778018159 5.924158367983513 0 0 0
191 64 1 0.5897 0.34654694649323803 9.975608781633028 8.82310029895969 0 0 0
111 37 1 0.5897 -4.922690954025528 6.719209102809043 7.232188115813965 1 0 0
66 22 1 0.5897 2.8831980173771887 6.846195049668901 7.5678591286917385 0 0 0
110 37 1 0.5897 -3.9348291980131354 5.88561563728144 6.443838722285828 1 0 0
246 82 1 0.5897 0.5215851882361235 9.68964828320411 5.185337721818935 0 0 0
303 101 1 0.5897 -1.5374828649077843 11.104553103908657 6.738789869588646 1 0 0
109 37 2 -1.1794 -3.996444306066016 6.481261976951173 7.190623091783865 1 0 0
172 58 2 -1.1794 3.7697183477944556 8.547170946545647 4.867444096020079 0 0 0
64 22 2 -1.1794 2.1134441464499396 7.264777027255745 7.953353748089334 0 0 0
294 98 1 0.5897 -4.898342265900737 10.31153152024913 8.143370427952618 1 0 0
837 279 1 0.5897 -5.7107456875387115 8.633908503132515 8.900802205564101 1 0 0
202 68 2 -1.1794 0.09141227449179112 8.968199083826205 7.028825507657325 0 0 0
203 68 1 0.5897 -0.6787450104411272 8.72352953744718 7.541902713146366 0 0 0
204 68 1 0.5897 0.7399939341407138 8.294547834251157 7.2333375266139885 0 0 0
7 3 2 -1.1794 -0.4016833178424344 6.778678962700614 4.990321485198569 0 0 0
235 79 2 -1.1794 -2.0112438030813786 7.80058737593934 8.399916744877325 0 0 0
236 79 1 0.5897 -2.7971234754024517 7.337165348324002 8.110495688078094 0 0 0
237 79 1 0.5897 -2.342920182265437 8.54517996223986 8.901814225065923 0 0 0
302 101 1 0.5897 -2.0872960080322462 9.999165539203013 5.862700904311214 1 0 0
301 101 2 -1.1794 -2.3581489801770976 10.725055213546527 6.424876740711048 1 0 0
293 98 1 0.5897 -3.868691555994858 10.78799747592378 7.140950885590632 1 0 0
522 174 1 0.5897 2.3633558333322657 5.658731817641401 8.959284129270479 0 0 0
228 76 1 0.5897 1.961998954224268 11.250619760759257 5.984995569752523 0 0 0
588 196 1 0.5897 -1.1661005526434547 6.605217107065935 9.46729901345658 0 0 0
257 86 1 0.5897 -4.633805729650392 8.36093996574432 4.994283994949665 1 0 0
835 279 2 -1.1794 -5.243971547498942 9.174763549118857 9.537779462931903 1 0 0
65 22 1 0.5897 2.470698013349433 7.944537716290016 8.524714978700468 0 0 0
258 86 1 0.5897 -5.17992998913701 9.255268357318712 6.087028041054039 1 0 0
254 85 1 0.5897 -1.9508508350714588 7.762907900449344 4.886084866258338 1 0 0
586 196 2 -1.1794 -0.63860801055672 5.82140194268293 9.621155960306337 0 0 0
724 242 2 -1.1794 0.5801242748761117 10.851950763876571 13.043051625634225 0 0 0
750 250 1 0.5897 -3.227048631731959 10.710303125616704 14.195464742506573 0 0 0
794 265 1 0.5897 -4.91378137877323 10.77061453716814 12.042614499281022 1 0 0
617 206 1 0.5897 -6.954330882132814 6.838537271477731 11.840863718420698 1 0 0
616 206 2 -1.1794 -6.295163926319557 6.188238095354741 12.083497085139882 1 0 0
795 265 1 0.5897 -5.5780966978541136 9.884869594617307 11.010262129480138 1 0 0
836 279 1 0.5897 -4.603529339525484 8.58250267030499 9.931873284747883 1 0 0
649 217 2 -1.1794 -3.9484650560106864 7.0179696495662025 10.975096602270431 1 0 0
650 217 1 0.5897 -3.2671101446829276 7.332955779618557 11.568949352868552 1 0 0
651 217 1 0.5897 -4.71815300614842 6.902909302710311 11.532460180265305 1 0 0
793 265 2 -1.1794 -5.763883170297201 10.412900247816456 11.786701974519 1 0 0
743 248 1 0.5897 0.7598205445573951 8.444275783131069 10.72847715043387 0 0 0
744 248 1 0.5897 0.23723584768457195 7.028282951432516 10.611538367317504 0 0 0
757 253 2 -1.1794 -5.291602912738238 8.70611427859124 14.120726318243523 1 0 0
693 231 1 0.5897 -2.750578919308688 9.948140603903099 10.700647552271453 0 0 0
703 235 2 -1.1794 -1.9716015843426842 8.537761142988883 12.181464925398991 0 0 0
704 235 1 0.5897 -1.0166385822831745 8.52961395900915 12.116613023156933 0 0 0
705 235 1 0.5897 -2.1534667469142716 9.02266639705324 12.98650692818796 0 0 0
759 253 1 0.5897 -5.433088879614942 8.959255199646977 13.2085233634612 1 0 0
742 248 2 -1.1794 0.592265761651658 7.654376246251993 11.24251559010065 0 0 0
678 226 1 0.5897 0.011062822968059827 9.447917123946384 14.20424811780934 0 0 0
190 64 2 -1.1794 0.21233513060411635 9.967849471610387 9.770833083148782 0 0 0
512 171 1 0.5897 -4.342093256709115 6.873268574929659 14.09883763259985 0 0 0
748 250 2 -1.1794 -2.4279636720643722 10.19684068950841 14.314212091237222 0 0 0
692 231 1 0.5897 -1.5127379024923737 10.209718928296576 9.869141351881549 0 0 0
691 231 2 -1.1794 -2.468253830355255 10.258622928359527 9.840309288053401 0 0 0
192 64 1 0.5897 0.5691331456583284 10.803909317242013 10.07059466561961 0 0 0
726 242 1 0.5897 0.00723594085640844 11.37425902795279 12.48163041354634 0 0 0
762 254 1 0.5897 -7.231372820087108 8.394226721290396 14.288133596552823 1 0 0
511 171 2 -1.1794 -3.6711104532588257 6.215973387780445 14.283322657848906 0 0 0
551 184 1 0.5897 -1.3449551798327404 6.018240995110441 12.75412514118316 0 0 0
570 190 1 0.5897 -0.19539894466421703 7.230994897229954 17.43123618897468 0 0 0
615 205 1 0.5897 -7.364022991720807 6.027100091819754 16.156100179341603 1 0 0
695 232 1 0.5897 -3.0983575135578922 10.283863503003392 18.407685316118048 0 0 0
741 247 1 0.5897 -5.872139435999898 8.94502988696464 17.95209641652253 0 0 0
614 205 1 0.5897 -7.2414570924263515 5.969202607484153 17.663934676421462 1 0 0
798 266 1 0.5897 -8.017698799026167 9.480556088448653 16.443740652648902 1 0 0
568 190 2 -1.1794 -0.8774168755499057 7.4074595385627875 18.079370215056837 0 0 0
83 28 1 0.5897 -4.458059967514379 6.9422446253399865 19.062265072343884 0 0 -1
806 269 1 0.5897 -6.0346972569962265 11.341265069967971 15.477450038453883 1 0 0
613 205 2 -1.1794 -7.631735496495569 6.480849851661151 16.955325620949175 1 0 0
758 253 1 0.5897 -5.171179724435772 9.535078531776119 14.583906011093488 1 0 0
740 247 1 0.5897 -6.100160111517736 7.568127904804672 17.365590076575536 0 0 0
797 266 1 0.5897 -6.8997893243641695 10.436261945385331 16.802286458405536 1 0 0
516 172 1 0.5897 -0.4521923595332167 7.078821473088748 14.902129430547829 0 0 0
82 28 2 -1.1794 -3.883214460813644 6.20637114182314 19.27278779376588 0 0 -1
706 236 2 -1.1794 -2.8193321748288414 8.663142804184826 16.449305093998017 0 0 0
707 236 1 0.5897 -3.678542029466337 8.41617228751671 16.791385096896974 0 0 0
708 236 1 0.5897 -2.1965787634385396 8.184846795267676 16.996696748486304 0 0 0
796 266 2 -1.1794 -7.791903884648008 10.189376492545433 17.0460605437713 1 0 0
749 250 1 0.5897 -2.649347591774246 9.562621499805543 14.99612422643464 0 0 0
739 247 2 -1.1794 -5.4129795055475824 8.143153436750735 17.70211458435232 0 0 0
569 190 1 0.5897 -0.9125921646838604 6.613550816650429 18.612947268180392 0 0 0
333 111 1 0.5897 -8.023955842741055 9.398253041566361 18.93069096132777 1 0 -1
805 269 2 -1.1794 -5.403201267798634 10.796636176566764 15.947383871091656 1 0 0
514 172 2 -1.1794 -0.9966263865432676 6.307294905007827 14.745650216538797 0 0 0
676 226 2 -1.1794 0.3279907048943471 8.775004796552778 14.806740020738035 0 0 0
731 244 1 0.5897 -1.378168519796672 11.315632315476797 15.479675926696498 0 0 0
515 172 1 0.5897 -1.8906416630291671 6.607042198507834 14.910588595413913 0 0 0
807 269 1 0.5897 -4.715109877848412 11.405070347430993 16.21658941265491 1 0 0
696 232 1 0.5897 -2.3917146422428726 11.31957948993716 19.25600042558524 0 0 0
281 94 1 0.5897 -3.7482378966349916 13.549836504173715 3.3200817795280617 1 0 0
280 94 2 -1.1794 -3.712429691095617 13.912605584215898 2.4350145003947548 1 0 0
282 94 1 0.5897 -2.7883160793089377 14.12127864872439 2.2983203249811566 1 0 0
313 105 2 -1.1794 -1.1790208851909223 14.61081453821178 1.9002168973284783 1 0 0
315 105 1 0.5897 -0.8295441442959164 14.043775044463361 1.2127049184494758 1 0 0
223 75 2 -1.1794 -0.8279052393963173 11.90450797781099 3.270057344877327 0 0 0
252 84 1 0.5897 2.952148678330204 14.370711664854326 0.4177416975662714 0 0 0
500 167 1 0.5897 -2.077981971567091 15.7415771743557 0.9471153922752942 1 0 0
770 257 1 0.5897 -1.5952106071297638 12.506261521568158 0.17242051851668772 1 0 1
314 105 1 0.5897 -0.42549683407854966 15.121386456789127 2.1962109876240703 1 0 0
225 75 1 0.5897 -1.024326827912696 12.643835878118066 3.84548510095844 0 0 0
222 74 1 0.5897 3.1133207978629116 11.66235106107168 2.832593790542126 0 0 0
368 123 1 0.5897 2.009440570682509 16.025080019656066 2.537231844064612 0 0 0
369 123 1 0.5897 0.9445071722791507 16.64084180772805 3.4198435534238634 0 0 0
367 123 2 -1.1794 1.0666260780444201 16.018852958385104 2.702551357755575 0 0 0
216 72 1 0.5897 0.7563627474113113 12.633288246596035 2.5390227160439083 0 0 0
184 62 2 -1.1794 5.120700644976498 12.494265369889906 0.19137796621523287 0 0 0
406 136 2 -1.1794 3.5887869387216043 15.782752700204135 1.4489224931276887 0 0 0
215 72 1 0.5897 1.8078393043550118 12.985020033222142 1.5081297684330022 0 0 0
180 60 1 0.5897 2.0302537392851443 13.313737595686014 4.00875326713844 0 0 0
408 136 1 0.5897 3.8679976481516825 16.624155733203402 1.0879349574593682 0 0 0
407 136 1 0.5897 4.3746051604548 15.426883403008134 1.8637050710823544 0 0 0
214 72 2 -1.1794 1.7036104297246792 12.6796532812939 2.4093200841521374 0 0 0
499 167 2 -1.1794 -2.485819104656768 16.31465556500831 0.29790133282997233 1 0 0
224 75 1 0.5897 -0.12415176157421381 11.433432189466364 3.7161926886877796 0 0 0
423 141 1 0.5897 -2.084346592988699 16.465839445801542 4.2765701493968775 1 0 0
250 84 2 -1.1794 2.3421753362017412 13.763783741248963 -0.0013905559299339024 0 0 0
279 93 1 0.5897 -5.405455435870753 14.579935899266538 7.142554942916426 1 0 0
325 109 2 -1.1794 -3.8576776719816155 12.641141452842193 4.8893275651601575 1 0 0
405 135 1 0.5897 -2.410228766495128 16.744318430928423 8.527367573952741 0 0 0
327 109 1 0.5897 -4.244160166808948 13.22538888949453 5.54172086650109 1 0 0
176 59 1 0.5897 -0.8630128759217399 14.50782021572084 5.50121665611574 0 0 0
211 71 2 -1.1794 -0.2632713874695387 12.204436244117629 7.580115688867147 0 0 0
212 71 1 0.5897 -0.442971338656033 12.767590144906924 8.3329965795774 0 0 0
213 71 1 0.5897 -0.29002793286474615 12.794706055957953 6.82708669915872 0 0 0
340 114 2 -1.1794 3.4693407338379227 16.0476102576092 4.946953913662335 0 0 0
233 78 1 0.5897 2.7542966435000924 14.115328385954703 7.774723016411323 0 0 0
232 78 2 -1.1794 2.1565509291665172 14.493246741745498 8.419881870877429 0 0 0
326 109 1 0.5897 -3.36752213004994 11.998903220735363 5.4026700924133015 1 0 0
234 78 1 0.5897 1.4943777825753575 14.945794059797674 7.897433086194718 0 0 0
341 114 1 0.5897 2.999057022740086 15.221659858715322 4.83380446585396 0 0 0
267 89 1 0.5897 -3.9507501795810254 13.0188300323989 8.734425930817418 1 0 0
277 93 2 -1.1794 -4.5675173995975165 14.124602743614787 7.225164849364654 1 0 0
278 93 1 0.5897 -3.909521669782248 14.80706688963018 7.093035790566031 1 0 0
403 135 2 -1.1794 -2.3950742340318825 15.903678401246117 8.069864590064288 0 0 0
756 252 1 0.5897 -1.6648075123141033 14.753353843383382 9.147652083233629 0 0 0
370 124 2 -1.1794 0.270935465248646 16.48107749159233 7.2633817613519795 0 0 0
372 124 1 0.5897 0.5755934676353256 16.89049127166097 6.453542627135069 0 0 0
404 135 1 0.5897 -1.5075612332444428 15.838168426699541 7.717246442055671 0 0 0
179 60 1 0.5897 2.1903812794848445 12.994032713757967 5.479824696842859 0 0 0
227 76 1 0.5897 1.4751652258187065 11.814207005337545 7.303143903706937 0 0 0
424 142 2 -1.1794 -4.993956058475112 16.27913853135049 5.041212413460637 1 0 0
226 76 2 -1.1794 2.251475961121163 11.753285417227643 6.746388718527185 0 0 0
175 59 2 -1.1794 -0.4092249756044879 13.684387272696178 5.321314165487596 0 0 0
422 141 1 0.5897 -2.0536134750852018 16.679449793330335 5.775032983051166 1 0 0
774 258 1 0.5897 -5.916743197088875 12.375621333762309 9.435429650276353 1 0 0
177 59 1 0.5897 0.5014426497943201 13.9394703865447 5.173511055291509 0 0 0
421 141 2 -1.1794 -2.0279024626733144 15.993931378703637 5.107455675101429 1 0 0
425 142 1 0.5897 -4.041871554196755 16.184911341889247 5.011348058015581 1 0 0
178 60 2 -1.1794 2.1676211462849615 13.724919255886954 4.862151313147412 0 0 0
754 252 2 -1.1794 -0.9710560640295878 14.186135991803463 9.48415559722375 0 0 0
910 304 2 -1.1794 0.8372254095528353 15.753090413809582 11.002254914977028 0 0 0
1005 335 1 0.5897 -5.028857484922804 16.053604873152352 10.20045572467194 1 0 0
912 304 1 0.5897 1.477341282822188 15.196938261864862 11.446297136378755 0 0 0
718 240 2 -1.1794 -1.3398434440710325 12.606526537008978 11.64028655433683 0 0 0
719 240 1 0.5897 -1.5485193300105413 12.983261523735916 10.785447428671638 0 0 0
720 240 1 0.5897 -1.1697339015890078 13.363395574403405 12.201014173250675 0 0 0
911 304 1 0.5897 0.17335902668815395 15.933579640426982 11.667885646563324 0 0 0
873 291 1 0.5897 -2.532251208083425 15.818120812203778 11.677833941992617 0 0 0
727 243 2 -1.1794 -3.8211791975542644 12.095441646737255 12.959565055011577 0 0 0
926 309 1 0.5897 -5.323869601977907 15.595574100847768 14.220510598924848 1 0 0
729 243 1 0.5897 -3.9756758960284255 12.920702268681547 13.419305792066305 0 0 0
755 252 1 0.5897 -0.34560088805415523 14.786678696745781 9.889464725732852 0 0 0
871 291 2 -1.1794 -1.9001302908147162 16.524905643413497 11.808327705177724 0 0 0
266 89 1 0.5897 -3.314046289290347 12.00685903855128 9.663063543820064 1 0 0
784 262 2 -1.1794 -6.513646871162454 13.9429654032558 11.847180456932453 1 0 0
725 242 1 0.5897 0.9709474956536015 11.486532019091568 13.64364396067928 0 0 0
786 262 1 0.5897 -6.348546881594658 13.662622945506348 12.747368306672016 1 0 0
817 273 2 -1.1794 -4.021992801404075 14.767935254603332 11.191915411980272 1 0 0
818 273 1 0.5897 -4.923342398358367 14.61221128120441 11.474014900429541 1 0 0
819 273 1 0.5897 -3.8325147442089165 14.050870545004686 10.586760830122751 1 0 0
831 277 1 0.5897 -7.349657134221068 12.404917393167999 14.059473448751742 1 0 0
688 230 2 -1.1794 1.718136855672622 12.197270840451488 10.124982332255346 0 0 0
925 309 2 -1.1794 -6.003331698859079 16.26288293018444 14.317235190712566 1 0 0
728 243 1 0.5897 -2.9687693118170895 12.210536444337675 12.53950220407829 0 0 0
682 228 2 -1.1794 -1.109787110034822 14.249697519607361 13.89621639253279 0 0 0
846 282 1 0.5897 0.49074743212560534 17.117757420431147 13.940833585231667 0 0 0
1003 335 2 -1.1794 -5.674166292409465 16.656891145226517 9.83184231914141 1 0 0
684 228 1 0.5897 -0.6277484935065498 14.956610056569254 14.32518971794085 0 0 0
785 262 1 0.5897 -7.177350054201903 14.628108304742296 11.927119992954523 1 0 0
680 227 1 0.5897 -2.93356899457532 14.50329940652302 14.307766131990704 0 0 0
690 230 1 0.5897 1.5754295645986112 13.077558106112098 9.777163530033782 0 0 0
265 89 2 -1.1794 -3.9252982665824017 12.743429832960452 9.650787582204275 1 0 0
876 292 1 0.5897 -2.239074507490768 15.804218380248235 17.171026829508342 0 0 0
681 227 1 0.5897 -3.5552374716201554 14.019395179651847 15.60060356930724 0 0 0
907 303 2 -1.1794 -5.53252491180684 15.541871083297861 17.829304517927373 0 0 0
683 228 1 0.5897 -0.9979544538462202 13.49651572888929 14.476235013818432 0 0 0
732 244 1 0.5897 -0.1324483435085373 11.697598747415594 16.250330166866647 0 0 0
783 261 1 0.5897 -8.373134630267899 14.462662061423792 16.680970292381545 1 0 0
908 303 1 0.5897 -6.162824305211812 15.043874898156805 17.30890922758333 0 0 0
185 62 1 0.5897 -1.1863787864053368 13.263583476328833 18.767824109500506 0 0 -1
715 239 2 -1.1794 -3.4931030163854873 12.607112763012003 16.892898517370522 0 0 0
716 239 1 0.5897 -3.763922926318955 12.920937309914434 17.75574075251125 0 0 0
927 309 1 0.5897 -5.6154369101874435 16.91811331377908 14.897205645390498 1 0 0
874 292 2 -1.1794 -2.952219478622929 16.434314846733322 17.0675636332911 0 0 0
730 244 2 -1.1794 -0.9076014579999363 12.071366909733703 15.831222487153228 0 0 0
844 282 2 -1.1794 0.6301018299254562 16.42813141037837 14.58986621369341 0 0 0
930 310 1 0.5897 -7.760805490911433 16.39535359806036 14.609329533934476 1 0 0
909 303 1 0.5897 -4.8048253701162835 15.708172958510946 17.2300803198732 0 0 0
781 261 2 -1.1794 -7.520321557740461 14.02831589763441 16.69963941030632 1 0 0
782 261 1 0.5897 -7.453469233818698 13.668812936843647 17.5842456735495 1 0 0
736 246 2 -1.1794 -0.8327316282689452 14.834873948465594 17.554616098303928 0 0 0
717 239 1 0.5897 -2.540902831117964 12.704696379121378 16.88991252895616 0 0 0
830 277 1 0.5897 -7.025330263811015 13.316132937151586 15.224085148793693 1 0 0
679 227 2 -1.1794 -3.775060183945569 14.282056029929315 14.706788193304767 0 0 0
829 277 2 -1.1794 -6.620159957616162 12.844351732252987 14.496342612065842 1 0 0
251 84 1 0.5897 -4.681753595056313 14.51416632455341 18.97411218351246 0 0 -1
501 167 1 0.5897 -8.142659925547235 16.644397051498274 18.977422128672863 1 0 -1