LAMMPS (30 Jul 2021)
  using 1 OpenMP thread(s) per MPI task
package omp 0
using multi-threaded neighbor list subroutines
echo both

include		in.partitions
variable        pid world 0
include		in.temp
variable        temperature equal 249.87
variable	tempDamp equal 100.0
include		in.pressure
variable        pressure equal 6375.0
variable        pressureDamp equal 1000.0 # This is 1 ps
include		in.seed
variable        seed world 745823

units		real
atom_style	full
read_restart	restart.lmp.${pid}
read_restart	restart.lmp.0
Reading restart file ...
  restart file = 30 Jul 2021, LAMMPS = 30 Jul 2021
  restoring atom style full from restart
  orthogonal box = (0.54320789 1.7313584 0.66271236) to (17.664365 21.897819 21.550483)
  4 by 4 by 4 MPI processor grid
  restoring pair style lj/cut/tip4p/long/omp from restart
  restoring bond style harmonic/omp from restart
  restoring angle style harmonic/omp from restart
  864 atoms
  576 bonds
  288 angles
Finding 1-2 1-3 1-4 neighbors ...
  special bond factors lj:    0        0        0       
  special bond factors coul:  0        0        0       
     2 = max # of 1-2 neighbors
     1 = max # of 1-3 neighbors
     1 = max # of 1-4 neighbors
     2 = max # of special neighbors
  special bonds CPU = 0.479 seconds
  read_restart CPU = 0.688 seconds
include 	in.setup
variable	out_freq equal 1000
variable	out_freq2 equal 10000
variable	out_freq3 equal 1000

timestep	2.0

neigh_modify    delay 7 every 1

include		in.tip4p
# This is TIP4P/Ice

# create groups ###
group ox type 2
288 atoms in group ox
group hy type 1
576 atoms in group hy

# set charges - beside manually ###
set group ox charge -1.1794
Setting atom values ...
  288 settings made for charge
set group hy charge 0.5897
Setting atom values ...
  576 settings made for charge

# ### TIP3P Potential Parameters ###
pair_style lj/cut/tip4p/long/omp 2 1 1 1 0.1577 8.5
pair_coeff 1 1*2 0.000 0.000
pair_coeff 2 2 0.21084 3.1668
bond_style  harmonic
bond_coeff  1 450 0.9572
angle_style harmonic
angle_coeff 1 55 104.52
kspace_style pppm/tip4p/omp 1.0e-5
pair_modify tail yes

thermo          ${out_freq}
thermo          1000
thermo_style    custom step temp pe etotal epair emol press lx ly lz vol pxx pyy pzz pxy pxz pyz enthalpy

restart 	${out_freq3} restart.lmp.${pid} restart2.lmp.${pid}
restart 	1000 restart.lmp.${pid} restart2.lmp.${pid}
restart 	1000 restart.lmp.0 restart2.lmp.${pid}
restart 	1000 restart.lmp.0 restart2.lmp.0


include         in.dump
dump            myDump all atom ${out_freq2} dump.water.${pid}
dump            myDump all atom 10000 dump.water.${pid}
dump            myDump all atom 10000 dump.water.0
dump            myDump2 all dcd ${out_freq2} dump.dcd
dump            myDump2 all dcd 10000 dump.dcd
dump_modify     myDump append yes
dump_modify     myDump2 append yes


variable natoms 	equal  "count(all)"                        # NUMBER ATOMS
variable H      	equal  "enthalpy/v_natoms"                 # ENTHALPY-per-atom
variable Vol      	equal  "vol/v_natoms"                 # volume-per-atom
fix AVG all 		ave/time ${out_freq} 1 ${out_freq} v_Vol v_H file vol_enthalpy.dat
fix AVG all 		ave/time 1000 1 ${out_freq} v_Vol v_H file vol_enthalpy.dat
fix AVG all 		ave/time 1000 1 1000 v_Vol v_H file vol_enthalpy.dat


timer           timeout 23:50:00 every 1000
New timer settings: style=normal  mode=nosync  timeout=23:50:00

fix 		1 all shake 1e-6 200 0 b 1 a 1
       0 = # of size 2 clusters
       0 = # of size 3 clusters
       0 = # of size 4 clusters
     288 = # of frozen angles
  find clusters CPU = 0.044 seconds
fix             2 all nph iso ${pressure} ${pressure} ${pressureDamp}
fix             2 all nph iso 6375 ${pressure} ${pressureDamp}
fix             2 all nph iso 6375 6375 ${pressureDamp}
fix             2 all nph iso 6375 6375 1000
fix             3 all temp/csvr ${temperature} ${temperature} ${tempDamp} ${seed}
fix             3 all temp/csvr 249.87 ${temperature} ${tempDamp} ${seed}
fix             3 all temp/csvr 249.87 249.87 ${tempDamp} ${seed}
fix             3 all temp/csvr 249.87 249.87 100 ${seed}
fix             3 all temp/csvr 249.87 249.87 100 745823

run             250000
PPPM initialization ...
  extracting TIP4P info from pair style
  using 12-bit tables for long-range coulomb (../kspace.cpp:340)
  G vector (1/distance) = 0.37355324
  grid = 24 24 24
  stencil order = 5
  estimated absolute RMS force accuracy = 0.0032427736
  estimated relative force accuracy = 9.7655163e-06
  using double precision FFTW3
  3d grid and FFT values/proc = 2535 216
Last active /omp style is kspace_style pppm/tip4p/omp
Neighbor list info ...
  update every 1 steps, delay 7 steps, check yes
  max neighbors/atom: 2000, page size: 100000
  master list distance cutoff = 10.8154
  ghost atom cutoff = 10.8154
  binsize = 5.4077, bins = 4 4 4
  1 neighbor lists, perpetual/occasional/extra = 1 0 0
  (1) pair lj/cut/tip4p/long/omp, perpetual
      attributes: half, newton on, omp
      pair build: half/bin/newton/omp
      stencil: half/bin/3d
      bin: standard
Per MPI rank memory allocation (min/avg/max) = 9.235 | 9.238 | 9.242 Mbytes
Step Temp PotEng TotEng E_pair E_mol Press Lx Ly Lz Volume Pxx Pyy Pzz Pxy Pxz Pyz Enthalpy 
21750000     259.5358   -3884.8983   -3440.0629   -3884.8983            0     5530.023    17.121157    20.166461    20.887771    7211.9862    6577.5934    5182.0879    4830.3877    985.86821   -249.84912   -462.64012   -2858.4182 
21751000    249.63099   -3921.4752   -3493.6163   -3921.4752            0    4607.1505    17.156853    20.208507    20.931321    7257.1899    5924.1726    4177.7579    3719.5209   -324.21629    201.40875   -125.42548   -3006.0016 
21752000     247.8624   -3922.9014   -3498.0737   -3922.9014            0     6590.212    17.068045    20.103902    20.822974    7145.0767    8245.3005    5852.3775     5672.958    550.72985    -549.6819    213.81399   -2811.3498 
21753000    251.77527   -3933.0252    -3501.491   -3933.0252            0     6256.208    17.099372    20.140801    20.861193    7184.4916    5814.4569    6096.5179    6857.6494    551.58799    681.65995    179.52909   -2845.9753 
21754000    235.51284   -3934.7659   -3531.1049   -3934.7659            0    7478.5528    17.038755    20.069403    20.787242    7108.3562    7127.3689    7443.3284    7864.9611   -390.79091    503.47554    668.79567   -2755.8177 
21755000    246.23051   -3900.2687   -3478.2381   -3900.2687            0    6228.9116    17.092496    20.132702    20.852805    7175.8284    5537.7941    6605.1648    6543.7758     245.3928    1979.7964    967.32599   -2826.3694 
21756000    249.26294   -3909.6223   -3482.3941   -3909.6223            0    6610.2538    17.098318     20.13956    20.859908    7183.1636    6511.1411    7172.8488    6146.7717   -346.27351    1423.7329    1380.7997   -2789.9101 
21757000    249.52945    -3904.532    -3476.847    -3904.532            0    7195.5477    17.071516    20.107991     20.82721    7149.4379    8390.5294    5953.4725     7242.641   -797.70439    1268.5512   -555.13159   -2726.5873 
21758000    245.26334   -3883.1451   -3462.7721   -3883.1451            0    7619.5457    17.098025    20.139214     20.85955    7182.7937    8717.9048    7214.9063    6925.8259    603.07626      1368.26   -1485.8289   -2664.5967 
21759000    268.60856   -3932.3318   -3471.9459   -3932.3318            0    4834.4699    17.175665    20.230665    20.954272    7281.0884    3399.1283    6614.1162    4490.1653   -580.30341   -17.638259     1236.724   -2958.5871 
21760000    256.46983   -3944.2257   -3504.6452   -3944.2257            0    4494.4283    17.221825    20.285035    21.010586    7339.9502    4766.3299    5685.8023    3031.1526   -933.88211    871.13479    450.09956   -3023.5362 
21761000    247.49617   -3914.4656   -3490.2656   -3914.4656            0    7002.3448    17.120643    20.165856    20.887144    7211.3372    7865.9624    4751.3965    8389.6755    653.22188    1166.0201   -53.359515   -2753.8293 
21762000    255.09206   -3879.2533   -3442.0342   -3879.2533            0    4559.1418     17.13209    20.179339     20.90111     7225.812    4512.6775     4411.751    4752.9969    370.19128    13.672384   -574.63623   -2961.5871 
21763000    266.37515   -3940.1346   -3483.5767   -3940.1346            0    6009.6535    17.118323    20.163123    20.884314    7208.4059    7979.5665    4797.6283    5251.7656    267.64257   -618.17205    133.17118   -2851.7986 
21764000    239.05541   -3912.2397   -3502.5069   -3912.2397            0     7405.782    17.085218     20.12413    20.843926    7166.6662    8465.3967    6733.6455    7018.3038   -933.46029   -838.18736    477.48672   -2728.4658 
21765000    254.26365   -3911.7111   -3475.9119   -3911.7111            0    6951.6443    17.093288    20.133635    20.853771    7176.8255    7793.1306    8049.5397    5012.2627     556.3979   -1870.1391   -115.54257   -2748.3066 
21766000    241.23548   -3894.2326   -3480.7633   -3894.2326            0    7222.7973     17.12538    20.171436    20.892924    7217.3251    8581.4043    7366.4821    5720.5054    93.860719    22.215491    1450.8617   -2720.5113 
21767000    249.20933   -3895.5572    -3468.421   -3895.5572            0    5460.0093    17.193997    20.252257    20.976636     7304.426    5137.9552    6791.7199    4450.3527   -299.95486   -1333.5794    1141.0839   -2886.7795 
21768000    247.11691   -3926.4746   -3502.9247   -3926.4746            0    4821.4653    17.152962    20.203924    20.926574    7252.2536    4251.7781    6023.0513    4189.5666   -1570.8939   -269.01585   -559.53345   -2992.9743 
21769000    256.40087   -3913.9936   -3474.5313   -3913.9936            0    6724.9211    17.134616    20.182314    20.904191     7229.008    7240.3661    7898.4524    5035.9448   -48.783708    1262.1132   -775.81212   -2765.5386 
21770000    239.63605   -3914.4414   -3503.7134   -3914.4414            0    5795.5982    17.129351    20.176112    20.897768    7222.3459    4109.5828    6954.9622    6322.2496    1314.7721    352.16736   -246.01234   -2893.2601 
21771000    247.07339   -3926.8041   -3503.3287   -3926.8041            0    4996.4861    17.163315    20.216118    20.939204    7265.3926    6061.5194    5156.5176    3771.4212    888.17909   -1103.1601   -1587.6958   -2973.9096 
21772000    263.91883   -3908.3237   -3455.9759   -3908.3237            0    7285.6453     17.05357    20.086853    20.805316    7126.9144    7704.8632    6832.9963    7319.0765   -1152.5728     507.3234    551.27992   -2698.7151 
21773000    249.44545   -3932.9973   -3505.4564   -3932.9973            0    7867.0158    17.085007    20.123882    20.843669    7166.4005    7036.3198    8045.0044    8519.7232   -649.56427   -183.95398    1755.5577   -2683.2384 
21774000    260.55472   -3844.6695   -3398.0876   -3844.6695            0    6749.8856    17.197193    20.256022    20.980535    7308.5007    10275.789    5865.0287    4108.8389   -533.18423     548.7794   -941.70488   -2678.6377 
21775000    255.46248   -3890.2123   -3452.3583   -3890.2123            0    8141.5312    17.042729    20.074084     20.79209    7113.3312    8573.8992    10607.124      5243.57   -490.22897    564.28607   -826.90222   -2607.7507 
21776000    261.97913   -3872.3554   -3423.3321   -3872.3554            0    4885.3163    17.188067    20.245272    20.969401    7296.8715    5742.6132    2930.1131    5983.2224    165.29499   -441.05246    312.08242   -2903.4496 
21777000    267.12555   -3909.1289   -3451.2848   -3909.1289            0    5290.5627    17.192755    20.250795    20.975122    7302.8444    5509.2363    7151.9077    3210.5441    274.24377    277.37406   -2067.4457   -2887.8161 
21778000     243.3958   -3903.1846   -3486.0125   -3903.1846            0    6473.4935    17.100615    20.142265     20.86271    7186.0588    6961.1186    5695.4526    6763.9092   -643.32237   -544.76519    641.77039    -2807.582 
21779000    244.46536    -3929.988   -3510.9828    -3929.988            0     6411.503    17.117092    20.161673    20.882812     7206.851    6228.9624    8282.0844    4723.4622    79.833238    730.70207    1126.4455   -2837.1048 
21780000    270.29821     -3889.83   -3426.5481     -3889.83            0    9018.2966    17.060395    20.094892    20.813643    7135.4747    8969.9614    8945.7422    9139.1864    2453.9993   -450.13455    206.18195   -2488.0719 
21781000    240.93526   -3849.0039   -3436.0491   -3849.0039            0    5498.0313    17.232805    20.297967    21.023981    7353.9974    6560.2414     6280.496    3653.3563     682.0318    1025.7135   -1440.2195   -2846.3825 
21782000    254.37253   -3889.4598    -3453.474   -3889.4598            0    6044.9893    17.162157    20.214754    20.937792    7263.9227    5688.1739    7800.6838    4646.1103   -788.90444    222.47352    844.47698   -2813.0868 
21783000     250.9257   -3892.7496   -3462.6715   -3892.7496            0    5730.0016     17.18105    20.237007     20.96084    7287.9378     6306.658    5923.7926    4959.5542   -1694.3618    176.82383    -193.0512   -2853.6463 
21784000     258.2173   -3946.3289   -3503.7533   -3946.3289            0    6747.5224    17.118502    20.163334    20.884532    7208.6321    7681.9652    8508.7046    4051.8975    824.41493    419.23849   -824.09015   -2794.3828 
21785000    248.05149   -3941.5649   -3516.4132   -3941.5649            0    6849.5934    17.073741    20.110612    20.829924    7152.2331    6756.9087    8544.0776     5247.794    240.51892    363.00594    171.12195   -2801.9459 
21786000    248.88325   -3927.4428   -3500.8655   -3927.4428            0    5661.5245    17.084077    20.122786    20.842534    7165.2298    4270.0766    4434.2456    8280.2512   -8.2567346    1071.7913     516.8192   -2909.2501 
21787000     246.1088   -3899.6066   -3477.7846   -3899.6066            0     5801.756    17.034685    20.064608    20.782276    7103.2629    6312.4235    5490.2115    5602.6331    495.09208    802.59609    1475.2118   -2876.7586 
21788000    254.83519   -3918.5152   -3481.7364   -3918.5152            0    6496.2413     17.03962    20.070422    20.788297    7109.4392    7361.7232    6543.4058    5583.5949   -620.41143   -118.92616   -682.91139    -2808.181 
21789000    239.08602   -3895.0381   -3485.2529   -3895.0381            0    5230.5609    17.124532    20.170436    20.891889    7216.2522    4843.1093    7156.0125    3692.5608    982.84349    616.44234   -182.01927   -2934.7801 
21790000    246.79022    -3911.569   -3488.5791    -3911.569            0    6222.9098    17.057939    20.091999    20.810646    7132.3931    6801.1152    6509.9402    5357.6741    561.22091    637.46527   -169.21622   -2841.2805 
21791000    238.74146   -3905.0272   -3495.8325   -3905.0272            0    5016.8685    17.152564    20.203455    20.926088    7251.7484    7440.3274    3638.8653    3971.4127    812.12358    55.977002    1290.9465   -2965.2519 
21792000    258.64634   -3925.7654   -3482.4544   -3925.7654            0    7598.2006    17.024173    20.052228    20.769452    7090.1217    10883.812    5152.9504    6757.8392    484.85159     -1525.36   -735.30718   -2696.7841 
21793000    257.32484   -3910.6298   -3469.5838   -3910.6298            0    7470.8222    17.063507    20.098557    20.817438    7139.3794    7987.1343    7051.9954     7373.337     -250.947    905.53887     1404.288   -2691.7179 
21794000    247.61797   -3907.5354   -3483.1267   -3907.5354            0    6435.7089    17.111789    20.155427    20.876343    7200.1551    6276.0117    5630.2726    7400.8423    159.45739    413.95034   -628.23167    -2807.333 
21795000    237.32628   -3955.6055   -3548.8364   -3955.6055            0    4490.8493    17.119358    20.164342    20.885576     7209.713     3555.244    5600.6535    4316.6504   -367.62232    241.77998    282.30671   -3076.6403 
21796000    261.45248   -3922.1076    -3473.987   -3922.1076            0    8302.2267    17.036897    20.067215    20.784975    7106.0311     8062.679    9091.9929    7752.0082   -170.76713    369.34629    505.78841   -2613.5926 
21797000    249.41596    -3942.038   -3514.5476    -3942.038            0    5969.9266    17.068447    20.104376    20.823466    7145.5826    6741.8302    4659.8357    6508.1139    1542.5022   -1567.6458    52.647103   -2892.4156 
21798000    255.30049   -3945.3849   -3507.8086   -3945.3849            0    5763.9138    17.127659     20.17412    20.895704    7220.2067    7296.2232    5613.0563    4382.4618    909.68864   -666.98737   -1035.1858   -2900.8725 
21799000    249.77423   -3894.0554   -3465.9509   -3894.0554            0    8292.8472    17.088765    20.128308    20.848253    7171.1301    9078.1882    7946.9835    7853.3699   -610.30623    -732.0391   -475.62492   -2598.6553 
21800000    241.13456   -3911.5001   -3498.2037   -3911.5001            0    6705.9453    17.053154    20.086363    20.804808    7126.3927    5076.1076    5041.0101    10000.718    1452.3426   -1737.9132    316.99038   -2801.2472 
21801000    259.94023   -3891.5617    -3446.033   -3891.5617            0    5485.4082    17.185601    20.242368    20.966393     7293.731    6913.3931    3189.0947    6353.7367   -306.66949    199.16652   -386.84383   -2862.5414 
21802000    241.11834   -3860.8978   -3447.6292   -3860.8978            0    6169.5785     17.12872    20.175369    20.896998    7221.5478    6131.2968    4709.0465    7668.3921    510.02565   -1778.5001    459.76464   -2797.8562 
21803000    243.46478   -3907.5544   -3490.2641   -3907.5544            0    7350.9905    17.071215    20.107637    20.826843    7149.0596    8095.9085    8816.6742    5140.3887   -404.64532    -37.61237    578.36223   -2723.8373 
21804000    253.10386   -3902.2914     -3468.48   -3902.2914            0    5699.2785    17.207584    20.268261    20.993213    7321.7569     7036.617    3979.4985    6081.7199   -108.34035   -293.31335    359.04727   -2859.9093 
21805000    243.39906   -3874.8823   -3457.7046   -3874.8823            0     5380.974    17.211853     20.27329    20.998421    7327.2076    4784.2352    4393.2438    6965.4431    632.24983    1152.0068      1835.52   -2882.6948 
21806000    265.22909   -3898.3571   -3443.7635   -3898.3571            0    6063.8075    17.232475     20.29758     21.02358     7353.576    7841.9295    4982.8199    5366.6731    627.70662     224.1554   -2636.7014   -2793.4544 
21807000    266.46704   -3920.4021   -3463.6867   -3920.4021            0     6067.213    17.198086    20.257073    20.981624    7309.6388    5163.3229    7987.1921     5051.124   -165.74565   -145.06659    543.05724   -2816.9001 
21808000    248.83246    -3892.599   -3466.1087    -3892.599            0    3635.4559    17.204804    20.264986     20.98982     7318.208    2136.9415     4790.293    3979.1333   -953.76171   -11.495086   -1.3981702   -3078.1017 
21809000    257.45957   -3912.5862   -3471.3093   -3912.5862            0    6344.9126    17.174218    20.228961    20.952506    7279.2484    7121.2234    4848.5229    7064.9914    600.08945    18.233277    613.89181    -2797.731 
21810000    243.87264   -3929.0499   -3511.0606   -3929.0499            0    5130.8477    17.114776    20.158946    20.879987    7203.9264    4877.1919    5666.0127    4849.3384    -747.6714    256.48547   -1866.5556   -2972.0041 
21811000    249.23935   -3891.9868   -3464.7991   -3891.9868            0    5308.3673    17.166948    20.220397    20.943636    7270.0073    3063.7175    6151.3995    6709.9847    104.08372    430.74194    122.24034   -2901.9762 
21812000    246.85288   -3877.2268   -3454.1294   -3877.2268            0    6393.9981    17.133668    20.181198    20.903035    7227.8088     5432.081    6330.4256    7419.4877   -1010.7819    -762.7066   -219.37951    -2780.137 
21813000    262.33469   -3893.9053   -3444.2726   -3893.9053            0    7211.4647    17.108694    20.151782    20.872567    7196.2487    9641.9255    6746.5949    5245.8737    800.93538    -1365.645    723.86737   -2687.4301 
21814000    251.55668   -3918.5881   -3487.4286   -3918.5881            0     5165.158    17.147439    20.197418    20.919835    7245.2501    5856.8011    5306.9709    4331.7021    388.31709     136.1256    2263.9722   -2941.6545 
21815000    245.21461   -3935.3203   -3515.0309   -3935.3203            0    6485.4587    17.120908    20.166168    20.887468    7211.6719    5736.9099    7348.4461    6371.0199   -274.75951    607.53464    586.91328   -2832.9238 
21816000    256.66692   -3887.1229   -3447.2046   -3887.1229            0    5627.5328    17.165238    20.218383    20.941551    7267.8357    5763.9827    5330.7601    5787.8558    320.83216   -1153.0896    -1070.827   -2850.7203 
21817000    232.84311   -3927.3532    -3528.268   -3927.3532            0    5803.2204    17.122223    20.167717    20.889072    7213.3342    4614.3486    6312.4525    6482.8602    700.71596    558.90965    253.73268   -2917.7746 
21818000    252.39766   -3938.8234   -3506.2225   -3938.8234            0    5925.8078    17.162726    20.215425    20.938486    7264.6454    5571.6617    6949.0161    5256.7456    -396.0942    -528.0509    -1067.696   -2878.3985 
21819000    244.23352   -3946.0221   -3527.4142   -3946.0221            0    4162.5118    17.189155    20.246554    20.970729    7298.2577    3843.9762    4858.6874    3784.8718   -590.24502    871.84691   -438.84055   -3084.3664 
21820000    248.98451   -3904.8011   -3478.0501   -3904.8011            0    7061.1667    17.091024    20.130969     20.85101    7173.9753    6460.8813    7052.8238     7669.795   -421.42404   -714.57142    1571.9461   -2739.2751 
21821000    246.27317   -3920.0726   -3497.9688   -3920.0726            0     6152.102    17.069849    20.106028    20.825176    7147.3434    6527.5199    5323.3143    6605.4718    23.967639    2204.8364     1009.841   -2856.6942 
21822000    256.63376   -3869.6783   -3429.8168   -3869.6783            0     5353.591    17.187307    20.244377    20.968474    7295.9034    4632.1012    5456.1576    5972.5142   -895.50571    527.60197    332.43562   -2860.1773 
21823000    238.63561   -3914.3135   -3505.3002   -3914.3135            0    5737.6267    17.093508    20.133895     20.85404    7177.1037    7139.6854    5018.0096     5055.185    1153.5048    1142.6559    788.02828   -2904.7388 
21824000      244.679   -3909.8553   -3490.4839   -3909.8553            0     5161.411    17.155294     20.20667    20.929419    7255.2118    4474.1507    6237.2533    4772.8292    435.25116   -278.24968    828.72077   -2944.3559 
21825000    255.01455    -3911.282   -3474.1958    -3911.282            0    6017.2623    17.135799    20.183708    20.905635    7230.5058    6454.3884    5530.3695    6067.0291   -486.29826    846.56805    284.74192   -2839.6784 
21826000     242.7673   -3902.3643   -3486.2695   -3902.3643            0    6620.2314    17.167298    20.220809    20.944063    7270.4518    6314.5818    6255.7374    7290.3752   -111.65053   -1094.0221   -1246.9018   -2784.3126 
21827000    248.18255   -3931.3888   -3506.0124   -3931.3888            0    4846.2542    17.133966    20.181549    20.903398    7228.1854    4765.7538    4714.0042    5059.0046    1149.5782   -223.04075   -1066.1836   -2995.1412 
21828000    259.41339   -3889.0802   -3444.4545   -3889.0802            0    6347.0429    17.160258    20.212518    20.935475    7261.5121    7636.4411    5730.4866     5674.201   -1776.5295     27.47092   -2510.3604   -2772.2918 
21829000    250.46679   -3912.9538   -3483.6623   -3912.9538            0    7680.0985    17.100953    20.142664    20.863123    7186.4851    8817.8725    5795.4407    8426.9824    850.37851   -361.80801   -2121.6836   -2678.7303 
21830000    266.37979    -3875.771   -3419.2052    -3875.771            0    6514.6655    17.138607    20.187016    20.909061    7234.0613    6504.8712    6399.1555    6639.9699     117.4498    732.70895    1116.3514   -2731.8991 
21831000    259.99109   -3932.8612   -3487.2454   -3932.8612            0     6859.691    17.124046    20.169864    20.891296    7215.6382    7240.1941    6456.1785    6882.7002    1111.0043    785.05619   -977.58637   -2765.3817 
21832000     248.8716   -3928.7453   -3502.1879   -3928.7453            0     4796.377    17.155327    20.206709    20.929459    7255.2536    3784.8742    5133.2367    5471.0203    1148.4651    77.510705   -674.01783   -2994.6812 
21833000     258.3494   -3931.0798   -3488.2777   -3931.0798            0     6265.085    17.114566    20.158699    20.879731    7203.6615    5575.9168    6363.0479    6856.2904   -1597.6869   -1421.1627   -837.49539   -2830.0804 
21834000     260.7706   -3873.3655   -3426.4136   -3873.3655            0    5177.0423     17.14242    20.191506    20.913712    7238.8898    5558.4752    4843.5735    5129.0781    514.81609     -233.473    314.35624    -2879.864 
21835000     247.6905   -3913.4111    -3488.878   -3913.4111            0    5380.3483    17.149749    20.200139    20.922654    7248.1789    3877.3346    7356.5921    4907.1184   -179.59586   -1660.2859    481.70723   -2920.1362 
21836000    246.55453   -3893.4876   -3470.9015   -3893.4876            0    4838.1757    17.119747      20.1648    20.886051    7210.2048    4436.8359    4515.1699    5562.5213    53.433267    88.911333   -583.45786   -2962.1507 
21837000    241.49258   -3915.6333   -3501.7233   -3915.6333            0    6981.9312    17.036321    20.066535    20.784271    7105.3096    8066.7783    5632.2366    7246.7788   -983.72674    1629.2038    1636.1784   -2778.2301 
21838000    266.65042   -3917.2122   -3460.1825   -3917.2122            0    6288.7164    17.111661    20.155277    20.876187    7199.9935    6159.8535    5604.0733    7102.2224   -769.22219    280.92867   -446.13098   -2799.8388 
21839000    236.52808    -3933.498   -3528.0969    -3933.498            0    5662.4092    17.086814     20.12601    20.845873    7168.6741    4892.3933    5124.6542      6970.18    1410.0192    633.52555    606.62837   -2936.1047 
21840000     254.2895   -3927.8243   -3491.9808   -3927.8243            0    7255.0905    17.077357    20.114871    20.834336    7156.7782    6535.9934    6581.5593    8647.7187    1145.2385    1129.7598    177.60316    -2734.736 
21841000    241.06978   -3959.6958   -3546.5104   -3959.6958            0    6457.5889    17.087214    20.126481    20.846361     7169.178    6543.3036    4633.5161    8195.9471    606.47895   -1209.7567    477.57776   -2871.3365 
21842000    256.26999   -3927.0489   -3487.8109   -3927.0489            0    6703.1264    17.023142    20.051012    20.768193    7088.8327    7708.5325    5669.6493    6731.1975     1214.432   -1840.6173   -55.228789   -2794.8192 
21843000    240.38267   -3929.1982   -3517.1906   -3929.1982            0    5822.4523    17.132554    20.179886    20.901676    7226.3993    6808.2149    4580.2483    6078.8938    914.39789     1071.076    297.81916   -2903.5645 
21844000       250.59   -3939.0177    -3509.515   -3939.0177            0    5689.8383    17.079083    20.116903    20.836441     7158.948    5451.4566    6472.8483    5145.2101    889.84063   -1039.1288    -212.7533   -2915.4622 
21845000    256.04075   -3955.7603   -3516.9152   -3955.7603            0      7838.72    17.048527    20.080913    20.799163    7120.5933    7066.8271    8562.2393    7887.0937   -624.65505    157.69131    1152.6742   -2702.8912 
21846000      262.221   -3916.5193   -3467.0814   -3916.5193            0    7860.4278    17.082576    20.121018    20.840703     7163.342    7736.1492    8229.6483     7615.486    259.58914   -370.61312    1382.5481   -2645.9026 
21847000    257.70986    -3919.143   -3477.4371    -3919.143            0    6170.7629    17.132888    20.180279    20.902083    7226.8214    5243.0168    4680.4359    8588.8362    531.53406   -652.60569    422.07908   -2827.0648 
21848000    245.79745   -3940.1341   -3518.8457   -3940.1341            0    5867.1093    17.109019    20.152164    20.872963    7196.6589    5429.3428    5893.3462    6278.6389    2310.6357    1414.4712     1213.041    -2903.058 
21849000     247.0764   -3900.6363   -3477.1558   -3900.6363            0    6491.4167    17.053162    20.086372    20.804817    7126.4018    6836.2635    5366.2645    7271.7221   -185.06764   -1032.1942    1289.9711   -2802.4947 
21850000    239.52534   -3908.7371   -3498.1988   -3908.7371            0    7394.6441    17.032379    20.061893    20.779463    7100.3795    6859.1466    6271.5563    9053.2295    498.26734    687.17763   -33.871115   -2732.4705 
21851000    247.49459   -3939.7611   -3515.5638   -3939.7611            0    6404.8661    17.052093    20.085114    20.803514    7125.0628    5813.1317    7538.8556     5862.611    14.728356   -1206.2227   -1457.7791   -2850.0231 
21852000    252.67098   -3913.1239   -3480.0545   -3913.1239            0    7814.5021    17.099529    20.140987    20.861386    7184.6901    7227.6611    8475.7966    7740.0486    50.463676    136.05048   -416.79348   -2661.2406 
21853000    250.73829     -3908.43   -3478.6731     -3908.43            0    8414.4526    17.035649    20.065744    20.783452     7104.469    8032.6416    8800.3081    8410.4082   -1273.9657   -1645.0421   -753.32039     -2606.84 
21854000    256.74192   -3933.7198    -3493.673   -3933.7198            0    6019.0139    17.086907     20.12612    20.845987    7168.7919    5136.7179    5601.5094    7318.8143    178.48232    494.28527   -1990.7433   -2864.3882 
21855000    249.34098   -3886.1211   -3458.7592   -3886.1211            0    4793.1538    17.106808     20.14956    20.870266    7193.8689    4369.5173    4608.9669    5400.9773    442.45075    890.34107    441.98758   -2955.8845 
21856000    237.02815   -3922.2098   -3515.9517   -3922.2098            0    5748.6973    17.120103     20.16522    20.886486    7210.6548    6216.1951     4690.572    6339.3248   -571.42467    385.06712    961.36614   -2911.4187 
21857000    241.81158   -3919.1861   -3504.7294   -3919.1861            0    5673.7158    17.074654    20.111687    20.831038      7153.38     3389.754    5005.5915    8625.8019   -508.20786    776.28225   -193.67327   -2912.8206 
21858000    255.07341    -3927.949   -3490.7619    -3927.949            0    4800.6175    17.068211    20.104098    20.823178    7145.2862    3284.2915    6271.0473    4846.5137   -542.20545    1702.6445    443.41215   -2990.5056 
21859000     253.1062   -3901.1724    -3467.357   -3901.1724            0    8148.5081    17.011254     20.03701     20.75369    7073.9919    7604.1066    8610.8025    8230.6153   -982.00635    1667.4184   -744.40252   -2626.7005 
21860000    243.25446   -3910.3271   -3493.3972   -3910.3271            0    4498.9698    17.060807    20.095377    20.814144    7135.9907    6452.0845    3335.0144    3709.8104    268.39898   -241.89479   -334.99768   -3025.1845 
21861000    246.68769   -3895.6754   -3472.8611   -3895.6754            0    6865.8143    17.064958    20.100266    20.819209    7141.2011    5792.7226     8344.177    6460.5434    272.15799   -1137.9316   -180.83675   -2757.8065 
21862000    255.93348   -3927.1915   -3488.5303   -3927.1915            0    7096.1352    17.062986    20.097944    20.816803    7138.7256    6076.0254    7238.9826    7973.3975    1229.0185    369.85532     1639.217   -2749.7446 
21863000    248.08646   -3927.9859   -3502.7742   -3927.9859            0    7567.2139    17.077192    20.114676    20.834134    7156.5707    6565.6347    8269.7807    7866.2264   -241.24231   -61.147465   -364.29134   -2712.9747 
21864000    252.40879    -3875.827    -3443.207    -3875.827            0    7561.6999    17.128036    20.174564    20.896164    7220.6838    8200.0853    7485.5111    6999.5033    457.18901   -1199.9984    222.64541   -2646.9126 
21865000    268.07488   -3913.7823   -3454.3111   -3913.7823            0    6047.7905    17.125421    20.171484    20.892974    7217.3771    5912.7006    6034.3468     6196.324   -5.6967941   -409.73496    945.06745   -2817.7325 
21866000    238.10281   -3910.7711    -3502.671   -3910.7711            0    7153.7738    17.180147    20.235944    20.959739    7286.7894    8447.5074    5468.6557    7545.1584   -1676.6209   -28.683556    2050.8156    -2742.437 
21867000    243.40713      -3936.6   -3519.4085      -3936.6            0    7395.6748     17.17182    20.226136     20.94958     7276.199     7015.957    6915.2307    8255.8367    735.84389    127.09948   -1.7120496   -2734.6098 
21868000    242.69937   -3925.4031   -3509.4247   -3925.4031            0    6402.1377    17.127701     20.17417    20.895756      7220.26    5328.8258    6678.9179    7198.6693   -903.94342    545.18845    551.17319   -2835.2791 
21869000    245.15017   -3897.7063   -3477.5273   -3897.7063            0     7691.041    17.143555    20.192844    20.915098    7240.3286     8985.662    8412.5292    5674.9319   -648.48085   -1176.2949   -1078.8448    -2665.409 
21870000     251.0815   -3916.9601    -3486.615   -3916.9601            0    4878.7325     17.17777    20.233144    20.956839    7283.7652    5343.4668    5140.1693    4152.5613   -525.11484   -564.16514    910.72774   -2968.3656 
21871000    237.42891   -3906.8549   -3499.9098   -3906.8549            0    5901.8251    17.130172     20.17708     20.89877    7223.3852    6073.7349    5248.6705    6383.0698   -1573.2431    538.43755     783.0267   -2878.1782 
21872000    255.42624   -3887.6099   -3449.8181   -3887.6099            0    7172.3946    17.099969    20.141505    20.861922    7185.2449    7718.4087    7711.3712    6087.4038   -817.36952    604.85775    -635.4248    -2698.227 
21873000    236.76873   -3949.0245    -3543.211   -3949.0245            0    6238.1298    17.138641    20.187055    20.909102    7234.1036    6989.6614    6427.1017    5297.6262   -618.20627    956.17726    539.82875   -2885.0759 
21874000    251.95861   -3924.3117   -3492.4632   -3924.3117            0    7678.2269    17.108656    20.151737    20.872521    7196.2013    10096.166    7211.9626    5726.5523   -288.75608   -797.84884    1323.8941   -2686.6393 
21875000      263.391   -3912.0517   -3460.6086   -3912.0517            0    8896.4018     17.11903    20.163956    20.885176     7209.299    9959.2135    8090.1104    8639.8814   -1138.5707   -1944.4087   -395.20157   -2525.2388 
21876000    247.90339    -3913.803   -3488.9051    -3913.803            0    5626.3171    17.145684    20.195351    20.917695     7243.026     5906.313     6458.485    4514.1533   -369.38436   -472.42671   -475.38841   -2894.5854 
21877000    264.54576   -3938.9064    -3485.484   -3938.9064            0    5540.1699    17.163913    20.216822    20.939934    7266.1525    6611.9789    5600.4414    4408.0894    193.63953   -1664.7269    370.63914   -2898.3956 
21878000    257.86343   -3909.4948   -3467.5257   -3909.4948            0    7539.9607    17.058968    20.093211    20.811901    7133.6837    8089.7875    7186.0954    7343.9992   -201.06415    812.30058   -438.13384   -2683.0873 
21879000    257.09595   -3888.0648   -3447.4111   -3888.0648            0    7391.8269    17.100476    20.142102    20.862541    7185.8837      6805.02    7977.0779    7393.3826   -1457.8663   -371.67937   -512.24653    -2672.757 
21880000    256.75566   -3952.5375   -3512.4671   -3952.5375            0    6099.6329    17.091898    20.131998    20.852076    7175.0755    6663.6536    6496.0312     5139.214   -625.69049   -1005.5375     1116.723   -2874.1947 
21881000    253.25099    -3960.289   -3526.2254    -3960.289            0    7957.8559    17.073796    20.110676    20.829991    7152.3017    5929.0297      9491.47    8453.0679    1222.7483    1264.7116    344.15122   -2696.1496 
21882000    258.51703   -3908.0237   -3464.9344   -3908.0237            0    5615.8211    17.143915    20.193268    20.915537    7240.7848    4545.0998    6843.8247    5458.5387   -433.80835   -151.80322    491.88307   -2871.9069 
21883000    236.70665   -3898.8042   -3493.0971   -3898.8042            0    5874.8076    17.135308    20.183129    20.905035    7229.8838    2653.9155    7882.1134    7088.3939    625.02511    253.09517   -376.64251   -2873.6548 
21884000    240.37435   -3932.4185   -3520.4251   -3932.4185            0    7602.0249    17.099913    20.141439    20.861855    7185.1747    6031.9747    7982.7938    8791.3061    1999.6341    -144.7059    720.36394   -2723.8211 
21885000    235.19416   -3925.5048     -3522.39   -3925.5048            0    6625.6138    17.139411    20.187963    20.910042    7235.0792    6049.9298    6722.5395    7104.3721   -104.35664    369.35543    -1589.919   -2823.2804 
21886000    251.62147   -3903.0388   -3471.7682   -3903.0388            0    7455.5709    17.099369    20.140797     20.86119    7184.4877    6467.7767     9353.445    6545.4911   -1532.4903   -434.27618    483.26006   -2690.5855 
21887000    240.25741   -3907.6093   -3495.8163   -3907.6093            0     7104.613    17.178244    20.233702    20.957418    7284.3683    6331.3895    6738.7087    8243.7409    64.750525   -194.84601    246.89116   -2741.0575 
21888000    250.35119   -3898.0768   -3468.9834   -3898.0768            0    7034.8183    17.196765    20.255518    20.980013    7307.9551    6266.7013    6105.2353    8732.5184    325.75058   -665.68293     -59.8408   -2719.2193 
21889000    239.06111   -3923.2049   -3513.4624   -3923.2049            0    5593.8139    17.148053    20.198141    20.920584    7246.0282    4911.1668    5264.4872    6605.7877    543.12967   -143.99332    305.42341   -2922.3311 
21890000    250.72136   -3897.5645   -3467.8367   -3897.5645            0    6086.8163    17.172724    20.227201    20.950684    7277.3487    5126.4767     5393.646     7740.326   -607.04411    548.96719    110.58346   -2821.8266 
21891000    243.32574   -3919.3217   -3502.2697   -3919.3217            0    6059.5393    17.165392    20.218565    20.941739    7268.0314    6379.3273    5702.7868    6096.5039   -2582.2533   -116.38511    866.44192    -2859.978 
21892000    247.96167    -3907.867   -3482.8692    -3907.867            0    4598.3005    17.120564    20.165763    20.887048    7211.2371    7401.7797     3112.662    3280.4598   -45.231531    816.33455    927.94848   -2999.2729 
21893000    249.54062   -3925.8175   -3498.1134   -3925.8175            0    7728.4632    17.103824    20.146046    20.866625    7190.1053    7903.9203    8020.3779    7261.0913    427.33233    1985.6547    551.55525   -2687.7044 
21894000    249.88707   -3938.8903   -3510.5924   -3938.8903            0    5346.5183    17.119391    20.164382    20.885617    7209.7555    3751.5383    5714.3817     6573.635   -405.21683   -266.50176    133.06723   -2948.4226 
21895000    256.56443   -3914.7964   -3475.0538   -3914.7964            0    6905.6534     17.08419    20.122919    20.842672    7165.3727    6681.3697    8449.7629    5585.8275    1468.1776   -1442.0153    452.72211   -2753.4157 
21896000    250.19385   -3952.0762   -3523.2525   -3952.0762            0    6550.1974    17.133414    20.180899    20.902726    7227.4876    5570.1355    7599.9028    6480.5538   -150.37375   -1262.4452    -77.71278   -2832.8258 
21897000    250.60512   -3958.2933   -3528.7647   -3958.2933            0    7026.6113    17.104281    20.146584    20.867183    7190.6821    8002.5453    6108.1315    6969.1573   -643.50605    1202.6832    860.13397   -2791.8929 
21898000    239.90008    -3927.544   -3516.3635    -3927.544            0    7667.4848    17.090448     20.13029    20.850306    7173.2491    5930.2117    9682.4874    7389.7553   -103.13864    20.774434   -573.32936   -2714.2336 
21899000    271.05817   -3898.1194    -3433.535   -3898.1194            0    6353.0912    17.129596    20.176401    20.898067    7222.6562    6932.9595    6702.1191    5424.1948   -614.77819    764.37492   -1113.7649    -2764.332 
21900000    242.26297   -3912.7777   -3497.5473   -3912.7777            0    4156.5678     17.20678    20.267314    20.992231      7320.73    5603.4951    3921.5539    2944.6544    653.52995    1055.0984   -768.67309   -3053.7699 
21901000    267.37028   -3927.0149   -3468.7514   -3927.0149            0    6088.1724    17.160862    20.213229    20.936211    7262.2782    5912.2547    7545.1174    4807.1453    479.80002    506.21559    1250.2637   -2823.9356 
21902000    246.73438   -3943.6611   -3520.7668   -3943.6611            0    6304.1942    17.102672    20.144688    20.865219     7188.652    6068.2021    6343.1383    6501.2421    485.29514   -18.535364    -846.3877   -2859.8406 
21903000    249.52633   -3920.9512   -3493.2716   -3920.9512            0    4745.5996    17.136874    20.184974    20.906947     7231.867    3732.1233    5594.8112    4909.8641    277.98928    1975.0876   -921.21327   -2992.7562 
21904000    246.94247   -3908.3438   -3485.0928   -3908.3438            0    7837.9031    17.043974    20.075549    20.793608    7114.8892    5898.4447     8142.858    9472.4066    528.02934    906.37177   -1136.8331   -2671.8057 
21905000     248.0663   -3931.4733   -3506.2961   -3931.4733            0    5012.0355    17.140682    20.189459    20.911591     7236.688     4542.162    5901.4972    4592.4474    870.57708    2145.2806   -403.68902   -2977.3275 
21906000    228.19099   -3939.8971   -3548.7855   -3939.8971            0    3892.7225    17.136965    20.185081    20.907057    7231.9815      3912.01    3361.9314    4404.2261    553.12846   -580.37625    513.27899   -3138.2161 
21907000    250.73809   -3961.4491   -3531.6926   -3961.4491            0     6164.133    17.149625    20.199993    20.922503    7248.0218    5240.7436    5780.4136    7471.2417    44.068008    273.47455    273.70052   -2880.1131 
21908000      249.792   -3942.2886   -3514.1537   -3942.2886            0    6809.0681    17.101988    20.143883    20.864385    7187.7899    6085.4303    8046.2498    6295.5244    1474.1176   -621.51501    -1371.075   -2800.3826 
21909000    257.81647    -3958.454   -3516.5654    -3958.454            0    5229.0385    17.144157    20.193552    20.915831    7241.0904     5981.788    4736.6418    4968.6856    1131.6827    1522.9729    559.37741   -2964.3587 
21910000    257.91992   -3917.3877   -3475.3218   -3917.3877            0    5538.2111    17.098713    20.140026     20.86039    7183.6617     5209.189    6701.8569    4703.5874   -810.97589    657.95516    1308.6778   -2895.1037 
21911000    239.77325   -3933.7797   -3522.8166   -3933.7797            0     7997.978    17.092072    20.132204    20.852288     7175.295    8087.4261    6929.5965    8976.9115    60.756214   -434.49796     845.7827   -2685.8736 
21912000    231.98503   -3904.4982   -3506.8838   -3904.4982            0    6082.3819    17.153483    20.204537    20.927209    7252.9137    6040.9571    7090.3436     5115.845    864.52035    398.07098    21.924168   -2863.5119 
21913000    257.59241   -3916.9507   -3475.4461   -3916.9507            0    6605.4453    17.097371    20.138444    20.858752      7181.97    5456.8224    7754.9193    6604.5944    558.44278     346.7884   -8.6943969   -2783.5807 
21914000    243.95748   -3924.1451   -3506.0103   -3924.1451            0    6494.6873    17.130305    20.177236    20.898932    7223.5527    6275.6202    8475.0704    4733.3713    249.37911     734.8214   -100.66886   -2821.8073 
21915000    249.10412   -3919.8181   -3492.8621   -3919.8181            0    4746.8883    17.174047    20.228759    20.952298    7279.0307    4761.5528    3209.1346    6269.9774    21.178078    709.77209   -281.33785   -2988.9458 
21916000    254.26932   -3908.8407   -3473.0318   -3908.8407            0    5418.9335    17.213775    20.275553    21.000765     7329.662    3913.9319    7446.6127     4896.256   -552.00483     364.7222   -472.10576   -2893.7716 
21917000     238.0972   -3904.4836   -3496.3932   -3904.4836            0    5771.9257    17.125166    20.171184    20.892663    7217.0545    5722.0901    7964.9434    3628.7435    1667.7996   -699.18711    457.69351   -2888.8787 
21918000    261.19455   -3893.5729   -3445.8944   -3893.5729            0    6560.7447    17.067228     20.10294    20.821978    7144.0511    6554.2736    8927.5277    4200.4328    128.89814   -340.06939   -81.022459   -2762.3392 
21919000    253.00481   -3878.9897   -3445.3482   -3878.9897            0    5938.8939    17.086762    20.125949     20.84581     7168.609    5392.8906    5969.1694    6454.6215    1223.4327    1219.6328   -1886.8869   -2824.4558 
21920000    246.54064   -3898.2887   -3475.7264   -3898.2887            0    5488.8209    17.096227    20.137097    20.857357    7180.5287    5895.2587    5609.5064    4961.6975   -370.38244    281.07599   -629.20372   -2900.9336 
21921000    256.31458   -3913.6513   -3474.3369   -3913.6513            0    6269.5826    17.076523    20.113889    20.833318      7155.73    6032.6672    6303.1447    6472.9358    2100.7152   -792.05883   -615.98702   -2820.0496 
21922000    253.23587   -3919.1464   -3485.1088   -3919.1464            0    5132.8854     17.14997      20.2004    20.922924    7248.4593    5477.1974    5348.5524    4572.9063    92.671846    1495.4361   -166.20127   -2942.5046 
21923000    252.51771   -3915.3515   -3482.5447   -3915.3515            0    6994.5191    17.062669    20.097571    20.816417    7138.3281    8937.7734    6368.1319    5677.6519    1457.3125    531.75523    713.94455    -2754.379 
21924000    243.39877   -3909.2308   -3492.0536   -3909.2308            0    7609.4552     17.03368    20.063425     20.78105    7102.0066    7823.5157     8166.427     6838.423   -74.676351    1413.7946   -268.95016   -2703.9007 
21925000    253.88705   -3896.8856   -3461.7319   -3896.8856            0    5797.9907    17.031919     20.06135    20.778901    7099.8032    5722.6052    7091.7661    4579.6007    1937.2845   -905.16472   -556.91483   -2861.3885 
21926000    248.42829   -3905.3917   -3479.5941   -3905.3917            0     5143.795    17.019897    20.047191    20.764235    7084.7806    5199.8477    5049.5376    5181.9997   -1101.6701   -264.76855   -157.46053   -2948.1153 
21927000    252.62914   -3858.7261   -3425.7284   -3858.7261            0    5609.8355    17.113484    20.157423     20.87841    7202.2945    6723.6286    3934.4065    6171.4714   -565.81122   -2010.8707     654.6588   -2836.4821 
21928000    259.92547   -3901.8577   -3456.3543   -3901.8577            0    4364.1285    17.122261    20.167761    20.889118    7213.3816    4412.0407    4114.3301    4566.0148     620.9383    534.55535   -899.30316    -2997.249 
21929000     242.6206   -3892.4725   -3476.6291   -3892.4725            0    5570.8443    17.085151    20.124051    20.843844     7166.581    5136.3491     3943.674    7632.5098    681.20591    -228.0359    123.68416   -2894.3799 
21930000    247.55878   -3902.2085   -3477.9012   -3902.2085            0    6409.7194     17.15122    20.201871    20.924448    7250.0435    5876.9686    9434.1464    3918.0431    1483.6544   -801.75604    267.67897   -2800.1731 
21931000    258.78491   -3892.7591   -3449.2106   -3892.7591            0    5780.5077    17.028116    20.056871    20.774261    7095.0484    6132.0963    5440.9272    5768.4998     2400.006   -59.657459    1555.2406   -2851.0783 
21932000    253.49969   -3876.7808    -3442.291   -3876.7808            0    6873.1178    17.189505    20.246967    20.971156    7298.7035    7546.2773    6999.9688    6073.1074   -164.49176   -540.52632    -943.8553   -2710.6881 
21933000    247.78127   -3897.6967   -3473.0081   -3897.6967            0    6108.9486    17.130485    20.177449    20.899152     7223.781    5573.6496    7510.0556    5243.1406    -345.0703    498.42845   -1369.6646   -2829.4216 
21934000    249.06428   -3889.9412   -3463.0535   -3889.9412            0    6064.2339    17.100478    20.142105    20.862544    7185.8868    6238.9326     6089.325     5864.444    222.20365   -651.45403   -371.87923   -2827.5292 
21935000    253.70861   -3880.1373   -3445.2894   -3880.1373            0    7142.0909     17.09242    20.132613    20.852713     7175.733    9921.3731    6083.4254    5421.4741   -54.392928    198.19334    1547.0512   -2697.8645 
21936000    253.76081   -3882.3876   -3447.4502   -3882.3876            0    6005.1617    17.162953    20.215691    20.938762    7264.9326    6535.7729    6343.9508    5135.7614     1699.643    273.88299    2905.7862   -2811.1938 
21937000    240.83011   -3898.0711   -3485.2966   -3898.0711            0    6743.1658    17.139593    20.188177    20.910263    7235.3094    6689.9512    7420.6694    6118.8766    305.10592   -946.19614    531.55858   -2773.7606 
21938000    267.05623   -3916.9534   -3459.2281   -3916.9534            0    7246.7202    17.132397      20.1797    20.901484    7226.1997    6885.7629    9005.5091    5848.8885   -366.99761    1017.6852   -13.794181   -2695.5201 
21939000    226.80334   -3909.1899   -3520.4567   -3909.1899            0    6211.6717      17.1755     20.23047     20.95407    7280.8782     5662.894    6119.3865    6852.7344   -1139.8486   -616.78641    983.40602   -2860.8757 
21940000    257.38272   -3898.0062    -3456.861   -3898.0062            0    6688.4375    17.139541    20.188115    20.910199    7235.2429    6560.3829    5869.8337     7635.096   -192.91635   -280.86313    671.21022   -2751.1065 
21941000    264.04444   -3927.3766   -3474.8134   -3927.3766            0    6365.4086    17.113704    20.157683    20.878679    7202.5724    6334.3512    5169.3499    7592.5247   -1137.1201    -1669.213     758.3223   -2806.1773 
21942000    246.79279   -3872.0859   -3449.0915   -3872.0859            0    7176.9606    17.096601    20.137538    20.857813    7180.9997    9205.2957    5910.4574    6415.1287   -1614.4495    599.98011    912.93212   -2697.4662 
21943000    241.62049   -3864.3464   -3450.2172   -3864.3464            0    8065.8525    17.045709    20.077594    20.795725    7117.0628    6292.3424    10508.226     7396.989     1185.875    657.08263    695.44651   -2613.0215 
21944000    263.28391   -3888.2089   -3436.9493   -3888.2089            0    7841.7049    17.019777    20.047049    20.764088    7084.6304    6545.0774    7636.3598    9343.6775   -599.45046   -2443.5504   -1694.3558   -2626.7281 
21945000    253.03952   -3905.7216   -3472.0205   -3905.7216            0    6731.8508    17.054381    20.087809    20.806306    7127.9313    4226.1306     8173.834    7795.5878    95.568455   -245.94124    992.13707   -2772.2206 
21946000    256.08025   -3925.3308    -3486.418   -3925.3308            0    3628.0838    17.160839    20.213202    20.936184    7262.2492    2512.2486    3377.0105    4994.9922    476.67114     402.5674    40.148034   -3102.1587 
21947000    243.15941    -3892.732   -3475.9651    -3892.732            0    7015.3504    17.085708    20.124708    20.844524     7167.283    7286.5252    6571.3174    7188.2086    1036.4974   -1816.3118   -440.70047   -2742.6683 
21948000    246.26763   -3885.2949   -3463.2006   -3885.2949            0    7249.3738     17.13858    20.186983    20.909027     7234.026    7355.5717    5030.3626     9362.187    790.36197   -737.66482    504.05247   -2698.3855 
21949000     257.1861   -3891.1194   -3450.3113   -3891.1194            0    9666.2936    17.095211    20.135901    20.856118    7179.2488    9765.9089    8584.3986    10648.573    253.96739   -549.37058    719.92276   -2438.2312 
21950000    255.52424    -3922.544   -3484.5842    -3922.544            0    6500.8945    17.163999    20.216924    20.940039     7266.262    5660.1039    7517.9365     6324.643    1677.1441    -1726.021   -2614.0668   -2795.6781 
21951000     250.2716   -3896.6697   -3467.7128   -3896.6697            0     6075.131    17.168093    20.221746    20.945033    7271.4623    9361.5855    4367.4419    4496.3656    140.37036    -1040.352   -558.65744   -2823.4645 
21952000    249.08449   -3903.8356   -3476.9133   -3903.8356            0    8538.8582    17.111894    20.155551     20.87647    7200.2872     7253.801    9988.4941    8374.2796   -1352.4247    512.96004    215.87639    -2580.258 
21953000    246.77641   -3932.9452   -3509.9789   -3932.9452            0    7961.7594    17.043868    20.075425    20.793479    7114.7566    9758.7701     7782.926    6343.5822   -931.72421   -1065.0014   -1013.5939   -2683.8553 
21954000    244.38958   -3909.8658   -3490.9904   -3909.8658            0    7913.6613    17.057389    20.091351    20.809975    7131.7034    9772.1078     8691.717    5277.1592    1218.4917    713.48781    1350.3641   -2667.9017 
21955000    237.54937   -3931.6021   -3524.4506   -3931.6021            0    5019.0298    17.145747    20.195425    20.917771    7243.1055    5466.0563     4412.479    5178.5542    1064.5765   -522.30685    897.16049   -2994.2741 
21956000    242.06595   -3925.1665   -3510.2738   -3925.1665            0    6242.0366    17.117695    20.162384    20.883548    7207.6129    8105.4371    4681.3292    5939.3435    1959.9637   -700.89958   -137.60332   -2854.1381 
21957000    238.64616   -3906.9478   -3497.9165   -3906.9478            0    4792.5656     17.15378    20.204887    20.927571    7253.2905    4500.9742     4017.853    5858.8696   -704.18509    680.67611    1937.3805   -2990.9502 
21958000    257.32825   -3910.7854   -3469.7336   -3910.7854            0    7112.2502    17.105543     20.14807    20.868722    7192.2733    7310.2014    5998.4478    8028.1015    423.72296    569.08614    1353.6841   -2723.7159 
21959000    237.91504   -3899.2085   -3491.4303   -3899.2085            0    5478.9322    17.135298    20.183117    20.905023    7229.8712    3961.5312    5733.3055    6741.9599   0.09510939   -811.07828    223.85336   -2913.7303 
21960000    253.35312    -3897.986   -3463.7474    -3897.986            0    5673.6876    17.169309    20.223178    20.946516    7273.0071    5963.0479    5380.7793    5677.2356   -751.82375   -1155.2863    811.33167   -2861.9431 
21961000    241.20618      -3898.7   -3485.2808      -3898.7            0    6862.3523    17.094094    20.134585    20.854755    7177.8412    7881.1949    5346.9554    7358.9067    258.28026   -69.359643   -4.0241255   -2766.9198 
21962000    249.91418   -3935.7446   -3507.4002   -3935.7446            0    6760.5004    17.124193    20.170038    20.891476    7215.8243    6772.1135    7441.1471    6068.2406   -831.19703    1189.4155    2634.8025   -2795.9563 
21963000    260.52602   -3926.0707   -3479.5381   -3926.0707            0     5962.347    17.057664    20.091675    20.810311    7132.0484    7226.0092    4854.0956    5806.9362    685.03558   -454.40586    1505.2304   -2859.3728 
21964000    241.82913   -3908.1684   -3493.6815   -3908.1684            0    6158.4513    17.087233    20.126504    20.846384     7169.202    7251.2631    4860.7976    6363.2932      447.245    342.02521     334.2486   -2849.7818 
21965000    237.62044   -3965.8022   -3558.5289   -3965.8022            0    4760.1363    17.075178    20.112304    20.831677    7154.0386    6126.6863    3305.2993    4848.4233   -8.2137225    679.33599    298.14571   -3061.8833 
21966000    236.86554   -3929.6209   -3523.6414   -3929.6209            0    5725.3033    17.133081    20.180506    20.902318     7227.065    4874.3835    6778.4899    5523.0366   -367.59693    107.62637     251.5688   -2920.1983 
21967000    241.28473   -3932.2031   -3518.6493   -3932.2031            0    7685.9499    17.105227    20.147698    20.868337     7191.875    8888.5681     6779.035    7390.2467    711.56901   -1799.8616   -947.79914   -2712.4999 
21968000    257.82895   -3934.2439   -3492.3339   -3934.2439            0    6448.4184    17.138894    20.187353    20.909411    7234.4244    7323.4353    5566.1053    6455.7146    777.32964    761.54425   -401.86347   -2811.9828 
21969000    248.40802   -3907.8153   -3482.0524   -3907.8153            0    5723.8582    17.149852    20.200261     20.92278    7248.3096    5327.4231    5796.1533    6047.9984    -840.8985   -644.77845   -1130.2594   -2876.9882 
21970000    240.47685   -3935.9542   -3523.7851   -3935.9542            0     7099.795    17.128323    20.174902    20.896514    7221.0463    6343.4856    7464.8244     7491.075   -71.990161    757.82349    -12.52444   -2776.0947 
21971000    244.54571   -3918.5516   -3499.4087   -3918.5516            0     5971.109    17.152921    20.203876    20.926524    7252.2018    7668.9622    4633.9894    5610.3752    929.74704    671.51238    -873.2155   -2867.8688 
21972000    237.44788   -3918.6804   -3511.7029   -3918.6804            0    7060.0669    17.177053    20.232299    20.955964    7282.8528    8510.9937    5730.8263    6938.3808    1210.3909    621.71733   -177.44094   -2761.8324 
21973000    249.47965   -3929.6833   -3502.0837   -3929.6833            0    4963.0713    17.204985      20.2652    20.990041    7318.4392    4983.1214    5193.2955    4712.7971   -570.78563    1486.2646    968.44715   -2972.3655 
21974000    248.79978   -3927.0119   -3500.5776   -3927.0119            0    7207.5463     17.20818    20.268963    20.993939    7322.5174    7592.6339    7628.5427    6401.4624   -872.94129   -461.74144    1036.6619   -2730.8736 
21975000    249.80545   -3944.0118   -3515.8538   -3944.0118            0    6141.4676    17.152782    20.203711    20.926354    7252.0246    7019.1077    5645.2432    5760.0519   -439.41283   -81.341977    -14.56833   -2866.3117 
21976000     256.3913   -3941.8909   -3502.4449   -3941.8909            0    5830.2651    17.191285    20.249063    20.973328     7300.971    5294.6406    5430.3307    6765.8241   -1171.7034   -408.09475    484.21543   -2881.6548 
21977000    263.29123   -3888.4162   -3437.1441   -3888.4162            0    6830.1861    17.194846    20.253257    20.977672    7305.5082    7263.9237     6496.757    6729.8776    159.15326    1969.6136   -916.73852   -2709.4332 
21978000    252.82241   -3904.4953   -3471.1663   -3904.4953            0    7837.3838    17.114335    20.158426    20.879449    7203.3697    8982.2604    7180.4457    7349.4452   -3.1328789   -571.61362    1027.9992   -2647.8197 
21979000     254.0731   -3906.5475   -3471.0749   -3906.5475            0    6156.4951     17.19048    20.248115    20.972345    7299.9452    5705.8368    7092.2716    5671.3768    469.91854   -82.571205    976.83397   -2815.6408 
21980000     254.0963   -3879.0725   -3443.5601   -3879.0725            0    5098.7519    17.157395    20.209145    20.931982    7257.8778     4602.956    4423.5729    6269.7267   -684.70397    1823.3711     106.4466   -2903.8639 
21981000    261.71516   -3885.8317   -3437.2609   -3885.8317            0    7198.0022    17.152582    20.203476     20.92611    7251.7715    9832.9627    8019.4104    3741.6335    304.83186   -752.56893    837.55698   -2676.0027 
21982000    249.88772   -3901.6291   -3473.3301   -3901.6291            0    7203.3959    17.121546     20.16692    20.888246    7212.4786    7519.1753    5878.2178    8212.7945    420.25592   -787.61687    -191.1387   -2715.6293 
21983000    244.77636   -3926.7156   -3507.1773   -3926.7156            0    7432.1486    17.089218    20.128841    20.848806    7171.7002    8417.3619    7084.8521    6794.2317    569.32754    277.20768    454.44418   -2729.8348 
21984000    258.56558   -3907.3831   -3464.2106   -3907.3831            0    6008.9352    17.208158    20.268937    20.993913    7322.4892    6426.0035    5307.8338    6292.9681    1348.4697   -907.70025    666.01612   -2822.5104 
21985000     247.3958   -3926.5187   -3502.4908   -3926.5187            0    7006.1667    17.132219    20.179491    20.901268    7225.9753    5672.6588     6346.226    8999.6153    228.49814    -757.7522    940.46944   -2764.1569 
21986000    249.23333   -3933.2775   -3506.1001   -3933.2775            0    7137.2623    17.130401    20.177349    20.899049    7223.6743    7044.8458    6953.3428    7413.5982   -382.36216    429.93006   -532.22038   -2754.1904 
21987000    244.70853   -3912.0098   -3492.5877   -3912.0098            0    5859.9926    17.155622    20.207056    20.929818    7255.6274     5943.154    4797.7459    6839.0779    1632.4667   -422.86829   -73.897733   -2872.5075 
21988000    256.15937   -3901.2442   -3462.1958   -3901.2442            0    6774.9644     17.07677     20.11418     20.83362    7156.0407    6854.8998    6295.4165    7174.5768    -118.5872   -1400.8077    -297.9621   -2755.1367 
21989000      254.655   -3928.5874   -3492.1174   -3928.5874            0    6272.8367    17.099441    20.140882    20.861278    7184.5786    5368.5182    6614.7318    6835.2601      12.1131   -289.49069     855.7386   -2834.8514 
21990000    262.80917   -3953.5485   -3503.1026   -3953.5485            0    7352.9237    17.114891    20.159081    20.880127     7204.071    7991.5487    6564.3539    7502.8683   -1647.3481   -1668.6582   -823.35032   -2730.5751 
21991000    245.74648   -3974.1635   -3552.9625   -3974.1635            0    5484.2653    17.122444    20.167978    20.889342    7213.6134    5592.6554     5107.034    5753.1064    876.56281   -2148.2912    338.12457   -2976.0005 
21992000    258.14613   -3962.7465   -3520.2929   -3962.7465            0    5270.3263    17.139771    20.188386     20.91048    7235.5342    5757.7044    4359.2012    5694.0732    955.77267    1083.5662    580.69043   -2964.1531 
21993000    257.04695   -3931.4466   -3490.8769   -3931.4466            0    7932.9499    17.007461    20.032542    20.749062     7069.261    6725.2181    8301.9991    8771.6324    918.33849   -472.32841   -58.482287   -2673.0063 
21994000     255.3273   -3953.0949   -3515.4727   -3953.0949            0    6141.5119    17.061955    20.096729    20.815545    7137.4318    7814.3469    6579.6564    4030.5323    77.329122   -92.674013    701.30848   -2876.1896 
21995000     253.4924    -3910.978   -3476.5007    -3910.978            0    4419.4575    17.142981    20.192167    20.914397    7239.6009    3028.8031    4023.8691    6205.7004     735.9747   -6.3540229   -752.21828   -3009.8849 
21996000    250.16693   -3930.9398   -3502.1622   -3930.9398            0    6106.9141    17.154497    20.205732    20.928446    7254.2006    3398.8137     6096.102    8825.8265    811.08639    8.6192367   -1795.9654   -2856.0808 
21997000    237.93842   -3920.9571   -3513.1388   -3920.9571            0    5379.5829    17.117349    20.161976    20.883126    7207.1758    4852.3803    6736.1122    4550.2561   -352.76397    116.84468   -833.43336   -2947.6948 
21998000    246.71502   -3913.3668   -3490.5057   -3913.3668            0    5890.3298    17.156091    20.207609    20.930391    7256.2232    6751.9939    4807.8888    6111.1065   -2162.8072    394.91249   -315.34606    -2867.164 
21999000     241.2935    -3923.249   -3509.6802    -3923.249            0     6507.608    17.012198    20.038122    20.754841    7075.1694     7817.435    7064.1059    4641.2831   -1288.5779    -374.0054    313.71724   -2838.1986 
22000000     268.3675    -3895.608   -3435.6353    -3895.608            0    8684.1654    16.964927    19.982443    20.697171    7016.3552    9662.9317    7570.5298    8819.0346    1323.3603    733.77569    312.19108   -2547.0164 
Loop time of 476.821 on 64 procs for 250000 steps with 864 atoms

Performance: 90.600 ns/day, 0.265 hours/ns, 524.305 timesteps/s
99.0% CPU use with 64 MPI tasks x 1 OpenMP threads

MPI task timing breakdown:
Section |  min time  |  avg time  |  max time  |%varavg| %total
---------------------------------------------------------------
Pair    | 20.632     | 26.012     | 31.292     |  49.3 |  5.46
Bond    | 0.27214    | 0.28136    | 0.29524    |   1.1 |  0.06
Kspace  | 200.1      | 210.7      | 220.89     |  33.1 | 44.19
Neigh   | 4.7042     | 5.6868     | 6.5805     |  19.3 |  1.19
Comm    | 105.35     | 115.14     | 125.53     |  43.6 | 24.15
Output  | 1.1863     | 1.188      | 1.1999     |   0.3 |  0.25
Modify  | 109.64     | 112.95     | 116.19     |  15.5 | 23.69
Other   |            | 4.865      |            |       |  1.02

Nlocal:        13.5000 ave          19 max           7 min
Histogram: 2 0 1 10 5 26 11 6 1 2
Nghost:        2264.92 ave        2296 max        2223 min
Histogram: 2 0 5 4 11 12 16 6 3 5
Neighs:        4396.05 ave        6202 max        2416 min
Histogram: 2 4 3 10 9 14 11 4 2 5

Total # of neighbors = 281347
Ave neighs/atom = 325.63310
Ave special neighs/atom = 2.0000000
Neighbor list builds = 12695
Dangerous builds = 0

unfix		3
unfix		2
unfix		1

write_data	data.final.${pid}
write_data	data.final.0
System init for write_data ...
PPPM initialization ...
  extracting TIP4P info from pair style
  using 12-bit tables for long-range coulomb (../kspace.cpp:340)
  G vector (1/distance) = 0.37431047
  grid = 24 24 24
  stencil order = 5
  estimated absolute RMS force accuracy = 0.0031554313
  estimated relative force accuracy = 9.5024875e-06
  using double precision FFTW3
  3d grid and FFT values/proc = 2535 216
Last active /omp style is kspace_style pppm/tip4p/omp
WARNING: Not all mixed pair coeffs generated from mixing. Use write_data with 'pair ij' option to store all pair coeffs. (../write_data.cpp:312)

write_restart   restart.lmp.${pid}
write_restart   restart.lmp.0
System init for write_restart ...
PPPM initialization ...
  extracting TIP4P info from pair style
  using 12-bit tables for long-range coulomb (../kspace.cpp:340)
  G vector (1/distance) = 0.37431047
  grid = 24 24 24
  stencil order = 5
  estimated absolute RMS force accuracy = 0.0031554313
  estimated relative force accuracy = 9.5024875e-06
  using double precision FFTW3
  3d grid and FFT values/proc = 2535 216
Last active /omp style is kspace_style pppm/tip4p/omp
Total wall time: 0:07:58
