LAMMPS (30 Jul 2021)
Processor partition = 0
  using 1 OpenMP thread(s) per MPI task
using multi-threaded neighbor list subroutines
variable        pid world 0 1
variable        phase world IceII IceIII

shell cd ${phase}
shell cd IceII
include Restart.lmp
echo both
log log.lammps
#include		in.partitions
include		in.temp
variable        temperature equal 132.50
variable	tempDamp equal 100.0
include		in.pressure
variable        pressure equal 7293.8
variable        pressureDamp equal 1000.0 # This is 1 ps
include		in.seed
variable        seed equal 745823

units		real
atom_style	full
box tilt large
read_restart	restart.lmp.${pid}
read_restart	restart.lmp.0
Reading restart file ...
  restart file = 30 Jul 2021, LAMMPS = 30 Jul 2021
  restoring atom style full from restart
  triclinic box = (-10.598705 -9.1116274 0.21859105) to (12.578705 12.101625 21.641408) with tilt (-9.1988285 1.9377052 2.7705723)
  4 by 4 by 4 MPI processor grid
  restoring pair style lj/cut/tip4p/long/omp from restart
  restoring bond style harmonic/omp from restart
  restoring angle style harmonic/omp from restart
  1296 atoms
  864 bonds
  432 angles
Finding 1-2 1-3 1-4 neighbors ...
  special bond factors lj:    0        0        0       
  special bond factors coul:  0        0        0       
     2 = max # of 1-2 neighbors
     1 = max # of 1-3 neighbors
     1 = max # of 1-4 neighbors
     2 = max # of special neighbors
  special bonds CPU = 0.008 seconds
  read_restart CPU = 0.020 seconds
include 	in.setup
variable	out_freq equal 1000
variable	out_freq2 equal 10000
variable	out_freq3 equal 1000

timestep	2.0

neigh_modify    delay 7 every 1

include		in.tip4p
# This is TIP4P/Ice

# create groups ###
group ox type 2
432 atoms in group ox
group hy type 1
864 atoms in group hy

# set charges - beside manually ###
set group ox charge -1.1794
Setting atom values ...
  432 settings made for charge
set group hy charge 0.5897
Setting atom values ...
  864 settings made for charge

# ### TIP3P Potential Parameters ###
pair_style lj/cut/tip4p/long/omp 2 1 1 1 0.1577 8.5
pair_coeff 1 1*2 0.000 0.000
pair_coeff 2 2 0.21084 3.1668
bond_style  harmonic
bond_coeff  1 450 0.9572
angle_style harmonic
angle_coeff 1 55 104.52
kspace_style pppm/tip4p/omp 1.0e-5
pair_modify tail yes

thermo          ${out_freq}
thermo          1000
thermo_style    custom step temp pe etotal epair emol press lx ly lz vol pxx pyy pzz pxy pxz pyz enthalpy

restart 	${out_freq3} restart.lmp.${pid} restart2.lmp.${pid}
restart 	1000 restart.lmp.${pid} restart2.lmp.${pid}
restart 	1000 restart.lmp.0 restart2.lmp.${pid}
restart 	1000 restart.lmp.0 restart2.lmp.0


include         in.dump
dump            myDump all atom ${out_freq2} dump.water.${pid}
dump            myDump all atom 10000 dump.water.${pid}
dump            myDump all atom 10000 dump.water.0
dump            myDump2 all dcd ${out_freq2} dump.dcd
dump            myDump2 all dcd 10000 dump.dcd
dump_modify     myDump append yes
dump_modify     myDump2 append yes


variable natoms 	equal  "count(all)"                        # NUMBER ATOMS
variable H      	equal  "enthalpy/v_natoms"                 # ENTHALPY-per-atom
variable Vol      	equal  "vol/v_natoms"                 # volume-per-atom
fix AVG all 		ave/time ${out_freq} 1 ${out_freq} v_Vol v_H file vol_enthalpy.dat
fix AVG all 		ave/time 1000 1 ${out_freq} v_Vol v_H file vol_enthalpy.dat
fix AVG all 		ave/time 1000 1 1000 v_Vol v_H file vol_enthalpy.dat


timer           timeout 10:00:00 every 1000
New timer settings: style=normal  mode=nosync  timeout=10:00:00

fix 		1 all shake 1e-6 200 0 b 1 a 1
Finding SHAKE clusters ...
       0 = # of size 2 clusters
       0 = # of size 3 clusters
       0 = # of size 4 clusters
     432 = # of frozen angles
  find clusters CPU = 0.002 seconds
fix             2 all nph tri ${pressure} ${pressure} ${pressureDamp}
fix             2 all nph tri 7293.8 ${pressure} ${pressureDamp}
fix             2 all nph tri 7293.8 7293.8 ${pressureDamp}
fix             2 all nph tri 7293.8 7293.8 1000
fix             3 all temp/csvr ${temperature} ${temperature} ${tempDamp} ${seed}
fix             3 all temp/csvr 132.5 ${temperature} ${tempDamp} ${seed}
fix             3 all temp/csvr 132.5 132.5 ${tempDamp} ${seed}
fix             3 all temp/csvr 132.5 132.5 100 ${seed}
fix             3 all temp/csvr 132.5 132.5 100 745823


run             250000
PPPM initialization ...
  extracting TIP4P info from pair style
  using 12-bit tables for long-range coulomb (../kspace.cpp:340)
  G vector (1/distance) = 0.36876892
  grid = 27 40 32
  stencil order = 5
  estimated absolute RMS force accuracy = 0.0042493755
  estimated relative force accuracy = 1.2796868e-05
  using double precision FFTW3
  3d grid and FFT values/proc = 4845 560
Last active /omp style is kspace_style pppm/tip4p/omp
Neighbor list info ...
  update every 1 steps, delay 7 steps, check yes
  max neighbors/atom: 2000, page size: 100000
  master list distance cutoff = 10.8154
  ghost atom cutoff = 10.8154
  binsize = 5.4077, bins = 7 5 4
  1 neighbor lists, perpetual/occasional/extra = 1 0 0
  (1) pair lj/cut/tip4p/long/omp, perpetual
      attributes: half, newton on, omp
      pair build: half/bin/newton/tri/omp
      stencil: half/bin/3d/tri
      bin: standard
Setting up Verlet run ...
  Unit style    : real
  Current step  : 21250000
  Time step     : 2
  Walltime left : 9:59:59.89
Per MPI rank memory allocation (min/avg/max) = 9.410 | 9.422 | 9.432 Mbytes
Step Temp PotEng TotEng E_pair E_mol Press Lx Ly Lz Volume Pxx Pyy Pzz Pxy Pxz Pyz Enthalpy 
21250000    141.82789   -6665.3284   -6300.4848   -6665.3284            0    8093.3101     23.17741    21.213253    21.422817    10532.919    7758.1457    8747.9179    7773.8668    53.973429   -293.39891   -366.96194   -5057.2567 
21251000    131.57396   -6662.0491   -6323.5831   -6662.0491            0    9194.1961    23.182668    21.110164    21.457261    10500.968    8589.1195     9564.102    9429.3669    -277.3944   -308.88749   -40.081575   -4915.5302 
21252000    133.82064   -6674.1566   -6329.9112   -6674.1566            0    6113.9361     23.11374    21.283723    21.610125    10631.024    5753.8934    6302.4226    6285.4922   -35.728111    688.52352    611.18572   -5381.9908 
21253000    132.66321   -6667.3637   -6326.0957   -6667.3637            0    7813.3655     23.14693    21.344032    21.343628    10544.794    8181.7428     7644.891    7613.4628    977.06696    -1045.717   -854.17642   -5124.5172 
21254000    128.33305   -6681.4681   -6351.3391   -6681.4681            0    6577.9148    22.996084    21.381607    21.573342    10607.466    7496.7588    6444.1886    5792.7969    642.07621   -548.04916   -173.01793   -5333.7422 
21255000    129.76963   -6665.2941   -6331.4696   -6665.2941            0    6709.3234    23.103423    21.325228    21.494962    10590.261    6782.4197    6534.6037    6810.9469    968.27819   -388.00419   -290.77214   -5295.2273 
21256000    133.93463   -6661.1786   -6316.6399   -6661.1786            0    7530.9249    23.164837    21.286168    21.415399    10559.732    7613.1167     7420.375     7559.283   -539.46121   -379.76102   -255.78112   -5156.8559 
21257000    126.77646   -6660.9693   -6334.8445   -6660.9693            0    7237.4594    23.180148    21.181031    21.528981    10570.287    6685.9499    7225.1793     7801.249   -217.76314   -90.150083   -582.57355    -5219.141 
21258000    130.12124   -6648.1108   -6313.3818   -6648.1108            0     9708.347    23.141432    21.207596    21.359409    10482.645    9833.4869    9311.6727    9979.8815   -1019.9886    644.27018    680.05998    -4829.183 
21259000    141.50745   -6670.0391   -6306.0198   -6670.0391            0    6836.1832     23.15585     21.25688    21.504236    10584.839     6381.867    7219.7328    6906.9497   -477.36115    785.54299   -703.00981   -5250.7249 
21260000    132.82908    -6663.257   -6321.5623    -6663.257            0    7426.8756    23.009937     21.32932    21.565575    10584.089    7991.0727    6879.7889     7409.765   -172.52115   -213.05329    1123.6461   -5175.1641 
21261000    128.75114   -6657.8855    -6326.681   -6657.8855            0    7348.4917    23.163806    21.374553    21.326587    10559.134     7446.916    6209.1472    8389.4119    757.61437    169.40694    1220.2263   -5195.0564 
21262000    135.19774   -6656.4914   -6308.7035   -6656.4914            0     6791.328    23.127161    21.251702    21.594614     10613.57    6604.0982    6927.3785    6842.5073    66.855433    938.35799    309.78429   -5257.4872 
21263000     130.8432    -6651.471   -6314.8849    -6651.471            0    7413.7495    23.314406    21.170706    21.422968        10574    6283.5187    8265.8524    7691.8776    155.34679   -684.56531   -560.20645   -5171.6035 
21264000    131.81181   -6681.9357   -6342.8579   -6681.9357            0    7546.6908    23.206778    21.156104     21.48844    10550.072    7641.8767    7434.9475    7563.2481    200.67927   -716.78628    38.309059    -5181.709 
21265000    134.13772   -6672.6913   -6327.6302   -6672.6913            0    7352.3447    23.127133    21.283176     21.51056    10587.903    7925.5579    7004.8676    7126.6086   -306.52401   -81.115989    -5.425307   -5192.3274 
21266000    134.02104    -6675.386    -6330.625    -6675.386            0    6262.2595     23.14178    21.403415    21.444277    10621.632    7253.2529     5921.933    5611.5926   -923.21059   -694.53553   -1394.4526   -5360.5659 
21267000    134.23394   -6668.3338   -6323.0252   -6668.3338            0    7611.1207    22.976542    21.368716    21.472329    10542.467    8532.5786    6950.3083    7350.4752   -67.782958    207.83594    441.88536   -5152.8073 
21268000    127.67335   -6673.9687   -6345.5368   -6673.9687            0    7564.2468    22.985087     21.40032     21.45926    10555.557    8651.0908    6615.5911    7426.0585     -966.471    147.38044   -803.95941   -5181.0818 
21269000    132.13691   -6671.5821    -6331.668   -6671.5821            0    7618.8479    23.034047     21.40311    21.428413    10564.213    7666.7171     6737.025    8452.8016    -166.7644    40.191829    392.30413   -5157.8458 
21270000    130.41379   -6670.6708   -6335.1893   -6670.6708            0    7689.2881    23.119345    21.248589    21.481652    10552.936    7726.2561     7286.967    8054.6411   -277.27744    357.93679   -493.15086   -5151.7791 
21271000    125.71988   -6668.1778    -6344.771   -6668.1778            0    7724.0599    23.181708     21.22482     21.44992    10553.952    7740.3512    7960.9963    7470.8321   -995.96449   -629.61642   -35.854309   -5155.8948 
21272000    131.91156   -6663.8668   -6324.5324   -6663.8668            0    7528.5437    23.307782    21.071662     21.51645    10567.453    7251.4355    8178.6958    7155.4998    422.35286   -722.19881   -473.85616   -5164.2673 
21273000    134.77363   -6681.5385   -6334.8416   -6681.5385            0     8046.692    23.247369    21.159956    21.446705    10549.919    8652.6786    8263.8545     7223.543   -761.69273   -996.41897   -388.85495   -5096.7795 
21274000    143.50402   -6662.9745   -6293.8192   -6662.9745            0    6343.6874     23.28254    21.131919    21.562226    10608.718    6444.1032    5816.7705    6770.1884    72.525648   -1107.1767    847.12998   -5312.3412 
21275000    133.97828   -6655.5471   -6310.8961   -6655.5471            0    6717.6781    23.290954     21.30148    21.394152    10614.319    6024.3798    5620.2227    8508.4318   -20.156252   -813.50621    597.05068   -5271.0065 
21276000    132.49569   -6652.7585   -6311.9214   -6652.7585            0    6839.7631    23.134875     21.28738     21.52773    10601.995    5790.2859    7511.3645    7217.6391    650.05818    833.51333    21.962497   -5254.3625 
21277000     136.7065    -6669.963   -6318.2939    -6669.963            0    7706.2771    22.992167    21.332429    21.517867    10554.057    8091.4522    8007.5912    7019.7878    490.53479    369.21658   -967.33971   -5132.1429 
21278000    130.09409   -6675.9341    -6341.275   -6675.9341            0    7448.7418    22.865928    21.472866    21.519568    10566.043    8367.2226    7587.3643    6391.6384    1035.2996    427.21215   -472.98007   -5193.4618 
21279000    128.02556   -6661.6014   -6332.2635   -6661.6014            0    8122.4437    23.080264    21.308702    21.418179    10533.684    7582.9928    9097.6206    7686.7176    311.87207    227.80009   -710.54504   -5084.4695 
21280000    138.95233   -6665.1062   -6307.6598   -6665.1062            0    7016.2816    23.064587    21.362664    21.515717    10601.246    6194.3904    7487.4311    7367.0234   -114.57394   -659.02533    390.36985   -5222.8844 
21281000    134.06978   -6654.4796   -6309.5933   -6654.4796            0    8192.2904    23.196436    21.186227    21.450541     10541.76    8045.3988    8210.1164    8321.3561    18.013001    403.84914   -602.96719   -5050.1043 
21282000    133.32719   -6659.0666   -6316.0905   -6659.0666            0    8238.5799    23.227247    21.173819    21.439376     10544.09    8138.7132    8172.9764    8404.0502   -1011.6042    -372.6754   -22.234353   -5049.2051 
21283000    136.88151   -6681.8841   -6329.7648   -6681.8841            0    7571.6282    23.383108    20.941564    21.591602    10572.951    6737.9013    9036.1751    6940.8083    87.125319    227.42314   -1253.6457   -5162.2527 
21284000    131.49906   -6673.9803   -6335.7069   -6673.9803            0    6885.8252    23.234676    21.194658    21.518407    10596.761    6768.6512     6856.504    7032.3205   -139.54007   -531.28357    1060.8364   -5271.5516 
21285000    128.04471   -6672.7187   -6343.3315   -6672.7187            0    7534.7873    23.211892    21.177546     21.50169    10569.605    7169.3375    7759.6461    7675.3782   -535.57422   -191.74601    257.22927   -5181.8677 
21286000    131.84156   -6684.1704    -6345.016   -6684.1704            0    6332.0791     23.10033    21.310223    21.548604      10607.8    7198.7083    6473.8057    5323.7231    245.26757   -694.04917   -671.44072   -5365.4188 
21287000    134.32405   -6666.2116   -6320.6712   -6666.2116            0    8244.1761    23.049478    21.344801     21.42652    10541.559    8423.5471    7800.8596    8508.1215    329.85446    400.35739    116.07655   -5053.2295 
21288000    133.33198   -6670.9622   -6327.9738   -6670.9622            0    7072.2815    23.021414    21.458168     21.40815    10575.569    6771.7445    7450.3527    6994.7472    393.69827   -450.14521    116.38022   -5237.1887 
21289000    133.37696    -6673.969   -6330.8649    -6673.969            0    6941.1363    23.081179    21.415791    21.429637    10592.706    6940.7875    6142.1634     7740.458    233.59186   -119.71338   -470.26189   -5258.5721 
21290000    130.48924   -6672.2291   -6336.5535   -6672.2291            0    7338.7599    23.080643    21.272971    21.529566    10570.884    7958.6215    7003.8638    7053.7945   -141.67366     458.1715      398.775   -5205.1698 
21291000    128.03921   -6664.5854   -6335.2123   -6664.5854            0    7181.3062    23.353581    21.074525    21.460595    10562.168    6770.2521     7400.956    7372.7105   -578.48178     941.2505    62.160196   -5229.0156 
21292000     130.7232   -6665.5288   -6329.2514   -6665.5288            0    7856.3707    23.291822    21.149657    21.429277    10556.363    7009.5445      9136.44    7423.1276     454.5774   -1083.9698    -987.6534   -5119.7339 
21293000    141.11597   -6688.4961   -6325.4839   -6688.4961            0     7112.865    23.224008    21.127673    21.553665    10575.721    6312.4142     8752.538    6273.6428    101.00728   -698.64233   -387.95379   -5228.4237 
21294000     133.6803   -6666.0967   -6322.2123   -6666.0967            0    7973.4828    23.244391    21.202467    21.395049    10544.303    6839.4157    8294.2818    8786.7508   -65.746799    532.06835    540.37925   -5096.0673 
21295000    125.39725   -6684.8325   -6362.2557   -6684.8325            0    7432.9791    23.067193     21.31124    21.474196     10556.51    8131.7538    8105.2056    6061.9778    1086.2705   -25.924719   -1752.6706   -5217.9049 
21296000    136.45651   -6677.3657   -6326.3396   -6677.3657            0     6917.464    22.973822    21.413983    21.519773     10586.89    7763.3918    7502.7254    5486.2749   -624.83652    884.53579   -726.24863   -5258.2906 
21297000    132.09167   -6681.3166   -6341.5189   -6681.3166            0    6517.1653    22.987169    21.476346    21.465556    10597.124    6992.7218    5937.6895    6621.0847   -243.38943     976.6561   -351.20959   -5334.3028 
21298000    141.82447   -6680.4206   -6315.5858   -6680.4206            0    7719.7861    23.009905    21.366944    21.464229    10552.917    8914.2477    7261.5136     6983.597   -371.10889   -788.14509   -929.43765   -5127.4839 
21299000    135.44238    -6667.348   -6318.9308    -6667.348            0    7176.5642    23.207803    21.223895      21.4712    10575.853     7034.349    7378.8687    7116.4747    719.13919   -119.37574   -776.01878   -5212.0321 
21300000    136.18054   -6675.6345   -6325.3183   -6675.6345            0    7252.3784     23.18909     21.12468    21.608117    10584.998    6593.9401     7582.857    7580.3382   -721.90606    71.121287    1164.6359    -5205.759 
21301000    134.36476   -6657.4144   -6311.7692   -6657.4144            0    7499.3213    23.411992    21.056598    21.422863    10560.977    7244.4313    7531.3355    7722.1972    372.71763     -54.4418    120.65643   -5156.7161 
21302000    129.34582   -6676.8862   -6344.1519   -6676.8862            0    6531.4551    23.233377    21.216315    21.487348    10591.686    6374.1683    6346.1284    6874.0686   -237.40412    -497.3061     271.3398   -5335.2454 
21303000    130.20891   -6668.1233   -6333.1689   -6668.1233            0     8597.124    23.068139    21.182498    21.574965    10542.409    9105.8909    8765.3247    7920.1565   -251.19487     210.3941   -121.02065   -5011.3592 
21304000    136.75523   -6667.2102   -6315.4157   -6667.2102            0    8117.8243    23.117324    21.332425    21.341892    10524.724    7994.9902    7253.8395    9104.6431    644.84515     334.3945    1006.2565   -5069.3922 
21305000    132.85974   -6666.4112   -6324.6376   -6666.4112            0    7276.4495    23.093855    21.306581    21.498224    10578.224    6863.8853    7358.1166    7607.3465    1317.9531    -51.28754    212.87005   -5202.0812 
21306000     136.2155   -6664.4172   -6314.0111   -6664.4172            0    7300.9046      23.0666    21.351138    21.516636    10596.903    7342.2792    7260.3107    7300.1239   -594.13238    987.64687   -6.9145512    -5185.693 
21307000     129.0035   -6654.8254   -6322.9718   -6654.8254            0    8484.3808    23.102842     21.29521    21.385099    10521.038    8701.8002    7774.8379    8976.5043   -900.57106    1712.7611    161.96925   -5021.1407 
21308000    130.07165   -6667.0336   -6332.4322   -6667.0336            0    7574.4308    23.029131    21.292063    21.544003    10563.837    7687.1759    7687.3514     7348.765   -252.02715   -445.72802    386.81089   -5165.4947 
21309000    132.16933   -6666.3907   -6326.3932   -6666.3907            0    7080.1282    23.149853    21.303745    21.442468    10574.966    6392.0491    7600.0934    7248.2421  -0.46862031    917.26396   -99.535503   -5234.4602 
21310000    130.99873   -6682.5107   -6345.5245   -6682.5107            0    7854.4504    23.057549     21.17416    21.569121    10530.568    7861.6585    8161.4399    7540.2529   -662.73844    270.55578    1800.7958   -5139.2574 
21311000    132.59468   -6673.3027   -6332.2109   -6673.3027            0    7031.7333    23.282601    21.107315    21.539929    10585.436    5894.6463    8248.8287    6951.7249    762.91409   -120.80042   -79.304324   -5246.6679 
21312000    131.55094   -6660.5653   -6322.1585   -6660.5653            0     7114.483    23.228696    21.278842    21.410979    10583.013    6967.7057    6390.1542    7985.5891    465.44097    148.09097      1269.34   -5224.0921 
21313000    134.18863   -6647.7102   -6302.5181   -6647.7102            0    8342.7277      23.0609    21.196366    21.595056     10555.82    9698.3741    7570.6264    7759.1827    334.25128    320.25794    140.27135   -5018.1901 
21314000    132.74164   -6674.5714   -6333.1016   -6674.5714            0    7615.6993     23.01853     21.43302    21.375371    10545.681    7673.8818    6998.9476    8174.2686    684.54759   -432.56651   -282.30342   -5161.8227 
21315000    127.21235   -6675.1294   -6347.8834   -6675.1294            0    8188.9906    22.982599    21.427628     21.37969    10528.698    8547.1768    7626.0669    8393.7279    1062.5283    131.97078   -99.283352   -5090.4618 
21316000     141.4443    -6676.914   -6313.0572    -6676.914            0    6893.2302    23.094983    21.288858    21.534981    10588.014    7128.5149    6743.9446     6807.231   -326.23004   -159.42357    126.62556   -5248.6368 
21317000    130.33523   -6687.9711   -6352.6916   -6687.9711            0    7542.4575    23.214107    21.208086     21.41779    10544.551    6484.2661    7583.5037    8559.6028     864.6069   -147.15217    582.88072   -5192.8015 
21318000    128.24598   -6674.3707   -6344.4657   -6674.3707            0    7922.9589    23.251336    21.116473    21.513968    10563.062    7744.9076    8593.4567    7430.5124   -30.585954   -1479.0451     -607.086   -5123.9226 
21319000    126.24363   -6678.0818   -6353.3277   -6678.0818            0    7802.5215    23.272822    21.104035     21.51202    10565.638      6810.58    9679.8526    6917.1319   -268.27526    7.5280111   -804.62186   -5151.0451 
21320000    137.05562   -6682.9978   -6330.4305   -6682.9978            0    7762.6095    23.107861    21.194345    21.517247    10538.201    7748.5498    8358.9663    7180.3124   -969.40438     -265.929    -81.53559   -5137.4041 
21321000    135.83756    -6677.616   -6328.1821    -6677.616            0    6357.3795    23.160028    21.403583    21.388529    10602.456    5656.8221     6025.834    7389.4824    10.706302    273.20486   -196.19545   -5345.1663 
21322000    140.70457   -6660.9473   -6298.9933   -6660.9473            0    7421.9388    22.987669     21.39971    21.517696    10585.188    7996.8385    7241.0492    7027.9287   -1040.1999    843.54057   -262.80875   -5153.2381 
21323000    131.18148   -6680.9148   -6343.4584   -6680.9148            0    7849.2195     23.01019    21.327469    21.494561    10548.437    7943.7033    7641.7807    7962.1745     70.77264    428.68236     -51.9117   -5135.9492 
21324000    133.02816   -6675.6597   -6333.4529   -6675.6597            0     6880.287     23.18441    21.286084    21.477718    10599.368    7587.8764    6311.1196    6741.8651    224.91325    95.760201    156.96852   -5269.8919 
21325000    133.50052   -6674.6277   -6331.2058   -6674.6277            0    7217.7231    23.133913    21.278533    21.491957    10579.539    7245.9937    7394.3387    7012.8368   -497.49774    1033.9868   -702.89289   -5217.5708 
21326000    133.12986   -6673.8656   -6331.3971   -6673.8656            0    7365.9647     23.28793    21.181765    21.399327    10555.849    6118.9722    9031.8387    6947.0832    412.56603     696.0607   -752.06113   -5197.4346 
21327000    133.12514    -6683.294   -6340.8377    -6683.294            0    7401.8206    23.171062    21.204014    21.540302    10583.171     8121.396    7723.7809    6360.2851    141.65781   -198.41813   -516.96277   -5198.4059 
21328000    138.25723   -6662.3718   -6306.7136   -6662.3718            0    8406.0307    23.164918    21.211696    21.438558    10534.205    8333.0112    7550.3241    9334.7567   -415.69924    122.15699    475.28276   -5015.2903 
21329000    130.39111   -6679.8576   -6344.4344   -6679.8576            0    6354.5766    23.266849    21.279694    21.369778    10580.421    5933.1768    6182.0673    6948.4856     460.5027    557.04378    878.84123   -5363.8941 
21330000    139.59219   -6669.2506   -6310.1582   -6669.2506            0    7714.4025    23.060089    21.216986    21.588087    10562.308    7964.9807    8945.4703    6232.7566    164.92568   -241.74462   -784.66506   -5121.8284 
21331000    133.23261   -6682.4119   -6339.6792   -6682.4119            0     6136.849    23.183959    21.334064    21.437252    10603.038    6520.2299    5797.6322    6092.6849   -628.49234    -193.1786   -175.35418    -5390.711 
21332000    133.61655   -6677.0564    -6333.336   -6677.0564            0    8112.5237    23.091543    21.133935    21.583097    10532.879    7260.6519     9705.377    7371.5422   -85.870855    1370.6536    567.82502   -5087.1612 
21333000    133.22961   -6677.0322   -6334.3071   -6677.0322            0    6929.2224    23.143681    21.219512    21.587202    10601.423    7510.2463    7448.5719     5828.849    105.13564   -906.34308   -316.72277   -5262.9739 
21334000    138.10039   -6657.0545   -6301.7997   -6657.0545            0     7553.332    23.259681    21.194744    21.431833    10565.529    6992.0964    7977.9304    7689.9691   -36.046135   -147.28699    491.40306   -5137.9264 
21335000    132.88804   -6673.8272   -6331.9808   -6673.8272            0    7932.8661    23.104507    21.155608    21.562133    10539.353    8276.9294     8165.404    7356.2647   -333.19208    403.42935   -181.73629   -5112.6545 
21336000    130.71119   -6678.1125   -6341.8659   -6678.1125            0    6561.3417    23.190209    21.305311    21.463997    10604.816    5691.4307    7130.5722    6862.0222   -198.94382   -372.62307   -355.03073   -5327.0864 
21337000    130.16654    -6679.679   -6344.8335    -6679.679            0    8148.5236    23.047439    21.353698    21.386502    10525.325    8541.8644    7525.9536    8377.7528    376.60327    179.85508    977.04364   -5094.0264 
21338000     128.8517   -6652.1383   -6320.6751   -6652.1383            0    8179.1987    23.065163    21.188709    21.564541    10539.045    8395.6511    8101.1671    8040.7778   -208.54532    1280.2535   -281.16544   -5063.5228 
21339000    128.51096   -6685.5267   -6354.9401   -6685.5267            0    7458.8098    23.165247    21.311806    21.365917    10548.209    6338.8905    7822.2197    8215.3192    50.739076    108.25154    21.254035   -5207.5155 
21340000    130.09578   -6677.6424    -6342.979   -6677.6424            0    6895.9255    23.229536    21.117144    21.606227     10598.75    6503.7843    7734.3052    6449.6869    44.251068   -371.09477    592.04698   -5277.0627 
21341000    129.79345   -6680.7867   -6346.9009   -6680.7867            0     7279.191    23.262202    21.190435    21.466187     10581.46    7073.2635    7738.9641    7025.3454   -375.96146    214.30412   -712.88152   -5223.5781 
21342000    132.84562   -6672.0491   -6330.3119   -6672.0491            0    6723.2585    23.236906    21.207559    21.490613    10590.532    5821.4581    7034.0354    7314.2821    371.13527    560.50034   -7.8079313   -5291.8908 
21343000    131.08992   -6666.4561   -6329.2352   -6666.4561            0    7537.7405    23.097022     21.20936    21.579472    10571.202    9028.6656    6918.2307    6666.3253    581.99284   -1096.4113    588.46582   -5167.1408 
21344000     130.2674   -6659.1337   -6324.0287   -6659.1337            0       7530.6      23.0848    21.336238    21.432944    10556.642    7441.1239    7726.6427    7424.0335   -41.369793    953.17193    478.49281   -5164.6342 
21345000    124.54394   -6672.7362   -6352.3546   -6672.7362            0    6625.0914    23.092678    21.337579    21.489626    10588.838    6162.6553    7355.9449    6356.6739    625.49097    755.68647    175.55045   -5329.2593 
21346000     134.5665   -6657.7231    -6311.559   -6657.7231            0    7853.0662    22.942174     21.40575    21.497152    10557.131    8247.5313     7174.337    8137.3302   -119.76096    536.46872   -195.40492   -5102.4622 
21347000     129.3423   -6666.2966   -6333.5714   -6666.2966            0    6469.0472    23.147373     21.35228    21.439038    10596.227    6597.2716    5499.5594    7310.3106   -181.57139      880.439   -2.5071222   -5333.8765 
21348000    128.32009   -6681.5246    -6351.429   -6681.5246            0    7703.5422     23.11155    21.293214    21.440046    10551.058    7098.6338    8089.6999    7922.2927    769.78607   -254.86633   -317.82731    -5166.036 
21349000     134.5783   -6675.1478   -6328.9533   -6675.1478            0    6953.4335    23.201603     21.12709    21.596354    10586.152    7424.8598    8502.2636    4933.1772    517.01954   -509.97558    -519.7135   -5255.4255 
21350000    132.52272   -6680.5254   -6339.6188   -6680.5254            0    7462.1016    23.286588    21.190403    21.403941    10561.821    6257.4817    7922.9499    8205.8733   -27.444884    -612.3222    518.09071   -5190.2065 
21351000    126.34646   -6673.6948   -6348.6762   -6673.6948            0      7584.82    23.327724    21.107416    21.395566    10534.919    6709.6264    8502.1365    7542.6971   -434.34549    869.70397   -686.64014   -5183.3369 
21352000    126.40177   -6663.1076   -6337.9467   -6663.1076            0    6353.7494    23.145079    21.257448     21.58219    10618.552    6688.1786    6211.1055    6161.9639    -863.4539     31.54559    165.74888   -5354.0007 
21353000    131.19849   -6646.0445   -6308.5443   -6646.0445            0    8325.1564    23.138743    21.217405    21.456913    10534.144      8106.52    8060.1255    8808.8239    1062.0217    947.54731   -551.67965   -5029.5531 
21354000    133.84711   -6666.8655    -6322.552   -6666.8655            0    7415.0904     23.02989    21.447622    21.357105    10549.051    7537.7552    7010.4466    7697.0694   -691.45684    454.72219    46.659788   -5181.7619 
21355000    133.79327   -6665.3523   -6321.1773   -6665.3523            0    8069.4427    23.034208    21.257652    21.567373    10560.533     8184.508    8299.1629    7724.6573    451.53932   -59.170135   -205.10701   -5078.3657 
21356000     130.5409   -6673.1199   -6337.3114   -6673.1199            0    7623.1186    23.091392    21.376948    21.355732    10541.691     7142.258    6469.6585    9257.4392    455.39081    -38.50791     272.9847    -5165.335 
21357000     128.6203   -6664.6067   -6333.7388   -6664.6067            0    8389.1116    23.155031    21.146107    21.492712    10523.665    8745.4062    8097.5079    8324.4208    742.94309    729.67174   -743.50644   -5046.2043 
21358000    134.38076   -6678.4397   -6332.7534   -6678.4397            0    8034.6727    23.101493    21.233124    21.500718    10546.465    9222.3392    6862.0834    8019.5955   -297.14282   -2098.1068    656.57506   -5096.9454 
21359000     132.9479   -6688.3704     -6346.37   -6688.3704            0    5965.1796    23.340769    21.252884     21.39687    10614.103    4538.8313    6693.9222    6662.7855   -81.267916    333.11642   -364.29056   -5422.9852 
21360000    130.85159   -6668.4061   -6331.7983   -6668.4061            0    8104.0397    23.165286    21.251503    21.399313    10534.821    6891.7507     8104.949    9315.4194   -298.48972    1040.6139    670.13234   -5086.6973 
21361000    134.37858   -6674.9358   -6329.2551   -6674.9358            0    6839.2801    23.060201    21.214017    21.633704    10583.197    6641.8754    8022.1825    5853.7824    216.58907    372.87431   -733.17088   -5273.6459 
21362000    136.08547   -6676.6768   -6326.6052   -6676.6768            0    7992.4866    23.124854    21.377722    21.322141    10540.743    6388.5467    9067.5014    8521.4118    1371.4926   -672.45001   -576.15777   -5097.9528 
21363000     134.9883   -6672.3157   -6325.0666   -6672.3157            0     7723.635     23.01372    21.313269    21.521697     10556.34    8520.8535    7103.1541    7546.8973     725.2948    528.63696    252.62309   -5135.9867 
21364000    133.74795   -6668.8179   -6324.7595   -6668.8179            0    6748.6728    23.090998    21.293297    21.579851    10610.456    6343.1895    7211.7776    6691.0513    670.77417    702.63407   -334.35118   -5280.4522 
21365000    133.34419   -6666.0403   -6323.0205   -6666.0403            0    7885.5311    23.223751    21.269625    21.393138    10567.365    7521.1987    7330.3328    8805.0619    843.96012   -938.35155    590.26098   -5107.7484 
21366000    124.30753   -6676.3027   -6356.5292   -6676.3027            0    6668.6994    23.159819    21.140739    21.640758    10595.655    6467.8383    7453.7426    6084.5174    561.40954   -549.80498    243.54724   -5326.0367 
21367000    126.65661   -6685.9738   -6360.1574   -6685.9738            0    7948.8858    23.283136    21.112278    21.426421    10532.372    6042.2197    9133.1432    8671.2946    314.25976   -121.87452    1057.7333   -5139.1779 
21368000    124.63315   -6669.0886   -6348.4774   -6669.0886            0    6830.7148    23.270755     21.17768    21.476506    10584.065    6217.0618    6754.6865    7520.3962    67.966855    113.07344    -178.0532   -5294.1038 
21369000    135.94788   -6683.1782   -6333.4606   -6683.1782            0    7703.8103    23.094937    21.236901    21.526812    10558.146     8365.333    7449.9782    7296.1196     334.3001   -301.49474     887.4318     -5147.23 
21370000    131.82951   -6677.1941   -6338.0707   -6677.1941            0    6176.4966    23.161753    21.335235    21.512208    10630.504     6649.981    5320.8814    6558.6274   -245.73746    754.53662    420.69232   -5380.4976 
21371000    132.82447   -6677.3417   -6335.6588   -6677.3417            0    7627.1167    23.049981    21.357678    21.477971    10573.477    8724.5917    6481.8386    7674.9198    295.40275   -560.76429    875.38256   -5159.5321 
21372000    136.52667   -6664.4867   -6313.2801   -6664.4867            0    7581.5621    22.966768    21.354826    21.571046    10579.548     8408.593     6861.488    7474.6053    1139.6062   -465.42533    835.83445   -5143.5068 
21373000    133.23936   -6678.9339   -6336.1837   -6678.9339            0    6682.2365    23.005657    21.414892    21.498331    10591.447    6731.2685    7200.0765    6115.3646    212.18072   -746.60262   -856.46423   -5304.0095 
21374000    137.44654   -6676.4529   -6322.8801   -6676.4529            0    8136.9817    23.081592    21.275335    21.448362    10532.617     7918.692    8114.2421    8378.0109    1077.4511   -464.08553    55.737332   -5072.9793 
21375000    132.92117   -6656.8839   -6314.9523   -6656.8839            0    8024.8685    23.159285    21.175326    21.489328    10538.483    8234.4221    8489.3794     7350.804   -480.33184   -623.74503    626.29062   -5081.5865 
21376000    133.99631   -6681.8232   -6337.1258   -6681.8232            0    6796.3966    23.195472    21.173458    21.578562    10597.844    6043.2471    7299.8775    7046.0653    1610.3737    15.997148    81.915013   -5286.6837 
21377000    132.09797   -6669.2623   -6329.4483   -6669.2623            0    8551.5667    23.214769    21.132733    21.448291    10522.349     8632.065    8617.1599    8405.4752    261.98512    -788.7001    367.59252   -5017.1448 
21378000    130.35173   -6672.1966   -6336.8747   -6672.1966            0    6180.6241    23.213991    21.210218    21.553918    10612.585    6352.6169    6709.5088    5479.7466    105.23421   0.70303887   -513.30847   -5380.2769 
21379000    135.45113    -6657.915   -6309.4753    -6657.915            0    8116.5445    23.122629    21.313005     21.45294    10572.281      8449.89    7940.8973    7958.8462    193.07813   -670.70698     -1018.44   -5058.0187 
21380000    126.33659   -6681.6201   -6356.6269   -6681.6201            0    6913.3119    23.067903    21.371611    21.455618    10577.582    7944.5028    6560.7639     6234.669    -297.8964    297.84286   -513.21742   -5290.1574 
21381000    130.09886   -6686.3644    -6351.693   -6686.3644            0    7247.1653    22.967309    21.450755    21.442234    10563.862    8254.1146    5572.7035    7914.6776   -145.53126     565.3802   -950.63442   -5235.1723 
21382000    135.05551    -6659.511   -6312.0889    -6659.511            0    7628.2446    22.975838    21.342273    21.540683    10562.616    8439.7164    7193.0962    7251.9213    850.25378   -227.85499   -384.49303   -5136.9965 
21383000    133.19453   -6664.4321   -6321.7973   -6664.4321            0    7783.0264    23.148537     21.26845     21.43738    10554.341    7969.9257     7620.444    7758.7095    1252.1857   -552.95232   -308.93717    -5123.801 
21384000    130.28063   -6680.5227   -6345.3837   -6680.5227            0    7457.6734    23.078601    21.208714    21.552373    10549.185    8316.1959    6975.8069    7081.0175   -1428.1144   -316.93468   -334.71116   -5198.0278 
21385000    126.86228    -6678.201   -6351.8555    -6678.201            0    6861.5637    23.326439    21.132363    21.455688    10576.426    6086.9085    7101.8016     7395.981   -35.350661     1276.571    275.24389   -5293.4845 
21386000    138.81675   -6677.3148   -6320.2172   -6677.3148            0    6607.2355    23.254754    21.222481    21.466904    10594.423    6156.7766    6647.2298       7017.7   -1035.3552    53.497583    6.4021399   -5299.3412 
21387000    133.96773   -6675.3494   -6330.7256   -6675.3494            0    9140.1589    23.157125    21.030868     21.56297    10501.478     8707.554    10232.262    8480.6609    519.09366    267.55479    890.90514   -4930.8803 
21388000    129.98222   -6683.2976   -6348.9263   -6683.2976            0     6420.291    23.161281    21.248675    21.514398    10588.236    5764.3153     6968.635    6527.9228    639.57386    916.50814   -249.40766   -5357.5142 
21389000    135.43566   -6684.5289   -6336.1289   -6684.5289            0      8048.21    23.108766     21.29218    21.438549    10548.538    7449.5117     8383.149    8311.9693    898.12115   -700.86167   -65.277601   -5097.9954 
21390000    132.19868   -6672.7832   -6332.7101   -6672.7832            0    6834.1276    23.091964    21.368515    21.446305    10582.486    6253.0618    7427.3724    6821.9487    481.17296    3.7413704    613.01521   -5277.9671 
21391000    134.81296   -6684.5813   -6337.7832   -6684.5813            0    8228.0358    22.956993    21.283946    21.546578     10527.99    8197.4436    8833.7169    7652.9468   -59.804903    1557.8818   -196.08847   -5074.4511 
21392000    134.07827    -6674.695   -6329.7868    -6674.695            0     7148.677    23.106372    21.392275    21.353341    10554.911    6576.4308    6133.0329    8736.5673    783.23703   -7.7914554    249.33907   -5229.3727 
21393000    129.28938   -6664.0703   -6331.4812   -6664.0703            0    7225.7897    23.173544    21.257555    21.468652    10575.734    7476.3865    7024.4808    7176.5017    706.59862   -469.97444    140.49267   -5217.0026 
21394000    133.67769   -6682.0988   -6338.2211   -6682.0988            0    6917.8574    23.134633    21.256404    21.534588     10589.83    6768.3474     7662.086     6323.139   -223.73603   -722.33611    256.80462   -5269.8147 
21395000    139.19463   -6669.1311   -6311.0614   -6669.1311            0    7718.7916    23.240743    21.148958    21.472813    10554.263    7193.8975    7255.4408    8707.0366    264.12319    631.10022    522.46601   -5122.9611 
21396000     131.3459   -6676.1903    -6338.311   -6676.1903            0    7279.1121    23.215747     21.24765    21.426621    10569.325    6226.8093     7397.297    8213.2302   -195.93396    100.23947    686.23562   -5216.2885 
21397000    131.39105   -6686.6639   -6348.6684   -6686.6639            0    6828.0589    23.095246    21.236498    21.622473    10605.004    7382.7384    7478.2914    5623.1469   -997.92192    235.07229    -181.6988   -5292.6196 
21398000    128.98699   -6681.2794   -6349.4682   -6681.2794            0    6950.1743    23.142221    21.323861    21.411807    10566.331    6676.0594    6444.3567    7730.1068    15.113061    106.28466    1261.4004   -5278.4527 
21399000    133.38817   -6658.5702   -6315.4373   -6658.5702            0    7023.6038    23.207923    21.344104    21.375061    10588.186    7145.8203    6732.2716    7192.7193    231.32763   -998.04152   -166.34678   -5230.8676 
21400000    131.80115   -6681.4585    -6342.408   -6681.4585            0    6876.8673    23.064685    21.295589    21.569276    10594.312    7564.6658    6818.0673    6247.8689   -766.70155    -746.1348   -443.44252   -5279.8827 
21401000    132.17904   -6655.8297   -6315.8072   -6655.8297            0    7427.9622    23.230531    21.188454     21.47261    10569.228     6370.943    8000.2861    7912.6575    455.01779    1240.2174    87.309924   -5170.8511 
21402000    129.81978   -6684.6072   -6350.6537   -6684.6072            0     6643.426    23.228558    21.258935    21.447637    10591.152    5548.8473    6957.3288     7424.102     456.9261   -585.92228    869.54313   -5324.5028 
21403000    136.98324   -6665.8296   -6313.4485   -6665.8296            0    7386.5033    23.197872     21.09602    21.628527    10584.628    7053.6326    8463.5278    6642.3496     273.6752   -138.80416   -630.18452    -5173.224 
21404000    133.47743   -6675.0524   -6331.6898   -6675.0524            0    6670.4462    23.191366    21.365959    21.372892    10590.391    6092.8546    6374.4708    7544.0132   -756.83314    446.71926     759.8261   -5301.4395 
21405000    126.92115   -6668.3339   -6341.8369   -6668.3339            0    8317.7971    23.144521    21.128392    21.548756    10537.482      7731.69    9526.7552    7694.9461    448.79801   -565.06084   -770.46983   -5063.5715 
21406000    121.80066   -6672.7973   -6359.4725   -6672.7973            0    7910.4467    23.123496    21.332392    21.408982    10560.611    7739.5363    7019.4034    8972.4005    669.55829   -1040.6731    197.68991   -5141.1397 
21407000    128.02228   -6669.7966   -6340.4671   -6669.7966            0    7606.3683    23.140717     21.24249    21.470387    10554.122    7461.0926    8207.6615    7150.3508   -373.36656    709.61129   -389.36879   -5169.6869 
21408000    131.38184   -6682.8642   -6344.8924   -6682.8642            0    7245.7158    23.086395    21.249015    21.544803    10569.086    7444.9991    7426.6001    6865.5483   -228.08293   -551.35141   -676.53819    -5228.043 
21409000    133.37447   -6672.2938   -6329.1961   -6672.2938            0    7734.7789    23.244589    21.253632    21.372114    10558.507    7368.6382     7933.684    7902.0147    552.86943   -327.38213   -927.03394   -5138.1562 
21410000    127.47805   -6663.1709   -6335.2414   -6663.1709            0    7353.8139    23.104773    21.194125    21.563788    10559.473    7012.8423     7353.253    7695.3462    12.097693    620.66192    532.93857   -5202.7608 
21411000    130.93889   -6687.1464   -6350.3141   -6687.1464            0    8003.4025    23.187894    21.237294    21.410598    10543.609     7619.265    8221.9776    8168.9649   -442.21404   -512.68845   -569.32495   -5119.6492 
21412000    130.22294   -6669.0782   -6334.0876   -6669.0782            0    7248.0078    23.179434    21.341547    21.425368    10598.808    7258.8094    6000.0472    8485.1669    1234.8089   -1327.1181    750.00266   -5213.7432 
21413000    129.32934   -6662.3708    -6329.679   -6662.3708            0    7471.3254    23.081603    21.222352    21.538669    10550.628    8320.3289    7379.7446    6713.9027   -71.095146   -81.170383    371.96373   -5180.0654 
21414000     133.5647   -6692.6293   -6349.0423   -6692.6293            0    7347.7178    23.101118    21.307295    21.476991    10571.454    7597.0202    7615.7523    6830.3809    833.67606    20.996085   -794.64481   -5216.2166 
21415000    133.36085   -6674.5634   -6331.5007   -6674.5634            0    6364.5237    23.068992    21.365834    21.512612    10603.314    6692.0511    6950.0397    5451.4804    56.822768    -225.3138    369.47453   -5347.3006 
21416000    132.17811   -6651.9761    -6311.956   -6651.9761            0    8170.6359    23.053382    21.303813    21.476584    10547.686    8379.7677    8395.7791    7736.3609   -195.60737    418.81789     93.75049   -5055.0901 
21417000    137.16203   -6688.9197   -6336.0787   -6688.9197            0    7511.2047    23.082262      21.2882      21.4775     10553.61    7841.8625    7207.6793    7484.0722    -517.3082    74.571563   -842.27827   -5180.0024 
21418000    132.74613   -6661.6151   -6320.1337   -6661.6151            0    6623.7938    23.114791    21.263611    21.546393    10590.136    6131.0738    6710.4233    7029.8843    368.32039   -305.27906    1089.7673   -5297.1135 
21419000    138.19092   -6657.3113   -6301.8236   -6657.3113            0    7818.2995    23.085606    21.307495    21.472319    10562.157     8587.237    7509.4549    7358.2067   -155.93047   -512.19959    294.10525   -5097.5066 
21420000    134.08925   -6684.0982   -6339.1618   -6684.0982            0    6705.0115    23.157769    21.341358    21.431679    10591.927    5209.9544    7081.8469    7823.2333    144.33524    433.26923   -802.00832   -5303.4227 
21421000    132.24707   -6670.3137   -6330.1162   -6670.3137            0    7862.1887    23.071606    21.223345    21.535237    10544.872    8243.9391    7537.0537    7805.5732   -46.919841   -509.45457    939.27218   -5121.0205 
21422000    137.84823   -6683.0481    -6328.442   -6683.0481            0    7145.5929     23.18341    21.213141    21.481063    10564.236    7283.1248    8129.8405    6023.8133    493.13597    80.467505   -856.38209   -5227.5309 
21423000    128.37593   -6671.0066   -6340.7673   -6671.0066            0    7811.3076    23.254606    21.211113    21.388195    10549.857    6316.2315     8686.951    8430.7405   -270.54372    393.76527    116.71214   -5138.9285 
21424000    133.24027   -6691.6164   -6348.8639   -6691.6164            0    6987.7944    23.160491    21.154516    21.598929    10582.373    7405.3825    6377.5156    7180.4852   -319.62043    153.40823    276.03837   -5270.4162 
21425000    138.57878   -6688.2771   -6331.7917   -6688.2771            0     6646.722    23.274901    21.300898    21.363881    10591.706    6055.9434    6526.0353    7358.1875   -223.68942   -861.25922   -343.01609   -5305.0781 
21426000    127.14161   -6671.8137   -6344.7497   -6671.8137            0    6857.1795    23.039552    21.300509    21.604228    10602.366    7325.3289    6330.6838    6915.5258   -362.75269    403.30738    -686.7416   -5284.4609 
21427000    133.14834   -6652.8614   -6310.3454   -6652.8614            0     7379.263    23.096187    21.307439    21.466876    10564.292    6896.8061    7465.3067    7775.6763    440.61913   -212.91783    801.07961   -5173.4271 
21428000    128.70825   -6648.4672   -6317.3731   -6648.4672            0    8884.8271    23.132402    21.365616    21.289114    10521.889    7819.1525    9653.4104    9181.9185    536.33166   -271.30794   -850.16735   -4953.9878 
21429000    133.19477   -6675.0355      -6332.4   -6675.0355            0    7466.1337    23.002752    21.326272    21.539198    10566.332    8371.2822    7350.7915    6676.3274    152.13462    -27.34712   -717.76407   -5181.8754 
21430000    134.55271   -6675.4887     -6329.36   -6675.4887            0    6625.6666    23.155293    21.273426    21.471754    10576.823    7245.7447    6038.1812     6593.074   -525.13826   -78.075243    1315.1199   -5307.3369 
21431000    131.99352   -6674.8031   -6335.2578   -6674.8031            0    7765.8447    23.212398    21.189878    21.451786    10551.445     7372.126    8594.1679    7331.2401    -187.7766   -392.48919   -851.24345   -5140.2341 
21432000    133.89577    -6664.214   -6319.7752    -6664.214            0    7077.8119    23.345129     21.09577    21.467934    10572.602    5142.1419     9311.765    6779.5288   -122.97348    417.14113    -41.51452   -5228.4434 
21433000    127.54867   -6675.2682    -6347.157   -6675.2682            0    7094.9445    23.261361    21.136613    21.516598    10578.988    6593.1995    7257.5718    7434.0623    390.08134   -409.29812   -424.30145   -5252.5228 
21434000    129.99581   -6675.4223   -6341.0161   -6675.4223            0    7404.1334    23.319735    21.095031    21.489824    10571.501    7321.9234    8322.2485    6568.2284   -491.09947   -260.14979   -130.98705   -5199.4875 
21435000    133.70171   -6661.3959   -6317.4564   -6661.3959            0    7853.8107    23.326228    21.025252    21.475882    10532.628    7209.0707    8715.0607    7637.3007   -269.55117    233.92504    331.07573   -5111.0516 
21436000    135.93585   -6672.8705   -6323.1838   -6672.8705            0    6770.3034    23.248552    21.236773    21.489493    10609.883    6160.2816    7535.0257    6615.6029   -85.575461    666.23001   -47.892854   -5275.5859 
21437000    130.48564   -6690.6313   -6354.9649   -6690.6313            0    6657.1269     23.15557     21.28188     21.49851    10594.338    6231.8175    6788.1535    6951.4097    776.84569   -823.94906   -371.14054   -5326.3885 
21438000     134.0626   -6658.0623   -6313.1945   -6658.0623            0    8230.8013    22.962805    21.330945    21.533006    10547.261    9835.5743    7031.5332    7825.2964    110.56193    126.60147   -61.327299   -5047.1245 
21439000    127.19343   -6686.6186   -6359.4213   -6686.6186            0     6018.263    23.075773    21.480957    21.391473    10603.532    6547.3948    5758.3263    5749.0678   -198.25983    597.24463    -769.1174   -5428.7472 
21440000    136.67542   -6650.8274   -6299.2382   -6650.8274            0    8476.3416    22.913033    21.366378    21.538497     10544.57    11136.906    7943.6711    6348.4481    750.22067    -1457.456   -1508.1694   -4995.7316 
21441000    135.22226   -6660.9458   -6313.0947   -6660.9458            0    7730.0193    23.086009     21.28084    21.448114    10537.237    8410.1745    7883.1328    6896.7506    44.959301     540.5582    266.01646   -5125.1857 
21442000    132.81821   -6667.7094   -6326.0427   -6667.7094            0    8040.8712    23.142015    21.288381    21.426359    10555.825     8322.166    8175.0977    7625.3499    -273.7146   -963.33004   -516.20595   -5088.1837 
21443000    130.01649   -6680.5641   -6346.1046   -6680.5641            0    5661.3376    23.176377     21.25071    21.632677    10654.406    6120.1315    5162.4637    5701.4177    -173.4261   -276.26092    715.46563   -5466.4256 
21444000    135.83282   -6679.0251   -6329.6034   -6679.0251            0    6503.3773    23.229395     21.28686    21.437286    10600.328    6433.5871    5947.4897    7129.0551    316.94073   -1270.0753    780.52575   -5324.2144 
21445000    131.09256    -6655.332   -6318.1044    -6655.332            0    7928.5057       23.168    21.254324    21.439924    10557.451    7812.5973    7316.5177    8656.4021   -621.99226    524.09619    184.74627   -5097.3555 
21446000    130.28811    -6675.824   -6340.6658    -6675.824            0    6945.4404    23.202533    21.128002    21.615417    10596.378    6461.2808    7609.4382    6765.6022    965.48731   -641.16232    21.525757   -5267.3362 
21447000    130.94932   -6664.2069   -6327.3477   -6664.2069            0    6764.3416    23.289349    21.238565    21.409984    10590.071    6795.1095    6314.2857    7183.6295    42.263307    106.64818    527.00245   -5282.6268 
21448000    134.92114   -6667.3142   -6320.2378   -6667.3142            0    7927.9756    23.150762    21.131203    21.574044    10554.097    8099.2383    8543.7417    7140.9468    55.272527    288.24871   -491.99448   -5099.9584 
21449000    136.97419   -6669.4105   -6317.0528   -6669.4105            0    8170.2787    23.081852    21.253334    21.470325    10532.618     8089.954    8544.8725    7876.0096    745.23435   -728.62963    281.99079   -5062.0373 
21450000    130.74353   -6679.5532   -6343.2234   -6679.5532            0    6397.8159    23.171483    21.332482    21.402646     10579.44    6409.6542    5569.1364     7214.657    126.75265   -253.56486    195.46692   -5356.1026 
21451000    135.86273   -6677.3195   -6327.8209   -6677.3195            0    7589.3692    23.033568    21.344731    21.521413    10580.902    8320.4357    7861.1407    6586.5311   -1107.1015    291.87028   -1057.0516   -5156.6932 
21452000    133.32565   -6677.4688   -6334.4967   -6677.4688            0    7450.6596    23.118714    21.306825    21.431896     10557.06    6459.3843     7883.659    8008.9356    353.36761    62.690191    648.44656   -5187.3641 
21453000    125.73511   -6688.3152   -6364.8693   -6688.3152            0    6071.6786    23.191168    21.292022    21.477953    10605.531    5981.6117    5530.1755    6703.2488    491.32616   -246.58691    290.88644   -5425.7579 
21454000    130.90727   -6671.9259   -6335.1749   -6671.9259            0    7438.4999     23.13651    21.233921    21.545246    10584.723    7035.0666     8920.472    6359.9609     1114.405     128.6914   -465.87307   -5186.9136 
21455000    131.38062   -6679.6713   -6341.7027   -6679.6713            0    7036.0967    23.293531    21.212731    21.377966    10563.268    5844.3383    7674.8677    7589.0842    48.305336    126.55711    57.148957   -5257.7609 
21456000    128.98715    -6683.301   -6351.4894    -6683.301            0    7094.2368    23.219883    21.132289    21.558532    10578.541    7225.6331    8002.1107    6054.9667   -461.64838   -381.68978    358.03891   -5257.0107 
21457000    125.66295   -6666.5293   -6343.2691   -6666.5293            0    8114.9428    23.194302    21.221494    21.444484    10555.355    8322.9473    7574.3551    8447.5259   -486.26727     123.1275   -22.987648   -5094.0626 
21458000    130.92645   -6666.2203     -6329.42   -6666.2203            0    7335.0711    23.153889    21.234905    21.482576    10562.351    6637.5904    7519.3897    7848.2332    366.12959    904.55816    602.50294   -5199.5179 
21459000    136.44308   -6669.4812   -6318.4897   -6669.4812            0    7977.1908    23.105377    21.283403    21.467096    10556.682    9142.6881    7589.0287    7199.8555   -300.36114    514.19177   -477.69537   -5090.3344 
21460000    131.32629   -6674.3679   -6336.5391   -6674.3679            0      7230.81    23.101045    21.371856    21.436097    10583.262    7691.3648     6926.696    7074.3693   -1013.5961   -298.46113   -367.19282   -5220.4923 
21461000    136.25102   -6679.3268   -6328.8294   -6679.3268            0    6439.7947    23.154482    21.286533    21.517114    10605.326    6172.0155    6342.7264    6804.6423   -152.52097    41.201976    686.40616   -5332.8005 
21462000     132.0678   -6677.8499   -6338.1135   -6677.8499            0    7765.2635    23.089794    21.290044    21.466272    10552.448    7836.0522    7798.1629    7661.5754   -931.51238    196.50551    -266.6515   -5143.0656 
21463000    128.74139   -6668.2106   -6337.0312   -6668.2106            0    7290.9167    23.237884    21.242083    21.449699    10588.023    7382.1836    6974.5747     7515.992   -39.926147    479.96861    -1122.179    -5211.201 
21464000    128.99918   -6662.9845    -6331.142   -6662.9845            0    7674.1465    23.112856    21.245369    21.499337    10557.059    8231.1022    6997.2547    7794.0825   -172.46752   -1239.3488    958.80031   -5149.6006 
21465000    123.84428   -6672.1897   -6353.6078   -6672.1897            0    6385.6536    23.277494    21.215497    21.442369    10589.177    6679.4264    6231.5635    6245.9708   -266.64836   -801.33612   -486.07661   -5367.4567 
21466000    135.72285   -6681.2779   -6332.1392   -6681.2779            0    8010.3249    23.176446    21.245168    21.407628    10540.848    7522.8503    8519.2634    7988.8611   -669.83106    422.77457   -388.54193   -5100.7323 
21467000    135.02179   -6683.0174   -6335.6821   -6683.0174            0    6863.9996    23.140878    21.128699    21.625632    10573.564    7007.5198    7069.1304    6515.3484    91.675122   -163.26817    300.42242   -5277.2219 
21468000    138.45146   -6681.4696   -6325.3116   -6681.4696            0    6629.9646    23.201254    21.271196    21.453566     10587.73    6130.7181    7114.4915    6644.6842   -763.61599   -309.76723   0.31090975    -5301.571 
21469000    132.03634   -6671.9357   -6332.2802   -6671.9357            0    8195.1119    23.315879    21.175635    21.321091    10526.831      6830.26    8528.8213    9226.2543    902.97772    158.04495     1137.183   -5074.1418 
21470000    127.48714   -6681.5037   -6353.5508   -6681.5037            0    7044.4623     23.09343    21.150319    21.630439    10565.029    6862.0287    7228.0035    7043.3546   -684.77855    606.73596    1345.3543   -5268.1392 
21471000    131.81848   -6679.9654   -6340.8704   -6679.9654            0    7665.0664     23.18363    21.293784    21.369009    10549.179    6963.0759    7904.6146    8127.5088    158.20631    826.55034   -197.19144   -5161.6079 
21472000    132.08637   -6685.0281    -6345.244   -6685.0281            0     7919.643    23.008501    21.360967    21.473552    10553.904    8252.3687    7007.3022     8499.258    361.70131    263.64275    504.07343   -5126.2695 
21473000    129.93451   -6682.3609   -6348.1122   -6682.3609            0    6832.3831    23.003797    21.429466    21.494318     10595.82    7543.6878    5792.9865    7160.4749    218.59388    332.64208   -106.17442   -5292.3098 
21474000     132.4568   -6654.8636   -6314.1265   -6654.8636            0    7624.3528     23.06386    21.380289    21.432167    10568.458     7262.018    8733.8271    6877.2131   -405.84669   -680.85838   -1099.5917   -5138.9841 
21475000    130.53202   -6675.0576    -6339.272   -6675.0576            0    7210.9443    23.124802    21.216589    21.524841     10560.72     6904.884    7572.1549    7155.7941     518.6122   -34.067779    671.07146    -5228.662 
21476000    132.02361   -6666.7691   -6327.1465   -6666.7691            0    9046.0321    23.196543    21.082657    21.459647    10494.728    9312.9254    9201.7466    8623.4243    149.95681   -997.04584   -587.12595   -4942.6075 
21477000    135.95593   -6656.2951   -6306.5568   -6656.2951            0    6447.9419    23.258971    21.204485    21.489314    10598.412    5937.3324    6575.5121    6830.9813   -1109.5838    -201.4636   -291.63636    -5309.918 
21478000    133.68013   -6651.5218   -6307.6378   -6651.5218            0    8001.4081     23.20039    21.112091    21.527322    10544.271    7645.3812    8238.0457    8120.7975    288.57068    223.12545    60.881758   -5077.2023 
21479000    135.28429   -6679.7214   -6331.7108   -6679.7214            0    6203.9004    23.238967    21.275134    21.447173    10603.743    5545.2445    6457.7267    6608.7301   -218.53792    -249.6307   -396.87434   -5372.3104 
21480000    132.65467   -6652.1008   -6310.8547   -6652.1008            0    8616.5994    23.130916    21.201872    21.477038    10532.742    8582.7003     9327.408      7939.69    -488.1975    688.89793   -1370.5514   -4987.2655 
21481000    137.53432    -6674.512   -6320.7133    -6674.512            0    5864.9388    23.099899    21.318399    21.562869    10618.697    5959.4637    6107.9208    5527.4318    168.49476   -144.44193   -60.760168   -5412.4525 
21482000    134.85919   -6669.6823   -6322.7652   -6669.6823            0    6937.9564    23.018172    21.342456    21.524301    10574.122     7880.082    7274.0885    5659.6987   -90.275506   -272.07986   -306.78985   -5252.8441 
21483000    130.61903   -6680.7495     -6344.74   -6680.7495            0    6771.4047    23.086495    21.292802    21.536734    10586.945    7513.8022    7025.8593    5774.5526   -809.32395    42.455674   -805.58709   -5299.2369 
21484000    131.09048   -6665.7928   -6328.5705   -6665.7928            0    7729.1489     23.12468    21.230916    21.466617     10539.21    7720.1698     8195.629     7271.648    55.724418    143.10304    355.85182   -5140.5727 
21485000    130.51111    -6672.102   -6336.3701    -6672.102            0    7063.0358    23.120119    21.216918    21.563535    10577.726    7604.9993    7163.4267    6420.6813    751.44123    146.81438   -372.42605   -5246.7889 
21486000    125.25492   -6652.8444   -6330.6337   -6652.8444            0    8245.5703    23.181467    21.224799    21.374871    10516.907    8313.5328    8554.2412    7868.9368   -274.86893   -478.98115   -730.98663   -5065.9422 
21487000    131.28042   -6683.9401   -6346.2292   -6683.9401            0    7115.2867    23.177909    21.156467    21.545139    10564.932    6806.5681    7418.2781    7121.0137    1213.6855    164.25861    1093.9972   -5249.9151 
21488000    132.75365   -6656.0936   -6314.5929   -6656.0936            0    7515.2761    23.237522    21.295897    21.380742    10580.557    7638.8224    6984.3639    7922.6419   -527.85508   -412.45927    473.50391   -5154.9365 
21489000    126.31116   -6667.3552   -6342.4274   -6667.3552            0    6247.1302    23.162353    21.291574    21.543742    10624.576    6469.9647    5715.7414    6555.6846   -678.96577    559.99243   -780.73586   -5374.4437 
21490000    130.49101   -6664.2154   -6328.5352   -6664.2154            0    7413.9856    23.091609    21.277087    21.518384    10572.459    7707.0909    6968.4541    7566.4118   -37.958369    1254.2329    146.30451   -5185.3841 
21491000    132.63273   -6680.7463   -6339.5566   -6680.7463            0    7918.7838     23.16502    21.327673    21.360874    10553.468    6202.5048    8600.2544    8953.5922    878.25735    422.06218   -525.61067   -5120.7648 
21492000     128.5003   -6665.4193   -6334.8601   -6665.4193            0    8568.7373    23.031207    21.217947     21.58646    10548.762    9326.3059    8497.1919    7882.7139    1243.9833   -816.55722   -248.61742   -5016.6209 
21493000     131.5394   -6659.9771      -6321.6   -6659.9771            0    7970.5662    23.174044    21.232601    21.419989    10539.603    7986.7109     8024.211    7900.7766    232.95307   -45.501645    1236.2119   -5096.4498 
21494000    132.19962   -6675.3105    -6335.235   -6675.3105            0    7560.1702    23.225994    21.231382    21.415469    10560.395    7409.2693    6362.5608    8908.6806   -243.56457    31.354373   -190.91598   -5170.8741 
21495000    134.58172   -6654.7418   -6308.5385   -6654.7418            0    7405.8415    23.117072    21.254073     21.55556    10590.935    7710.8567    7171.1426    7335.5253   -434.11688   -287.27445    164.28441   -5164.6476 
21496000    131.08976   -6677.0437   -6339.8233   -6677.0437            0    6372.3634    23.189037    21.233224    21.530341    10601.066    6213.4898    6036.2648    6867.3357   -479.16436    229.94146    1044.2646   -5354.6197 
21497000    131.95471   -6666.7037   -6327.2583   -6666.7037            0     8213.297    23.121027    21.327057    21.376217    10540.686    8813.3707    7895.4336    7931.0867   -1233.5964    150.25032   -595.73833   -5064.6684 
21498000    135.86402   -6672.8339   -6323.3319   -6672.8339            0    7553.9692    23.012078    21.257449    21.601705    10567.081    8440.3774    7563.3758    6658.1544   -412.55106   -415.46593   -624.79557   -5159.1895 
21499000    131.22372     -6673.17    -6335.605     -6673.17            0    7903.0686    23.071901    21.289526    21.443785    10532.969    7685.5448    8516.2142    7507.4469   -391.99103    293.64115   -404.31727   -5121.5944 
21500000    139.35333   -6661.4997   -6303.0218   -6661.4997            0     7374.767    23.114258     21.38432    21.393896    10574.632     8322.248    5923.7602    7878.2928   -685.26642   -58.896665   -353.65087    -5165.684 
Loop time of 492.231 on 64 procs for 250000 steps with 1296 atoms

Performance: 87.764 ns/day, 0.273 hours/ns, 507.892 timesteps/s
99.2% CPU use with 64 MPI tasks x 1 OpenMP threads

MPI task timing breakdown:
Section |  min time  |  avg time  |  max time  |%varavg| %total
---------------------------------------------------------------
Pair    | 30.525     | 41.622     | 53.273     | 110.5 |  8.46
Bond    | 0.27878    | 0.28713    | 0.29961    |   0.7 |  0.06
Kspace  | 238.06     | 250.23     | 261.69     |  45.3 | 50.84
Neigh   | 1.8462     | 1.8597     | 1.8765     |   0.5 |  0.38
Comm    | 87.975     | 89.135     | 91.017     |   7.7 | 18.11
Output  | 0.60108    | 0.60251    | 0.60482    |   0.1 |  0.12
Modify  | 97.814     | 99.259     | 101.47     |   7.7 | 20.17
Other   |            | 9.233      |            |       |  1.88

Nlocal:        20.2500 ave          27 max          14 min
Histogram: 4 6 8 11 5 3 13 6 6 2
Nghost:        2649.08 ave        2683 max        2618 min
Histogram: 1 2 7 10 21 8 5 4 3 3
Neighs:        6600.88 ave        8798 max        4503 min
Histogram: 3 7 8 10 6 3 11 8 6 2

Total # of neighbors = 422456
Ave neighs/atom = 325.96914
Ave special neighs/atom = 2.0000000
Neighbor list builds = 3469
Dangerous builds = 0

unfix		3
unfix		2
unfix		1

write_data	data.final.${pid}
write_data	data.final.0
System init for write_data ...
PPPM initialization ...
  extracting TIP4P info from pair style
  using 12-bit tables for long-range coulomb (../kspace.cpp:340)
  G vector (1/distance) = 0.36965522
  grid = 30 40 32
  stencil order = 5
  estimated absolute RMS force accuracy = 0.0040451094
  estimated relative force accuracy = 1.2181727e-05
  using double precision FFTW3
  3d grid and FFT values/proc = 5168 640
Last active /omp style is kspace_style pppm/tip4p/omp
WARNING: Not all mixed pair coeffs generated from mixing. Use write_data with 'pair ij' option to store all pair coeffs. (../write_data.cpp:312)

write_restart   restart.lmp.${pid}
write_restart   restart.lmp.0
System init for write_restart ...
PPPM initialization ...
  extracting TIP4P info from pair style
  using 12-bit tables for long-range coulomb (../kspace.cpp:340)
  G vector (1/distance) = 0.36965522
  grid = 30 40 32
  stencil order = 5
  estimated absolute RMS force accuracy = 0.0040451094
  estimated relative force accuracy = 1.2181727e-05
  using double precision FFTW3
  3d grid and FFT values/proc = 5168 640
Last active /omp style is kspace_style pppm/tip4p/omp
Total wall time: 0:08:12
