LAMMPS data file via write_data, version 30 Jul 2021, timestep = 10500000

1008 atoms
2 atom types
672 bonds
1 bond types
336 angles
1 angle types

-3.1602292828579532 14.770228282408501 xlo xhi
-0.2128643191009214 22.79286331909197 ylo yhi
0.07082123709036381 19.159176762910818 zlo zhi
-0.29045006169929455 -6.713875874772561 0.08060146907651118 xy xz yz

Masses

1 1.008
2 15.999

Pair Coeffs # lj/cut/tip4p/long/omp

1 0 0
2 0.21084 3.1668

Bond Coeffs # harmonic/omp

1 450 0.9572

Angle Coeffs # harmonic/omp

1 55 104.52

Atoms # full

55 19 2 -1.1794 -0.7667141684382939 3.8585825741448767 3.481684670490543 0 0 0
56 19 1 0.5897 -1.3927909598856525 3.547152521169654 2.828064358213957 0 0 0
57 19 1 0.5897 0.0436743849771144 3.996229645847751 2.991358842520057 0 0 0
121 41 2 -1.1794 -2.7220754930506925 2.1374463617297095 2.3613705939115466 1 0 0
122 41 1 0.5897 -2.7418669465187717 1.6865151882184533 1.5173286145852667 1 0 0
21 7 1 0.5897 1.1697997497777166 2.2560166174219947 0.9223002436763814 0 0 0
31 11 2 -1.1794 1.4085322761922239 0.9158694091151669 2.3362124143177994 0 0 0
86 29 1 0.5897 -2.2810157559612634 1.5470112598944192 4.098493582449108 1 0 0
32 11 1 0.5897 1.3277739774388895 1.1815086080132977 3.2521826266243146 0 0 0
46 16 2 -1.1794 1.797627689399624 4.491383926379473 2.364843437108797 0 0 0
72 24 1 0.5897 4.574346319952631 -0.20154802100440403 1.836403611924921 0 0 0
402 134 1 0.5897 1.1080544035555464 -0.023717674633428443 7.9922887945489025 0 1 0
60 20 1 0.5897 2.5311025619959473 3.642554098064637 6.783103416329949 0 0 0
527 176 1 0.5897 4.067754089542587 1.8450383029683692 0.5701638594296918 0 0 1
16 6 2 -1.1794 5.449313364775147 4.930181163188709 0.2933113213466724 0 0 0
157 53 2 -1.1794 -3.8605561228051357 4.620201116972637 5.016486389611689 1 0 0
71 24 1 0.5897 3.15458287111064 0.31223634126641264 1.9475943263414355 0 0 0
54 18 1 0.5897 3.0783287205051373 3.442748094238704 3.254239169984275 0 0 0
43 15 2 -1.1794 -0.6716676422964158 4.957594674515076 7.152264671568519 0 0 0
53 18 1 0.5897 4.472523719039716 2.853013920031662 3.230935590339332 0 0 0
123 41 1 0.5897 -3.639281079791909 2.337873006857088 2.5479291430360607 1 0 0
52 18 2 -1.1794 3.705522089699887 2.9606713009079217 3.793291426203151 0 0 0
47 16 1 0.5897 2.1502271549398984 4.842384005237373 1.5471895134088496 0 0 0
68 23 1 0.5897 -3.0759616677053723 -0.06984714243401272 7.9973581189696565 0 0 0
97 33 2 -1.1794 -4.398072540514535 4.735756152124543 9.369191802693235 1 0 0
67 23 2 -1.1794 -2.3884928856475427 0.28624672031138154 8.560175339129046 0 0 0
5 2 1 0.5897 2.939353435371965 0.16142403859166765 4.962753646714914 0 0 0
159 53 1 0.5897 -3.323497234051519 4.142653416300625 5.64881508362609 1 0 0
87 29 1 0.5897 -3.285168661266659 1.0175580805703128 5.099919276365893 1 0 0
85 29 2 -1.1794 -2.3610342532140836 1.2476683023128372 5.004086071985904 1 0 0
45 15 1 0.5897 0.2583333865142148 4.831187932598262 6.964279286308336 0 0 0
78 26 1 0.5897 -0.011907201765492204 2.3336866117884076 4.529997807433847 0 0 0
76 26 2 -1.1794 0.6780708048868185 1.767968542047743 4.876831635988316 0 0 0
59 20 1 0.5897 1.5445055177516922 3.302518666702424 5.686386006564654 0 0 0
4 2 2 -1.1794 3.700886486942915 0.702540891809972 5.171193818289136 0 0 0
602 201 1 0.5897 -0.7125551982861342 5.183384537003853 0.7628165995614814 1 0 1
34 12 2 -1.1794 -0.03594385606905215 1.295853443072249 7.428147910707568 0 0 0
35 12 1 0.5897 0.23596264917185783 1.9365728595346332 8.085220418229639 0 0 0
36 12 1 0.5897 -0.8173441929073095 0.8871856773147024 7.800322468825222 0 0 0
113 38 1 0.5897 -3.481058433993687 5.476035574526428 3.523834216399531 1 0 0
70 24 2 -1.1794 3.880922148916346 0.22252204843376044 1.330756581409756 0 0 0
6 2 1 0.5897 3.609353636115788 1.4722406199881215 4.609486754037925 0 0 0
58 20 2 -1.1794 1.8472834517369634 4.02663102633967 6.23429767171048 0 0 0
33 11 1 0.5897 0.6511390888076596 0.3511852832433191 2.182386401015287 0 0 0
669 223 1 0.5897 -5.373739212038747 1.4154678071182092 8.940632729423236 1 0 0
124 42 2 -1.1794 -5.221211212467262 2.314443569042028 7.413598565641425 1 0 0
126 42 1 0.5897 -4.365953966098298 2.7380710517904037 7.485932981711918 1 0 0
77 26 1 0.5897 0.3881160327936408 1.5514603228802881 5.762901115936346 0 0 0
134 45 1 0.5897 -2.3836507946413814 2.4217805761365967 6.309014465838925 1 0 0
133 45 2 -1.1794 -2.615581837318169 3.069589688488054 6.974410918753428 1 0 0
69 23 1 0.5897 -2.7295143213790585 1.1327172158623338 8.849226176113127 0 0 0
135 45 1 0.5897 -1.8266887334502595 3.601954374647789 7.076390648401285 1 0 0
98 33 1 0.5897 -4.320960235812136 5.203230064702948 8.537533690155863 1 0 0
401 134 1 0.5897 2.128503711560956 0.0719889184546273 9.106456745137951 0 1 0
11 4 1 0.5897 2.3340234370715507 5.516430413854222 5.030939670360319 0 0 0
158 53 1 0.5897 -4.33007364926805 3.937835339722213 4.53676886385412 1 0 0
48 16 1 0.5897 1.7619184032351694 5.245109272692007 2.9537924354818985 0 0 0
44 15 1 0.5897 -0.6883686447193957 5.36152680221353 8.019826751235392 0 0 0
18 6 1 0.5897 4.9493494977287895 4.113945838126817 0.30009937699541006 0 0 0
114 38 1 0.5897 -3.443996444758654 5.183963938408927 2.0389579030401768 1 0 0
22 8 2 -1.1794 0.38166079846886136 2.9678008216839435 9.508375221757621 0 0 0
526 176 2 -1.1794 3.966084901508606 2.677725681257935 0.10902287551519516 0 0 1
572 191 1 0.5897 -6.466966945549944 -0.10937284869333018 17.390952478729876 0 0 0
626 209 1 0.5897 -5.796905214537891 1.6829432786548695 12.671947902333503 1 0 0
574 192 2 -1.1794 0.4609203140569149 0.7336766672891604 11.246470782282053 0 0 0
556 186 2 -1.1794 0.3830007018313708 3.5145236331437357 12.71285673521284 0 0 0
536 179 1 0.5897 -2.1967613447580483 1.6418146127581685 13.204813025059117 0 0 0
508 170 2 -1.1794 0.44279086966768233 1.1910227901186714 14.412967843634883 0 0 0
525 175 1 0.5897 -1.6650827746391377 2.9384953320388387 9.998448848396379 0 0 0
552 184 1 0.5897 -2.8005330620690625 4.79469979652524 11.86416071315256 0 0 0
535 179 2 -1.1794 -2.0471565063985313 1.1622986520014953 12.390063005938952 0 0 0
576 192 1 0.5897 -0.39612106303588046 0.6329022925741523 11.660534701063511 0 0 0
537 179 1 0.5897 -2.240041529840534 1.79657413711326 11.699574288862346 0 0 0
561 187 1 0.5897 -3.6661416098047086 3.7450184076984687 13.448052838636967 0 0 0
592 198 2 -1.1794 -8.301043622380593 1.038334285359791 14.749320913565649 1 0 0
663 221 1 0.5897 -7.605695429775413 4.449098395686823 13.934093747546413 1 0 0
520 174 2 -1.1794 2.1660420501948163 5.072997940629919 9.726724802361066 0 0 0
557 186 1 0.5897 0.08104123884864034 2.6717351370222304 13.05168102273686 0 0 0
558 186 1 0.5897 -0.2704633992126846 3.7576245728741773 12.056987032414149 0 0 0
559 187 2 -1.1794 -4.214650137245798 4.221475815936215 12.824786834027872 0 0 0
560 187 1 0.5897 -4.801482047847083 3.5566155872890217 12.46451185983548 0 0 0
625 209 2 -1.1794 -6.128150130999899 2.3650128689932615 12.087644826455636 1 0 0
668 223 1 0.5897 -5.902825837481807 1.5705273699499203 10.350410169414682 1 0 0
591 197 1 0.5897 -5.016339916943613 0.17456156506109005 14.711015530929194 1 0 0
580 194 2 -1.1794 -2.5587517392843795 2.813191306511028 14.405235714017747 0 0 0
601 201 2 -1.1794 -7.538975172120876 4.6694985797028785 19.109487160856347 1 0 0
589 197 2 -1.1794 -5.7087591439638565 0.7918978238243239 14.47464706479993 1 0 0
24 8 1 0.5897 1.0601912355797447 3.6159972538111846 9.69715453988709 0 0 0
630 210 1 0.5897 -8.300251496373534 1.9785804253477277 16.22545358965092 1 0 0
627 209 1 0.5897 -6.953953449497727 2.641370476202871 12.484967074010319 1 0 0
547 183 2 -1.1794 -3.6896932763308987 4.894203392252076 16.811301901011028 0 0 0
582 194 1 0.5897 -1.8804287368717505 3.310995884429116 14.861586669822662 0 0 0
23 8 1 0.5897 0.5655054403935291 2.245855387380467 10.10947967962095 0 0 0
593 198 1 0.5897 -7.37016375826979 0.8432262752505366 14.64150830472915 1 0 0
639 213 1 0.5897 -5.905115525966483 3.7398916361992876 15.194554676338248 1 0 0
538 180 2 -1.1794 -3.1919018898757896 1.1243903787576117 16.872273350245454 0 0 0
540 180 1 0.5897 -4.121682197409826 0.9003668150380884 16.91102601051561 0 0 0
550 184 2 -1.1794 -1.9528714107969023 5.226345281419241 11.75783228472279 0 0 0
539 180 1 0.5897 -3.074099146494377 1.7798059409937086 17.559841093232407 0 0 0
638 213 1 0.5897 -6.276322903040928 3.137076168468427 16.532607991684177 1 0 0
549 183 1 0.5897 -4.345323615310949 4.204360026469941 16.708985401008807 0 0 0
562 188 2 -1.1794 -1.0927989408606047 4.046075207832932 16.3051636074028 0 0 0
563 188 1 0.5897 -0.8935559755733458 4.854135478540116 15.832289242555449 0 0 0
564 188 1 0.5897 -1.999910447830067 4.153099422621673 16.591318512034462 0 0 0
164 55 1 0.5897 -8.298386005521936 1.483788442997811 18.3662536409368 1 0 -1
628 210 2 -1.1794 -8.258085652281522 2.6466923736813084 16.909582241418374 1 0 0
637 213 2 -1.1794 -5.5891761321693085 3.1355944876843416 15.866364240576747 1 0 0
165 55 1 0.5897 -9.40506853345859 0.48275008481813786 18.62107738174258 1 0 -1
581 194 1 0.5897 -2.964969380479623 2.279358624137812 15.087970183671047 0 0 0
590 197 1 0.5897 -5.622624986535252 1.5036273359368197 15.10887715106215 1 0 0
20 7 1 0.5897 -5.5589623840236095 2.034857666753345 18.527330239534344 0 0 -1
571 191 2 -1.1794 -5.715694749423124 0.42324186744985426 17.651909889395828 0 0 0
575 192 1 0.5897 1.066940627611575 0.28592861193918134 11.836891404489945 0 0 0
510 170 1 0.5897 0.3888642745496531 1.316114100432002 15.360341911606078 0 0 0
523 175 2 -1.1794 -2.5490254020468477 2.639108235509172 10.210946166212308 0 0 0
163 55 2 -1.1794 -8.737962966807682 1.0037404934951373 19.067970434152535 1 0 -1
661 221 2 -1.1794 -6.982867884377439 5.095715701950925 14.266029001332521 1 0 0
548 183 1 0.5897 -3.9069729143530028 5.534273345769431 16.133505745247344 0 0 0
667 223 2 -1.1794 -5.5320703066122965 0.9259099677482485 9.747702927261448 1 0 0
629 210 1 0.5897 -8.976407631667819 3.245498642816539 16.704988301574495 1 0 0
99 33 1 0.5897 -4.366637658662842 5.423168275203759 10.03454683780781 1 0 0
987 329 1 0.5897 -3.3969760132977505 -0.05820279361346589 11.802825131228387 1 1 0
606 202 1 0.5897 -6.062203071470289 4.888855119176291 9.752308329848644 1 0 0
614 205 1 0.5897 -7.745412349013542 5.223407655743138 17.295367196749524 1 0 0
986 329 1 0.5897 -4.393459345269976 -0.04029378554641505 10.663280488692816 1 1 0
573 191 1 0.5897 -5.238526516603282 -0.12415328521281847 18.2756198355381 0 0 0
101 34 1 0.5897 -9.363972111962173 4.362319312729385 19.153446143457387 1 0 -1
603 201 1 0.5897 -6.779214799954179 4.088548768587559 19.150065533714965 1 0 0
19 7 2 -1.1794 -5.44921862383357 2.7508790629742608 19.153024250896387 0 0 -1
524 175 1 0.5897 -3.126072423247945 3.2499895871775455 9.752433066710273 0 0 0
528 176 1 0.5897 -3.694531312339554 2.887558656543046 19.14103011396404 0 0 0
289 97 2 -1.1794 -2.808342840073883 9.889588719353528 2.748400646028738 1 0 0
332 111 1 0.5897 -2.3601392236709793 9.009156913818119 1.0543766068103175 1 0 0
255 85 1 0.5897 -2.700500297568222 8.887257715438533 4.210989839632801 1 0 0
147 49 1 0.5897 -1.3224713920181579 7.200775928444825 1.057243592610079 1 0 0
146 49 1 0.5897 -1.7257978496776527 6.46387261776175 2.3165712723076193 1 0 0
145 49 2 -1.1794 -0.9721846330344737 6.648335114291542 1.7561004641408973 1 0 0
109 37 2 -1.1794 -4.473061667039726 6.305676078082486 7.146798404548291 1 0 0
112 38 2 -1.1794 -3.298409691887296 5.882635304004705 2.676822830232364 1 0 0
588 196 1 0.5897 -1.3618332238175408 6.930518978095115 9.133649764507693 0 0 0
111 37 1 0.5897 -5.3950688035017995 6.542783496635489 7.2465569465135315 1 0 0
522 174 1 0.5897 1.986949083864042 5.781974534812562 9.10899683708542 0 0 0
110 37 1 0.5897 -4.407418222110884 5.968082854461774 6.25360128477273 1 0 0
201 67 1 0.5897 1.5283170983702208 8.317076605774956 2.237121541087502 0 0 0
188 63 1 0.5897 0.7252120812557856 9.938304181294496 1.0054064555913094 0 0 0
200 67 1 0.5897 0.02894648191397131 8.185073736512916 2.0749372143548634 0 0 0
8 3 1 0.5897 -0.6640994636489368 5.983654942706742 5.676803094206774 0 0 0
199 67 2 -1.1794 0.712787451178643 8.813519292918476 2.306451125788271 0 0 0
239 80 1 0.5897 3.324268081141563 8.714271387398883 1.3261749591214915 0 0 0
238 80 2 -1.1794 3.3234776096513503 7.811355025608968 1.6441379124278979 0 0 0
173 58 1 0.5897 3.238378851817602 7.8048376644771285 4.757772177680729 0 0 0
10 4 2 -1.1794 2.0126969217945003 6.273517321222741 4.541095276829758 0 0 0
240 80 1 0.5897 2.9839228172346415 7.29881999277182 0.9105325572289139 0 0 0
245 82 1 0.5897 0.7454842947816394 9.7511080199586 3.968981603232379 0 0 0
301 101 2 -1.1794 -2.753466302847425 10.923524775459564 6.584827750637738 1 0 0
66 22 1 0.5897 2.5529276887243757 6.8688993246826335 7.389076863612376 0 0 0
172 58 2 -1.1794 3.6999379757687265 8.578473754224207 5.081317359303498 0 0 0
12 4 1 0.5897 1.086129248424733 6.334178013268751 4.77344219919549 0 0 0
220 74 2 -1.1794 3.257459181135083 10.70121179786747 3.34954580763812 0 0 0
187 63 2 -1.1794 0.8460918367212766 10.554563389016415 0.28303907078789714 0 0 0
65 22 1 0.5897 2.4052813541247966 7.750814337117406 8.610586226918278 0 0 0
291 97 1 0.5897 -3.6688772457354633 10.30792960626399 2.719897736928942 1 0 0
837 279 1 0.5897 -6.1242822452292565 8.155338111493645 9.05826724146502 1 0 0
254 85 1 0.5897 -2.126378447700788 7.681738855484397 4.924715624165495 1 0 0
253 85 2 -1.1794 -2.77789289916627 8.377004179516726 5.017100741236528 1 0 0
302 101 1 0.5897 -2.3049472544913407 10.138592119211598 6.2700546966254604 1 0 0
244 82 2 -1.1794 0.5224885414877218 10.338930570479384 4.690724372181742 0 0 0
290 97 1 0.5897 -2.187761464196441 10.609618834079512 2.63596805738038 1 0 0
294 98 1 0.5897 -5.159626424918789 9.883385169660563 8.261531201770532 1 0 0
29 10 1 0.5897 4.856884387459663 7.071218047004797 2.395910857836486 0 0 0
7 3 2 -1.1794 -0.7648203619085838 6.363171931051348 4.803903143328237 0 0 0
64 22 2 -1.1794 1.9077111666634945 7.182518059443434 8.022684856785515 0 0 0
237 79 1 0.5897 -2.3232115576017676 8.630018936246625 8.665571424982014 0 0 0
694 232 2 -1.1794 3.6562064130393894 10.234601159585514 0.38140875984219474 0 0 1
209 70 1 0.5897 3.111250517312719 11.007973009451701 7.309810740875533 0 0 0
292 98 2 -1.1794 -5.225139864482843 10.486074247760024 7.52078670512965 1 0 0
191 64 1 0.5897 0.23116014608656155 10.168136194470469 8.378191899338997 0 0 0
293 98 1 0.5897 -4.3171235492226 10.674766747310088 7.284069808050064 1 0 0
202 68 2 -1.1794 0.11497306811267949 8.768551639492348 6.73474786842845 0 0 0
203 68 1 0.5897 -0.7121184139300385 8.327316749262435 6.928087828756623 0 0 0
204 68 1 0.5897 0.7811768725486203 8.224473642122826 7.154908839826298 0 0 0
246 82 1 0.5897 0.31346383414333445 9.754996022399691 5.419762880154764 0 0 0
235 79 2 -1.1794 -2.202585402997454 7.959560421206481 7.993151994654294 0 0 0
236 79 1 0.5897 -3.077132154055964 7.59452754761245 7.858609133590953 0 0 0
174 58 1 0.5897 3.387533176721311 9.29371483034713 4.5270647503133015 0 0 0
257 86 1 0.5897 -4.594735823898617 8.472128575472917 5.229718755505363 1 0 0
9 3 1 0.5897 -0.9625698054546206 5.616206833389719 4.238969201542295 0 0 0
586 196 2 -1.1794 -0.7682871409427139 6.322984190063503 9.575233924116738 0 0 0
221 74 1 0.5897 3.9680016882611913 10.462472049794375 2.75433272444251 0 0 0
224 75 1 0.5897 -0.4236012823754578 11.293937658151167 3.8147127540174943 0 0 0
189 63 1 0.5897 1.7910824415018354 10.56354929552555 0.1310307478285586 0 0 0
190 64 2 -1.1794 0.21091857883222698 10.215241986569142 9.333939793050385 0 0 0
331 111 2 -1.1794 -2.0292174116985615 8.564046215705535 0.2743252742319728 1 0 0
696 232 1 0.5897 4.392785025824468 10.845805966892298 0.3741759259206074 0 0 1
192 64 1 0.5897 0.782407033933846 10.952058968556278 9.550078169723191 0 0 0
835 279 2 -1.1794 -5.5166714312096445 8.742468514242063 9.508034966175567 1 0 0
228 76 1 0.5897 1.677933380308847 11.267461191530622 5.776279922649596 0 0 0
762 254 1 0.5897 -7.806353509035633 8.171661693160893 15.031106603431242 1 0 0
809 270 1 0.5897 -7.4985083468458695 10.405354427453032 12.567643302961555 1 0 0
759 253 1 0.5897 -5.784917634346131 9.029301732258292 13.502357815556925 1 0 0
651 217 1 0.5897 -5.012534735548938 6.8897322206012594 11.450566985896177 1 0 0
333 111 1 0.5897 -8.755999205343151 9.315545288108495 18.6800708421999 1 0 -1
797 266 1 0.5897 -7.373390291780168 10.688969990901752 16.830525194503874 1 0 0
795 265 1 0.5897 -5.690972278721732 9.646326373679045 11.060598785308986 1 0 0
693 231 1 0.5897 -2.4361211041016007 9.656194333479494 10.666326344657879 0 0 0
649 217 2 -1.1794 -4.212105488202969 6.973869428815656 10.932554461831293 1 0 0
650 217 1 0.5897 -3.595102491662025 7.417516173086221 11.514508425455787 1 0 0
742 248 2 -1.1794 0.2637111985057543 7.934796845474951 11.390117498556242 0 0 0
793 265 2 -1.1794 -5.774736166273703 9.901691568783587 11.979205887177061 1 0 0
743 248 1 0.5897 0.5033830740215137 8.762168466497306 10.972651572135867 0 0 0
744 248 1 0.5897 -0.0994211184533289 7.404409291243663 10.680891306927576 0 0 0
741 247 1 0.5897 -6.6924106799757315 8.520279952822357 17.98406522372307 0 0 0
618 206 1 0.5897 -6.650073262410581 5.950162337570746 11.700722521493079 1 0 0
703 235 2 -1.1794 -2.3896977353073545 8.747416576688096 12.264885670191896 0 0 0
704 235 1 0.5897 -1.471107543007803 8.486551929892016 12.198588143680887 0 0 0
705 235 1 0.5897 -2.4496525808496807 9.203509636911296 13.104240106450682 0 0 0
613 205 2 -1.1794 -7.838149016636136 5.96348469031813 16.695375109052858 1 0 0
706 236 2 -1.1794 -3.537212994606427 9.027723047150294 17.019901452447524 0 0 0
707 236 1 0.5897 -4.373207293589211 8.564739804658243 17.073879418333537 0 0 0
750 250 1 0.5897 -3.2965708240471256 10.537705869510662 14.282890608886985 0 0 0
676 226 2 -1.1794 0.08166745415018539 8.471929363627721 14.441749131889985 0 0 0
678 226 1 0.5897 -0.024131159484422682 9.176600396363689 13.802574322756032 0 0 0
796 266 2 -1.1794 -8.191843302899265 10.329961938041762 17.173100476118133 1 0 0
748 250 2 -1.1794 -2.586084769801176 10.052417602099176 14.702477974034101 0 0 0
514 172 2 -1.1794 -1.3621934209231847 6.145190797738397 14.517471561988334 0 0 0
708 236 1 0.5897 -2.8794848137040114 8.358142498658708 17.208225449065637 0 0 0
749 250 1 0.5897 -2.9903894874337187 9.652850467651419 15.47252373002119 0 0 0
587 196 1 0.5897 -1.3112753984144363 5.895799069715955 10.237627479965953 0 0 0
512 171 1 0.5897 -4.763521401999768 7.29904745270466 14.711596412550445 0 0 0
511 171 2 -1.1794 -4.082969811460711 6.6482739051719415 14.539237923109459 0 0 0
515 172 1 0.5897 -2.2582474459903024 6.480749883659028 14.545290145528526 0 0 0
516 172 1 0.5897 -0.8117518626430584 6.924050433591535 14.598885512800367 0 0 0
794 265 1 0.5897 -5.053614295812634 10.514031621059166 12.124840644210535 1 0 0
757 253 2 -1.1794 -5.867704384113164 8.75352379106908 14.415155911931466 1 0 0
695 232 1 0.5897 -3.187165182180693 10.08447950377763 18.549926504742675 0 0 0
758 253 1 0.5897 -5.974161415210475 9.569826348724199 14.903641937165355 1 0 0
616 206 2 -1.1794 -6.57739083401683 6.759557743973552 12.20655756242653 1 0 0
570 190 1 0.5897 -0.7177065890743766 7.039374080619488 17.347586330545273 0 0 0
568 190 2 -1.1794 -1.5324106688549666 7.335010907910037 17.75383316233016 0 0 0
691 231 2 -1.1794 -2.412994950302832 10.20351094029449 9.881405167724045 0 0 0
513 171 1 0.5897 -4.47548236625334 6.0541671994513635 13.899583882251589 0 0 0
836 279 1 0.5897 -4.9123730346702486 8.157764594028192 9.965570654591557 1 0 0
739 247 2 -1.1794 -6.158260084196282 7.849224373572262 17.559019355364892 0 0 0
615 205 1 0.5897 -7.593384214642098 5.610807193715312 15.83991146993656 1 0 0
740 247 1 0.5897 -6.787568548507419 7.187236667055721 17.272744263204522 0 0 0
805 269 2 -1.1794 -5.892829802942657 11.004784606496477 15.90046657029591 1 0 0
569 190 1 0.5897 -1.7956827826191786 6.608933944669822 18.319267969527445 0 0 0
798 266 1 0.5897 -8.425387338146471 9.63509346167073 16.5576085955528 1 0 0
677 226 1 0.5897 0.04061407494703673 8.910662417268398 15.291426915696059 0 0 0
724 242 2 -1.1794 0.31201802247101096 10.834972052197013 12.872583397518936 0 0 0
83 28 1 0.5897 -5.284444426961156 6.723142115734672 18.775758149362602 0 0 -1
617 206 1 0.5897 -7.251565863287436 7.332513595496339 11.841059301480607 1 0 0
662 221 1 0.5897 -6.914975832364929 5.744992380262827 13.56598787221575 1 0 0
84 28 1 0.5897 -4.330440554440216 5.649608696015751 18.29664735268106 0 0 -1
551 184 1 0.5897 -1.8451577772546042 5.743709001259556 12.555870034681035 0 0 0
82 28 2 -1.1794 -4.63150627744019 6.096449418844698 19.087739100105463 0 0 -1
692 231 1 0.5897 -1.4873323548748059 10.417738898214546 9.765531064103607 0 0 0
326 109 1 0.5897 -3.698199480069719 11.931995014317765 5.430642387420029 1 0 0
269 90 1 0.5897 -3.6292392048315625 12.570434193151494 1.0904365475819036 1 0 0
222 74 1 0.5897 2.837220968930392 11.45338444641702 2.932350968180173 0 0 0
281 94 1 0.5897 -3.604800331763681 13.361652336186353 3.4548570162483596 1 0 0
425 142 1 0.5897 -4.487294793581973 16.281435233197307 5.1580001938936855 1 0 0
280 94 2 -1.1794 -3.5241423959796467 13.530157290777932 2.5161431161497223 1 0 0
372 124 1 0.5897 0.3364217345265046 16.526180138881436 6.332459018566356 0 0 0
340 114 2 -1.1794 3.536197787559659 16.315362476642377 4.959490839317871 0 0 0
500 167 1 0.5897 -1.6845972795042303 16.233486979778505 0.5513495589835182 1 0 0
227 76 1 0.5897 1.0347194776510715 12.239932084615841 6.741879141509553 0 0 0
226 76 2 -1.1794 1.8681008801567014 12.032441616660785 6.31927457765043 0 0 0
407 136 1 0.5897 4.2918097848813535 15.06245255902032 2.1257308126410486 0 0 0
303 101 1 0.5897 -2.0608458393161295 11.454103908730414 6.9784764308581195 1 0 0
404 135 1 0.5897 -1.6134533068433652 15.65264628660485 7.620303210546904 0 0 0
403 135 2 -1.1794 -2.347262371572187 15.588205269288016 8.231383042264973 0 0 0
282 94 1 0.5897 -2.659978672531966 13.929705427902551 2.417496118751839 1 0 0
178 60 2 -1.1794 1.4483401474294748 14.438164699922662 4.982372922973787 0 0 0
180 60 1 0.5897 1.5845044738391056 14.131067618677772 4.086139904133289 0 0 0
368 123 1 0.5897 1.7989079105891257 15.986751401222067 2.5325068640547186 0 0 0
314 105 1 0.5897 -0.2939546930151584 15.111040830362219 2.076666435668012 1 0 0
175 59 2 -1.1794 -1.1543547812804222 13.992747623202881 5.101121310286424 0 0 0
313 105 2 -1.1794 -1.0993179121980288 14.719349460564736 1.738782063906024 1 0 0
315 105 1 0.5897 -0.8038786103543929 13.96391641276961 1.2305226550642796 1 0 0
225 75 1 0.5897 -1.184842466285023 12.600210271796907 3.733750230562003 0 0 0
279 93 1 0.5897 -5.304648265230156 14.311816143030418 7.733056380116623 1 0 0
405 135 1 0.5897 -2.4652767062003105 16.479667797914374 8.559554400439524 0 0 0
367 123 2 -1.1794 0.949625478910324 16.401363171225306 2.6845930523496353 0 0 0
214 72 2 -1.1794 1.7839575644038206 12.918893162954392 2.639742294002069 0 0 0
215 72 1 0.5897 1.9149144877756656 13.088750821623991 1.7069621013030523 0 0 0
216 72 1 0.5897 0.9506598891854381 12.449999703326998 2.6835642710233443 0 0 0
176 59 1 0.5897 -1.6199356333393664 14.824522610245232 5.012675116328736 0 0 0
408 136 1 0.5897 3.958713770127199 16.128733149547585 1.1038890463890174 0 0 0
406 136 2 -1.1794 3.5645881706735745 15.425762259091789 1.6202934358888017 0 0 0
223 75 2 -1.1794 -0.8584820587412949 11.879552679262444 3.1948372046342715 0 0 0
177 59 1 0.5897 -0.22848053525570933 14.228703988021973 5.044042145990344 0 0 0
371 124 1 0.5897 0.23396992108703785 16.762659600086124 7.824117027871333 0 0 0
421 141 2 -1.1794 -2.795124937459219 16.371914228751614 4.893311477607272 1 0 0
179 60 1 0.5897 1.782102066961122 13.729185752702517 5.532192445070903 0 0 0
423 141 1 0.5897 -3.0007329333320856 16.80912173697343 4.067011609557149 1 0 0
756 252 1 0.5897 -1.4841576393388807 14.475839318980942 9.313295414721356 0 0 0
327 109 1 0.5897 -4.289901212363866 13.284712433478548 5.765818354157824 1 0 0
341 114 1 0.5897 2.9855760785237173 15.532574061102709 4.976474873517777 0 0 0
211 71 2 -1.1794 -0.7217810619484575 12.422131526208018 7.375004255504787 0 0 0
212 71 1 0.5897 -0.7261927567504811 12.960262114300935 8.1665462992699 0 0 0
213 71 1 0.5897 -0.9474121285141459 13.029744173088465 6.67060921987096 0 0 0
370 124 2 -1.1794 0.11099773390219925 16.090192290739303 7.1541412507969975 0 0 0
267 89 1 0.5897 -3.9661590771489235 13.013594563943965 8.834851511712321 1 0 0
325 109 2 -1.1794 -4.089183768222961 12.707921042061782 5.028793657427061 1 0 0
252 84 1 0.5897 2.935630066934465 14.247769437931167 0.6313746786870351 0 0 0
234 78 1 0.5897 1.555578201134674 15.07196935120373 7.651594645458276 0 0 0
232 78 2 -1.1794 2.107267767123239 14.447911420011252 8.123384746235905 0 0 0
277 93 2 -1.1794 -4.484998242364039 13.949530140015092 7.396643233390495 1 0 0
278 93 1 0.5897 -3.8413935464097757 14.644681288691448 7.533535262320668 1 0 0
369 123 1 0.5897 1.0886933810282722 16.959738259005505 3.4494768549723087 0 0 0
233 78 1 0.5897 2.9434791988374283 14.467151627664215 7.658097697337403 0 0 0
1004 335 1 0.5897 -5.566514464862506 17.019701972986482 9.12930063929919 1 0 0
422 141 1 0.5897 -2.4273956414356124 17.062291408395964 5.445004725527121 1 0 0
690 230 1 0.5897 2.177460048548655 12.871904041089934 9.11152748470941 0 0 0
462 154 1 0.5897 -5.223780990724242 17.062979787150887 6.7694001570447915 1 0 0
774 258 1 0.5897 -5.732798281345399 11.864951631777732 9.514470479468127 1 0 0
910 304 2 -1.1794 0.5633245657075525 15.909034567877589 10.869650290704353 0 0 0
773 258 1 0.5897 -6.527545823569918 12.597866755285915 10.574168125297618 1 0 0
737 246 1 0.5897 -1.0605064198147227 15.405374768559437 18.558488212596426 0 0 0
718 240 2 -1.1794 -1.5245488616299783 12.683608616159217 11.939510293407162 0 0 0
185 62 1 0.5897 -1.3125099328484042 13.042407047313331 18.800219652032975 0 0 -1
720 240 1 0.5897 -1.1716157768575108 13.265920915745937 12.612220561047154 0 0 0
911 304 1 0.5897 -0.1605288915184242 16.21782794213233 11.414463510269778 0 0 0
873 291 1 0.5897 -2.5419811092020765 15.716299421648651 12.066522771284621 0 0 0
871 291 2 -1.1794 -1.8990698111653126 16.409828905946313 12.21448793076923 0 0 0
727 243 2 -1.1794 -3.9784904702800477 11.756038605342946 12.984020628458508 0 0 0
729 243 1 0.5897 -4.1363834905858585 12.556885850719825 13.484034471065291 0 0 0
1005 335 1 0.5897 -5.111877699967055 16.082109435757857 10.22759289808802 1 0 0
831 277 1 0.5897 -7.388627462780291 12.156782756322054 13.776368169027066 1 0 0
784 262 2 -1.1794 -6.443125726632758 14.011228430831583 11.816500785378036 1 0 0
829 277 2 -1.1794 -6.7345309337737245 12.732064966925908 14.173103256722712 1 0 0
719 240 1 0.5897 -1.289953927058452 13.103219326178271 11.11186115882684 0 0 0
786 262 1 0.5897 -6.554617684243695 13.561410602953439 12.653982300034814 1 0 0
817 273 2 -1.1794 -3.9488908715791804 15.06400099731709 11.276043703067597 1 0 0
818 273 1 0.5897 -4.8006022632503225 14.798229603723843 11.622551456369939 1 0 0
819 273 1 0.5897 -3.61187314486711 14.280819824479794 10.840910306255042 1 0 0
912 304 1 0.5897 1.061649573433046 15.324619448634804 11.441050931268514 0 0 0
1003 335 2 -1.1794 -5.862533632284956 16.600284868641694 9.937114276002053 1 0 0
679 227 2 -1.1794 -3.857771780718677 14.146849011668575 14.588117992874313 0 0 0
251 84 1 0.5897 -4.9766851906776015 14.286286383685894 18.7956759745829 0 0 -1
684 228 1 0.5897 -0.48771773713425226 15.012487967277975 14.497060942555498 0 0 0
682 228 2 -1.1794 -0.9018205569000681 14.176213924075341 14.284040818465908 0 0 0
965 322 1 0.5897 -8.391397769839323 17.097866300827228 16.037867190226898 1 0 0
683 228 1 0.5897 -0.5738076800943137 13.569794857720211 14.948096694732008 0 0 0
926 309 1 0.5897 -5.260387533836882 15.237988051848426 14.284341835371833 1 0 0
728 243 1 0.5897 -3.2384265068603053 11.969818400133882 12.415986182254063 0 0 0
876 292 1 0.5897 -2.781663852346152 15.95865793397095 17.257420723299454 0 0 0
681 227 1 0.5897 -3.868496629059994 13.580216921964837 15.359487758201157 0 0 0
907 303 2 -1.1794 -5.916864060261548 15.524640190833043 17.840440495838337 0 0 0
925 309 2 -1.1794 -5.8989734711436626 15.937854684069476 14.147174865031543 1 0 0
680 227 1 0.5897 -2.9285378714670927 14.277584208539386 14.399429431701643 0 0 0
908 303 1 0.5897 -6.557784988734557 15.092663415550945 17.275818160467868 0 0 0
785 262 1 0.5897 -7.234418631525832 14.54153092599161 11.721550824380886 1 0 0
730 244 2 -1.1794 -0.9622021692202285 12.057945770314344 15.94717893563142 0 0 0
715 239 2 -1.1794 -3.6318886424798125 12.374327553462814 16.753644627586343 0 0 0
716 239 1 0.5897 -3.653253580295506 12.841916304989011 17.588537209342956 0 0 0
930 310 1 0.5897 -7.895928154759334 16.002004035967808 14.322314595707361 1 0 0
874 292 2 -1.1794 -3.5353588334622232 16.504726112355335 17.03367417871088 0 0 0
736 246 2 -1.1794 -1.2455454030500226 14.640182686547615 18.013984239823216 0 0 0
830 277 1 0.5897 -7.246066055612273 13.368463087601706 14.67271425541857 1 0 0
875 292 1 0.5897 -3.3920091100130767 16.74884986963248 16.11941572204469 0 0 0
909 303 1 0.5897 -5.259332787118247 15.869981725437365 17.236728371601178 0 0 0
781 261 2 -1.1794 -7.849544912634091 14.02533339110732 16.464563249761913 1 0 0
782 261 1 0.5897 -7.5177316267208205 13.494943482508786 17.189048682629775 1 0 0
499 167 2 -1.1794 -9.136129800708506 16.660916364934316 19.137799035373916 1 0 -1
717 239 1 0.5897 -2.7005172537526576 12.244063893215891 16.57532016050535 0 0 0
755 252 1 0.5897 -0.27301899336431523 14.460731004773166 10.221506066074884 0 0 0
250 84 2 -1.1794 -4.261088535453387 13.746920868146756 19.132403554856033 0 0 -1
265 89 2 -1.1794 -3.94242573848045 12.711808121016965 9.742851903198098 1 0 0
688 230 2 -1.1794 2.1503438728672215 12.252857134248933 9.841094200064937 0 0 0
726 242 1 0.5897 -0.3166041391557455 11.408093478320351 12.433548243995993 0 0 0