LAMMPS data file via write_data, version 30 Jul 2021, timestep = 35000000

864 atoms
2 atom types
576 bonds
1 bond types
288 angles
1 angle types

0.12383775801477803 18.083734641982623 xlo xhi
0.14293112891243887 23.486246671104098 ylo yhi
0.14560398304873345 22.067591816944095 zlo zhi

Masses

1 1.00794
2 15.9994

Atoms # full

707 1 1 0.5897 2.960845551000894 1.896213675859911 3.6789995507080016 0 0 0
706 1 2 -1.1794 2.9747635017748317 1.7695866206729673 2.730263756117595 0 0 0
30 1 1 0.5897 5.189237575132789 3.997725869777489 2.4612111814962314 0 0 0
708 1 1 0.5897 2.1958122488920107 2.228175893377112 2.41548014519352 0 0 0
29 1 1 0.5897 4.478410345608213 2.6677161255378485 2.326908445001005 0 0 0
28 1 2 -1.1794 5.2898638702511285 3.1191058098939073 2.0946763057108515 0 0 0
3 1 1 0.5897 0.6094761289785351 3.98766812851725 2.562666941017213 0 0 0
20 1 1 0.5897 0.6473522897153986 3.098695666843142 0.2923605635272257 0 0 0
495 1 1 0.5897 8.12440616153477 2.3133612648269137 2.975503299963685 0 0 0
494 1 1 0.5897 6.610705058907503 2.3030904201547835 2.9736382590402965 0 0 0
493 1 2 -1.1794 7.3703546294341375 1.8332852375246582 3.3177286046848464 0 0 0
1 1 2 -1.1794 0.6941110561645304 3.1612276019269094 2.0870033681314184 0 0 0
846 1 1 0.5897 7.448252024521111 1.9391281565712504 5.0171018981406315 0 0 0
137 1 1 0.5897 5.112635787252519 5.7282330139628055 4.035740358962119 0 0 0
597 1 1 0.5897 0.6583581602539204 5.868418992260594 4.127492852546883 0 0 0
595 1 2 -1.1794 0.7131678170530107 5.719012272412323 3.1835597813638423 0 0 0
136 1 2 -1.1794 5.169461035934939 5.70226914616093 3.0805329988242023 0 0 0
668 1 1 0.5897 5.204643841411683 3.1705729479786444 0.31591943676688955 0 0 0
819 1 1 0.5897 7.375573585916677 0.302231943692 2.357570549008339 0 0 0
487 1 2 -1.1794 3.030841045688088 1.8768829505596802 5.445920990097416 0 0 0
83 1 1 0.5897 4.353459438999291 2.63287238626249 6.402476197063049 0 0 0
183 1 1 0.5897 0.9228133275932169 4.953931244980233 6.13757296279563 0 0 0
82 1 2 -1.1794 5.036600545820265 3.105118864662578 6.878405660309793 0 0 0
785 1 1 0.5897 0.8134116037388184 3.0996148725496644 7.463417951425408 0 0 0
674 1 1 0.5897 3.8114315464302444 2.3180164294140946 10.136216053720736 0 0 0
356 1 1 0.5897 7.4961585746443005 0.8703336057023848 10.012062706341833 0 0 0
112 1 2 -1.1794 0.8627947503106439 5.662380868764257 9.964370153323872 0 0 0
845 1 1 0.5897 7.511308068749707 1.068655567290798 6.2542572343447 0 0 0
676 1 2 -1.1794 4.971725352469093 5.9658932577087125 10.50753283129651 0 0 0
673 1 2 -1.1794 2.963253353262713 1.9297560667777602 10.350612852528643 0 0 0
34 1 2 -1.1794 0.7201007853352872 3.0082131466265336 9.281706534940058 0 0 0
274 1 2 -1.1794 5.225115818528727 3.311305532788428 9.650246454101566 0 0 0
678 1 1 0.5897 5.0132552510109525 5.05401260817333 10.219091818890755 0 0 0
35 1 1 0.5897 0.7763018533442883 3.948202536530033 9.454097942885788 0 0 0
36 1 1 0.5897 1.5063524920733755 2.642426371122535 9.686868551438069 0 0 0
355 1 2 -1.1794 7.550581735053254 1.809472401598144 10.189591475533 0 0 0
488 1 1 0.5897 2.265962380263883 2.2789082575896997 5.857626227003336 0 0 0
84 1 1 0.5897 5.853060133059182 2.6897758325408194 6.600874555715689 0 0 0
276 1 1 0.5897 6.020776692305246 2.7908155597334443 9.76059406092213 0 0 0
675 1 1 0.5897 3.010569029504519 1.04050802443196 9.99927135771692 0 0 0
275 1 1 0.5897 5.098561455007798 3.3582600150381556 8.70256291130293 0 0 0
686 1 1 0.5897 5.36508438340383 4.724528271025186 6.145029839451341 0 0 0
784 1 2 -1.1794 0.937180941578245 3.188141373117677 6.5183436843745755 0 0 0
489 1 1 0.5897 3.035443115036291 0.9776938503137164 5.7743742431746305 0 0 0
685 1 2 -1.1794 5.506619087984601 5.607612521909585 5.80361421919579 0 0 0
844 1 2 -1.1794 7.429173089269927 1.9801156124555834 5.973286556063075 0 0 0
419 1 1 0.5897 8.883409448014287 2.8813542866932433 6.443662714022169 0 0 0
176 1 1 0.5897 8.945911175764257 2.771000339606062 9.655869347782756 0 0 0
181 1 2 -1.1794 0.9136054439157263 5.896035007355994 5.9678255534557385 0 0 0
786 1 1 0.5897 0.24191144810470888 2.654089860877236 6.134148149953736 0 0 0
113 1 1 0.5897 0.8779147258901024 5.625914755564889 10.920805265887541 0 0 0
166 1 2 -1.1794 2.951228540524991 1.7198498418157215 13.155686333405628 0 0 0
167 1 1 0.5897 2.9614431638753556 1.82062532332254 12.203808959475687 0 0 0
457 1 2 -1.1794 5.13577378905346 3.180429036048702 13.96909078372326 0 0 0
458 1 1 0.5897 5.899293220118995 2.776404628176773 13.556822799457933 0 0 0
459 1 1 0.5897 4.39932553857555 2.6314181660233564 13.699965257761445 0 0 0
762 1 1 0.5897 5.247647183706881 4.8465344133238215 13.4240148542709 0 0 0
594 1 1 0.5897 8.133089198480562 2.3919075706075796 13.350703859511404 0 0 0
168 1 1 0.5897 2.160726414756177 2.1802407729740745 13.437291103763483 0 0 0
468 1 1 0.5897 0.689886417342809 3.1302299423269697 14.820544824293506 0 0 0
466 1 2 -1.1794 0.7257582315377366 3.1608472364945412 13.864457638900344 0 0 0
593 1 1 0.5897 7.4207411199054345 1.0710618911116039 13.150271373685445 0 0 0
592 1 2 -1.1794 7.375327621867554 1.9986436280521902 12.917915025632952 0 0 0
365 1 1 0.5897 0.6609497635204162 4.685478186484008 13.049471775837594 0 0 0
71 1 1 0.5897 5.235885105930759 3.314149895276437 15.938712113888622 0 0 0
761 1 1 0.5897 5.153215685922823 5.767907685090709 12.22634776973895 0 0 0
357 1 1 0.5897 7.457343552639518 1.8799194058132038 11.139681849820262 0 0 0
364 1 2 -1.1794 0.6630270726018322 5.583516284057137 12.71785374982283 0 0 0
760 1 2 -1.1794 5.3516126419770105 5.761629911082556 13.162785091895515 0 0 0
754 1 2 -1.1794 7.570613890411676 1.7907743940044027 17.550619757763638 0 0 0
21 1 1 0.5897 0.7453548276169658 3.908624970397285 20.93894832413723 0 0 0
646 1 2 -1.1794 0.45854007946354725 5.65648767873963 20.389472486185582 0 0 0
755 1 1 0.5897 7.6605771095127295 1.9203334304463915 18.494789407897578 0 0 0
290 1 1 0.5897 3.031981879342546 1.179377563863605 17.427118811849397 0 0 0
42 1 1 0.5897 7.357545243430401 1.180230546560854 20.5157997428196 0 0 0
289 1 2 -1.1794 3.078746951954455 2.0799055354424123 17.748532362027216 0 0 0
41 1 1 0.5897 6.633770121192632 2.509111115806668 20.565276967676173 0 0 0
143 1 1 0.5897 5.148617402568691 5.0170113584543214 20.77171636414498 0 0 0
569 1 1 0.5897 2.2774920620760932 2.2769808245987884 20.738603438496053 0 0 0
291 1 1 0.5897 2.317081908099243 2.512410441619948 17.36256553484409 0 0 0
570 1 1 0.5897 3.1581208841059087 1.8996532076973929 19.56642144864067 0 0 0
40 1 2 -1.1794 7.432040060016699 2.093679727380189 20.239199570026084 0 0 0
571 1 2 -1.1794 0.6906436485922377 5.891180621527592 17.643254998662833 0 0 0
667 1 2 -1.1794 5.187567199145263 3.2966128919404936 21.28913873339418 0 0 0
134 1 1 0.5897 0.847947806488511 4.211851557751655 16.99413020204548 0 0 0
568 1 2 -1.1794 3.077959994751326 1.8020722938960108 20.515304170218105 0 0 0
756 1 1 0.5897 6.745549395946718 2.2212815784713897 17.326863363329636 0 0 0
669 1 1 0.5897 4.4331607848049845 2.7873867772420264 20.992935190949954 0 0 0
278 1 1 0.5897 5.362403667942381 4.922678024181454 17.561523426397084 0 0 0
19 1 2 -1.1794 0.6598014652800197 3.011243224405254 21.261181361213396 0 0 0
133 1 2 -1.1794 0.8419718471854412 3.3092504424866376 16.675189321306586 0 0 0
72 1 1 0.5897 4.651535132890297 2.7360311021806156 17.210084355861323 0 0 0
648 1 1 0.5897 0.4919781481549148 5.691717572241404 19.433453448818003 0 0 0
70 1 2 -1.1794 5.396048026172491 3.238578644566133 16.87943260227487 0 0 0
142 1 2 -1.1794 5.1819955642446205 5.948439185049728 20.553128001548764 0 0 0
144 1 1 0.5897 5.221876464062446 5.969262889654293 19.59693477464764 0 0 0
360 1 1 0.5897 8.857039435191735 2.795544341063764 21.03137891774269 0 0 0
599 1 1 0.5897 8.950289065882878 2.6892726553317177 16.94477933960131 0 0 0
277 1 2 -1.1794 5.336870584099031 5.849496859173248 17.799869822888887 0 0 0
253 1 2 -1.1794 2.952016913589406 7.075810659467792 2.2344136564212724 0 0 0
123 1 1 0.5897 2.949617493689617 8.807166221943792 2.6753059216440587 0 0 0
121 1 2 -1.1794 2.9637469773031584 9.747384472841636 2.854885890720164 0 0 0
122 1 1 0.5897 2.9673809168717105 9.809233046718745 3.810128949538074 0 0 0
44 1 1 0.5897 1.4678492876353126 10.627466204871642 2.3114737897408024 0 0 0
218 1 1 0.5897 5.998626285674703 10.6356702211216 2.5107766411122268 0 0 0
255 1 1 0.5897 2.1495443851120988 6.64239920171486 2.52481845115045 0 0 0
219 1 1 0.5897 4.486746321988338 10.626791394402586 2.4364481497245016 0 0 0
43 1 2 -1.1794 0.6701558716125539 11.075893707412444 2.030850418936423 0 0 0
415 1 2 -1.1794 7.40616634747945 7.117639599053222 2.1372290381869115 0 0 0
417 1 1 0.5897 8.179059197578077 6.624651358185894 2.41248179593195 0 0 0
254 1 1 0.5897 2.9657225003737864 6.945148770989248 1.286222103169493 0 0 0
217 1 2 -1.1794 5.25198171032023 11.160003241281526 2.221325830374515 0 0 0
66 1 1 0.5897 7.332691729206066 9.618988607644415 4.170964213650894 0 0 0
65 1 1 0.5897 7.398564148325965 8.769599250566767 2.9193912629951435 0 0 0
64 1 2 -1.1794 7.342201007422984 9.67818757595529 3.2155935964696085 0 0 0
416 1 1 0.5897 6.666738013318084 6.563925127965713 2.387954428666189 0 0 0
773 1 1 0.5897 8.879955977796635 10.420061489399039 2.524917086507319 0 0 0
396 1 1 0.5897 0.817286751243445 11.180449164161832 0.25480820671806736 0 0 0
138 1 1 0.5897 4.408257139904349 6.199407492471692 2.781211489982576 0 0 0
162 1 1 0.5897 7.524058990690914 7.248747122274821 0.3670269221020802 0 0 1
363 1 1 0.5897 5.272112469692222 10.977697118792799 0.45933461533878983 0 0 1
256 1 2 -1.1794 2.8547659876281672 9.700335180386531 10.619545717804547 0 0 0
12 1 1 0.5897 3.2459648321256576 7.958718381600043 6.28500024321167 0 0 0
10 1 2 -1.1794 3.2349921471208978 7.10222413056095 6.7124711443602925 0 0 0
794 1 1 0.5897 2.1893854396225665 10.089842963458302 6.05832682535164 0 0 0
526 1 2 -1.1794 7.289748854526653 7.038172074053921 9.559440014420403 0 0 0
577 1 2 -1.1794 5.053472271257849 11.122239811019789 6.788399493348105 0 0 0
145 1 2 -1.1794 7.541636196937836 7.174867960370006 6.846269242129818 0 0 0
551 1 1 0.5897 0.8114112088375224 10.990671092415603 7.680923476389461 0 0 0
712 1 2 -1.1794 7.262208758607274 9.68209932721802 5.899558278581353 0 0 0
580 1 2 -1.1794 5.085188654332563 10.996288900612312 9.489517493584572 0 0 0
650 1 1 0.5897 3.128703634364069 7.219201571255676 8.450739091227188 0 0 0
822 1 1 0.5897 8.147577205889647 9.974048094813405 9.937618854445969 0 0 0
527 1 1 0.5897 7.246909738420065 7.908622891385815 9.955573617590328 0 0 0
15 1 1 0.5897 1.5141694193396311 10.563687955543303 9.88087214922949 0 0 0
582 1 1 0.5897 5.043790077929594 10.964376795555392 8.533695618520799 0 0 0
820 1 2 -1.1794 7.313948443127217 9.64889026152864 10.277396395576563 0 0 0
581 1 1 0.5897 5.890387993946633 10.528386956490912 9.710602011905252 0 0 0
147 1 1 0.5897 7.422771897900828 7.168593779525293 7.796090690608687 0 0 0
649 1 2 -1.1794 3.014514168129702 7.283109040031387 9.398999854104234 0 0 0
528 1 1 0.5897 8.126451304239469 6.680362435093249 9.856117740147427 0 0 0
13 1 2 -1.1794 0.8209391638086492 11.096023676004982 9.490660512595461 0 0 0
258 1 1 0.5897 3.6317654263339327 10.201052989816263 10.37109994334397 0 0 0
714 1 1 0.5897 7.301642709646971 8.798063290325128 6.264758679956253 0 0 0
257 1 1 0.5897 2.9167632214589894 8.892310605363486 10.109956393086971 0 0 0
146 1 1 0.5897 6.815027119953214 6.650335073537098 6.509968393672971 0 0 0
578 1 1 0.5897 5.715460947051252 10.579002410588643 6.360740819165415 0 0 0
550 1 2 -1.1794 0.7775440872414753 10.96099391860801 6.724725299154988 0 0 0
114 1 1 0.5897 1.6338901022093244 6.1795293327553065 9.731685237450254 0 0 0
651 1 1 0.5897 3.76578601334435 6.815059261764018 9.763307087964403 0 0 0
11 1 1 0.5897 2.4200299440955737 6.696712400430089 6.416601369622049 0 0 0
795 1 1 0.5897 3.666854217646523 10.41919873911729 6.066942508027657 0 0 0
713 1 1 0.5897 8.052342773041183 10.112293026048535 6.2263355261145055 0 0 0
687 1 1 0.5897 4.74915762114805 6.107131584688515 6.108448117834506 0 0 0
793 1 2 -1.1794 3.022870213885374 9.839809120546127 5.659702675384796 0 0 0
165 1 1 0.5897 8.9833333800913 6.215903370105535 6.002425734083161 0 0 0
677 1 1 0.5897 5.777289364398228 6.360291001956274 10.173382085456941 0 0 0
826 1 2 -1.1794 7.582709420505728 7.07938327154578 13.971658520056048 0 0 0
827 1 1 0.5897 6.739773555345376 6.699039903114496 13.724851435564624 0 0 0
332 1 1 0.5897 2.9697775307302816 7.76352997993412 13.595130650682947 0 0 0
797 1 1 0.5897 3.1775550405948123 9.450056201578436 12.335552982862692 0 0 0
796 1 2 -1.1794 3.2978010760682452 9.447832025047218 13.285214378951363 0 0 0
798 1 1 0.5897 2.5768136140356788 9.981215881450229 13.619701086353826 0 0 0
722 1 1 0.5897 4.762933212028864 10.387063619572775 13.641241391295434 0 0 0
261 1 1 0.5897 0.9956909958416829 10.984430779071827 14.92164077961616 0 0 0
723 1 1 0.5897 5.459593442554225 10.995051079217747 14.840011521510823 0 0 0
828 1 1 0.5897 7.598632409097865 7.027919050367388 14.927392093856096 0 0 0
259 1 2 -1.1794 1.120667980533446 10.964000935874493 13.972802124870183 0 0 0
331 1 2 -1.1794 2.8335598759765808 6.851623290915827 13.852681573644851 0 0 0
225 1 1 0.5897 3.004238114692699 6.8374398618858745 15.79049039108764 0 0 0
721 1 2 -1.1794 5.499539097907408 10.947689103288731 13.884766391217957 0 0 0
475 1 2 -1.1794 7.709968923792491 9.659516575289162 13.051045450981139 0 0 0
476 1 1 0.5897 6.920166381031709 10.063249918469866 13.41071168275823 0 0 0
477 1 1 0.5897 7.662958235223696 8.746210289136041 13.334083338203797 0 0 0
333 1 1 0.5897 3.6985327480787187 6.448932311050252 13.776740998073768 0 0 0
366 1 1 0.5897 1.4150258109400369 5.994938460866586 13.143761317486046 0 0 0
851 1 1 0.5897 8.997260043881539 6.080930571697326 13.474477209774463 0 0 0
821 1 1 0.5897 7.412977558998443 9.682676272217144 11.228908205001039 0 0 0
260 1 1 0.5897 0.33144215044915626 10.5400748688298 13.635808599651206 0 0 0
395 1 1 0.5897 0.13344213752406375 10.937346302327175 20.84816560386285 0 0 0
141 1 1 0.5897 7.544941720999629 8.797497800117991 20.770977560977656 0 0 0
361 1 2 -1.1794 5.176629934694149 10.913278185950755 21.431016488306554 0 0 0
9 1 1 0.5897 6.762410990156852 10.083137591268937 17.324687044820564 0 0 0
4 1 2 -1.1794 2.751317353043093 6.874778922257367 21.36170306829874 0 0 0
627 1 1 0.5897 2.2958596278497345 10.120247187742871 17.278792295604458 0 0 0
394 1 2 -1.1794 0.943284832134802 11.273016321880673 21.23240292934955 0 0 0
572 1 1 0.5897 1.509508236101878 6.300736359249192 17.364218000824884 0 0 0
140 1 1 0.5897 6.742050430137942 10.080275229558511 20.816313372160998 0 0 0
161 1 1 0.5897 6.7262582348629545 6.725839697028045 21.113405689926537 0 0 0
690 1 1 0.5897 2.251102088648502 10.074190475363539 20.740903298760312 0 0 0
625 1 2 -1.1794 3.033460909653297 9.594656744242831 17.58845075319011 0 0 0
688 1 2 -1.1794 2.9388338422945557 9.4781080837784 20.444281852749146 0 0 0
445 1 2 -1.1794 0.9381677340586483 11.038463620754879 16.721631666074355 0 0 0
224 1 1 0.5897 3.045829262652503 7.810169745570148 16.949944062928232 0 0 0
689 1 1 0.5897 3.7526061638920596 9.882142135139704 20.74540206117362 0 0 0
279 1 1 0.5897 4.486646947800159 6.155227702839898 17.4840024683724 0 0 0
626 1 1 0.5897 2.9100235176729505 9.54269096814512 18.536283712369595 0 0 0
139 1 2 -1.1794 7.517827871269924 9.686600949417493 20.417122110377733 0 0 0
6 1 1 0.5897 2.7266016701107474 7.794629809931836 21.097654727047434 0 0 0
521 1 1 0.5897 6.773562094468625 6.654002808901646 17.036699022847575 0 0 0
8 1 1 0.5897 7.478947862599625 9.602355328096243 18.568645083660556 0 0 0
7 1 2 -1.1794 7.51567504280738 9.567563785799571 17.61273447769972 0 0 0
160 1 2 -1.1794 7.580959254286354 7.087760449187621 21.347116046884068 0 0 0
5 1 1 0.5897 3.6316780068477756 6.581333871878358 21.127269359802273 0 0 0
522 1 1 0.5897 7.55372017154292 7.951517035950999 17.041797509698476 0 0 0
680 1 1 0.5897 4.5464335640015205 10.55113677714826 17.067104426129863 0 0 0
647 1 1 0.5897 1.277439908551672 6.0626111150831665 20.673386523890997 0 0 0
223 1 2 -1.1794 3.0472273676092203 6.874821629232946 16.746042297690323 0 0 0
287 1 1 0.5897 8.975127146948111 10.560656579456143 21.033708089426213 0 0 0
711 1 1 0.5897 8.920431212779683 6.090026977936191 17.315280422356413 0 0 0
679 1 2 -1.1794 5.3451057525780055 10.952676379732795 16.724975914003696 0 0 0
520 1 2 -1.1794 7.571329719621544 7.0588586767513 16.696393521882577 0 0 0
447 1 1 0.5897 0.14281905856742583 10.651231720614842 17.087177089476857 1 0 0
246 1 1 0.5897 9.091166835450665 10.427572300928004 17.040333579652348 0 0 0
200 1 1 0.5897 5.301840497518791 13.676342357727416 4.780509134909 0 0 0
173 1 1 0.5897 4.678067514461114 14.227581670005314 2.740390582027299 0 0 0
172 1 2 -1.1794 5.440502094799003 13.747066213044393 3.0628313634638307 0 0 0
374 1 1 0.5897 0.7666694479647304 13.5472549232081 4.003869225289565 0 0 0
558 1 1 0.5897 3.0779037782266454 15.103871891341093 1.3814281455605828 0 0 0
556 1 2 -1.1794 3.089762934928775 15.053276175863036 2.3372676723270938 0 0 0
557 1 1 0.5897 2.3349345931660492 14.507708827719796 2.55811357882491 0 0 0
478 1 2 -1.1794 7.667180881407821 15.078970993880722 2.1191668201106797 0 0 0
174 1 1 0.5897 5.273503226516716 12.837558448223684 2.8151500381854246 0 0 0
293 1 1 0.5897 2.9399702246261676 16.711952960379783 2.812630071992352 0 0 0
479 1 1 0.5897 8.365476339940246 14.657766042643862 2.620328344935331 0 0 0
449 1 1 0.5897 7.555958117805515 16.787631654108928 2.6291440628067253 0 0 0
480 1 1 0.5897 6.873923267127496 14.604474629901551 2.3676665522539437 0 0 0
373 1 2 -1.1794 0.8015776129018484 13.59046235521743 3.0482310855637644 0 0 0
45 1 1 0.5897 0.7393059680013983 11.950750220569647 2.41332023586974 0 0 0
308 1 1 0.5897 7.50780321668032 17.269617023122322 4.698873818821344 0 0 0
292 1 2 -1.1794 2.9568702164031864 17.619754220369124 3.1160415882820405 0 0 0
294 1 1 0.5897 2.955989881652258 17.553656462890935 4.071005904838133 0 0 0
317 1 1 0.5897 7.675633001013315 14.967182874380944 0.40885724124616374 0 0 0
384 1 1 0.5897 2.9679328480716616 16.642627317836023 10.170561611111573 0 0 0
656 1 1 0.5897 1.3486866143331928 14.167402175915223 6.129584864065599 0 0 0
454 1 2 -1.1794 5.500351327866416 13.536581723556118 10.247374246997497 0 0 0
199 1 2 -1.1794 5.194570797664636 13.650367450757026 5.731374458371773 0 0 0
811 1 2 -1.1794 3.311724608328548 14.996663741263374 9.427905826632555 0 0 0
456 1 1 0.5897 5.389257202305703 12.627342917440025 9.969187827357734 0 0 0
813 1 1 0.5897 2.546640590759534 14.485323106286051 9.691262650004573 0 0 0
17 1 1 0.5897 3.0089192379930707 14.826366880314568 7.614888857144906 0 0 0
766 1 2 -1.1794 1.028136714919996 13.763488477969224 10.28875799328391 0 0 0
239 1 1 0.5897 2.9206764180509808 16.602465902240688 6.2289369596869415 0 0 0
377 1 1 0.5897 7.084012664960254 14.299726447034585 9.821823319699178 0 0 0
382 1 2 -1.1794 2.897981201584249 17.567683615358675 10.406840195001813 0 0 0
519 1 1 0.5897 8.326976045265875 14.231566988853576 6.419786191891675 0 0 0
812 1 1 0.5897 4.060095518527612 14.475476487420826 9.718571520947918 0 0 0
18 1 1 0.5897 3.7129142246243787 14.419138466239378 6.337955840647114 0 0 0
376 1 2 -1.1794 7.801196880728225 14.828964471785879 9.47289405041768 0 0 0
16 1 2 -1.1794 2.9027059395276753 14.811063649964858 6.663669776983281 0 0 0
517 1 2 -1.1794 7.54647609923572 14.686359507096592 6.736234298334894 0 0 0
186 1 1 0.5897 7.440498182916992 16.460162030807105 10.114162986963265 0 0 0
378 1 1 0.5897 7.6505931739777235 14.844038517733903 8.5276893900265 0 0 0
518 1 1 0.5897 7.606005829392448 15.561163313959444 6.352031219446009 0 0 0
201 1 1 0.5897 6.009882349978579 14.015523514700625 6.074969540830201 0 0 0
655 1 2 -1.1794 0.6413902774516518 13.615974148221481 5.795121996820642 0 0 0
307 1 2 -1.1794 7.465348435390128 17.273693939317475 5.655178136804386 0 0 0
579 1 1 0.5897 5.15700100914506 11.98600198550351 6.388859297080361 0 0 0
184 1 2 -1.1794 7.261622447270136 17.35877635165597 10.391529748696769 0 0 0
14 1 1 0.5897 0.9876689132540535 11.981649481890592 9.813615374929812 0 0 0
768 1 1 0.5897 0.2491335519974811 14.242448235568338 10.006068039889634 0 0 0
552 1 1 0.5897 0.7916787029292601 11.879560373569856 6.45546757982855 0 0 0
238 1 2 -1.1794 2.875807727139821 17.490022324224874 5.8730276986598 0 0 0
296 1 1 0.5897 7.42640317693675 14.52998999121345 14.933249606699016 0 0 0
232 1 2 -1.1794 2.8390158852087963 14.963688943246073 14.051936460411024 0 0 0
234 1 1 0.5897 2.9603194966050035 14.920568500054816 15.00048893918573 0 0 0
606 1 1 0.5897 2.7848548039615166 16.67883107112273 13.391223990167731 0 0 0
427 1 2 -1.1794 5.020654838136782 13.525004529803674 12.989856747476935 0 0 0
233 1 1 0.5897 3.6001818796433143 14.508701884812163 13.691686586515235 0 0 0
639 1 1 0.5897 1.3965796733219034 14.016158429249932 13.505527152451423 0 0 0
429 1 1 0.5897 5.845408482103011 13.925483335903841 13.264699910679036 0 0 0
428 1 1 0.5897 5.07423495754183 12.623289245930616 13.306852641433807 0 0 0
637 1 2 -1.1794 0.67023054532814 13.567102771908353 13.07315117207264 0 0 0
638 1 1 0.5897 0.741106249176196 12.658511835255688 13.366214976954526 0 0 0
295 1 2 -1.1794 7.4173098689177035 14.627808093970444 13.981051929736001 0 0 0
270 1 1 0.5897 7.540766483000556 16.33466994665016 13.42308547264145 0 0 0
297 1 1 0.5897 8.152879425603272 14.095515041872428 13.678074516360462 0 0 0
455 1 1 0.5897 5.259557508392682 13.535231457634717 11.173831938098667 0 0 0
605 1 1 0.5897 2.780138671126373 17.615466630722963 12.201696215875256 0 0 0
604 1 2 -1.1794 2.8280924656232873 17.606226043496008 13.157699877201502 0 0 0
269 1 1 0.5897 7.483745862221611 17.18519854129302 12.171852644763646 0 0 0
268 1 2 -1.1794 7.469678842940494 17.24235729674009 13.127289864539236 0 0 0
767 1 1 0.5897 0.8928439154969903 13.616198723461844 11.224885696424447 0 0 0
824 1 1 0.5897 3.7658044509796733 14.461550877922422 17.246107301694742 0 0 0
664 1 2 -1.1794 3.086195730753232 15.187131358598352 21.50807920141315 0 0 0
823 1 2 -1.1794 3.03004389675481 14.934564842486283 16.857394584274928 0 0 0
681 1 1 0.5897 5.341845260107389 11.839226157057107 17.086184532224966 0 0 0
117 1 1 0.5897 8.949262871519169 13.903566820837463 20.72072153820389 0 0 0
452 1 1 0.5897 0.9071302007085243 12.991973951866365 20.789380632546298 0 0 0
125 1 1 0.5897 5.172902692673992 13.62363366018857 18.866340425584546 0 0 0
124 1 2 -1.1794 5.105827450513452 13.575157208787731 17.91267602859774 0 0 0
684 1 1 0.5897 4.486523544648703 14.164565964413589 21.06975253283847 0 0 0
610 1 2 -1.1794 7.609853197091947 17.29298305536698 17.699278568770975 0 0 0
666 1 1 0.5897 3.089762732833739 16.06885206587301 21.135249572500605 0 0 0
316 1 2 -1.1794 7.570876090463883 14.904170608667275 21.381433354833746 0 0 0
52 1 2 -1.1794 0.8871843182713272 13.577890082118559 17.748311879650124 0 0 0
318 1 1 0.5897 7.5044909633998875 15.812495783462166 21.08649981683767 0 0 0
665 1 1 0.5897 2.302444548577764 14.775702078585828 21.14392060866395 0 0 0
584 1 1 0.5897 2.957601699135709 16.585769747552895 17.361704047431843 0 0 0
683 1 1 0.5897 5.979948800310202 13.925513331193129 21.006768421522136 0 0 0
126 1 1 0.5897 5.874285482379662 14.048303459878813 17.593660917080484 0 0 0
682 1 2 -1.1794 5.142872646469119 13.56590828601227 20.713304454807602 0 0 0
50 1 1 0.5897 7.47161977883099 15.51928833368812 17.29955258437309 0 0 0
53 1 1 0.5897 0.8879455085448672 13.6480802872335 18.702986411277863 0 0 0
451 1 2 -1.1794 0.9204070642871145 13.908012678204011 20.511617123724694 0 0 0
825 1 1 0.5897 2.2535801569959553 14.47752620730392 17.180474149921775 0 0 0
51 1 1 0.5897 8.172251255346533 14.195281460608113 17.07964221786637 0 0 0
716 1 1 0.5897 3.010707573464633 17.598385975877328 19.430118098936 0 0 0
49 1 2 -1.1794 7.380326974778621 14.680289892140848 16.847696575053014 0 0 0
446 1 1 0.5897 0.96150063399561 11.924777082120178 17.082673808632517 0 0 0
159 1 1 0.5897 7.742173981479267 17.375057144462232 19.466231210426205 0 0 0
157 1 2 -1.1794 7.575796854057792 17.483515744581737 20.402647508527252 0 0 0
583 1 2 -1.1794 2.917595655872666 17.507454958284015 17.617333866166753 0 0 0
362 1 1 0.5897 5.174735474480593 11.821343522060285 21.127920184037734 0 0 0
267 1 1 0.5897 6.0308855077214085 21.836555898544887 2.7992973394574183 0 0 0
696 1 1 0.5897 1.332061497466153 21.860830992574975 2.6817351050170695 0 0 0
266 1 1 0.5897 4.5190002640857765 21.771621606350493 2.7621334667563886 0 0 0
265 1 2 -1.1794 5.2800418252378964 21.428195145284135 3.2301582331635985 0 0 0
344 1 1 0.5897 1.455658709127758 18.492201677709332 2.5310003124464155 0 0 0
228 1 1 0.5897 5.17303416553398 19.765352269540827 2.4267535632704003 0 0 0
343 1 2 -1.1794 0.6755514003861821 18.964948293910282 2.240997031389776 0 0 0
817 1 2 -1.1794 7.356601752619549 22.791095616133994 1.9263113910657854 0 0 0
249 1 1 0.5897 5.281418095658243 21.24122128112358 5.009224524375459 0 0 0
226 1 2 -1.1794 5.201847064333157 18.872800120971235 2.0818250502782583 0 0 0
187 1 2 -1.1794 2.9332559352631247 22.5189421951264 2.1345622699767475 0 0 0
695 1 1 0.5897 0.4856888413838897 20.608681494828303 2.770731457016063 0 0 0
694 1 2 -1.1794 0.5268651320198221 21.51745029523733 3.068885537451652 0 0 0
818 1 1 0.5897 8.130248074513743 22.33669828020536 2.259715738279517 0 0 0
450 1 1 0.5897 6.699907922000283 18.0362416924074 2.6123018140017433 0 0 0
189 1 1 0.5897 2.945863309827925 22.584340339696745 1.1796322825094039 0 0 0
413 1 1 0.5897 0.713107814637055 21.47945176087763 4.861686789007468 0 0 0
227 1 1 0.5897 4.41488848553924 18.454860298005755 2.4313548323464778 0 0 0
345 1 1 0.5897 0.743415476531066 18.977247755744614 1.2862342773728495 0 0 0
498 1 1 0.5897 7.451719355171596 22.863806278278894 0.17232289460059177 0 0 0
188 1 1 0.5897 3.0137961980363093 23.423267182163777 2.4381327720632266 0 0 0
602 1 1 0.5897 5.416529375062125 18.86462387479004 0.2190961644844847 0 0 0
448 1 2 -1.1794 7.529902370383326 17.691990696867464 2.9420370630330046 0 0 0
555 1 1 0.5897 5.172150731824379 20.502640538485885 9.904023211347448 0 0 0
342 1 1 0.5897 0.5962966152699452 18.92326093263521 7.6631099735589085 0 0 0
87 1 1 0.5897 8.191722334421023 22.020993669846682 9.810547661157184 0 0 0
37 1 2 -1.1794 3.013996055675676 22.69304857850895 9.371387050755967 0 0 0
86 1 1 0.5897 7.5608829008627145 22.596053061998163 8.560188303908765 0 0 0
414 1 1 0.5897 0.6867617684626529 20.64377839157048 6.123908790896954 0 0 0
32 1 1 0.5897 8.265821711656923 22.174281513719052 6.514095249897484 0 0 0
404 1 1 0.5897 1.4718113260784682 18.359224105982705 9.659794004438915 0 0 0
39 1 1 0.5897 3.819666178194577 22.31405455835663 9.722660053098076 0 0 0
553 1 2 -1.1794 5.201154419794997 21.34719804395177 10.353814766851889 0 0 0
701 1 1 0.5897 2.9303541753795455 22.709154658769428 7.539493434303433 0 0 0
412 1 2 -1.1794 0.6717714884603079 21.549916910073016 5.815447422338717 0 0 0
387 1 1 0.5897 5.411789260253971 19.57532266334217 6.337506567302843 0 0 0
102 1 1 0.5897 5.286080776893239 18.606032011959 8.296892294094716 0 0 0
700 1 2 -1.1794 2.9752372915418563 22.711556256570617 6.583298556535042 0 0 0
385 1 2 -1.1794 5.2876414053809295 18.65148057303611 6.555566578382776 0 0 0
702 1 1 0.5897 2.2000181173388893 22.22371471776102 6.305409726909767 0 0 0
38 1 1 0.5897 2.3118666447151095 22.21161941169968 9.808929438340723 0 0 0
101 1 1 0.5897 5.913884674731144 18.236487759934604 9.624038735813151 0 0 0
341 1 1 0.5897 1.4986151750313244 18.4836087711276 6.529780597161721 0 0 0
33 1 1 0.5897 6.755197748205636 22.22900770942819 6.434043048663673 0 0 0
383 1 1 0.5897 3.713720922548182 17.957928661198352 10.093132821128869 0 0 0
85 1 2 -1.1794 7.458162649679896 22.55807097343628 9.51115017436874 0 0 0
554 1 1 0.5897 6.036999440219766 21.73138383695789 10.089395946287182 0 0 0
340 1 2 -1.1794 0.6891695346193606 18.961164191105226 6.711130919790766 0 0 0
386 1 1 0.5897 6.076340505158196 18.219371730634926 6.227868589695 0 0 0
31 1 2 -1.1794 7.509487738099987 22.67622487001696 6.8177304041167455 0 0 0
100 1 2 -1.1794 5.211629320922923 18.760444053572037 9.238667591368497 0 0 0
248 1 1 0.5897 4.498102995917107 21.667163451514355 6.232730057270611 0 0 0
403 1 2 -1.1794 0.6945308201824186 18.882280379621655 9.463761299201073 0 0 0
94 1 2 -1.1794 0.9558760202785318 21.31889656436394 10.434679689495326 0 0 0
405 1 1 0.5897 0.9043057133495198 19.75660145639631 9.792392381966748 0 0 0
240 1 1 0.5897 3.7039480813963905 17.89442627655773 6.131430227370021 0 0 0
185 1 1 0.5897 8.00286672638086 17.864795121543892 10.058837405457677 0 0 0
247 1 2 -1.1794 5.33007144717663 21.277237751092443 5.964558479864607 0 0 0
309 1 1 0.5897 8.204587764741914 17.81814078010551 5.925937262213367 0 0 0
95 1 1 0.5897 0.16048096773171494 21.722521988170257 10.087405171860038 1 0 0
380 1 1 0.5897 0.6802640436445481 20.556974708085157 13.384681773395862 0 0 0
88 1 2 -1.1794 5.080398006011461 21.347510564093056 13.10276374108008 0 0 0
381 1 1 0.5897 1.4955925890767998 21.828796028912286 13.483960275263442 0 0 0
90 1 1 0.5897 5.131262535336098 20.446799817826367 13.423053626128407 0 0 0
763 1 2 -1.1794 5.120788988612636 18.711048880488008 14.037758557972916 0 0 0
738 1 1 0.5897 3.6480850072438273 22.110243610042957 13.72294553523601 0 0 0
89 1 1 0.5897 5.118706429528438 21.26583878061254 12.149772210560165 0 0 0
764 1 1 0.5897 4.303542360705483 18.342777542640114 13.702141293811907 0 0 0
474 1 1 0.5897 5.276168044753392 18.589260280101946 15.773955649806716 0 0 0
765 1 1 0.5897 5.807691686679827 18.2380146712108 13.5680711875544 0 0 0
350 1 1 0.5897 2.995432094722289 22.667665953479826 15.996286263663656 0 0 0
736 1 2 -1.1794 2.882526845540844 22.518384218661964 14.127308632539954 0 0 0
787 1 2 -1.1794 7.3398479502335725 22.7117276557848 13.765005684133069 0 0 0
503 1 1 0.5897 1.4859600699216462 18.43907996233215 13.787510252485783 0 0 0