LAMMPS (30 Jul 2021)
Processor partition = 0
  using 2 OpenMP thread(s) per MPI task
using multi-threaded neighbor list subroutines
variable        pid world 0 1
variable        phase world IceV IceIII

shell cd ${phase}
shell cd IceV
include Restart.lmp
echo both
log log.lammps
#include		in.partitions
include		in.temp
variable        temperature equal 98.97
variable	tempDamp equal 100.0
include		in.pressure
variable        pressure equal 6910.0
variable        pressureDamp equal 1000.0 # This is 1 ps
include		in.seed
variable        seed equal 745823

units		real
atom_style	full
read_restart    restart.lmp.${pid}
read_restart    restart.lmp.0
Reading restart file ...
  restart file = 30 Jul 2021, LAMMPS = 30 Jul 2021
  restoring atom style full from restart
  triclinic box = (-3.1329353 -0.013099085 0.0066503670) to (14.742934 22.593098 19.223348) with tilt (0.085448222 -6.6592372 0.020340506)
  2 by 4 by 4 MPI processor grid
  restoring pair style lj/cut/tip4p/long/omp from restart
  restoring bond style harmonic/omp from restart
  restoring angle style harmonic/omp from restart
  1008 atoms
  672 bonds
  336 angles
Finding 1-2 1-3 1-4 neighbors ...
  special bond factors lj:    0        0        0       
  special bond factors coul:  0        0        0       
     2 = max # of 1-2 neighbors
     1 = max # of 1-3 neighbors
     1 = max # of 1-4 neighbors
     2 = max # of special neighbors
  special bonds CPU = 0.002 seconds
  read_restart CPU = 0.008 seconds

include 	in.setup
variable	out_freq equal 1000
variable	out_freq2 equal 10000
variable	out_freq3 equal 1000

timestep	2.0

neigh_modify    delay 7 every 1

include		in.tip4p
# This is TIP4P/Ice

# create groups ###
group ox type 2
336 atoms in group ox
group hy type 1
672 atoms in group hy

# set charges - beside manually ###
set group ox charge -1.1794
Setting atom values ...
  336 settings made for charge
set group hy charge 0.5897
Setting atom values ...
  672 settings made for charge

# ### TIP3P Potential Parameters ###
pair_style lj/cut/tip4p/long/omp 2 1 1 1 0.1577 8.5
pair_coeff 1 1*2 0.000 0.000
pair_coeff 2 2 0.21084 3.1668
bond_style  harmonic
bond_coeff  1 450 0.9572
angle_style harmonic
angle_coeff 1 55 104.52
kspace_style pppm/tip4p/omp 1.0e-5
pair_modify tail yes

thermo          ${out_freq}
thermo          1000
thermo_style    custom step temp pe etotal epair emol press lx ly lz vol pxx pyy pzz pxy pxz pyz enthalpy

restart 	${out_freq3} restart.lmp.${pid} restart2.lmp.${pid}
restart 	1000 restart.lmp.${pid} restart2.lmp.${pid}
restart 	1000 restart.lmp.0 restart2.lmp.${pid}
restart 	1000 restart.lmp.0 restart2.lmp.0


include         in.dump
dump            myDump all atom ${out_freq2} dump.water.${pid}
dump            myDump all atom 10000 dump.water.${pid}
dump            myDump all atom 10000 dump.water.0
dump            myDump2 all dcd ${out_freq2} dump.dcd
dump            myDump2 all dcd 10000 dump.dcd
dump_modify     myDump append yes
dump_modify     myDump2 append yes


variable natoms 	equal  "count(all)"                        # NUMBER ATOMS
variable H      	equal  "enthalpy/v_natoms"                 # ENTHALPY-per-atom
variable Vol      	equal  "vol/v_natoms"                 # volume-per-atom
fix AVG all 		ave/time ${out_freq} 1 ${out_freq} v_Vol v_H file vol_enthalpy.dat
fix AVG all 		ave/time 1000 1 ${out_freq} v_Vol v_H file vol_enthalpy.dat
fix AVG all 		ave/time 1000 1 1000 v_Vol v_H file vol_enthalpy.dat



fix 		1 all shake 1e-6 200 0 b 1 a 1
Finding SHAKE clusters ...
       0 = # of size 2 clusters
       0 = # of size 3 clusters
       0 = # of size 4 clusters
     336 = # of frozen angles
  find clusters CPU = 0.001 seconds
fix             2 all nph tri ${pressure} ${pressure} ${pressureDamp}
fix             2 all nph tri 6910 ${pressure} ${pressureDamp}
fix             2 all nph tri 6910 6910 ${pressureDamp}
fix             2 all nph tri 6910 6910 1000
fix             3 all temp/csvr ${temperature} ${temperature} ${tempDamp} ${seed}
fix             3 all temp/csvr 98.97 ${temperature} ${tempDamp} ${seed}
fix             3 all temp/csvr 98.97 98.97 ${tempDamp} ${seed}
fix             3 all temp/csvr 98.97 98.97 100 ${seed}
fix             3 all temp/csvr 98.97 98.97 100 745823


run             250000
PPPM initialization ...
  extracting TIP4P info from pair style
  using 12-bit tables for long-range coulomb (../kspace.cpp:340)
  G vector (1/distance) = 0.37930332
  grid = 24 27 32
  stencil order = 5
  estimated absolute RMS force accuracy = 0.0024701686
  estimated relative force accuracy = 7.4388395e-06
  using double precision FFTW3
  3d grid and FFT values/proc = 5355 672
Last active /omp style is kspace_style pppm/tip4p/omp
Neighbor list info ...
  update every 1 steps, delay 7 steps, check yes
  max neighbors/atom: 2000, page size: 100000
  master list distance cutoff = 10.8154
  ghost atom cutoff = 10.8154
  binsize = 5.4077, bins = 5 5 4
  1 neighbor lists, perpetual/occasional/extra = 1 0 0
  (1) pair lj/cut/tip4p/long/omp, perpetual
      attributes: half, newton on, omp
      pair build: half/bin/newton/tri/omp
      stencil: half/bin/3d/tri
      bin: standard
Setting up Verlet run ...
  Unit style    : real
  Current step  : 32500000
  Time step     : 2
Per MPI rank memory allocation (min/avg/max) = 10.31 | 10.32 | 10.33 Mbytes
Step Temp PotEng TotEng E_pair E_mol Press Lx Ly Lz Volume Pxx Pyy Pzz Pxy Pxz Pyz Enthalpy 
32500000    102.54651   -5169.2196   -4964.1139   -5169.2196            0    7211.9098     17.87587    22.606197    19.216697    7765.5718    7259.0874    7128.6554    7247.9865   -641.28342    91.049411    864.66856   -4147.3442 
32501000    98.246348   -5187.5809   -4991.0761   -5187.5809            0    6328.6364    17.859993    22.720933    19.182218    7784.0616    6210.5558    6117.3577    6657.9958    24.458666    106.66203   -176.13928   -4272.6331 
32502000    99.013326   -5177.4602   -4979.4214   -5177.4602            0    8531.3583    17.728723    22.737241    19.147407    7718.3629    9209.3778    7802.2889    8582.4083     355.0961   -113.51413   -290.97765   -4019.0941 
32503000    99.392693   -5191.3498   -4992.5521   -5191.3498            0    5672.6106    17.963985    22.590964    19.202691    7792.9078    4543.6355    6860.6468    5613.5496    731.59305    776.76214   -801.13098    -4347.851 
32504000    98.801949   -5198.9116   -5001.2955   -5198.9116            0    7271.0409    17.789709    22.894657    19.034737    7752.6444    6998.0018    6782.4821    8032.6388   -583.97653    405.08974    -924.8846   -4179.1999 
32505000    98.189816   -5185.4941   -4989.1023   -5185.4941            0     6407.765    17.795289    22.752515    19.185199    7767.8487    6670.3421    6445.6556    6107.2973     154.2018    106.95852   -96.137257   -4263.1916 
32506000     102.1471   -5185.8871   -4981.5803   -5185.8871            0    7585.0185    17.880918     22.65917    19.159639     7762.849    7506.8093    8363.9087    6884.3374    72.759191     520.4285   -549.46554   -4122.8561 
32507000     98.01085   -5184.9112   -4988.8774   -5184.9112            0    7137.7599     17.75769    22.824459    19.137001    7756.4118    6905.8988    6969.8259    7537.5549    837.70154   -355.14177   -1189.2098   -4181.4589 
32508000    98.607634   -5183.4544    -4986.227   -5183.4544            0    6667.2359    17.864683    22.734152    19.114484     7763.126    5563.9619    7039.2815    7398.4641   -956.88286   -302.41613    79.986623    -4231.381 
32509000    100.84093   -5178.8574   -4977.1631   -5178.8574            0    6635.6963    17.806158    22.729978    19.206038    7773.3286    6874.5778    6872.5771    6159.9341   -1384.9421    533.79429    849.47405   -4224.9006 
32510000    104.89492   -5192.2444   -4982.4416   -5192.2444            0    6424.7043    17.863881    22.758877    19.145918    7784.0005    5967.1676    6933.0444    6373.9008   -489.73276    1230.0061   -297.96687   -4253.0985 
32511000    101.07697   -5190.6406   -4988.4741   -5190.6406            0    6912.3479    17.887675    22.542196    19.234798     7755.999    7720.1666    6899.6188    6117.2584   -196.67344   -406.15361    647.83755   -4206.5957 
32512000     105.4465   -5180.4565   -4969.5505   -5180.4565            0    6875.6757    17.741941    22.821948    19.171057    7762.4692     6939.414    6717.1463    6970.4669    4.4971616    94.376426    1714.3063   -4191.1714 
32513000    105.62785   -5185.0118   -4973.7431   -5185.0118            0    6712.9077    17.975149    22.645395    19.088277     7769.966    6859.6005    6123.5703    7155.5523    758.14777    -874.4755    699.52162   -4213.0566 
32514000    100.46011   -5187.0103   -4986.0776   -5187.0103            0    7738.2528    17.877112    22.566002    19.185811    7739.8428    7280.4727    7978.0142    7956.2715   -484.35846   -105.57729    608.26468   -4112.6017 
32515000    101.06143   -5189.9998   -4987.8645   -5189.9998            0     7453.994    17.738049    22.831242    19.135738    7749.6232    7893.0062    6624.2373    7844.7387     496.9145    272.42352    970.25802   -4145.4118 
32516000    101.03967   -5189.9281   -4987.8362   -5189.9281            0    5827.0218    17.868384    22.697882    19.214631    7792.9635    6473.9181    5513.9925    5493.1547   -543.64933    106.72499   -499.75432   -4325.5813 
32517000    97.571124   -5183.1435   -4987.9892   -5183.1435            0     7220.539    17.825755    22.596941    19.308932    7777.7832    6857.7964    8157.4037    6646.4169    121.53436    322.63837    422.81795   -4168.9563 
32518000    97.868894   -5190.9196   -4995.1697   -5190.9196            0    7068.0863    17.926406    22.717356    19.021328     7746.256    7200.3975    7080.7595    6923.1018    791.49882   -656.57872   -343.06658   -4196.6795 
32519000    99.894298   -5182.9405   -4983.1395   -5182.9405            0     7688.784    17.842491    22.645055    19.163136    7742.7539    7767.0727    7298.9718    8000.3075   -557.93154    115.66604   -214.44139   -4114.9211 
32520000    96.903953   -5181.7565   -4987.9366   -5181.7565            0    7156.9052    17.827893    22.728375     19.10084    7739.6417    6435.3428    7806.3449    7229.0279   -517.65212   -284.88326   -1089.7624   -4180.1029 
32521000    95.190946   -5191.9135   -5001.5199   -5191.9135            0    6084.0346    17.898245    22.637792    19.247961    7798.8261    5384.0352    6431.2696    6436.7991    197.03466    690.24976   -1730.3936   -4309.5347 
32522000    98.343706    -5183.324   -4986.6245    -5183.324            0     6271.762    17.928226    22.613384    19.210687    7788.3555     7378.867    5714.9181    5721.5007    502.69871   -466.23217    426.06304   -4274.2453 
32523000    99.275989   -5198.6944   -5000.1302   -5198.6944            0    5568.7973    17.867656    22.643891    19.223481    7777.6911    5431.4568     5645.118     5629.817   -739.16536   -903.69747   -429.99739   -4368.4634 
32524000    104.33338   -5179.9798   -4971.3002   -5179.9798            0     6474.414    17.878224    22.786128    19.112389     7785.919    5280.5921    6044.5492    8098.1008   -474.15805   -478.80175   -788.38055   -4236.1328 
32525000    101.29157   -5180.7419   -4978.1462   -5180.7419            0    5809.7546    17.922837    22.578587    19.276053    7800.4853    5537.0136    6415.9091     5476.341   -260.41401   -186.61124   -120.16753   -4317.2165 
32526000     102.8795   -5185.1205   -4979.3488   -5185.1205            0    6934.1009    17.804197    22.803575    19.107223    7757.5199    6337.2409    7431.5608    7033.5011   -197.46593    256.46746     296.9451    -4194.856 
32527000    106.10306   -5188.5343   -4976.3151   -5188.5343            0    6707.0019    17.800683     22.80653    19.148213    7773.6343    6846.2728     6147.431    7127.3019   -390.96769    471.70835    260.21982   -4215.9391 
32528000    99.898365    -5191.103   -4991.2939    -5191.103            0     7196.639    17.939999    22.596657    19.169492    7771.0055    6941.5082    6767.4552    7880.9536    28.453464   -788.12201    194.90037   -4175.6834 
32529000    98.705741   -5181.3134   -4983.8897   -5181.3134            0    7400.9012    17.704888    22.643556    19.323575    7746.8526    9224.2577    7048.7948    5929.6511   -287.44293   -1.3599456   -877.54516   -4147.7366 
32530000    100.63076   -5183.5732   -4982.2993   -5183.5732            0    6643.5004    17.898848    22.710276    19.140927    7780.5528    6693.7372    6527.2994    6709.4646   -661.78999    201.18103     670.1765   -4228.4521 
32531000    102.88744   -5180.4402   -4974.6526   -5180.4402            0    6712.6574    17.917901    22.620911    19.171158    7770.4394    6379.7586    7339.3217    6418.8919   -350.32439   -339.12321    29.012706   -4213.9482 
32532000    99.822035   -5178.5336   -4978.8772   -5178.5336            0    7145.1504    17.750538    22.900107    19.074344     7753.515    6787.0639    6332.7483     8315.639   -892.03903   -462.86391   -366.03082   -4170.9246 
32533000    99.571112   -5186.2594   -4987.1049   -5186.2594            0    7912.5049    17.918346    22.547326     19.17933    7748.6562    7730.0897    8096.6277    7910.7974    926.40185    583.52773    1005.3904   -4092.9427 
32534000    96.494174   -5188.6943   -4995.6941   -5188.6943            0    7077.8115    17.733998    22.766451    19.214649    7757.7263    9075.9172    6460.9056    5696.6117   -900.66897    -156.5429    224.97257   -4194.9212 
32535000    100.10943   -5201.0078   -5000.7765   -5201.0078            0    6950.1245    17.815906    22.720013    19.182738    7764.7428    6940.7362    7309.6077    6600.0296   -68.470024   -34.964319    662.94194   -4213.7388 
32536000    98.901641   -5197.0742   -4999.2587   -5197.0742            0    6434.4334    17.958785    22.710743    19.087321    7784.9041    5580.9529    6780.9897    6941.3577    679.55732    463.32668   -96.215186   -4268.7263 
32537000    98.272932   -5182.2329   -4985.6749   -5182.2329            0    7313.6606    17.870295     22.64784    19.152038     7751.281    7187.9801    7344.8315    7408.1702   -54.277438   -223.62813   -275.02233    -4158.906 
32538000    100.14006   -5187.2247   -4986.9322   -5187.2247            0     7694.155    17.792914    22.720437    19.175672    7752.0101    8038.7294     7549.579    7494.1565   -727.52289   -78.157047   -345.70645   -4117.0687 
32539000    97.462734   -5186.1848   -4991.2473   -5186.1848            0    6314.7604    17.745502    22.891311    19.151874    7779.8324    5818.2917    6181.9147    6944.0749    213.26771     940.3904    1170.4872    -4274.769 
32540000    101.70465   -5186.9807   -4983.5588   -5186.9807            0    6772.3238    17.850893    22.578863    19.301921    7779.6946    7392.7816    6668.5319     6255.658    12.632856    92.568161   -168.69636   -4215.1787 
32541000    99.520732   -5182.1525   -4983.0988   -5182.1525            0    7247.9107    17.806029    22.988142    18.944738     7754.603    6285.3187    6885.8624    8572.5511   -31.544558    -226.2807    96.827784   -4163.4113 
32542000     101.3367   -5193.4282   -4990.7423   -5193.4282            0    5845.2027    17.840766     22.75601    19.171742    7783.4333    6125.5576    4957.2437    6452.8067    138.08159   -397.62501   -193.26666   -4327.2335 
32543000    101.78152   -5183.9663   -4980.3907   -5183.9663            0    6302.8064    17.870118    22.700531    19.178977    7780.1663    5457.3673    7137.9187    6313.1332    430.20671    75.253373   -442.66239    -4265.238 
32544000    95.758478   -5187.7794   -4996.2506   -5187.7794            0     7195.032    17.871198    22.756232     19.07801    7758.6667     7800.194    6787.8958     6997.006    321.01531   -38.985658    253.07516   -4182.1169 
32545000     98.09971    -5193.976   -4997.7645    -5193.976            0    7078.8437    17.812908    22.644062    19.215084    7750.5312    7305.6737    6896.7574    7034.1001    198.90648    597.25628   -345.05214   -4197.6177 
32546000    97.124482   -5186.0496   -4991.7886   -5186.0496            0    7409.3897    17.821413    22.708295    19.129146    7741.4486    7089.2752    7955.5321    7183.3617    1270.1478    298.49767    1812.8566   -4155.2605 
32547000    101.38976   -5188.8704   -4986.0783   -5188.8704            0    7399.4985    17.763237     22.83445    19.141719    7764.1446    7544.9811    7197.8817    7455.6327    140.00041    69.723845   -363.61074   -4148.2177 
32548000    100.23159   -5193.8853   -4993.4097   -5193.8853            0    7307.5253    17.812349     22.63336    19.234228    7754.3423    7040.2448    7780.4423    7101.8888    196.71608    746.40303    15.190729   -4167.0081 
32549000    98.430241   -5174.9383   -4978.0657   -5174.9383            0     7110.853    17.944688    22.689228    19.055099    7758.3044    4921.2419    7270.3503    9140.9669    619.14796   -56.750469   -1710.1625   -4173.4946 
32550000    95.588772   -5189.1495   -4997.9602   -5189.1495            0    5615.8777    17.830448     22.76756    19.190818    7790.6239    6180.2459    5359.9433    5307.4439    73.072811    249.22103    126.48404   -4359.8939 
32551000    103.63047   -5172.7946   -4965.5208   -5172.7946            0    6918.8647    17.928786    22.701112    19.107463    7776.8019    6183.5774    6442.9774    8130.0392   -248.41064   -170.15508    254.94343   -4180.8062 
32552000    95.727884   -5184.3869   -4992.9193   -5184.3869            0    6924.9626    17.845258    22.681899    19.168083    7758.5568    5542.6689    7767.4304    7464.7886    1505.7668    53.056348    817.07709   -4209.3557 
32553000    95.884873   -5195.3241   -5003.5426   -5195.3241            0    6655.9073       17.829    22.663563     19.23493    7772.2322    6815.9977    6753.4344    6398.2897    214.53919    184.26292    -621.1655   -4249.0952 
32554000    104.57332   -5183.1546   -4973.9951   -5183.1546            0    7140.1697    18.010721    22.662592    19.025616    7765.6784    6528.7181    7298.3699    7593.4213   -279.87684    643.53304   -208.24145    -4165.339 
32555000    103.37936   -5186.4856   -4979.7141   -5186.4856            0    6718.2132    17.822209    22.663556     19.20338    7756.5262    6402.7543    7405.3805    6346.5048     958.7631    295.00652    1236.4562   -4219.7432 
32556000    100.67301   -5171.8439   -4970.4855   -5171.8439            0    7535.8819    17.767534    22.724228    19.180563    7744.2196    7616.0429    7446.8597    7544.7429    279.18899   -713.60602   -1016.6699   -4119.3717 
32557000    95.316247   -5189.5229   -4998.8786   -5189.5229            0    7773.8108    17.828701    22.657379    19.161073     7740.147    8000.8751    7479.2056    7841.3515    242.41145    431.93277   -602.12462   -4121.3545 
32558000    97.807861   -5185.1085   -4989.4807   -5185.1085            0    6122.7631     17.90168    22.705966    19.124843    7773.7692    6031.3052    6293.5006    6043.4836   -69.228964   -233.38261     532.5264    -4295.328 
32559000    97.407515   -5181.5204   -4986.6933   -5181.5204            0    7714.2526    17.700753    22.811384    19.146121    7730.7954    7818.3058    7654.0758    7670.3763   -732.15124   -668.54444   -997.71068   -4116.9444 
32560000    101.65384   -5192.6385   -4989.3183   -5192.6385            0    6506.9557    17.891687    22.617801    19.213826    7775.2708    6712.5954    6754.9437     6053.328    1222.1517    375.31421    390.25345   -4251.4663 
32561000    100.20676   -5181.7552   -4981.3293   -5181.7552            0    6221.2601    17.857278     22.75848    19.144241    7780.3057    5713.5391    6021.9373    6928.3039   -293.76498   -115.85666    50.140841   -4275.4168 
32562000    106.83285   -5181.5175   -4967.8386   -5181.5175            0     7365.423    17.685733    22.943289    19.121112     7758.752    6804.0002    7380.7264    7911.5423    1112.6735    872.98435    1060.3748   -4134.4157 
32563000     104.3121   -5185.7863   -4977.1492   -5185.7863            0    6918.1773    17.932799    22.596751    19.218333    7787.7103    7160.9199    6971.2654    6622.3464    -654.9943    256.20734    195.71825   -4191.4119 
32564000    97.864445   -5188.7364   -4992.9954   -5188.7364            0    5759.5568    17.870419    22.692395    19.215329    7792.2503    7069.6463    5484.6187    4724.4054    1050.2928   -151.24057   -415.97968    -4338.468 
32565000    97.690993   -5193.4898   -4998.0957   -5193.4898            0    5974.6476    17.778629    22.829429    19.164816    7778.5382     5360.689     5965.649    6597.6048    221.62964   -307.94133   -1229.3552   -4320.3197 
32566000    101.62807    -5177.156   -4973.8873    -5177.156            0    6882.4446     17.92888    22.585865    19.208438    7778.2503    6157.9802    7899.1266    6590.2272   -1103.2968    1312.5681   -140.95961   -4193.1579 
32567000    101.29876   -5194.0823   -4991.4722   -5194.0823            0    6704.2423    17.754333    22.773835    19.156226    7745.5183    6884.8922    6935.8577    6291.9769    472.12863    92.502389     398.8282   -4234.1581 
32568000    100.63451    -5185.291   -4984.0096    -5185.291            0    7585.6097    17.850428    22.670113    19.162824    7754.6438    6768.3414    7596.6394    8391.8482   -172.57212   -142.54952   -1809.6716   -4126.1262 
32569000    95.205476   -5190.6924   -5000.2697   -5190.6924            0    7196.6465    17.809195    22.847749    19.070883    7759.9426    7363.2885     6749.165    7477.4861    -425.6054    1339.6359    1377.0993   -4185.8194 
32570000    103.15451   -5190.1286   -4983.8069   -5190.1286            0    5687.3541     17.92097    22.556242    19.291636    7798.2528     5880.249    5699.6806    5482.1326   -103.27991   -592.42834   -312.20696   -4336.9868 
32571000    100.02737   -5183.9103   -4983.8432   -5183.9103            0    7313.6556    17.927095    22.534851    19.206445    7759.1048    7506.9402    7443.0459    6990.9808   -80.665435   -519.40148   -240.96219   -4156.2403 
32572000    106.15499   -5179.7344   -4967.4113   -5179.7344            0    6972.1838    17.783613    22.846372    19.119826    7768.2139    7672.3602    6456.0324    6788.1588  -0.90634616    244.71726   -646.95849   -4177.5226 
32573000    93.327173   -5192.0005   -5005.3346   -5192.0005            0    6623.9959    17.893304    22.667101    19.180585    7779.4405    6505.6054     6390.656    6975.7263    495.30259    120.58776    380.85443   -4253.8081 
32574000    91.820479   -5183.8252   -5000.1729   -5183.8252            0    7115.4459    17.964846    22.542178    19.171773    7763.9303    6607.4151    7459.0103    7279.9123   -1311.5808   -11.613449     -478.238   -4194.4984 
32575000    96.019457   -5186.2599   -4994.2091   -5186.2599            0    6893.5135    17.847419    22.703884     19.17745    7770.8125     7062.147    7101.0378    6517.3557    939.60755    1068.5761   -59.713842   -4212.9719 
32576000    101.63822   -5185.7862   -4982.4972   -5185.7862            0    8140.9855    17.842092     22.71424     19.09717    7739.5015    6764.9903    8603.8202    9054.1459   -237.80991    196.72157    448.88343   -4063.6023 
32577000    96.343333   -5195.3449   -5002.6463   -5195.3449            0     7007.076    17.776816    22.805083     19.10045    7743.3564    7612.5122    6091.8648     7316.851     117.0058   -150.79019    626.47141   -4211.3449 
32578000    105.33218   -5181.9929   -4971.3155   -5181.9929            0    6014.4101     17.95289    22.576518    19.209915    7786.0428    5108.1061    6095.7058    6839.4185    814.32779    55.630507   -825.41245   -4288.3705 
32579000    97.151833   -5186.7233   -4992.4076   -5186.7233            0    7291.2712    17.830383    22.656406    19.193851     7753.786    6536.0958    7579.8009    7757.9168    175.76229   -219.13928   -11.610767   -4167.9033 
32580000    104.73497   -5183.9077   -4974.4248   -5183.9077            0    6295.4291    17.777002    22.872144    19.130704     7778.509    7369.8389    5360.5625    6155.8859    178.85738     213.0496    367.78573   -4260.2615 
32581000    100.78501    -5185.342   -4983.7596    -5185.342            0    6413.4655    17.898454    22.595014    19.213198    7770.1214    6225.3379    6640.2199    6374.8386    312.85733   -447.06655   -1294.5798   -4256.9904 
32582000     98.20144   -5197.8682   -5001.4532   -5197.8682            0    5677.5306     17.82627    22.840489    19.150375    7797.2806    5369.8595    5435.8891    6226.8434   -655.38279   -879.74213    255.34365   -4355.8308 
32583000    98.722536   -5180.8421   -4983.3848   -5180.8421            0    6566.0492    17.900758    22.635336    19.193921    7777.1786    6818.1291    6159.2626     6720.756   -278.55192   -294.88476   -1480.1209   -4238.6493 
32584000    101.82103   -5177.2887   -4973.6341   -5177.2887            0    7283.3939    17.849465    22.747505    19.100319    7755.3178    6670.2813     7298.642    7881.2583    -9.308014    110.23131   -72.585075   -4149.8578 
32585000    98.586042   -5192.2263   -4995.0421   -5192.2263            0    6745.9769    17.934804    22.617159    19.135608    7762.0592    6625.0224    6575.5526    7037.3559    414.31469   -886.93845   -601.21891   -4231.3862 
32586000    97.024377   -5186.6598    -4992.599   -5186.6598            0     6643.291    17.821443    22.676901     19.20273    7760.4971    6667.7346    6894.8837    6367.2547    1286.4365    816.53495   -342.88819   -4240.7187 
32587000    98.605247   -5190.1316    -4992.909   -5190.1316            0    6838.2527     17.88515    22.726029    19.104371    7765.1331     5960.203    6942.3954    7612.1597   -510.75989   -246.32513    392.33881   -4218.5008 
32588000    100.24107   -5186.2162   -4985.7217   -5186.2162            0    7724.5846    17.847477    22.602852    19.213417     7750.767    6734.7917     8418.428    8020.5342   -376.74324    577.03217    -793.2007   -4112.5579 
32589000    93.861306   -5192.1877   -5004.4535   -5192.1877            0    8023.9099    17.841938    22.664535    19.112638    7728.7538    8380.4234    8049.8494    7641.4568   -322.55401    497.45467   -440.67657   -4100.0309 
32590000    94.502689   -5182.7463   -4993.7292   -5182.7463            0    7157.2653    17.966575    22.568956    19.169384    7772.9331    7316.0734    6885.6694    7270.0532    184.41011   -937.36604    86.852505   -4182.3798 
32591000     94.54329   -5184.8011   -4995.7028   -5184.8011            0    6313.0873    17.767157    23.000316    19.031377    7777.1767    7012.2103    5135.9107    6791.1409    7.6371319   -137.97776     949.8434   -4279.6589 
32592000    97.311972    -5184.985    -4990.349    -5184.985            0    7383.9873    17.918213    22.574714     19.16101    7750.6005    6903.8625    8303.2388    6944.8607    183.07417    74.754257   -194.28065   -4155.7033 
32593000    102.63742   -5184.0727   -4978.7852   -5184.0727            0    7294.9272    17.842148    22.728514    19.130922     7758.077    6877.5147    7180.7196    7826.5475    645.20751   -84.863184   -379.49051   -4153.4109 
32594000    96.490559   -5178.3854   -4985.3923   -5178.3854            0    7567.4903    17.868932    22.694733    19.100307    7745.7596    7168.6803    8471.0842    7062.7063    522.37128   -649.31612    1855.7695   -4130.5387 
32595000     97.90354   -5198.1418   -5002.3226   -5198.1418            0    6446.7754    17.826224    22.605732    19.269468     7765.111    5787.3782    6908.2864    6644.6615    -395.8044   -246.00859     814.8863   -4272.2499 
32596000    104.10852   -5191.2188   -4982.9889   -5191.2188            0    7478.4374     17.78017    22.756292    19.135957    7742.6138    7810.0012    7506.6839     7118.627   -248.30088    66.708182    640.87087   -4138.5381 
32597000    94.573478   -5177.6481   -4988.4895   -5177.6481            0    6793.2368     17.82807     22.60506    19.287684    7773.0254    7024.6265    6989.0265    6366.0573    731.89219   -722.26804   -541.31907   -4218.3973 
32598000    99.545694   -5189.0598   -4989.9561   -5189.0598            0    6806.3221    17.899935    22.685424    19.118615    7763.4503    7748.5589    6152.0013    6518.4061   -103.92987   -46.650855    542.73228    -4219.331 
32599000     97.87534   -5184.4742   -4988.7114   -5184.4742            0    7639.8056    17.809371    22.791198    19.053502    7733.7574    8558.8212    7198.4178    7162.1779    -439.1043    12.220622   -893.93482    -4127.026 
32600000     99.16432   -5191.5164   -4993.1755   -5191.5164            0    5765.7339    17.812168    22.826335    19.192611     7803.457    5705.7508    5431.2093    6160.2416     1261.937   -209.18366    1533.6786   -4337.0038 
32601000    92.785425   -5192.7867   -5007.2044   -5192.7867            0    6248.9821    17.934574    22.735364    19.104136    7789.6935    6540.3113     6047.366    6159.2688    -789.0397    485.68551    558.15834   -4297.2908 
32602000    97.537916   -5181.6029    -4986.515   -5181.6029            0    6965.5189    17.794439    22.812206    19.130314    7765.5761    7769.4418    6262.2067    6864.9083     1020.684    5.1605111    14.049131   -4197.6493 
32603000    104.52138   -5187.8513   -4978.7956   -5187.8513            0    7233.3441    17.856651    22.600034    19.224011    7758.0596    5775.6529    7960.4371    7963.9423    191.24557   -237.23298   -1547.7266   -4160.3909 
32604000     98.77866   -5180.7164   -4983.1469   -5180.7164            0    5912.2836    17.851365    22.739819    19.191083    7790.3669    5756.5834    5954.5315    6025.7359   -79.963476    679.24647    146.37132   -4311.4257 
32605000    103.75052   -5180.8473   -4973.3335   -5180.8473            0    6662.8481     17.79599    22.897068    19.110836    7787.2067     7057.923    6000.5071    6930.1141   -64.468935    654.62414   -1560.1488   -4216.6443 
32606000    91.250924   -5182.5692   -5000.0561   -5182.5692            0    6911.0819    17.906294    22.598481    19.157136    7752.0319    6710.6183    7477.5305    6545.0968    641.66931   -261.94501    236.39393   -4218.7208 
32607000    103.11964   -5189.4634   -4983.2114   -5189.4634            0    7892.1171    17.960064    22.606345    19.054832    7736.4787    6113.5243    8330.0665    9232.7605    -318.5095    7.6833022    716.26021   -4092.7548 
32608000    98.961576    -5181.982   -4984.0466    -5181.982            0    5968.7473    17.689151    22.935485    19.214031    7795.3106    6182.7772    6173.8035    5549.6613    313.70754    893.65784    41.189224     -4305.48 
32609000     96.70069   -5190.4175   -4997.0041   -5190.4175            0    5445.9178    17.902413    22.766101    19.162468    7810.0114    5091.9177     5146.463    6099.3727    812.11097   -849.14196   -10.741615   -4376.7086 
32610000    100.62163   -5180.4074   -4979.1517   -5180.4074            0    6384.1499     17.90442    22.628682    19.153243    7760.0021    6287.8156    6242.7218    6621.9122    557.83915   -517.60869   -732.28032   -4256.6468 
32611000    102.70227   -5173.8374   -4968.4202   -5173.8374            0    7568.3914    17.783722    22.858496    19.032499    7736.8845    6933.8081    7768.2299    8003.1362    1393.7865    322.34181    1025.2582   -4114.4444 
32612000    98.124431   -5180.5912   -4984.3303   -5180.5912            0    6457.3023    18.006651    22.538157    19.171448    7780.4775    6292.3804    6718.3675    6361.1589   -792.66663   -490.87822     1832.793   -4251.6183 
32613000    98.385835   -5191.2082   -4994.4243   -5191.2082            0    6617.6869    17.926451    22.604883    19.141019    7756.4257     6516.787    6736.3096    6599.9642    776.88674     28.77685    840.49032   -4245.8348 
32614000    98.482716   -5179.4266    -4982.449   -5179.4266            0    6485.6844    17.906271    22.764154    19.079192    7777.0816    7624.8912    6130.2451     5701.917   -770.75476    75.912112   -447.60358   -4246.8378 
32615000    98.058424    -5187.261   -4991.1321    -5187.261            0     6567.717     17.88196    22.751631    19.084826    7764.5427    5351.1372    6773.8826    7578.1311   -1624.1554   -205.92161   -1146.9426   -4247.4177 
32616000    99.598419   -5191.0449   -4991.8357   -5191.0449            0    9124.2819    17.874669    22.562532    19.101931    7703.7664    8420.4997    9463.7123    9488.6337   -86.450897   0.13288194    93.840521   -3966.7087 
32617000    95.639753    -5188.679   -4997.3877    -5188.679            0    7754.5891    17.872425    22.783948    18.989857    7732.7532    6337.1534    8182.2586    8744.3554    -86.76665    714.32372    736.25693   -4122.8695 
32618000     93.83431    -5184.364   -4996.6838    -5184.364            0     6650.016      17.8112     22.63942    19.282803    7775.5058    7982.1496    6163.7233    5804.1752    172.17325   -297.27983    964.99922   -4242.5867 
32619000    100.47475   -5194.6591   -4993.6972   -5194.6591            0    8228.2513    17.887644    22.616919    19.092076    7723.9555    7112.5516    8913.2229    8658.9795   -180.69864   -8.1574503    95.816417   -4066.8179 
32620000    98.431978   -5189.7541    -4992.878   -5189.7541            0    6857.6094    17.811259    22.734005    19.187379    7769.3777    6974.3421    7314.7789    6283.7073    49.479412    693.87243   -124.08091   -4215.8532 
32621000    100.55369   -5195.4525   -4994.3327   -5195.4525            0    7574.2893    17.849028    22.558213    19.199741    7730.6254    6992.2824    8104.9278    7625.6577    1317.1962   -978.36089   -235.44742   -4140.3828 
32622000    100.33666   -5175.8404   -4975.1547   -5175.8404            0    7592.8585    17.814482     22.70328    19.124709    7734.9346    7299.4112     7875.196    7603.9683   -112.46051    270.13642    940.33225   -4118.6341 
32623000    102.15519   -5194.4081   -4990.0851   -5194.4081            0    6869.4446    17.856977    22.609975    19.243893     7769.641     7494.009    7054.1186    6060.2061    526.73407    373.57494   -738.41931   -4211.6929 
32624000    102.41829   -5185.0647   -4980.2155   -5185.0647            0    6708.9722    17.883822     22.73461    19.101195    7766.1966    6694.5611    6149.5674     7282.788   -1711.1676   -1027.8991     -809.071   -4220.3438 
32625000    102.40935   -5184.7592   -4979.9279   -5184.7592            0    6455.1803    17.880935    22.736589    19.116991    7772.0412    7368.0734    6339.2999    5658.1677    191.70908    455.43809    341.49973    -4248.251 
32626000    100.47994   -5196.5671   -4995.5948   -5196.5671            0    6813.0289    17.941775    22.642577    19.154395    7781.4352    7429.9992    6292.2882    6716.7992    -543.1244   -290.38015   -829.91736   -4222.4234 
32627000    93.738308   -5182.1133   -4994.6251   -5182.1133            0    6698.9734    17.793564    22.755674    19.169469    7761.8052    7322.9279    6162.5328    6611.4595    363.86802    210.87121   -418.32757    -4236.315 
32628000    96.582742   -5186.4109   -4993.2335   -5186.4109            0    7688.4525    17.820133    22.779406    19.076967    7743.9524    7896.8585    7279.5562    7888.9428    182.48906    388.22563   -1515.6781   -4124.9181 
32629000    102.69083   -5175.0269   -4969.6326   -5175.0269            0    6767.1096     17.88478    22.699965    19.128581    7765.8953    5419.1945    6687.8455    8194.2888    -644.7024    244.94637   -32.354626   -4203.2058 
32630000    93.325939   -5190.6727   -5004.0093   -5190.6727            0    6061.3889    17.882639    22.684771    19.197314    7787.6513    6236.7888    5918.1373    6029.2406    -83.66819   -377.15972    382.36585   -4315.5877 
32631000    95.821982   -5195.3751   -5003.7193   -5195.3751            0    6028.6332    17.645132    23.033787    19.103499    7764.3157     5849.222    5883.1553    6353.5224    354.01462    502.55581   -1442.1334   -4321.0695 
32632000    102.31236   -5180.4326   -4975.7952   -5180.4326            0    6961.8005    17.906521    22.514198    19.273474    7770.1196     7102.598    7136.3632    6646.4403   -973.83225   -708.27379   -690.62906   -4186.8894 
32633000    102.02566   -5185.9777   -4981.9138   -5185.9777            0    6744.1847    17.810244    22.676925    19.223577    7764.0486    7536.7908    6447.7062     6248.057    694.89549   -774.52119    -68.96799   -4218.2651 
32634000     94.83308   -5186.7445   -4997.0667   -5186.7445            0    7142.0801    17.742422    22.894962    19.090804    7754.9151    8013.2664    6350.0927     7062.881   -179.56027   -360.87551   -517.26745   -4189.3154 
32635000    98.248974   -5192.0812   -4995.5711   -5192.0812            0    7457.3888    17.900921    22.534684    19.225045    7755.2216    7475.8439     7847.018    7049.3044   -628.75745    102.47918   -1812.2261   -4152.1259 
32636000    105.54539   -5191.4577   -4980.3539   -5191.4577            0    6988.6652      17.8606    22.639609    19.187441    7758.5762    6967.0487    6785.5792    7213.3675   -784.90699   -473.78884    360.55362   -4189.5803 
32637000    100.80853   -5192.3966    -4990.767   -5192.3966            0    7064.5323    17.830056    22.859403    19.008418    7747.5352    6057.0163    6994.5356    8142.0451    765.53922    432.94179   -188.33241   -4192.5466 
32638000    96.107435   -5180.6266   -4988.3998   -5180.6266            0    8080.4025    17.826527    22.631603    19.190565    7742.2968    10022.746    7210.3153    7008.1466    880.81262   -633.61511    568.59943   -4076.0137 
32639000    96.087155   -5194.6464   -5002.4602   -5194.6464            0    6307.7539    17.867227    22.644994    19.231231    7781.0183    8087.7029     5804.317    5031.2416   -489.19434   -273.48218   -207.00863   -4286.6679 
32640000    99.159727   -5182.5572   -4984.2255   -5182.5572            0    6686.3829    17.844706    22.808795    19.099781    7773.9212    7625.8875    6073.7857    6359.4755    1020.7428    42.743928    214.13172   -4226.1591 
32641000    101.09486   -5195.8348   -4993.6326   -5195.8348            0    6069.1471    17.954109    22.599484    19.205318    7792.6269     6699.983    6334.6387    5172.8196    386.34509   -58.759432     374.5934   -4303.8894 
32642000    99.754775   -5187.6261   -4988.1042   -5187.6261            0    7231.1738    17.839315    22.756679    19.108611       7757.4    7189.5912    6647.0874    7856.8429    -1154.014   -845.15935    436.91559   -4170.0146 
32643000    93.357297   -5182.1636   -4995.4375   -5182.1636            0    6059.6642    17.871119    22.725823    19.195665    7796.0484    6572.5689    5885.6419    5720.7818     684.2862   -421.88247   -689.51826   -4306.4696 
32644000    98.434351     -5183.26   -4986.3791     -5183.26            0    7890.2098    17.960938    22.586567    19.098561    7747.8264    7309.4891    7789.0305    8572.1097    941.14208    269.95221   -918.45085    -4094.832 
32645000     100.4798   -5188.9265   -4987.9545   -5188.9265            0    6957.0754    17.874648    22.778632     19.03523    7750.3847    6023.3254    6690.2048     8157.696     720.1871    249.71717     838.8667   -4201.5864 
32646000     100.2477   -5191.0744   -4990.5666   -5191.0744            0    7832.3381    17.846002    22.566914    19.190575     7728.605    7054.1878    8818.9704    7623.8562   -338.57232   -403.83775   -1867.0216   -4107.7542 
32647000    96.179547   -5193.8393   -5001.4683   -5193.8393            0    7399.4105    17.890076    22.614873    19.154816    7749.6896     7038.882    7645.2299    7514.1195    503.09634    353.28312    924.30317   -4165.1776 
32648000    97.351983   -5187.0034   -4992.2874   -5187.0034            0    7530.2829    17.834273    22.666827    19.153514    7742.7387    7575.3351    7326.8226     7688.691    -408.4308   -693.97837   -574.32982   -4141.9686 
32649000    100.35714   -5178.2048   -4977.4782   -5178.2048            0    6674.3017    17.700996    23.015386    19.072881    7770.2014    7098.2256    5979.9519    6944.7276    1119.4784    784.61848    889.09793   -4221.1435 
32650000    98.336956   -5195.1155   -4998.4294   -5195.1155            0    6003.4769    17.925788    22.633939    19.220728    7798.4488    4900.0201    6409.8452    6700.5652   -510.80884     636.8181    284.57513   -4315.6397 
32651000    104.11941   -5180.0367    -4971.785   -5180.0367            0      6761.23    17.883245    22.740348    19.113916     7773.079    5821.5347    7362.1004    7100.0547    70.931762   -135.53053    828.81699   -4205.3159 
32652000    101.21061   -5187.3922   -4984.9585   -5187.3922            0    7712.0941     17.70255    22.928787    19.060214    7736.5025    9135.6402    6767.2139    7233.4283   -14.446224    28.821388    604.93177    -4114.811 
32653000    103.65862   -5188.8626   -4981.5326   -5188.8626            0    7429.6129    17.938703     22.57483    19.168952    7762.7194    7971.4723    6448.5954    7868.7709    171.52806   -1085.8936    74.302029   -4140.4164 
32654000    98.795686    -5189.683   -4992.0794    -5189.683            0    6229.4659    17.836418    22.736011    19.169361    7773.7316    5700.2346    6435.1631    6553.0002   -77.356928   -200.14572   -2096.9584    -4285.833 
32655000    95.610434   -5181.4673   -4990.2346   -5181.4673            0     7499.182    17.842821    22.701004    19.128145    7747.8537    8067.1937    7278.3761    7151.9761    264.50825   -239.15675    -438.6974   -4142.8683 
32656000    95.765752   -5191.3613    -4999.818   -5191.3613            0    6908.9947    17.901884    22.631348    19.149774    7758.4117    6154.3796    7668.2853    6904.3193    1222.2668   -29.918906    330.99688   -4218.0758 
32657000    99.576047   -5186.7136   -4987.5492   -5186.7136            0    7504.9707    17.762109    22.783928    19.132833    7742.8782    8765.7749    7332.2597    6416.8776    220.32298    702.95008    44.577655   -4140.0734 
32658000     98.49733   -5198.8822   -5001.8754   -5198.8822            0    6227.6312    17.867628    22.699522    19.211538    7791.9426    5937.1897    6682.2474    6063.4566    103.15245    184.29027     1582.969    -4294.183 
32659000     96.50093   -5194.1828    -5001.169   -5194.1828            0    6485.8321    17.802798    22.705667    19.256502    7783.9478    6686.0683    6871.9894    5899.4386     151.6041    162.50593     971.6595   -4264.8915 
32660000    101.97329   -5189.6812    -4985.722   -5189.6812            0    7218.0912     17.79613    22.732904    19.173578    7756.8187    7754.9213    6836.0815    7063.2707    379.32957    268.91297   -161.02358   -4169.1737 
32661000    96.735591   -5190.3849   -4996.9018   -5190.3849            0    7725.6977    17.860006     22.59354    19.161502     7732.064    7606.2492    7984.5182    7586.3256   -186.04253   -68.600756    95.241364   -4125.7195 
32662000    96.787662   -5182.0394   -4988.4521   -5182.0394            0    7064.1634    17.795863    22.696374    19.225507    7765.2124     6798.028    7644.1149    6750.3472   -558.77853    234.91211   -55.048371   -4188.4522 
32663000    99.157511   -5190.6469   -4992.3197   -5190.6469            0    6364.9733    17.932153    22.673191    19.136073    7780.3282    5154.1157    6847.0451    7093.7591    454.71798    397.18556   -396.57998   -4270.0982 
32664000    97.939183   -5192.4845    -4996.594   -5192.4845            0    5342.6384    17.817147    22.812552    19.179292    7795.5117     4085.815     5947.151    5994.9491   -1486.8526    916.77956    181.89192   -4389.1919 
32665000    97.780984   -5186.1485   -4990.5745   -5186.1485            0     7072.706    17.819528    22.745887    19.106657    7744.3287    6584.3703    7154.0779    7479.6698    876.66415   -274.17543    394.66897   -4191.7612 
32666000    104.30417   -5185.8291   -4977.2079   -5185.8291            0     6033.724    17.996224    22.574717    19.160244    7784.0345    5236.0681    6879.1528    5985.9512   -1536.1234    26.290962   -535.57226   -4292.2465 
32667000    97.977039   -5191.2342    -4995.268   -5191.2342            0    6324.9615    17.817371    22.822193    19.134319    7780.6167    6397.7655     6164.869      6412.25    18.729725    26.642665   -1549.2278     -4277.56 
32668000    94.915387   -5173.2439   -4983.4014   -5173.2439            0    5328.2802    17.902393    22.733361    19.162236    7798.6769    4808.7317    5361.8784    5814.2306   -481.79433   -531.06496   -453.24587   -4377.3857 
32669000    107.75508   -5188.4524   -4972.9289   -5188.4524            0    7194.5274    17.905017    22.683405    19.120966    7765.9185    5819.4317    7894.7705    7869.3801   -1334.7472    885.23728   -432.92643   -4158.0914 
32670000    97.610447   -5180.3025   -4985.0696   -5180.3025            0     7186.693    17.753913    22.787312    19.160771    7751.7573    7317.1582    6309.9857    7932.9349    1116.2635   -306.69902   -897.91849   -4172.6037 
32671000    99.409517   -5181.5507   -4982.7194   -5181.5507            0    6549.3227    17.843462    22.741927    19.179529    7782.9515    6988.5679    6173.7324    6485.6678    66.499994   -149.03488   -549.49363   -4239.3296 
32672000    98.473399   -5195.4365   -4998.4776   -5195.4365            0    6940.8042    17.871879     22.67224    19.181258    7772.1603    7320.5517    6872.4867    6629.3741    392.21769    742.36458    403.85723   -4211.7445 
32673000    97.764437   -5195.5473   -5000.0064   -5195.5473            0    6690.6616    17.813631    22.796314    19.125403    7766.5414    7159.9813     6603.755    6308.2486   -671.12138    449.66141    713.29272   -4242.1749 
32674000    95.256603   -5179.6035   -4989.0786   -5179.6035            0    7772.4179    17.810157    22.680768    19.149292    7735.3193    7375.1965    7200.1617    8741.8957    597.73409   -532.37324    61.568156   -4112.2589 
32675000    99.114224   -5187.7984   -4989.5577   -5187.7984            0    6897.6476    17.986368    22.552437    19.104631    7749.5345     4651.839    7340.2234    8700.8802   -293.44055   -463.61836   -472.80124   -4209.9924 
32676000    96.003188   -5183.8869   -4991.8687   -5183.8869            0    6789.7587    17.761351    22.810316    19.162187    7763.4073    7224.3654    7346.8744    5798.0364    909.84164    350.99205     238.1383   -4223.1231 
32677000    101.29813   -5184.0017   -4981.3929   -5184.0017            0    7504.0366    17.924051    22.657684    19.102897    7758.0203    6484.3343    8172.0016    7855.7739    70.651112    29.455969     1321.651   -4132.3654 
32678000    99.833782   -5186.9271   -4987.2472   -5186.9271            0    6461.9384    17.913647    22.548052    19.274956    7785.4988     6528.679    6774.8836    6082.2526    1118.0754    205.37581    1273.4278    -4253.536 
32679000    103.60919   -5191.2146   -4983.9834   -5191.2146            0    6012.9942    17.764022    22.916477    19.092772    7772.4538    6601.0389    5254.3909    6183.5527   -857.74768    -195.9649   -563.41387   -4302.3908 
32680000    97.633379   -5182.3996   -4987.1208   -5182.3996            0    7136.3863    17.964117    22.567585    19.166548    7770.2475    6870.1175    7431.3732    7107.6683     600.5266    756.68059     -1015.85   -4178.4177 
32681000    96.542583   -5186.3068   -4993.2098   -5186.3068            0    6685.1884    17.844973    22.609873    19.246126    7765.2838    6909.8173    6506.3749    6639.3731    -598.7083    425.25501    234.21809   -4236.1209 
32682000    102.45125   -5189.2223   -4984.3072   -5189.2223            0    7452.9758    17.725068    22.943202    19.033656    7740.4138      7222.85    6950.2545    8185.8229    1458.0048    374.83577    1578.7143   -4142.9706 
32683000    99.143234   -5199.0994   -5000.8007   -5199.0994            0    6501.6864    17.935626    22.658617    19.107806    7765.3453    5524.5762    6191.7322    7788.7509   -450.57491   -417.42382   -415.62944   -4264.4874 
32684000    100.30344   -5203.0159   -5002.3966   -5203.0159            0    6091.9421    17.824968    22.797819    19.123209    7771.1062    6457.0686    5879.7829    5938.9747    354.53264    430.72436    89.586066   -4311.9748 
32685000    106.48345   -5190.4855   -4977.5055   -5190.4855            0    6861.5118    17.902208    22.632137    19.165692    7765.2716    5529.2213    7457.4995    7597.8144   -557.63171   -863.97204    1472.4118   -4200.4494 
32686000    101.93098   -5187.3956    -4983.521   -5187.3956            0    6723.8758    17.854946    22.653958    19.175213      7756.09    6967.2347    6318.5402    6885.8526    229.30378   -290.07289    776.44971   -4222.9524 
32687000    99.698113   -5195.9717   -4996.5632   -5195.9717            0    6236.8732     17.81838    22.812717    19.119847    7771.9439    4653.4183    6600.4042    7456.7972   -201.47476    944.44042   -325.20263   -4289.6396 
32688000    104.24421   -5189.1034   -4980.6021   -5189.1034            0     6228.131     17.99822    22.659196    19.075307    7779.3909    5503.5583    6298.3779    6882.4568       835.28    -645.8335   -185.02781   -4273.9931 
32689000    92.530384   -5188.5566   -5003.4844   -5188.5566            0    6617.8694    17.881452    22.681191    19.175873    7777.2089    6907.2491    6505.4111     6440.948    439.35671   -124.79294    355.48168   -4252.8684 
32690000    105.26795   -5183.8503   -4973.3014   -5183.8503            0    6542.3721    17.790742    22.929194     19.04294    7768.1365    6677.1562    5885.2283    7064.7319   -356.71102    116.55084   -507.67241   -4232.1141 
32691000    101.29508   -5181.8806    -4979.278   -5181.8806            0    8525.1668    17.852857    22.663771    19.064023    7713.5528    8483.1619    8758.0741    8334.2643   -194.96222   -501.86383   -57.162791   -4020.2457 
32692000    100.47897   -5187.7013   -4986.7309   -5187.7013            0     6908.519    17.811333    22.690398    19.263492    7785.2675    8016.3794    6548.8435    6160.3341    889.61829   -170.87156    640.54992   -4202.3367 
32693000    95.957249   -5181.3546   -4989.4282   -5181.3546            0    7251.0333    17.864883    22.695329    19.133433    7757.6389    7115.6343     7393.512    7243.9536    655.73983   -151.23668    175.76853   -4169.0666 
32694000    103.06848   -5195.9565   -4989.8068   -5195.9565            0    6032.6512    17.859285    22.703203    19.211253     7789.452    6167.9408    5781.4959     6148.517   -272.01485   -51.080057   -208.45811   -4304.4905 
32695000    97.168104   -5180.7105   -4986.3623   -5180.7105            0    7150.7354    17.836811    22.811977    19.098615    7771.0914    7650.2886    6512.6056    7289.3119    179.93232    -572.3951    588.13119   -4175.9451 
32696000    99.118912   -5191.0189   -4992.7688   -5191.0189            0    6825.3114    17.901816     22.62149    19.161627    7759.8024    6508.6327    6973.1149    6994.1868    664.50248    10.350755   -308.83007   -4220.3568 
32697000    104.17949   -5197.8419   -4989.4701   -5197.8419            0    6216.9132    17.719491    22.864316    19.186004    7773.0949    6724.5762    5547.4239    6378.7394    67.304974   -691.46632   -490.97384   -4284.7045 
32698000    98.729808   -5184.3272   -4986.8553   -5184.3272            0    7139.0284     17.81609    22.761845    19.127392    7756.6755    6845.1808    7171.3175    7400.5867   -190.24564   -764.94453    434.11614   -4179.2659 
32699000    102.75121   -5188.2702   -4982.7551   -5188.2702            0    5549.3002    17.991988    22.564079    19.214183    7800.4323    4433.1546    6411.3104    5803.4356   -67.680973    734.32843   -57.290802   -4351.4595 
32700000    98.229985   -5186.5302   -4990.0581   -5186.5302            0    6528.5705    17.773413    22.796041    19.154141    7760.5577    7389.4757    5763.7312    6432.5047     150.2184   -704.00738   -97.020045   -4251.1559 
32701000    96.915305   -5181.8958   -4988.0532   -5181.8958            0    7423.3001    17.928458    22.680858    19.099074    7766.3098    6400.3114    7780.0435    8089.5454   -133.78112    807.12549    60.461466    -4147.263 
32702000      97.1905   -5184.2321    -4989.839   -5184.2321            0    5950.3879     17.78334     22.70912    19.238422    7769.3212    6495.8522    6204.5674    5150.7441   -137.14141    645.41756    817.78395    -4315.615 
32703000    94.004238   -5186.4635   -4998.4434   -5186.4635            0    6490.3368    17.942956    22.689126    19.079079    7767.2838    5647.1468    6572.7343    7251.1293   -620.55421    -419.5627   -1182.2856   -4263.2319 
32704000    95.382377   -5192.2858   -5001.5092   -5192.2858            0     6535.292    17.839682    22.688989    19.192888     7768.597    6885.9046    6517.0202    6202.9513    304.99543    51.226518     1006.056   -4261.0801 
32705000    97.552553   -5198.2674   -5003.1502   -5198.2674            0    6103.0237    17.843212    22.661272    19.244699    7781.5918    6388.7979    6167.4382     5752.835    643.02412    733.52523   -760.63585   -4310.5392 
32706000    97.071279   -5191.4668   -4997.3123   -5191.4668            0    7312.5325    17.805338    22.825074    19.087417    7757.2822    6859.1778    7245.3201    7833.0995    335.89524    292.33288   -431.30508   -4170.0308 
32707000    99.131876   -5187.2949   -4989.0189   -5187.2949            0    7154.0837    17.924829    22.687615    19.094399    7765.1506    6884.0446    6969.9438    7608.2627    757.14659    641.39185   -333.83495   -4178.8422 
32708000     99.68059   -5179.4892   -4980.1157   -5179.4892            0    7493.8963    17.856698    22.688352    19.187974    7773.7972    8712.8951    6305.5539    7463.2401   -585.47175   -36.010017   -404.39641   -4130.5112 
32709000    102.81975   -5198.3804   -4992.7282   -5198.3804            0    5457.8407    17.875226    22.839956    19.119066    7805.7292    5973.1151    4446.7606    5953.6466    79.479854   -825.42516    265.96576   -4371.4155 
32710000    101.19198   -5185.6007   -4983.2042   -5185.6007            0    7189.1612    17.936036    22.572919    19.204516    7775.3068    7007.4197    7760.3764    6799.6876     -578.129     33.03662   -2583.7849   -4167.9902 
32711000    101.41856   -5189.7874   -4986.9377   -5189.7874            0    6889.9148    17.915716    22.797787     19.04335    7778.0406    6432.0796    6994.1633    7243.5014    1035.6425    105.95775    937.45072    -4205.382 
32712000    96.479431   -5185.3042   -4992.3335   -5185.3042            0    6121.5696    17.901656    22.718539     19.17621    7798.9541       6339.2    6346.2652    5679.2436     328.1099    517.25963    29.906789   -4296.0677 
32713000    102.60248   -5195.9955   -4990.7778   -5195.9955            0    6468.7126    17.875572     22.59879    19.252279     7777.272    6787.7593    7112.2373    5506.1411    2.4235397     172.2202    44.287914   -4257.0736 
32714000    97.690157   -5188.0152   -4992.6228   -5188.0152            0    5722.2243    17.751968    23.014183     19.05538    7785.0191    5359.0148    5544.3081    6263.3499   -679.52506    832.58889    38.074196   -4342.9414 
32715000    97.231582   -5201.6345   -5007.1593   -5201.6345            0    6756.1513    17.837547    22.662042    19.203384    7762.6845    6721.0527    6834.8495    6712.5517    955.71413    168.62171   -386.11032   -4242.2901 
32716000    96.746046   -5184.4657   -4990.9617   -5184.4657            0    7736.5264    17.930621    22.623899    19.122051    7757.0618    6149.9879    8586.2432     8473.348    -88.66726    1233.9734   -196.84032   -4115.7378 
32717000    96.059907   -5193.2018   -5001.0701   -5193.2018            0    7088.6937     17.76678    22.828925    19.092827    7743.9832    7745.1344    6726.1725    6794.7741    386.94315    -513.8806     233.3735   -4200.4868 
32718000    98.519125   -5175.8057   -4978.7552   -5175.8057            0    8434.1829    17.948519    22.492878    19.144971      7729.09    8249.1706    8908.7102    8144.6678    854.51175    395.86053   -908.83907    -4028.047 
32719000    97.406314   -5184.0048   -4989.1802   -5184.0048            0    7710.3497    17.856493    22.782518    19.062632     7754.981    8693.9007    7033.4993    7403.6492   -245.11296    200.29134    -802.2229   -4117.1516 
32720000     96.69544    -5196.236   -5002.8332    -5196.236            0    5796.6415    17.881926    22.694325    19.190401    7787.8146    6620.9805    5439.9905    5328.9535   -36.826291   -788.20129   -798.34448   -4344.4664 
32721000    97.289886   -5190.2708    -4995.679   -5190.2708            0    7478.6497    17.803542    22.673877     19.20084    7750.9053    8991.0615    6745.9205    6698.9671    785.34128    134.69177    232.13972   -4150.2999 
32722000    98.051996   -5203.0393   -5006.9232   -5203.0393            0    6961.2009    17.813618    22.753749    19.130869      7754.25    7887.2798    6083.4559    6912.8669   -409.58126   -230.32287    78.364627   -4219.6964 
32723000    98.764242   -5200.4826    -5002.942   -5200.4826            0    6384.1009     17.92428    22.531143    19.260354     7778.381    6301.0838    6788.9784    6062.2404    898.04652    28.353276   -873.72812   -4278.7314 
32724000    104.15239    -5195.391   -4987.0734    -5195.391            0    6941.2615    17.908831    22.697901     19.08804    7759.1524      5780.57     6790.436    8252.7786    11.584434   -73.686579    711.68837   -4201.6052 
32725000    97.945362    -5195.182   -4999.2792    -5195.182            0    5950.3466    17.917518    22.756844    19.124232     7797.832    5199.4221    5505.0921    7146.5257    269.09829   -711.19089   -169.14545   -4322.5856 
32726000     97.98266   -5190.6073   -4994.6298   -5190.6073            0    7314.0211    17.881736    22.596626    19.213849    7763.6803    7307.4984    6943.2282    7691.3365     -111.566   -738.56069    234.05765   -4166.4975 
32727000     103.9847    -5173.789   -4965.8067    -5173.789            0    7316.9699    17.773891    22.783643     19.14834    7754.1966     7326.864    7266.3888    7357.6569    495.91796   -609.16923   -13.244694   -4138.3525 
32728000    102.10274   -5180.1972   -4975.9791   -5180.1972            0    7626.9312    17.904591    22.491085    19.217411    7738.7302    7543.5077    7611.2442    7726.0418    992.81582    -1198.572   -609.22436   -4115.1927 
32729000    106.18658   -5194.9555   -4982.5692   -5194.9555            0    6861.8973    17.850637    22.723181    19.134673    7761.4685    7177.8617    6276.4716    7131.3586   -572.54378   -604.79849    101.32177   -4205.8501 
32730000    102.81138   -5180.4558   -4974.8204   -5180.4558            0    5766.0679    17.854917    22.886676    19.050126    7784.6379    7041.2156    4471.1511    5785.8368   -94.431574    -559.8636    514.67659   -4320.1932 
32731000    105.71855   -5189.8168   -4978.3666   -5189.8168            0    7304.0741    17.935244    22.676961    19.059648    7751.8799    5511.1786    8056.9957     8344.048    882.71112    287.53508   -1084.7939   -4152.6176 
32732000    104.57186    -5196.762   -4987.6054    -5196.762            0    5724.9207    17.983785     22.63342    19.103651    7775.8459    5513.5056    6029.6114     5631.645   -699.31655   -435.43159     582.0071   -4338.3837 
32733000    97.394195   -5192.4112   -4997.6108   -5192.4112            0    6128.7895    17.846392    22.724931    19.168095    7773.7749    6913.1328    5899.7835    5573.4521    88.242779   -195.08433   -361.07349   -4302.7744 
32734000    102.68777   -5181.1868   -4975.7985   -5181.1868            0    7288.6588    17.714333    22.701643    19.229453    7733.0178    8043.1769    7031.8697    6790.9297    591.64395    163.50492    1341.7882   -4153.7972 
32735000    98.222042   -5197.7663     -5001.31   -5197.7663            0    5331.3998    17.880544    22.707367    19.211385    7800.2078    5246.3502    5190.0406    5557.8086   -1095.9361    -195.2368   -228.08358   -4394.8205 
32736000    98.026127   -5189.6771   -4993.6127   -5189.6771            0    7472.1388    17.988268    22.489032    19.150345    7747.0565     6057.846    8509.2417    7849.3289    785.79657   -540.50709   -666.09191    -4149.389 
32737000    95.377768   -5182.6843    -4991.917   -5182.6843            0    7716.4975    17.752025    22.758371    19.145487    7734.9137    7527.8834    8011.7291    7609.8801    455.93673    153.79472   -582.45996   -4121.4514 
32738000    95.061483   -5175.3867    -4985.252   -5175.3867            0    6665.3546    17.992662     22.57592    19.144644    7776.5716    6137.6386    6595.4349    7262.9903   -552.27484   -528.32144    -565.9155    -4229.312 
32739000    103.11483   -5193.2144    -4986.972   -5193.2144            0    6987.4581    17.796877     22.87055     19.03693    7748.4943    6842.7811    6806.0675    7313.5257   -362.77117    451.78486   -461.42523   -4197.3624 
32740000     100.5713    -5187.773    -4986.618    -5187.773            0    6604.8359    17.894493    22.724498    19.117106    7773.8444    6244.6681    6699.3277    6870.5118    549.02962    76.902377   -1170.9771   -4237.8043 
32741000    94.405718   -5180.6918   -4991.8687   -5180.6918            0     8170.606    17.848336     22.58085    19.165584    7724.3165    8176.8141    8453.9277    7881.0762   -429.43029    15.823043   -415.32871   -4071.4399 
32742000    99.073186   -5192.1021   -4993.9435   -5192.1021            0    6498.1227    17.729404     22.97972    19.094059    7779.2394    6537.1105    6023.4262    6933.8315    -578.2043    398.34853    727.69593    -4256.717 
32743000    104.59924   -5185.6872   -4976.4758   -5185.6872            0    6720.9524    17.804375    22.637545    19.233183    7751.8829    8390.5417    6502.0428    5270.2728     266.2405   -385.01903    362.95048   -4216.6502 
32744000    99.468792   -5175.3761   -4976.4262   -5175.3761            0    8302.2423     17.92215    22.611912    19.090752    7736.6054    8080.1577    8091.0995    8735.4698    110.49019    601.33587    374.57874   -4039.6804 
32745000    103.88907   -5182.5822   -4974.7913   -5182.5822            0    6169.3158    17.789499    22.835808    19.091169    7755.5503    5939.0986    6197.5278    6371.3211    276.70444   -85.706805   -1060.4496        -4277 
32746000    98.894342   -5189.1454   -4991.3445   -5189.1454            0    6123.4235    17.841097    22.727969    19.183219      7778.64    6652.4353    5669.7558    6048.0794    -307.5564   -2.8062516    248.34184    -4296.682 
32747000    97.723517   -5184.1122   -4988.6531   -5184.1122            0    7154.6247    17.872304     22.72529    19.123982    7767.2683    7511.2879    6646.4849    7306.1013     2.489926    183.19109   -116.68022   -4178.1941 
32748000    97.703663   -5174.3742   -4978.9548   -5174.3742            0    6479.4233     17.71245     22.77551    19.240902    7761.9737     7458.439    6183.4385    5796.3923   -411.82829   -282.70871   -512.47044   -4245.4814 
32749000    96.564525    -5188.567    -4995.426    -5188.567            0    6065.1589    17.910556    22.699341    19.167874    7792.8493    5641.2859    5575.5423    6978.6484    370.01659   -851.40561    205.41241   -4306.1164 
32750000     101.4755   -5178.7312   -4975.7676   -5178.7312            0    7733.1625    17.833399    22.658427    19.189443    7754.0085    9212.8003    7534.5211     6452.166    803.80599   -411.45999    1170.7275   -4101.2687 
Loop time of 489.973 on 64 procs for 250000 steps with 1008 atoms

Performance: 88.168 ns/day, 0.272 hours/ns, 510.232 timesteps/s
195.0% CPU use with 32 MPI tasks x 2 OpenMP threads

MPI task timing breakdown:
Section |  min time  |  avg time  |  max time  |%varavg| %total
---------------------------------------------------------------
Pair    | 34.397     | 41.103     | 47.207     |  36.2 |  8.39
Bond    | 0.87148    | 1.2467     | 1.4969     |  10.4 |  0.25
Kspace  | 236.4      | 245.81     | 258.51     |  39.1 | 50.17
Neigh   | 1.076      | 1.2273     | 1.4481     |  10.8 |  0.25
Comm    | 73.674     | 86.762     | 93.688     |  61.6 | 17.71
Output  | 0.52909    | 0.53047    | 0.53234    |   0.1 |  0.11
Modify  | 94.719     | 97.505     | 100.85     |  16.7 | 19.90
Other   |            | 15.79      |            |       |  3.22

Nlocal:        31.5000 ave          36 max          28 min
Histogram: 2 5 1 3 0 12 8 0 0 1
Nghost:        2963.09 ave        2976 max        2954 min
Histogram: 5 5 3 3 3 4 2 4 2 1
Neighs:        10774.7 ave       12345 max        9560 min
Histogram: 3 4 1 2 10 4 7 0 0 1

Total # of neighbors = 344791
Ave neighs/atom = 342.05456
Ave special neighs/atom = 2.0000000
Neighbor list builds = 2602
Dangerous builds = 0

unfix		3
unfix		2
unfix		1

write_data	data.final.${pid}
write_data	data.final.0
System init for write_data ...
PPPM initialization ...
  extracting TIP4P info from pair style
  using 12-bit tables for long-range coulomb (../kspace.cpp:340)
  G vector (1/distance) = 0.38010394
  grid = 24 27 32
  stencil order = 5
  estimated absolute RMS force accuracy = 0.0023658026
  estimated relative force accuracy = 7.1245442e-06
  using double precision FFTW3
  3d grid and FFT values/proc = 5355 672
Last active /omp style is kspace_style pppm/tip4p/omp
WARNING: Not all mixed pair coeffs generated from mixing. Use write_data with 'pair ij' option to store all pair coeffs. (../write_data.cpp:312)

write_restart   restart.lmp.${pid}
write_restart   restart.lmp.0
System init for write_restart ...
PPPM initialization ...
  extracting TIP4P info from pair style
  using 12-bit tables for long-range coulomb (../kspace.cpp:340)
  G vector (1/distance) = 0.38010394
  grid = 24 27 32
  stencil order = 5
  estimated absolute RMS force accuracy = 0.0023658026
  estimated relative force accuracy = 7.1245442e-06
  using double precision FFTW3
  3d grid and FFT values/proc = 5355 672
Last active /omp style is kspace_style pppm/tip4p/omp
Total wall time: 0:08:10
