LAMMPS data file via write_data, version 30 Jul 2021, timestep = 8750000

864 atoms
2 atom types
576 bonds
1 bond types
288 angles
1 angle types

0.3843992148237838 17.823173185178053 xlo xhi
1.544302770145272 22.084875029857304 ylo yhi
0.4689661442300217 21.74422965576268 zlo zhi

Masses

1 1.00794
2 15.9994

Pair Coeffs # lj/cut/tip4p/long/omp

1 0 0
2 0.21084 3.1668

Bond Coeffs # harmonic/omp

1 450 0.9572

Angle Coeffs # harmonic/omp

1 55 104.52

Atoms # full

250 1 2 -1.1794 3.4816116638489265 6.640684786200398 2.7446116318572407 0 -8 1
570 1 1 0.5897 8.439006633744922 6.002780586574123 2.219227300755922 2 3 1
443 1 1 0.5897 3.8815857985340214 3.6193138539829093 2.3914313294070157 3 5 -2
767 1 1 0.5897 3.3444931382383323 2.0967092124509343 4.198986421016539 -2 0 4
494 1 1 0.5897 8.654304945654935 3.2722059525641827 5.427973643633678 0 -2 -2
303 1 1 0.5897 6.373667215417256 3.3518036469582126 2.3459834596749203 -2 3 6
832 1 2 -1.1794 0.6396180688083222 3.8892880279819546 1.9915076124075595 3 -1 -2
444 1 1 0.5897 2.4020093118257178 3.4282332201798438 2.133460232164812 3 5 -2
301 1 2 -1.1794 5.8359436574769585 4.122242637666335 2.5293070410496457 -2 3 6
442 1 2 -1.1794 3.2074713594686592 2.9439457524675094 2.3152548787988407 3 5 -2
56 1 1 0.5897 3.05273499858138 1.6900503000204286 1.1560022506281142 -2 2 -2
141 1 1 0.5897 6.815383819500174 6.2256465795157725 4.755406538307554 1 2 2
302 1 1 0.5897 5.943912223207184 4.2723053651750655 3.4685360423943123 -2 3 6
97 1 2 -1.1794 6.034864008397355 4.736060176164151 5.347522082686507 0 -6 2
568 1 2 -1.1794 8.876448252758964 5.592361589815582 1.473212309013498 2 3 1
766 1 2 -1.1794 3.1868625012104914 1.5694919142558332 4.982269208896957 -2 0 4
243 1 1 0.5897 6.958555520709971 2.0013610985207264 1.177127523636968 0 -3 6
242 1 1 0.5897 8.233867573808558 2.0550514167381624 1.991275231250578 0 -3 6
164 1 1 0.5897 2.6109480437111334 6.288391234553704 1.171875081395025 -7 2 -3
241 1 2 -1.1794 7.282619636466195 1.992117747233045 2.077818766183279 0 -3 6
102 1 1 0.5897 5.210596707916863 4.321022930040815 0.7538195556678315 4 -3 1
337 1 2 -1.1794 5.7350478550300625 2.972102754056955 8.459646936321278 -4 -2 0
473 1 1 0.5897 4.345103174322185 4.133478197991522 7.89609125330169 5 0 -6
472 1 2 -1.1794 3.725777580641704 4.597640148127293 7.3327590993387854 5 0 -6
196 1 2 -1.1794 0.9878238428523061 2.831844311971847 6.381803349652777 -1 -2 -1
339 1 1 0.5897 6.0216854710639565 2.50333840176705 7.675792086772277 -4 -2 0
562 1 2 -1.1794 5.199288605375928 6.5994846750322 11.008007983631586 1 -2 3
126 1 1 0.5897 1.8527277402103877 5.305154045355998 10.101695117543132 3 1 5
495 1 1 0.5897 8.395036008126874 3.5514825922783344 6.893220388271594 0 -2 -2
474 1 1 0.5897 2.9580168809987546 4.740222913560347 7.8864444768946695 5 0 -6
493 1 2 -1.1794 8.148998584981527 2.962597798632684 6.179773438322485 0 -2 -2
316 1 2 -1.1794 3.7829488718984705 1.6610951488422256 9.673970364780406 -1 -3 0
198 1 1 0.5897 1.0602880482572918 2.4225370526329173 7.244091452100673 -1 -2 -1
125 1 1 0.5897 0.774029977050416 4.8288038731235154 9.152147788444255 3 1 5
371 1 1 0.5897 1.5860171074498253 6.392812739640562 8.07582327089479 6 2 -3
237 1 1 0.5897 8.224975410015551 5.966445809674566 8.253787255562376 -1 -3 -3
338 1 1 0.5897 6.331076726601402 2.676069949494897 9.147722578416051 -4 -2 0
124 1 2 -1.1794 1.712615842901416 5.010212827002906 9.201855205777317 3 1 5
317 1 1 0.5897 4.4360581748885695 2.108765753193946 9.136042558300126 -1 -3 -1
149 1 1 0.5897 0.5726279958267835 2.822009681383167 9.161384997642445 -3 0 3
202 1 2 -1.1794 7.50373057069545 2.6138887362690464 10.54953705416245 -1 4 -1
148 1 2 -1.1794 1.1456454738225854 2.0966444471116006 8.912743741063537 -3 0 3
235 1 2 -1.1794 8.67958520069438 5.129182054741598 8.346751906001497 -1 -3 -3
204 1 1 0.5897 8.378631859417315 2.912115236580365 10.300624949160158 -1 4 -1
327 1 1 0.5897 4.361880188661614 6.2715038388577495 7.962620195599557 -2 -1 -1
830 1 1 0.5897 8.085146449104265 5.357613393933793 10.777757883400433 1 8 1
318 1 1 0.5897 2.9417162197966995 1.9516207147256375 9.321476756353608 -1 -3 0
99 1 1 0.5897 5.277536395938631 4.620677080708315 5.921522208399391 0 -6 2
203 1 1 0.5897 7.658950383118403 1.8388361736949845 11.089474448143331 -1 4 -1
197 1 1 0.5897 1.7647018242195913 2.5337452491220693 5.908586596392248 -1 -2 -1
831 1 1 0.5897 6.880161898232347 6.225470567589982 11.072659580874335 1 8 1
98 1 1 0.5897 6.769902774454517 4.377365155487382 5.844943136382486 0 -6 2
829 1 2 -1.1794 7.79626196936013 6.0938112935607744 11.317110222568179 1 8 1
856 1 2 -1.1794 5.492926847450079 4.021796209707399 12.106800554231182 -2 1 -2
334 1 2 -1.1794 5.007807535719992 6.253476894659312 14.12303450872472 5 0 4
857 1 1 0.5897 4.9906649011024085 3.2953716644490534 12.476083986773968 -2 1 -2
336 1 1 0.5897 5.066219378560962 5.587892897884284 13.437527891573243 5 0 4
725 1 1 0.5897 8.161936490584246 2.0395105223397207 14.316096849471776 5 -5 3
525 1 1 0.5897 2.02619077667703 5.225680075971939 12.389438163140827 0 0 5
138 1 1 0.5897 6.056854445440561 2.2645838905457127 15.13377747743723 10 -9 1
335 1 1 0.5897 5.874871602942299 6.658818454653505 14.138481474210943 5 0 4
427 1 2 -1.1794 5.660116694975206 4.072425427081929 15.781448097014106 1 -1 -3
614 1 1 0.5897 8.714887580921067 3.9582948446077952 15.700581783644862 -7 3 6
429 1 1 0.5897 4.81846251701199 3.763351246607257 16.116750942680845 1 -1 -3
564 1 1 0.5897 5.230677000424963 5.751093093748701 11.450242909651207 1 -2 3
523 1 2 -1.1794 1.49932798592507 5.9262293987296495 12.004743273319091 0 0 5
615 1 1 0.5897 7.512672804013588 4.818638827833945 16.02711091159913 -7 3 7
283 1 2 -1.1794 2.6148940948228514 3.914916713808547 13.316718699804296 5 -2 -1
428 1 1 0.5897 5.446086403409556 4.8657160224241665 15.29030417972714 1 -1 -3
613 1 2 -1.1794 8.43488455269539 4.690766082512052 16.249591994648604 -7 3 7
776 1 1 0.5897 0.6241564363901981 5.488047758336369 16.193312444000117 0 -5 -1
858 1 1 0.5897 6.21810526812274 3.6015724962882563 11.644360257817434 -2 1 -2
284 1 1 0.5897 2.7320430186421847 4.010532054772449 14.26194932339644 5 -2 -1
724 1 2 -1.1794 8.938538513449044 2.246066316214832 14.836273948033694 5 -5 3
211 1 2 -1.1794 2.7663411716353035 3.6089115064251573 16.045310173505293 1 1 2
285 1 1 0.5897 2.1874425877726438 3.0647503133834393 13.212640937994587 5 -2 -1
212 1 1 0.5897 2.103052138045422 2.921945312945028 16.112008414197298 1 1 2
478 1 2 -1.1794 4.21851994412048 6.058508217845052 18.94646161970072 -4 5 -6
163 1 2 -1.1794 2.4342834631640184 5.973117820470794 21.560732838477897 -7 2 -4
617 1 1 0.5897 6.9103745386769715 3.6128723183514566 19.30606747080889 -3 2 1
213 1 1 0.5897 2.4407704358581555 4.3122315532581155 16.60717621386862 1 1 2
100 1 2 -1.1794 4.794193583282474 4.424009547495036 21.173311995529936 4 -3 0
71 1 1 0.5897 1.6999986512104655 4.714493773999142 18.620220214067096 10 -1 -3
416 1 1 0.5897 7.03184422225415 5.872452680818399 20.064472591908853 1 -1 -4
817 1 2 -1.1794 1.1965804917207783 3.994681915356758 20.105924008817958 0 -2 0
479 1 1 0.5897 4.895558005404595 6.509105807238184 18.441562723482768 -4 5 -6
604 1 2 -1.1794 5.76148223566721 1.7459620986780422 20.965040405034642 -8 2 -2
101 1 1 0.5897 3.993295367734654 4.916260423370236 21.353804400634154 4 -3 0
417 1 1 0.5897 7.586667387258681 6.070665142021297 21.45911830745525 1 -1 -4
618 1 1 0.5897 7.651759270322375 4.2836603101799176 18.169139127673127 -3 2 1
606 1 1 0.5897 5.4085626021236015 2.629383711671153 20.85850838293249 -8 2 -2
616 1 2 -1.1794 7.463200749460003 4.367763573433782 19.103875329677358 -3 2 1
480 1 1 0.5897 4.686514466538054 5.362524002254019 19.40789806678574 -4 5 -6
818 1 1 0.5897 1.5170189563568024 4.596301517474907 20.7780144106004 0 -2 0
70 1 2 -1.1794 1.8248172035569377 5.346043987801546 17.91175668115234 10 -1 -3
72 1 1 0.5897 2.604971889761301 5.83962598759069 18.164912048067038 10 -1 -3
740 1 1 0.5897 1.0850596216971393 2.1288467239942808 20.05031735288771 1 1 3
426 1 1 0.5897 8.775818762676575 2.432216300953761 18.275848694411003 10 -4 1
415 1 2 -1.1794 7.1183497591551115 6.5255019382646005 20.759006456768553 1 -1 -4
799 1 2 -1.1794 6.6983483433137945 1.5663407422289808 18.52116861614448 -2 3 5
843 1 1 0.5897 4.184536206097062 10.49735385406034 2.5424253550613702 -8 3 0
123 1 1 0.5897 6.4340657574975735 7.672288086110048 2.4223812492093506 5 -2 -1
121 1 2 -1.1794 5.803885261779243 7.663401891219806 1.7018507109416259 5 -2 -1
841 1 2 -1.1794 4.7301735370116065 10.793689938045512 3.270979605159825 -8 3 0
552 1 1 0.5897 6.124533500822354 10.105860645476755 4.574785050395119 0 6 -3
360 1 1 0.5897 1.9728488612264947 9.040299503728617 4.147694931586629 7 4 -5
842 1 1 0.5897 4.762570643591772 11.745552162381463 3.1748882085053274 -8 3 0
683 1 1 0.5897 6.044949105484606 9.177169993355667 0.780431916810397 1 -1 -5
359 1 1 0.5897 2.264923480085506 7.878395518546139 3.2220630839199016 7 4 -5
295 1 2 -1.1794 3.085873787789861 9.913561001407771 5.224558365058147 2 6 1
401 1 1 0.5897 3.1450820992576647 11.68705809024214 0.7408862689239791 -2 -2 2
608 1 1 0.5897 2.3010485210575076 9.605349262951755 1.6637686804166287 4 1 4
252 1 1 0.5897 4.312184695206961 6.956701021812673 2.3887820417435375 0 -8 1
122 1 1 0.5897 6.260994299073633 7.217482152648363 0.9887341895589116 5 -2 -1
139 1 2 -1.1794 7.210127191787923 6.936391397361543 4.250082226973195 1 2 2
572 1 1 0.5897 3.8029077487718173 8.194968096366754 5.356046671848005 2 1 -4
140 1 1 0.5897 6.843266338475267 7.73425641764176 4.631065652701006 1 2 2
178 1 2 -1.1794 9.041412163518144 10.649428847893075 3.171471129876116 -9 2 -1
180 1 1 0.5897 8.609761919972893 9.9649349987819 2.6601286315740382 -9 2 -1
296 1 1 0.5897 3.6249097255466394 10.288618263493758 4.528044654339548 2 6 1
358 1 2 -1.1794 1.553192376143142 8.43746303775382 3.5338530847569887 7 4 -5
827 1 1 0.5897 9.054866804895426 7.223994201833109 4.877142193349161 -5 0 4
584 1 1 0.5897 0.5184595092358948 7.4787879734427785 4.751722200885615 1 -6 3
571 1 2 -1.1794 3.745418461810294 7.24003810992363 5.322423290983588 2 1 -4
607 1 2 -1.1794 3.1648477437747373 9.826254281551185 1.3153691249728987 4 1 4
550 1 2 -1.1794 6.346401777366207 9.458225889536495 5.243863732231276 0 6 -3
791 1 1 0.5897 5.939355756366035 11.648136637662263 1.0364672374316757 4 3 2
609 1 1 0.5897 3.2339602478101472 9.319677590709466 0.5060314679160716 4 1 4
251 1 1 0.5897 3.5732179059049805 6.739968847990995 3.692292564661795 0 -8 1
119 1 1 0.5897 7.640149509023364 7.749151363779574 7.380367921693348 4 -4 -1
686 1 1 0.5897 8.385082646075412 10.73681541761789 9.343322126303377 8 -8 -7
585 1 1 0.5897 0.6352535328514859 7.099127147772548 6.212668247408835 1 -6 3
240 1 1 0.5897 4.600952813539546 8.85672530665078 7.911218382139445 -4 -4 -1
861 1 1 0.5897 1.8009343338266586 9.747237874564984 9.357808602241931 -1 -3 5
238 1 2 -1.1794 4.61833378674873 9.738799212047999 7.539773235641534 -4 -4 -1
370 1 2 -1.1794 1.6557070498809219 7.265393878924468 7.688403574498085 6 2 -3
859 1 2 -1.1794 1.9797616264026896 8.913787657243471 9.793365827810915 -1 -3 5
297 1 1 0.5897 3.5312727438002516 10.164084044741097 6.033994420963024 2 6 1
687 1 1 0.5897 8.176140352914423 11.378610910163724 7.988093900371432 8 -8 -7
685 1 2 -1.1794 7.86029675902212 11.39778759564227 8.891548990522132 8 -8 -7
573 1 1 0.5897 3.21356087093699 7.004699154639012 6.082734402510319 2 1 -4
118 1 2 -1.1794 7.325542427855749 7.488249732098717 8.245981552641194 4 -4 -1
860 1 1 0.5897 1.2281150047550726 8.778450184607992 10.370458282344881 -1 -3 5
239 1 1 0.5897 4.46309327611095 10.316889151034188 8.286798461542256 -4 -4 -1
325 1 2 -1.1794 4.724878899620967 7.0848309300085 8.313416361748704 -2 -1 -1
28 1 2 -1.1794 8.129192215733251 8.758709764520484 10.662186554006718 -7 2 5
120 1 1 0.5897 6.38358026542002 7.3624014258427195 8.13110164911176 4 -4 -1
372 1 1 0.5897 1.6873404778471641 7.859215067661089 8.438570547112818 6 2 -3
30 1 1 0.5897 7.748359360147762 8.623368057927443 9.794399191511982 -7 2 5
469 1 2 -1.1794 5.196010951170614 11.405339105380142 9.81709162643435 3 -1 3
551 1 1 0.5897 5.712438028625632 9.610408314960408 5.94475800384238 0 6 -3
326 1 1 0.5897 4.732230548483765 6.954959486172107 9.261795465243221 -2 -1 -1
470 1 1 0.5897 6.064764255480919 11.345353410709677 9.419603890443833 3 -1 3
589 1 2 -1.1794 8.11276461136319 11.765037380799699 6.045741742174116 5 3 4
29 1 1 0.5897 8.224424833459393 7.877042650830693 11.022631174873071 -7 2 5
590 1 1 0.5897 7.872933532400023 10.84076028228403 5.978391044782358 5 3 4
166 1 2 -1.1794 5.729221017487322 9.705703118487403 16.17120902125798 0 -1 3
789 1 1 0.5897 8.350451120096661 7.091025299848531 14.142490976990954 3 -1 3
228 1 1 0.5897 5.009314723143013 10.253216719330716 13.269936049272983 4 -2 -1
227 1 1 0.5897 4.21320248144988 9.614032003250404 14.387868617911337 4 -2 -1
377 1 1 0.5897 1.2350095525512277 11.224785720544494 14.993800008057033 2 6 3
707 1 1 0.5897 5.8756852259199706 10.67513541735028 11.358408075928224 -2 2 -7
788 1 1 0.5897 7.483393667797091 7.257620627555826 15.372362321102699 3 -1 3
578 1 1 0.5897 3.634889631505087 7.291949337723919 14.980572135721095 2 1 -2
787 1 2 -1.1794 7.522539639211792 7.468753550396485 14.43950597420247 3 -1 3
626 1 1 0.5897 3.4386123057653823 8.945604620577138 12.616107202549099 -7 -5 1
226 1 2 -1.1794 4.127291856306558 10.203534880638243 13.638581310596448 4 -2 -1
496 1 2 -1.1794 0.6133114253579257 8.068110128972984 14.217735841196456 3 2 1
636 1 1 0.5897 7.807965217346264 9.359767158428433 14.527106029363804 -9 0 2
577 1 2 -1.1794 3.0654538275427274 7.728179504858962 15.614427717572342 2 1 -2
563 1 1 0.5897 4.563629021341986 7.108863695911864 11.510824582792292 1 -2 3
167 1 1 0.5897 6.4495716451084615 10.163466738991294 15.737762141241538 0 -1 3
293 1 1 0.5897 2.834377356441548 11.575751911082158 13.002094959793029 -4 -4 3
498 1 1 0.5897 0.44951957894589634 8.119279208842348 13.27599476046869 3 2 0
635 1 1 0.5897 7.28978904563993 10.599722672499922 13.829877835748384 -9 0 2
634 1 2 -1.1794 7.833869976720122 10.315941224114393 14.564591460498342 -9 0 2
706 1 2 -1.1794 6.471087427518505 10.498530419005128 12.086871959252644 -2 2 -7
625 1 2 -1.1794 3.129438972760558 8.198035585268634 12.104363390961923 -7 -5 1
579 1 1 0.5897 2.262068753754437 7.9130775197807735 15.12789520383912 2 1 -2
524 1 1 0.5897 2.0032062299803304 6.723373200478119 12.169074345146958 0 0 5
708 1 1 0.5897 6.968453378946632 9.729200007829748 11.809189931250735 -2 2 -7
627 1 1 0.5897 2.855964512483669 8.576004216723536 11.268490409223125 -7 -5 1
376 1 2 -1.1794 1.587191823554964 11.313524878370872 15.879489932967694 2 6 3
655 1 2 -1.1794 8.651626750517298 10.93072170888274 19.097875783663675 -7 2 1
731 1 1 0.5897 4.343231173270231 10.07390183055574 18.80445876048335 -1 0 -6
168 1 1 0.5897 5.776309381832102 9.99315818558295 17.083066688591394 0 -1 3
684 1 1 0.5897 5.93790992010818 9.897244635334092 20.728199707034214 1 -1 -6
691 1 2 -1.1794 8.877353405146112 9.138419498738013 21.48444465040356 0 0 3
682 1 2 -1.1794 6.252798862742057 10.006703064529315 21.62552432153344 1 -1 -6
854 1 1 0.5897 2.49736681141266 10.252185855122791 17.289799659036625 -3 1 2
270 1 1 0.5897 5.829564762010054 7.743399932773249 16.78545993343461 1 2 4
732 1 1 0.5897 5.246747425937077 11.252864074758714 19.097424476902056 -1 0 -6
730 1 2 -1.1794 5.263619485539771 10.31381139810173 18.912434102990602 -1 0 -6
813 1 1 0.5897 8.704930064104444 9.355723924047755 18.335746107470598 -3 5 1
811 1 2 -1.1794 8.637814040354401 8.44951676438162 18.03471591039756 -3 5 1
206 1 1 0.5897 0.4360298970821141 8.516140682415797 20.732953355378825 -7 3 -4
754 1 2 -1.1794 3.1503390480931865 8.354016415855256 20.29816094158131 -5 -4 -7
755 1 1 0.5897 3.7541166020414813 7.8019612151266236 19.80114628368659 -5 -4 -7
692 1 1 0.5897 8.786307878792194 8.203669228956485 21.29930384179005 0 0 3
693 1 1 0.5897 8.030145515338086 9.514158513486596 21.24489882033975 0 0 3
855 1 1 0.5897 3.0850744257551828 8.86970289872793 17.101466412378954 -3 1 2
756 1 1 0.5897 2.581117588770394 8.744626393540035 19.635036143536652 -5 -4 -7
268 1 2 -1.1794 6.187788881014077 6.957856522414035 17.198896783399064 1 2 4
853 1 2 -1.1794 2.8867845703433015 9.52299472521235 17.772458783575793 -3 1 2
269 1 1 0.5897 7.09126083856774 7.190357827484293 17.413474033935564 1 2 4
165 1 1 0.5897 2.449996897671792 6.761491846992675 21.01801461729451 -7 2 -4
477 1 1 0.5897 0.8753866909031437 6.770815508146858 18.963366699524123 7 -2 -4
656 1 1 0.5897 7.813819077915639 11.10241619251449 18.66785049509462 -7 2 1
657 1 1 0.5897 9.037025131639696 11.797357905136927 19.227274340833695 -6 2 1
529 1 2 -1.1794 6.081577985031321 16.193312803102724 3.6076739068622006 -1 -2 -5
32 1 1 0.5897 5.336223039201357 16.222356800329045 0.6411496801968075 3 5 1
506 1 1 0.5897 5.4320106928942895 13.242147487313954 5.27771354035413 2 -1 0
645 1 1 0.5897 2.0449641277549953 14.591638845360373 5.239359146316979 7 -3 -1
33 1 1 0.5897 6.778519239410065 16.681831141996845 0.6697281118204597 3 5 1
643 1 2 -1.1794 2.4429000049792458 15.031072060011338 4.487781912953473 7 -3 -1
244 1 2 -1.1794 4.778161111428043 13.801076478582026 3.6375049064576954 -6 3 2
486 1 1 0.5897 9.00544048808882 13.938251583621492 1.4587043076006487 -1 5 0
591 1 1 0.5897 8.81459240709866 11.87821898132367 5.40465868207592 5 3 4
245 1 1 0.5897 5.311756306509584 14.588130099786117 3.527285973904986 -6 3 2
246 1 1 0.5897 3.9747270338367326 14.112297434008902 4.054609408781766 -6 3 2
530 1 1 0.5897 6.97590926221879 16.232768546596514 3.946703167511727 -1 -2 -5
804 1 1 0.5897 8.364176377466316 14.839997424951148 3.623730750760192 3 2 -1
103 1 2 -1.1794 7.959477342519503 13.146489159450088 2.699041965611406 4 0 6
104 1 1 0.5897 7.100800182902458 12.922120574631093 2.3403547741141546 4 0 6
792 1 1 0.5897 4.8396383126952855 12.679285272774736 1.1760874711785037 4 3 2
790 1 2 -1.1794 5.787164052549869 12.592575626752854 1.07119773978265 4 3 2
437 1 1 0.5897 3.6885039376211752 15.715345451992405 2.2000350059550735 -2 4 3
385 1 2 -1.1794 1.0418019619536265 13.565958051822882 2.3945507418973615 -2 3 0
644 1 1 0.5897 1.9673539894826042 14.689373830631995 3.7305362815403167 7 -3 -1
402 1 1 0.5897 2.204708052643599 12.754048537452928 1.2599725353112008 -2 -2 2
802 1 2 -1.1794 8.630105474152774 15.61788293044535 4.114149592692357 3 2 -1
39 1 1 0.5897 1.4524751241901057 16.313297118320378 2.2536112147671172 -3 -1 -4
105 1 1 0.5897 8.308099427289136 12.316395544981871 3.02420591569621 4 0 6
436 1 2 -1.1794 3.36385716998629 16.151579752820723 1.412233399116854 -2 4 3
386 1 1 0.5897 0.6093002459235481 12.72761610596971 2.5572287901064286 -2 3 0
485 1 1 0.5897 8.966651940417 15.358702892196915 0.936256805711083 -1 5 0
37 1 2 -1.1794 0.6933924531496789 16.74642263101894 2.644166146663812 -3 -1 -4
753 1 1 0.5897 2.2153183976577093 16.84145318297933 5.227187213285989 2 -2 -1
400 1 2 -1.1794 2.9074135143370756 12.607296153375946 0.6267015374963083 -2 -2 2
850 1 2 -1.1794 1.6067696157770064 12.114691205014465 9.890608065256453 -11 -1 -1
845 1 1 0.5897 2.738589818360866 15.735289140695167 9.204528225620638 -1 -3 4
794 1 1 0.5897 1.9484137024083195 13.027903273248262 7.074630072540851 -3 2 4
369 1 1 0.5897 4.217680011375283 12.82935620441169 7.358566219517081 5 6 -4
209 1 1 0.5897 6.616229775987419 14.633073932159709 10.221300813805188 -2 -3 5
278 1 1 0.5897 5.632148865340146 15.31144581854649 8.243410468589682 3 0 2
471 1 1 0.5897 5.119566074526804 12.319668253098234 10.090009312535884 3 -1 3
793 1 2 -1.1794 1.2229366699587747 13.484006675065249 6.648038334292327 -3 2 4
210 1 1 0.5897 5.373168244691505 14.181255771855769 10.958052438815178 -2 -3 5
208 1 2 -1.1794 5.667650955056944 14.548466518486169 10.124493109275019 -2 -3 5
368 1 1 0.5897 3.273720706984173 13.613655195883098 8.24510279982554 5 6 -3
373 1 2 -1.1794 8.390186469335376 15.717490682552151 10.501173853804843 3 6 -2
367 1 2 -1.1794 3.4684489385315604 12.725667928132543 7.945272818905382 5 6 -3
279 1 1 0.5897 5.910295069741909 14.968605488222538 6.795227682657126 3 0 2
277 1 2 -1.1794 6.108956659315068 15.616401981407577 7.471410493240462 3 0 2
844 1 2 -1.1794 2.9261912177514016 15.579594815736135 8.278837986849538 -1 -3 4
507 1 1 0.5897 6.524818939095843 12.559216608474035 6.072401695840382 2 -1 0
851 1 1 0.5897 0.8497562573051836 12.458429526799245 9.416163647558975 -11 -1 -1
846 1 1 0.5897 3.1459235469489393 16.44347300605488 7.9298965061679345 -1 -3 4
85 1 2 -1.1794 1.7536433745375632 15.93498032781775 10.749765036894352 1 6 2
467 1 1 0.5897 0.5123078392337459 14.648631135551529 10.867965025301002 2 -1 5
356 1 1 0.5897 7.793136630291654 16.055652475592485 7.679586185032221 5 1 4
375 1 1 0.5897 8.632726097867144 16.12383169554846 9.669070136412351 3 6 -2
795 1 1 0.5897 0.7142020948340069 12.788543152753721 6.23108803455298 -3 2 4
355 1 2 -1.1794 8.725553934386442 16.232288563668526 7.8050431836874035 5 1 4
458 1 1 0.5897 5.4832822232587 16.40468353184704 10.550559296636846 -3 -1 -1
505 1 2 -1.1794 5.602363123857463 12.811325175476481 6.1154026966413015 2 -1 0
852 1 1 0.5897 2.3340018205930733 12.19614675516182 9.273489416606076 -11 -1 -1
87 1 1 0.5897 1.2062751288468916 16.718036174347485 10.690281786629278 1 6 2
374 1 1 0.5897 8.778056829539423 16.284951144532442 11.167425842682379 3 6 -2
234 1 1 0.5897 5.1206222942745825 11.99246801508975 14.753852687127937 -3 0 -1
517 1 2 -1.1794 5.379613793603306 16.076433260629283 15.385092965119794 0 -2 -4
720 1 1 0.5897 8.08866304170457 15.66515764509759 14.183612708279776 2 1 3
806 1 1 0.5897 1.8860240083310185 13.784531621746261 13.857262003392952 1 -2 -5
292 1 2 -1.1794 2.513623261335439 12.422449701805721 12.691380661521736 -4 -4 3
668 1 1 0.5897 2.573689729855191 16.104422836192615 13.475053704003416 -6 -3 -3
233 1 1 0.5897 4.932733962056135 13.204540739811003 15.641396226833965 -3 0 -1
519 1 1 0.5897 5.8679304781008925 16.39980287201577 14.627909579908799 0 -2 -4
109 1 2 -1.1794 4.825096072824875 13.909388101325247 12.70484416120814 -2 -1 -10
667 1 2 -1.1794 3.2954545517961233 16.43981532290502 12.943166250301859 -6 -3 -2
718 1 2 -1.1794 8.589252977121154 15.053406653097092 14.723519751658944 2 1 3
805 1 2 -1.1794 2.0652513996741693 14.529813383708863 14.43064081526451 1 -2 -5
111 1 1 0.5897 5.242992790536461 13.587711634493843 13.503732228348658 -2 -1 -10
193 1 2 -1.1794 6.782940600767719 16.695087597833545 13.125490980307756 1 -4 -2
232 1 2 -1.1794 5.561148700653016 12.788678482242002 15.051076519890369 -3 0 -1
294 1 1 0.5897 2.338682793066914 12.285804789873028 11.760226746038404 -4 -4 3
378 1 1 0.5897 1.20471294564565 12.126633742496555 16.209497590162016 2 6 3
110 1 1 0.5897 3.994135749733749 13.436149363972632 12.661395261757264 -2 -1 -10
518 1 1 0.5897 4.460474005039884 16.205655698404883 15.150950707512694 0 -2 -4
669 1 1 0.5897 3.892493124743741 15.697019329898051 12.853013471150362 -6 -3 -2
807 1 1 0.5897 2.6290852848995883 14.173985865486515 15.11754890015739 1 -2 -5
86 1 1 0.5897 2.3346082580516403 16.104037243413092 11.491542051148814 1 6 2
719 1 1 0.5897 8.937020069206698 15.59068093142328 15.435360180628193 2 1 3
194 1 1 0.5897 6.461604633264513 16.944123813839127 12.258858948683764 1 -4 -2
501 1 1 0.5897 6.558236080273538 12.614859421432788 16.41973295177165 2 -1 -2
223 1 2 -1.1794 5.1196489441769515 13.111055842422877 19.579053606906662 5 -1 -8
533 1 1 0.5897 2.901269191494568 12.758829084188836 19.671961428824396 -3 -1 -2
723 1 1 0.5897 8.83148028569492 16.128597790435457 17.764431067002008 4 1 -5
68 1 1 0.5897 2.324344638812075 14.006559640814283 21.073034710771573 6 -4 -3
423 1 1 0.5897 7.935729466329062 14.838130003212859 19.39747692053745 -2 -1 3
765 1 1 0.5897 2.915344228562697 15.478958322499725 19.29382048330011 -6 0 -5
225 1 1 0.5897 5.465144988325062 13.073770540073145 20.471033190131813 5 -1 -8
557 1 1 0.5897 3.2237245891573383 12.986385712863433 17.43130475499877 3 2 2
421 1 2 -1.1794 7.271682226796309 15.492439172706094 19.18003936763077 -2 -1 3
218 1 1 0.5897 2.9090887233576295 16.646678486013567 16.77732503062567 5 0 0
31 1 2 -1.1794 6.054000859187326 16.49902800601638 21.34666937665004 3 5 0
224 1 1 0.5897 5.896492921171189 13.094341967503482 19.019922295902724 5 -1 -8
69 1 1 0.5897 2.471253927935416 15.474516206634686 21.413157348438318 6 -4 -3
747 1 1 0.5897 6.210685244101179 16.733489361601585 18.301985733591188 4 4 -8
532 1 2 -1.1794 2.3965976627386674 12.297994517881582 19.001687340645155 -3 -1 -2
67 1 2 -1.1794 2.040982996409225 14.879025970764522 20.799464782528354 6 -4 -3
422 1 1 0.5897 6.821975220086743 15.662240566089372 20.00784495064356 -2 -1 3
556 1 2 -1.1794 3.559577017860534 13.688835667547384 16.87443210665181 3 2 2
763 1 2 -1.1794 3.1600802599944307 15.97882898578227 18.514989488851057 -6 0 -5
558 1 1 0.5897 3.8566459397963446 14.360546085720213 17.48835232446642 3 2 2
191 1 1 0.5897 0.705823732948107 16.449075069248057 16.862546366862915 3 3 -4
534 1 1 0.5897 1.6257810170120883 11.969921214236553 19.464864399677474 -3 -1 -2
500 1 1 0.5897 7.889188413013404 13.098827474975383 16.95498917625148 2 -1 -2
499 1 2 -1.1794 7.146657312875911 12.534424360610373 17.170481778429604 2 -1 -2
36 1 1 0.5897 0.49826292077668044 13.068615625140664 17.89265445189197 -2 1 -4
764 1 1 0.5897 2.9768650959292033 16.889331162128357 18.746825555581772 -6 0 -5
648 1 1 0.5897 6.070820253945063 21.21136147090426 5.466356065645857 -6 -3 3
20 1 1 0.5897 5.505951346334519 19.4535557153337 3.5802219647912774 -2 -3 2
835 1 2 -1.1794 7.043979310421617 20.53453088001858 4.124630775294226 0 2 -1
662 1 1 0.5897 1.6653758764741236 19.085631187079606 4.35465537040726 -6 -6 1
661 1 2 -1.1794 1.5958260822982948 19.952724467544638 3.955066181604887 -6 -6 1
411 1 1 0.5897 3.253334956123543 19.673017764993276 1.152817302572563 6 -1 -4
663 1 1 0.5897 0.6614548257018039 20.060783706247182 3.7772352729372787 -6 -6 1
19 1 2 -1.1794 5.186627871893855 18.626945100859743 3.218146824985739 -2 -3 3
531 1 1 0.5897 5.857451604805543 17.103871325927834 3.4153197902342076 -1 -2 -5
409 1 2 -1.1794 2.8092440640360095 18.98782049551594 1.6524549194605223 6 -1 -4
521 1 1 0.5897 8.849121246456296 21.491287117199608 5.7819539143336725 -5 -3 -3
837 1 1 0.5897 7.7800847695360655 19.932523821857334 4.0148008733596905 0 2 -1
410 1 1 0.5897 2.198185588536103 19.46064219191541 2.217588421420569 6 -1 -4
21 1 1 0.5897 4.451777821070434 18.87806107792914 2.6584284365302966 -2 -3 3
438 1 1 0.5897 3.3163234452337407 17.076940976322526 1.6526006619664395 -2 4 3
768 1 1 0.5897 2.9164935602751383 21.255562453363815 4.6460199755508595 -2 -1 4
321 1 1 0.5897 8.708628285845558 17.734586094789396 1.8140940041652471 7 -2 4
836 1 1 0.5897 7.051411431000626 21.069997418680064 3.3311918431945378 0 2 -1
407 1 1 0.5897 8.795342776163707 18.1189115699314 4.06474809117294 -9 -1 4
406 1 2 -1.1794 8.849416221965017 18.68954984131746 3.2980715369873717 -9 -1 4
55 1 2 -1.1794 3.1332623431790236 21.556025858346207 0.48161964349199915 -2 1 -2
751 1 2 -1.1794 2.0932620227411673 17.745414097566556 5.51760093322592 2 -2 -1
319 1 2 -1.1794 8.648409981474586 17.30274890319756 0.9619095610837313 7 -2 4
38 1 1 0.5897 0.4131568375245003 17.380747227890453 1.984283836369346 -3 -1 -4
133 1 2 -1.1794 0.6699428756909087 20.822086123290187 10.89931483830466 1 -6 -4
312 1 1 0.5897 1.2084875118511427 18.109697309208716 7.258730543462249 0 3 1
150 1 1 0.5897 0.8141011105841427 21.888564588560477 9.40877354428244 -3 -1 3
752 1 1 0.5897 2.9346039688588688 17.98913916544405 5.903722308764699 2 -2 -1
310 1 2 -1.1794 0.9629456011857701 18.075980812798726 8.183349488713239 0 3 1
727 1 2 -1.1794 7.449725417701704 19.043334051531183 10.414828709164961 -2 3 2
457 1 2 -1.1794 5.300664050694431 17.28510262933142 10.878950105721861 -3 -1 -1
2 1 1 0.5897 2.1683516482495357 18.54165901089565 9.54021260536728 4 -8 4
737 1 1 0.5897 4.841765612932961 20.795606485882676 9.27988720673564 -2 0 1
736 1 2 -1.1794 5.337375318176268 20.103985898348345 8.84130332024583 -2 0 1
554 1 1 0.5897 4.515968836419537 18.811389060976282 7.851801754626479 -3 -7 2
1 1 2 -1.1794 2.551265109636399 18.67541597471383 10.407283164753187 4 -8 4
555 1 1 0.5897 5.023419198226007 17.447600567511476 7.433820656702303 -3 -7 2
553 1 2 -1.1794 4.2617302497360985 18.02393191561729 7.370556651981104 -3 -7 2
738 1 1 0.5897 5.591823632159388 20.486659406221943 8.001555599097179 -2 0 1
135 1 1 0.5897 1.3612841084730432 20.164162160684008 10.82495453132368 1 -6 -4
728 1 1 0.5897 6.7754201091720585 19.47913458767711 9.893550538411455 -2 3 2
459 1 1 0.5897 6.051317170866302 17.80734128372727 10.59578944267021 -3 -1 -1
3 1 1 0.5897 3.406408695929406 18.24778060222885 10.360566145431706 4 -8 4
729 1 1 0.5897 8.251533074282516 19.142725890516804 9.901456888825614 -2 3 2
646 1 2 -1.1794 5.527614691313323 21.34194882653813 6.24370607885734 -6 -3 3
647 1 1 0.5897 4.728250358344699 21.751082052204907 5.9119967929108785 -6 -3 3
44 1 1 0.5897 8.069448690384997 20.137547072599364 11.626069578313738 -4 8 -1
63 1 1 0.5897 2.7574505729642276 19.53426163088919 14.305601127468043 -3 2 0
340 1 2 -1.1794 4.184428317524551 19.1342929999171 13.28274087086135 5 6 -1
396 1 1 0.5897 7.879140943989141 18.69562628503392 14.914074437165803 2 1 2
808 1 2 -1.1794 0.883721796057472 21.867034606899352 16.402865457886705 5 -1 -1
62 1 1 0.5897 1.4251393438599058 18.921748853499608 14.682304732188761 -3 2 0
298 1 2 -1.1794 0.4346442031803773 17.613311829362505 13.581541706725178 -4 -2 0
341 1 1 0.5897 5.040172300545075 19.067523482287285 13.706518283957672 5 6 -1
394 1 2 -1.1794 7.0442529789326525 19.068627354282402 14.630872226913816 2 1 3
395 1 1 0.5897 7.288244957897492 19.794571236318347 14.056561431800095 2 1 3
131 1 1 0.5897 0.9665909806190234 21.488344182718105 12.401792091657416 -6 3 -1
157 1 2 -1.1794 4.505697156470145 21.82326330134808 12.402158858480975 3 3 -1
61 1 2 -1.1794 1.9392999503129527 19.72499857459158 14.76448613208137 -3 2 0