LAMMPS data file via write_data, version 30 Jul 2021, timestep = 25500000

864 atoms
2 atom types
576 bonds
1 bond types
288 angles
1 angle types

0.677282424999289 17.530289975006205 xlo xhi
1.8892805049727919 21.739897295029785 ylo yhi
0.826282976557577 21.386912823429522 zlo zhi

Masses

1 1.00794
2 15.9994

Pair Coeffs # lj/cut/tip4p/long/omp

1 0 0
2 0.21084 3.1668

Bond Coeffs # harmonic/omp

1 450 0.9572

Angle Coeffs # harmonic/omp

1 55 104.52

Atoms # full

169 1 2 -1.1794 2.719600264427646 3.1845621715570234 2.9197637311931652 -7 7 -6
226 1 2 -1.1794 1.0935479345108547 5.477875684508395 3.4570636529645173 -2 -2 -5
228 1 1 0.5897 1.2319708867748265 5.52416174758725 4.403039322756678 -2 -2 -5
170 1 1 0.5897 2.3531109550956506 4.0137088524311775 3.2270277690554687 -7 7 -6
240 1 1 0.5897 4.462636001527814 3.2527606548335783 2.552288055712193 -6 -8 6
227 1 1 0.5897 1.2942380143731973 6.359060369641089 3.1417613081981495 -2 -2 -5
171 1 1 0.5897 2.12814654955599 2.517172797200404 3.267715629847091 -7 7 -6
66 1 1 0.5897 3.1685252682293092 3.139948605549723 4.748613205594818 3 -2 -7
711 1 1 0.5897 4.306894017429306 6.562365651417391 5.134746729374007 -6 -4 0
65 1 1 0.5897 2.8117161878172543 4.115443376132534 5.849914481838436 3 -2 -7
64 1 2 -1.1794 3.4396671995575616 3.4308600012941284 5.619271071607414 3 -2 -7
710 1 1 0.5897 4.325660193349833 5.087174754519122 4.795313471826225 -6 -4 0
709 1 2 -1.1794 4.555593314038234 5.94756859135815 4.444554250713999 -6 -4 0
830 1 1 0.5897 4.787435727992439 6.639908713851884 1.2190186154028209 3 7 2
572 1 1 0.5897 2.294158326158469 3.3460840134287144 1.1523151192743923 7 -1 -7
580 1 2 -1.1794 1.6886418984559795 4.4388513422312625 9.054188161231322 -2 -5 -2
582 1 1 0.5897 2.5405891181209035 4.509902061725144 8.623704469213251 -2 -5 -2
581 1 1 0.5897 1.1388539117834402 3.974419219878443 8.423101427292004 -2 -5 -2
338 1 1 0.5897 4.381393365514688 5.007310700256042 9.236618258668008 5 5 0
330 1 1 0.5897 1.317103139921162 3.729760109718149 10.689130556289173 2 6 -2
337 1 2 -1.1794 4.340642685142869 5.1073378000702 8.285552869276106 5 5 0
534 1 1 0.5897 2.2777992333105828 6.328856317372169 6.361624561547616 -8 2 -4
286 1 2 -1.1794 4.458899989223424 4.4100307933189935 10.79111906535084 5 -3 6
532 1 2 -1.1794 1.7730453577100564 5.519876448780885 6.27825605272854 -8 2 -4
533 1 1 0.5897 0.9237458806422936 5.725598731908635 6.6688222239713895 -8 2 -4
287 1 1 0.5897 4.235562483432165 3.4803750236895823 10.83625194167244 5 -3 6
326 1 1 0.5897 3.7379267117408523 2.355957693051963 15.138301766869333 6 -7 -4
328 1 2 -1.1794 1.3727352358750744 3.491280032978054 11.614457556147878 2 6 -2
33 1 1 0.5897 2.2438156966197855 5.4075146617824466 11.70629267871948 1 12 -6
46 1 2 -1.1794 4.2072285493437 5.204144251456054 13.526142234036689 7 -1 -2
48 1 1 0.5897 4.441357091434929 4.939448200224401 12.636580423614824 7 -1 -2
47 1 1 0.5897 3.859894418933478 4.408677471056842 13.929615183449213 7 -1 -2
750 1 1 0.5897 2.5992498068969625 5.809548789900743 14.558901130841353 -3 3 2
31 1 2 -1.1794 2.108795484140259 6.33522425512617 11.513157366430388 1 12 -6
748 1 2 -1.1794 1.7444141175050552 5.896127127528903 14.980781103075534 -3 3 2
58 1 2 -1.1794 3.595545022752792 1.9694927115493321 11.680970939484157 4 1 -2
59 1 1 0.5897 2.8060716042811253 2.504370528563653 11.59836106047635 4 1 -2
749 1 1 0.5897 1.9466468909597976 6.123546592315443 15.888324379382832 -3 3 2
325 1 2 -1.1794 3.256393183578881 2.904619446495551 14.519179808610268 6 -7 -4
60 1 1 0.5897 3.8195012533979584 2.014159114022396 12.610503609932367 4 1 -2
327 1 1 0.5897 2.423885825119693 2.449588560572806 14.392405036928155 6 -7 -4
32 1 1 0.5897 2.9451653041283063 6.748957600934872 11.726445889492696 1 12 -6
114 1 1 0.5897 2.319172551045285 2.8866758727574813 16.09318976667234 -2 -2 2
255 1 1 0.5897 3.8646194335544815 5.986283032307605 18.462672665257067 2 9 -7
470 1 1 0.5897 2.1206032855369816 4.815631784256736 17.683989970698185 2 2 1
469 1 2 -1.1794 2.264830366138516 5.7588890255957805 17.759202428716662 2 2 1
266 1 1 0.5897 2.1167726601695263 6.012468102000505 20.87456538525808 -3 1 -1
306 1 1 0.5897 3.746642259904723 3.6772102651673952 19.75816583114925 4 1 -4
571 1 2 -1.1794 2.357078302545194 3.866303102980628 20.911946245138004 7 -1 -8
573 1 1 0.5897 1.6161173971362164 3.5773893922074915 20.37932935690781 7 -1 -8
113 1 1 0.5897 1.015167824190765 3.4220365012121423 16.645209854616496 -2 -2 2
42 1 1 0.5897 4.536412776671703 2.2808548295476685 17.636508660184546 -5 1 -1
112 1 2 -1.1794 1.8699653115444297 3.0859722099540714 16.914586540198428 -2 -2 2
471 1 1 0.5897 1.768212774173442 6.016411834845107 18.53588129636944 2 2 1
304 1 2 -1.1794 4.417898507442768 3.4106606485012065 19.13001800758949 4 1 -4
254 1 1 0.5897 4.859509850805487 6.136223100637213 19.59384569720293 2 9 -7
253 1 2 -1.1794 4.736339385555679 6.326651939408414 18.66391565328074 2 9 -7
265 1 2 -1.1794 1.6857434311921746 6.6416223212010435 20.29615706741682 -3 1 -1
40 1 2 -1.1794 4.795869547072945 1.9950978819779817 16.760607426569422 -5 1 -1
267 1 1 0.5897 0.7513668377701176 6.523842273798254 20.46720094680206 -3 1 -1
548 1 1 0.5897 3.2695650349759937 8.319442356736108 5.88451381738151 9 4 3
590 1 1 0.5897 4.584873447391647 11.395037501962879 5.612210328386744 6 2 1
380 1 1 0.5897 2.0010758296335753 9.426311137836805 4.950422499371815 6 7 -1
381 1 1 0.5897 3.299804346485234 10.055280919601685 4.4927300462266775 6 7 -1
379 1 2 -1.1794 2.8094170266024046 9.233434643053952 4.475492940419463 6 7 -1
816 1 1 0.5897 1.920512177876996 8.578302212332275 3.048355885868133 -9 8 2
814 1 2 -1.1794 1.3653018932843555 8.118372715672265 2.4187622940229794 -9 8 2
815 1 1 0.5897 1.8584296373260352 8.146064972792312 1.5988332285262852 -9 8 2
598 1 2 -1.1794 4.218445722343589 8.405904987485117 1.7904807396762656 -2 -5 -8
91 1 2 -1.1794 3.91511771913549 11.268422865363208 1.2267126054192707 -4 -4 2
600 1 1 0.5897 3.7701467136343485 9.186422673694075 1.4649073565347899 -2 -5 -8
93 1 1 0.5897 3.0148488894256738 11.427599826748075 1.5102171483347413 -4 -4 2
589 1 2 -1.1794 4.24624801565201 11.65867370220766 4.756627763278993 6 2 1
599 1 1 0.5897 4.596710735209761 8.677696439930749 2.6266976291214266 -2 -5 -8
409 1 2 -1.1794 2.1845658540416535 10.274059675146477 10.384272094527356 11 5 -3
583 1 2 -1.1794 2.444230080230951 11.394916134673586 7.888685063765315 4 -6 5
547 1 2 -1.1794 3.5744826342274862 7.658786589348222 6.506393970157598 9 4 3
499 1 2 -1.1794 0.9855756680884595 9.473488321341033 6.3398261152171695 1 -1 -3
751 1 2 -1.1794 1.978821018230409 7.806660409085445 9.104275969605155 6 -2 4
500 1 1 0.5897 0.9162485329425463 8.810390867098446 7.026618428992286 1 -1 -3
410 1 1 0.5897 2.206516950429223 9.41076563877527 9.971418169622774 11 5 -3
752 1 1 0.5897 2.593804234747717 7.502541478687943 8.436822475621607 6 -2 4
584 1 1 0.5897 1.939561621161724 10.74584994124624 7.398537951368839 4 -6 5
411 1 1 0.5897 3.105328538732758 10.503978768501762 10.508870613881777 11 5 -3
549 1 1 0.5897 4.2081555434455815 8.120440621114717 7.05550267852599 9 4 3
212 1 1 0.5897 4.030061966533906 10.653749622678967 7.47073375753148 8 1 2
301 1 2 -1.1794 4.836123503574003 10.710544448005743 10.822779046681806 4 2 11
753 1 1 0.5897 2.0586740475635104 7.168183704353936 9.812913150392424 6 -2 4
585 1 1 0.5897 2.272512826768126 11.188490922044686 8.807428498596206 4 -6 5
566 1 1 0.5897 4.278552973782409 8.27047489311457 15.62649785328358 0 10 -12
565 1 2 -1.1794 3.445624541567811 8.71352356293804 15.788176202574453 0 10 -12
606 1 1 0.5897 3.9842110626550706 10.30562874822607 13.282725184742056 -2 1 3
567 1 1 0.5897 3.1420679546983834 8.978185488101362 14.919834273199648 0 10 -12
474 1 1 0.5897 1.2150986457452475 7.503871084324149 12.76550463293049 -2 2 4
604 1 2 -1.1794 3.148175576364116 9.843296597315604 13.341620793069342 -2 1 3
472 1 2 -1.1794 0.8125733447936311 7.887284900400605 13.544706884533388 -2 2 4
495 1 1 0.5897 4.034402726123254 8.568890593865202 11.968888912187602 -4 -2 0
473 1 1 0.5897 1.0824206353884978 7.313105086778986 14.261418716714285 -2 2 4
493 1 2 -1.1794 4.420699187430958 7.734899349572056 11.701668163635603 -4 -2 0
605 1 1 0.5897 2.4904554033670516 10.538400376766742 13.361847036164988 -2 1 3
8 1 1 0.5897 3.2030551289688045 10.77998310424309 16.226341326938233 2 -2 1
7 1 2 -1.1794 2.9824063723889527 11.7111749350933 16.246126618301417 2 -2 1
479 1 1 0.5897 2.1434876456215144 8.148623822729789 19.507060514063646 -8 8 -4
480 1 1 0.5897 3.2974727265050054 8.968630143146145 18.97062213882721 -8 8 -4
489 1 1 0.5897 1.7989689630794141 8.436929768234029 16.45390576713362 5 -8 5
717 1 1 0.5897 1.4892744903024766 10.563376549300166 19.286031817595116 1 -8 -4
478 1 2 -1.1794 2.38063643426184 9.035853605946606 19.237264412741105 -8 8 -4
488 1 1 0.5897 1.236530712573681 8.754027760623421 17.82316252947684 5 -8 5
487 1 2 -1.1794 0.9740551788163989 8.563346585068176 16.922644397039264 5 -8 5
122 1 1 0.5897 1.2638857173070561 11.451073687916352 16.258771760093843 1 0 1
716 1 1 0.5897 1.004969559891424 11.388772731711377 18.11303363949279 1 -8 -4
715 1 2 -1.1794 1.1540886408692077 11.430365308818878 19.05760433086722 1 -8 -4
638 1 1 0.5897 1.7587749649779005 16.317760973798194 0.8899355533260251 -7 3 9
45 1 1 0.5897 2.2738088812703747 15.031038471611298 4.248055952203332 -2 4 0
44 1 1 0.5897 0.9871085733286415 15.817102618145695 4.112819900039672 -2 4 0
43 1 2 -1.1794 1.3322371232191692 14.924288487802208 4.113054729070324 -2 4 0
797 1 1 0.5897 2.356782852858463 12.337213370617752 5.226299166418978 -4 -2 -2
798 1 1 0.5897 1.2509866640018021 13.336107815397135 4.959413320113592 -4 -2 -2
639 1 1 0.5897 1.954372925741974 15.339050509554948 2.028191499541121 -7 3 9
796 1 2 -1.1794 1.416591268227372 12.398483729650824 5.057533478605248 -4 -2 -2
385 1 2 -1.1794 1.406727631911981 11.833229250496245 2.286700018029646 -6 2 2
637 1 2 -1.1794 2.199828082511336 15.499165007040382 1.1169889946909737 -7 3 9
36 1 1 0.5897 4.1859720565434095 15.838138281709854 5.13141607715928 -4 2 3
34 1 2 -1.1794 3.929773425306367 14.962259216490182 4.842594405309283 -4 2 3
387 1 1 0.5897 1.083207985205995 12.599298496010173 1.8127106477022221 -6 2 2
773 1 1 0.5897 4.081136045782017 14.872301058712653 1.107338700476157 0 -9 1
386 1 1 0.5897 1.4253282406889292 12.10836806039317 3.2032899117285445 -6 2 2
92 1 1 0.5897 4.222951048316334 12.119822192270764 0.9159944641662873 -4 -4 2
35 1 1 0.5897 4.040663310002374 14.411938290071793 5.6178777770220165 -4 2 3
772 1 2 -1.1794 4.832843301794001 14.326248908658714 0.8771729368750144 0 -9 1
740 1 1 0.5897 3.2380286056894927 14.333272088725112 7.745706380231293 3 -2 -4
836 1 1 0.5897 1.8548908701812923 14.328053817527831 9.730684207563918 4 7 2
741 1 1 0.5897 3.275692326798053 12.868288874200493 7.365868535622498 3 -2 -4
739 1 2 -1.1794 3.7596931212432008 13.688308254525742 7.268137215068871 3 -2 -4
835 1 2 -1.1794 1.535262882557206 14.67876475917153 8.89940491334709 4 7 2
837 1 1 0.5897 0.773450223679859 14.139078698492636 8.688302076809943 4 7 2
291 1 1 0.5897 0.8010599406599255 16.280397473799717 8.813523566575755 -7 -8 -8
648 1 1 0.5897 1.0879233353729765 13.419620623145844 14.489490727212186 -7 3 0
691 1 2 -1.1794 4.206040653991549 13.935835890385764 14.826963015253664 0 2 0
692 1 1 0.5897 3.6372644023169896 13.167066434250051 14.867954821060632 0 2 0
194 1 1 0.5897 4.813049662248767 16.438660118036303 16.075721452631914 4 0 5
629 1 1 0.5897 4.092229751708926 15.42462603245722 13.167271341256129 4 -4 3
97 1 2 -1.1794 2.564787566673636 13.71872002161212 11.216694269223863 10 -12 4
28 1 2 -1.1794 1.5349493665128886 12.13425706784172 13.40692998272306 -12 4 5
809 1 1 0.5897 3.410042015854253 15.158125085952891 15.834726099248325 2 -1 -6
30 1 1 0.5897 1.8543298135449013 12.525371789861609 12.593784715879062 -12 4 5
98 1 1 0.5897 2.246198701940858 14.47273915586012 11.712849787468228 10 -12 4
435 1 1 0.5897 1.0765214056133667 16.656453649011045 12.22022414820333 3 7 1
628 1 2 -1.1794 4.016039138218957 16.214410925600156 12.631879933518986 4 -4 3
630 1 1 0.5897 3.1440896208582663 16.555701404959027 12.830416465409673 4 -4 3
433 1 2 -1.1794 1.0718614427348654 15.753772033791902 12.538534531128184 3 7 1
647 1 1 0.5897 0.9335989800036912 14.895051801357305 14.18771418340819 -7 3 0
646 1 2 -1.1794 0.8091649857446652 14.247248531931257 14.88129494801947 -7 3 0
99 1 1 0.5897 3.5159443244965947 13.825095054429243 11.20275348545482 10 -12 4
439 1 2 -1.1794 2.223403889441821 14.773286135407428 19.01781102090844 0 0 2
810 1 1 0.5897 2.888771282029401 15.262762069513748 17.252149503386548 2 -1 -6
441 1 1 0.5897 1.438992241940268 14.282861122712783 18.772061880945188 0 0 2
545 1 1 0.5897 3.652546703634318 13.31163989548064 18.907444970845923 -6 6 1
440 1 1 0.5897 2.2198541014266198 14.767725529680813 19.974964638966995 0 0 2
544 1 2 -1.1794 3.8994004897137904 12.395373258929894 18.78217737524799 -6 6 1
808 1 2 -1.1794 3.0923375689464168 15.790043963612469 16.479674379177798 2 -1 -6
9 1 1 0.5897 3.284120185949642 12.01112911283405 17.103559904580827 2 -2 1
546 1 1 0.5897 3.191647124848305 11.897988831663211 19.191893916863087 -6 6 1
426 1 1 0.5897 1.5068728246399588 16.674520865894436 16.39694911993758 3 -6 5
813 1 1 0.5897 2.0808792785068815 18.265848174511774 3.5002861226617674 -8 2 -2
601 1 2 -1.1794 1.107109778405706 21.67524300717631 4.40238253460757 4 2 -3
244 1 2 -1.1794 3.474203343768804 19.640426324228347 2.838075556446355 -8 2 2
246 1 1 0.5897 2.948379202894569 20.12875599242574 2.204638524170771 -8 2 2
245 1 1 0.5897 4.052253760811265 19.097376395533374 2.302221780542545 -8 2 2
811 1 2 -1.1794 1.4040583761233365 17.86851205985979 4.0482420291158885 -8 2 -2
525 1 1 0.5897 4.1954376620054745 20.547305474635237 5.882524887900561 4 -1 5
524 1 1 0.5897 4.302955973165869 20.201628322658337 4.412580183181365 4 -1 5
523 1 2 -1.1794 4.763452351214588 20.11194476575953 5.246911322766265 4 -1 5
812 1 1 0.5897 0.6855318982306287 18.500820929451127 4.038478117758389 -8 2 -2
787 1 2 -1.1794 2.2377986488941914 17.911479753383233 10.761487946520113 7 -4 8
788 1 1 0.5897 2.183880586804914 18.809666116001683 10.435037533170942 7 -4 8
538 1 2 -1.1794 2.513259952852063 20.94695412658871 6.848282440635041 4 -4 3
641 1 1 0.5897 1.9195929986606242 20.332428110322837 8.754225685613655 3 -2 -4
271 1 2 -1.1794 2.192048333697528 17.77176911518709 6.903431049921906 -1 2 1
280 1 2 -1.1794 4.099729693939656 17.395651767304415 9.00665333154745 2 -1 6
282 1 1 0.5897 3.4959845920481354 17.528355503671463 9.737459389652644 2 -1 6
776 1 1 0.5897 3.837505990719566 21.471874474111033 7.9882295227030164 13 -2 4
789 1 1 0.5897 1.7000426631162098 17.402895491233465 10.154539148538275 7 -4 8
640 1 2 -1.1794 1.8760826187322432 20.488238319144102 9.697629499595301 3 -2 -4
281 1 1 0.5897 3.5914886548096576 17.629465637470233 8.22998848906921 2 -1 6
539 1 1 0.5897 1.6768835308251009 20.520154148475054 6.662485120300842 4 -4 3
540 1 1 0.5897 2.523268449370293 21.71448644727012 6.27644675349636 4 -4 3
642 1 1 0.5897 2.7458726323170457 20.815237025883846 9.927222461170462 3 -2 -4
273 1 1 0.5897 1.3867038455421445 17.714063509695325 7.417508704685124 -1 2 1
775 1 2 -1.1794 4.476496408217649 21.695904216109817 8.664756916087622 13 -2 4
272 1 1 0.5897 1.906312242894376 17.661400854504286 5.99659576012823 -1 2 1
80 1 1 0.5897 2.452149922253364 18.722764343614454 14.763457055742167 2 1 -3
81 1 1 0.5897 1.4624940347200335 17.895829450745524 13.970625930290122 2 1 -3
759 1 1 0.5897 3.9810832602867734 20.129060317082633 11.891533920391712 0 2 0
758 1 1 0.5897 3.5307776698944973 18.70543445826626 12.141066026068275 0 2 0
79 1 2 -1.1794 2.304992938062736 18.34409663009527 13.89674417794446 2 1 -3
757 1 2 -1.1794 4.314882416926188 19.24192101753421 12.024711642583954 0 2 0
62 1 1 0.5897 4.668518479163554 18.95570049231628 13.892273166865436 2 -5 10
841 1 2 -1.1794 0.7657739384840099 21.637765435391927 14.366020508505525 -6 -1 1
552 1 1 0.5897 3.7834762023519235 19.4332582320314 15.998282060813652 1 6 -6
550 1 2 -1.1794 2.8944559544103803 19.31808124993739 16.333778815104544 1 6 -6
551 1 1 0.5897 2.963338622561395 18.589653454381846 16.950898278339103 1 6 -6
662 1 1 0.5897 2.2683136387745853 20.125447207445266 17.90559617682593 -4 0 0
661 1 2 -1.1794 2.1073497852023086 20.825713380662673 18.537969526143563 -4 0 0
820 1 2 -1.1794 1.0052226365922525 18.01398970984239 21.20219581124364 3 -4 4
821 1 1 0.5897 0.7930010488002468 17.826209004277494 20.287922638546114 3 -4 4
264 1 1 0.5897 2.3787201904401396 20.666629570476776 20.43456755370223 -1 -1 8
384 1 1 0.5897 4.034285300296089 17.299972456095475 18.555270744739175 -5 -2 -1
262 1 2 -1.1794 2.040240327354225 20.450382807634007 21.30339510671898 -1 -1 8
382 1 2 -1.1794 3.158351414429152 17.660045650544944 18.69420837386329 -5 -2 -1
183 1 1 0.5897 3.9435198967814733 17.857162335920723 20.669514626648755 -4 2 -1
570 1 1 0.5897 4.549031554117213 21.53971381450261 19.75720400001734 5 -3 1
663 1 1 0.5897 2.1263718456409038 21.628510624115783 18.01707001910294 -4 0 0
182 1 1 0.5897 4.684440811788678 19.175450215897015 20.739557199809454 -3 2 -1
383 1 1 0.5897 2.5729755172023565 16.90781039396345 18.606544607085254 -5 -2 -1
181 1 2 -1.1794 4.58600945807091 18.337536644292314 21.191647629045313 -4 2 -1
263 1 1 0.5897 1.8494076016465615 19.51341969576712 21.260228993352523 -1 -1 8
447 1 1 0.5897 7.3975468639379836 4.013853447770762 1.980073810594479 1 -1 -1
658 1 2 -1.1794 6.757151473096792 6.705515004691403 3.031394421096201 2 -2 3
445 1 2 -1.1794 8.02999691995624 4.726455961097728 1.8884043407033457 0 -1 -1
86 1 1 0.5897 8.548587153976625 4.335145319623958 4.503318830805574 -4 5 3
239 1 1 0.5897 5.166572600198457 4.328446712375164 1.7528092347390325 -6 -8 6
659 1 1 0.5897 6.089564213043018 6.2612354355187465 3.5540118848702433 2 -2 3
238 1 2 -1.1794 5.332592553251752 3.5902331458769225 2.3390395179522434 -6 -8 6
84 1 1 0.5897 6.877136027338789 2.492726915250743 4.490422657833536 5 -10 -4
83 1 1 0.5897 6.362894627916227 3.791652300735653 3.9072278722489435 5 -10 -4
82 1 2 -1.1794 6.881158994595151 3.439540261482228 4.6308339888984715 5 -10 -4
446 1 1 0.5897 7.643675642922654 5.45431158735815 2.3754186903828494 0 -1 -1
225 1 1 0.5897 7.93787763969686 2.3816323609371324 7.101901977501247 -2 -1 -10
444 1 1 0.5897 7.456950101328774 6.680030071059174 8.585656331459298 2 5 -1
6 1 1 0.5897 7.474116760457549 3.5930102227789344 11.050986926302135 6 2 0
443 1 1 0.5897 7.115146337812437 5.329257005657537 7.993764577908148 2 5 -1
427 1 2 -1.1794 8.210784154260576 2.131197313613382 10.166005376721982 -1 2 1
111 1 1 0.5897 5.745128247710727 2.8249298026704537 7.6208536490708765 -1 3 -11
110 1 1 0.5897 6.2336987254644685 3.6497677245383016 6.449233912345623 -1 3 -11
109 1 2 -1.1794 6.387280114906418 3.492941850024037 7.38089724268347 -1 3 -11
5 1 1 0.5897 7.680459295636413 5.092428455677963 11.02049449969363 6 2 0
442 1 2 -1.1794 7.504752713133449 6.175404899904986 7.773716775276738 2 5 -1
288 1 1 0.5897 5.389637209070776 4.44423971980078 11.011940778947004 5 -3 6
770 1 1 0.5897 4.900536369632908 6.802382025323249 8.74536590138977 1 -5 1
243 1 1 0.5897 9.004588760264095 5.400712627414734 7.674127556729772 -5 -4 -2
339 1 1 0.5897 5.069006802316796 4.5801097196118405 7.957375316766172 5 5 0
69 1 1 0.5897 8.531221653984908 6.844220826156488 10.491694163143501 2 1 -8
428 1 1 0.5897 8.022727568589056 1.9699061278677874 9.241415805189499 -1 2 1
825 1 1 0.5897 6.9945417132336996 6.555727821400495 13.396702933669712 2 7 3
625 1 2 -1.1794 7.00330752759361 4.865836157440958 13.984163391561975 -4 -2 -2
13 1 2 -1.1794 8.663665357040873 2.5748727375710434 14.777116429423456 -1 -4 -2
4 1 2 -1.1794 7.058957203524663 4.419389009258542 11.297859329143746 6 2 0
626 1 1 0.5897 6.071340598070088 4.778871861539326 14.184290044836352 -4 -2 -2
627 1 1 0.5897 7.111897885519134 4.41567949188655 13.146461824529032 -4 -2 -2
506 1 1 0.5897 8.74838773862195 4.990282039134435 14.420995196322854 -1 4 -2
14 1 1 0.5897 8.450140835570735 3.3015752900085675 15.362346031645755 -1 -4 -2
116 1 1 0.5897 7.0303018018297765 1.9135909593440938 13.994277072021857 -6 -11 2
413 1 1 0.5897 5.282421717439184 6.621347877280973 16.022116507852097 -1 -2 1
305 1 1 0.5897 5.217005378561401 3.8393264415893387 19.4363959752545 4 1 -4
665 1 1 0.5897 7.553435804748497 3.45500348324623 20.121369184084102 10 -2 2
204 1 1 0.5897 5.166233155893198 3.917313726430144 16.33609291300115 -6 5 11
23 1 1 0.5897 7.106812541499563 4.3163376444159764 16.799958458066648 -5 0 3
22 1 2 -1.1794 8.0306292396751 4.212076416863833 17.027723767758218 -5 0 3
831 1 1 0.5897 5.981868841685876 5.7987200002821755 21.382787511557744 3 7 1
664 1 2 -1.1794 7.258935601969585 4.302669785004795 19.788271655485566 10 -2 2
138 1 1 0.5897 7.843353591544529 6.179308951084204 17.1841119007791 6 -13 -2
666 1 1 0.5897 7.689875523877668 4.944940198923439 20.352147145639613 10 -2 2
202 1 2 -1.1794 5.373107413949551 4.842813553476249 16.465869826673064 -6 5 11
203 1 1 0.5897 5.069470675911233 5.034454177595794 17.353149188828638 -6 5 11
829 1 2 -1.1794 5.0247809221037505 5.80655302597947 21.372988262864375 3 7 1
24 1 1 0.5897 8.03231178160133 4.100621288533422 17.978384533766274 -5 0 3
342 1 1 0.5897 6.161931614507079 8.840810072814499 4.5358473201043115 3 9 0
201 1 1 0.5897 7.508798470667337 10.649771298902355 1.5406102334559764 6 -3 -2
660 1 1 0.5897 6.575014901059263 7.637499675542991 3.151476932607224 2 -2 3
200 1 1 0.5897 8.627693239876745 10.485132012550247 2.5469571789684027 6 -3 -2
340 1 2 -1.1794 6.0523598396992115 9.21736620476857 3.662706135621022 3 9 0
341 1 1 0.5897 6.6812270468491874 9.938293746278902 3.631623271266503 3 9 0
199 1 2 -1.1794 7.811642906352274 10.96125543024092 2.393522137716336 6 -3 -2
779 1 1 0.5897 8.461522434703987 6.940263911245257 4.053821098797158 -6 2 4
393 1 1 0.5897 5.583611080731135 10.152128345937177 0.8299396707349148 3 -2 -2
591 1 1 0.5897 5.0228729695954675 11.724278710321565 4.20098217150705 6 2 1
714 1 1 0.5897 7.2202108665690625 9.97894889435225 10.028406946403695 -8 -2 3
211 1 2 -1.1794 4.907264613028461 10.347322335554532 7.240928145302481 8 1 2
303 1 1 0.5897 4.971029083719793 11.644411625244052 10.983658802973268 4 2 11
769 1 2 -1.1794 5.199145754728018 7.68551980798043 8.962341759780498 1 -5 1
713 1 1 0.5897 6.655881742354192 9.099201812530065 8.933256355141115 -8 -2 3
574 1 2 -1.1794 8.695156469905378 10.026381849396431 6.290227524018137 4 -5 0
575 1 1 0.5897 8.82176568100659 10.255700795436072 7.210855637281077 4 -5 0
712 1 2 -1.1794 7.318526326350312 9.769588223836479 9.099597856095237 -8 -2 3
18 1 1 0.5897 5.9787406481247745 8.895806588589771 6.58083293904863 -1 6 2
17 1 1 0.5897 6.764133907159395 7.615667087147255 6.7710120632093025 -1 6 2
771 1 1 0.5897 4.935435830779698 7.810827285800503 9.873894658440008 1 -5 1
213 1 1 0.5897 5.497419865484382 10.918182901005729 7.732890719016654 8 1 2
67 1 2 -1.1794 7.610603343352796 7.105782373568244 10.507320264348007 2 1 -8
16 1 2 -1.1794 6.53445240918462 8.272189893391673 6.113433544585179 -1 6 2
576 1 1 0.5897 7.950636525962624 9.424788039328687 6.292963610581283 4 -5 0
148 1 2 -1.1794 8.926701267161844 10.332598505730461 15.781809859348813 -6 -1 3
403 1 2 -1.1794 6.039023267166105 11.142926934213849 13.869134251672047 6 1 -1
675 1 1 0.5897 7.095754337680873 10.653794163097672 12.591127162200085 -3 -9 -2
149 1 1 0.5897 8.004401871613656 10.099787019856885 15.88849883062187 -6 -1 3
824 1 1 0.5897 7.786804229655161 7.831253545621771 13.203806182524128 2 7 3
494 1 1 0.5897 5.163452555362623 7.6139880148086805 12.293168408523133 -4 -2 0
405 1 1 0.5897 6.085962592294569 10.804160970609274 14.763128480257803 6 1 -1
412 1 2 -1.1794 5.683245150428916 7.485324948636426 15.92684146208762 -1 -2 1
674 1 1 0.5897 8.46738799759914 10.497107403833589 11.969965556008635 -3 -9 -2
673 1 2 -1.1794 7.53369175429335 10.455843006357178 11.763354209928528 -3 -9 -2
823 1 2 -1.1794 6.895504302649775 7.483014417959502 13.180970750969044 2 7 3
414 1 1 0.5897 6.128295316651364 7.451341487120611 15.080110996448246 -1 -2 1
68 1 1 0.5897 7.435182419000456 7.311648684168171 11.425494763753273 2 1 -8
302 1 1 0.5897 5.621369084333322 10.290661104301762 11.173869831540449 4 2 11
392 1 1 0.5897 6.6433612525802905 10.676429417474429 20.44516297601048 3 -2 -3
136 1 2 -1.1794 7.784839621569738 7.099181884885138 17.442178829950606 6 -13 -2
391 1 2 -1.1794 6.4318781890889385 9.930533838710378 21.006491610977285 3 -2 -3
785 1 1 0.5897 7.594015542315038 7.461103864664745 19.508988973192828 6 7 0
786 1 1 0.5897 7.927069535742288 8.066472720807624 20.855976134464505 6 7 0
308 1 1 0.5897 5.9464461453667035 9.802713305076109 17.091836493920518 4 11 -3
805 1 2 -1.1794 5.1824488527902215 9.256400259114912 18.72373552263838 -4 1 -4
806 1 1 0.5897 5.746760679152166 9.358497728470056 19.490096519935285 -4 1 -4
784 1 2 -1.1794 7.872580124357151 7.229420582189632 20.394939993620802 6 7 0
137 1 1 0.5897 7.038881519511829 7.4399040281516715 16.948552441344162 6 -13 -2
307 1 2 -1.1794 6.252348896842995 10.43517673371457 16.441731718647347 4 11 -3
309 1 1 0.5897 5.8486686475657095 11.262671715144078 16.703446281479742 4 11 -3
807 1 1 0.5897 5.1297212111861645 8.310237182057833 18.588886835903907 -4 1 -4
150 1 1 0.5897 9.10128263590776 10.952274565060351 16.490147294946837 -6 -1 3
616 1 2 -1.1794 6.00069640067092 13.753464462064017 3.4138915212286998 5 0 -2
156 1 1 0.5897 8.624140831939492 13.99052844721107 1.607715517936665 5 0 -2
618 1 1 0.5897 6.852146592786364 13.843595475087113 3.8417899950113417 5 0 -2
774 1 1 0.5897 5.259398160075156 14.140217745294335 1.7136060280902008 0 -9 1
155 1 1 0.5897 8.261197531110913 12.907486042792927 2.601250705302519 5 0 -2
617 1 1 0.5897 5.38582129614739 14.179897880820809 4.010768871112595 5 0 -2
634 1 2 -1.1794 7.815050975981533 12.759478518980421 5.293585302341824 -7 2 2
154 1 2 -1.1794 8.81770666354047 13.678522981628394 2.491666756869214 5 0 -2
26 1 1 0.5897 9.089113904926458 15.41554309607325 3.351191615741506 -4 5 8
636 1 1 0.5897 8.070952013031118 11.864632923897958 5.069970756059924 -7 2 2
643 1 2 -1.1794 6.35000774342048 12.789296616664668 7.752973634944933 -2 0 2
188 1 1 0.5897 6.615333233948094 15.812341274181536 9.891951630126512 -5 2 5
720 1 1 0.5897 5.58843435200516 13.930536974256544 10.414126972280702 9 5 -5
349 1 2 -1.1794 8.365881709972168 12.575875594011624 10.197814318840695 -12 -4 1
360 1 1 0.5897 8.450997105976718 13.825762141332891 8.784170552953832 11 0 0
358 1 2 -1.1794 8.750756360544445 14.659673290482772 8.422325364615274 11 0 0
143 1 1 0.5897 6.7317083366374435 16.05487132671675 7.631598812442399 1 5 3
644 1 1 0.5897 6.60159834935386 13.376933106676118 8.465414905413624 -2 0 2
187 1 2 -1.1794 5.994369127111152 15.328929454445188 9.347071084439767 -5 2 5
351 1 1 0.5897 9.010836435339662 12.059778288874398 9.714185973354747 -12 -4 1
635 1 1 0.5897 7.471062057121729 12.695119084100575 6.184533069702949 -7 2 2
142 1 2 -1.1794 6.974540513590692 16.61338221905237 6.893170172904598 1 5 3
645 1 1 0.5897 5.4984166536500885 13.115521262159184 7.4622089246032575 -2 0 2
144 1 1 0.5897 7.93118828976764 16.586557019439518 6.876406169918264 1 5 3
703 1 2 -1.1794 8.921285271557252 16.528523966079113 10.689415449374787 7 -6 2
350 1 1 0.5897 7.885323401038544 11.93241085291118 10.718601230623516 -12 -4 1
189 1 1 0.5897 5.245158132579802 15.917795641536191 9.256923450832957 -5 2 5
359 1 1 0.5897 8.988606114295386 15.182006901838788 9.188339014668273 11 0 0
719 1 1 0.5897 6.019621281931142 13.405605082757774 11.767020342368111 9 5 -5
417 1 1 0.5897 7.5282053934086335 14.005949927943671 13.672279723231517 -4 -1 -2
214 1 2 -1.1794 7.473703756865105 15.752720188340211 14.326182131518427 -3 0 1
215 1 1 0.5897 6.761406780851554 15.98655720557668 14.92128005399522 -3 0 1
416 1 1 0.5897 8.417964172388018 13.29664303573928 12.673791149304947 -4 -1 -2
415 1 2 -1.1794 7.52972729506586 13.295786925132045 13.030518933748493 -4 -1 -2
693 1 1 0.5897 4.941543192172215 13.721045385366638 15.400634226346027 0 2 0
511 1 2 -1.1794 9.062603418166532 13.644555423885796 16.111761831098697 0 2 -5
216 1 1 0.5897 7.268726963536649 16.21468933210719 13.513316861889104 -3 0 1
404 1 1 0.5897 6.487001780835255 11.987872886382391 13.908862519383764 6 1 -1
718 1 2 -1.1794 5.267917398695751 13.447738158897444 11.175951713022625 9 5 -5
588 1 1 0.5897 7.722842817045125 15.276546891343388 20.803004608514385 -2 -4 5
592 1 2 -1.1794 5.5046389965541245 15.620801754198427 18.753323861085384 4 -5 -7
587 1 1 0.5897 8.948721919651115 14.754662060983572 20.084243266900458 -2 -4 5
586 1 2 -1.1794 8.148965724046878 14.466164043158404 20.523941543029572 -2 -4 5
594 1 1 0.5897 6.397295639560258 15.852694373863814 18.49708363338012 4 -5 -7
694 1 2 -1.1794 6.568046933144902 12.23167738039439 19.647726992601612 2 -1 -6
515 1 1 0.5897 5.85103857004576 14.200064477368473 17.369025799795487 -8 -5 -2
695 1 1 0.5897 6.586302551582048 13.04356859350796 20.154377823775214 2 -1 -6
593 1 1 0.5897 5.578690150716046 15.359733171691893 19.671238161584135 4 -5 -7
688 1 2 -1.1794 8.17658826089611 16.02109906520306 17.24622499741431 -1 2 3
514 1 2 -1.1794 6.087018969026245 13.584695493262444 16.674901595119508 -8 -5 -2
512 1 1 0.5897 8.951463243192034 14.576326985095031 16.300514052635073 0 2 -5
696 1 1 0.5897 5.687387754529339 12.20185332871022 19.27390135487807 2 -1 -6
689 1 1 0.5897 8.773280835508597 16.09704453871097 17.990811262966908 -1 2 3
857 1 1 0.5897 8.200068762590458 12.111781526080863 18.899719537868087 1 -2 -4
856 1 2 -1.1794 8.912151172694672 11.962207818945364 18.27782893754049 1 -2 -4
513 1 1 0.5897 8.76333225716928 13.201509070157574 16.905696620863814 0 2 -5
516 1 1 0.5897 6.914297150215744 13.91921498363242 16.328663348891954 -8 -5 -2
861 1 1 0.5897 8.06539438947248 17.33223218033004 3.620529391689102 -6 -6 1
73 1 2 -1.1794 5.0555864551258 17.372154140041868 5.0507373542361895 -9 -3 0