LAMMPS (30 Jul 2021)
  using 1 OpenMP thread(s) per MPI task
package omp 0
using multi-threaded neighbor list subroutines
echo both

include		in.partitions
variable        pid world 0
include		in.temp
variable        temperature equal 254.53
variable	tempDamp equal 100.0
include		in.pressure
variable        pressure equal 10250.0
variable        pressureDamp equal 1000.0 # This is 1 ps
include		in.seed
variable        seed world 745823

units		real
atom_style	full
read_restart	restart.lmp.${pid}
read_restart	restart.lmp.0
Reading restart file ...
  restart file = 30 Jul 2021, LAMMPS = 30 Jul 2021
  restoring atom style full from restart
  orthogonal box = (0.64424082 1.8503619 0.78597230) to (17.563332 21.778816 21.427224)
  4 by 4 by 4 MPI processor grid
  restoring pair style lj/cut/tip4p/long/omp from restart
  restoring bond style harmonic/omp from restart
  restoring angle style harmonic/omp from restart
  864 atoms
  576 bonds
  288 angles
Finding 1-2 1-3 1-4 neighbors ...
  special bond factors lj:    0        0        0       
  special bond factors coul:  0        0        0       
     2 = max # of 1-2 neighbors
     1 = max # of 1-3 neighbors
     1 = max # of 1-4 neighbors
     2 = max # of special neighbors
  special bonds CPU = 0.210 seconds
  read_restart CPU = 0.405 seconds
include 	in.setup
variable	out_freq equal 1000
variable	out_freq2 equal 10000
variable	out_freq3 equal 1000

timestep	2.0

neigh_modify    delay 7 every 1

include		in.tip4p
# This is TIP4P/Ice

# create groups ###
group ox type 2
288 atoms in group ox
group hy type 1
576 atoms in group hy

# set charges - beside manually ###
set group ox charge -1.1794
Setting atom values ...
  288 settings made for charge
set group hy charge 0.5897
Setting atom values ...
  576 settings made for charge

# ### TIP3P Potential Parameters ###
pair_style lj/cut/tip4p/long/omp 2 1 1 1 0.1577 8.5
pair_coeff 1 1*2 0.000 0.000
pair_coeff 2 2 0.21084 3.1668
bond_style  harmonic
bond_coeff  1 450 0.9572
angle_style harmonic
angle_coeff 1 55 104.52
kspace_style pppm/tip4p/omp 1.0e-5
pair_modify tail yes

thermo          ${out_freq}
thermo          1000
thermo_style    custom step temp pe etotal epair emol press lx ly lz vol pxx pyy pzz pxy pxz pyz enthalpy

restart 	${out_freq3} restart.lmp.${pid} restart2.lmp.${pid}
restart 	1000 restart.lmp.${pid} restart2.lmp.${pid}
restart 	1000 restart.lmp.0 restart2.lmp.${pid}
restart 	1000 restart.lmp.0 restart2.lmp.0


include         in.dump
dump            myDump all atom ${out_freq2} dump.water.${pid}
dump            myDump all atom 10000 dump.water.${pid}
dump            myDump all atom 10000 dump.water.0
dump            myDump2 all dcd ${out_freq2} dump.dcd
dump            myDump2 all dcd 10000 dump.dcd
dump_modify     myDump append yes
dump_modify     myDump2 append yes


variable natoms 	equal  "count(all)"                        # NUMBER ATOMS
variable H      	equal  "enthalpy/v_natoms"                 # ENTHALPY-per-atom
variable Vol      	equal  "vol/v_natoms"                 # volume-per-atom
fix AVG all 		ave/time ${out_freq} 1 ${out_freq} v_Vol v_H file vol_enthalpy.dat
fix AVG all 		ave/time 1000 1 ${out_freq} v_Vol v_H file vol_enthalpy.dat
fix AVG all 		ave/time 1000 1 1000 v_Vol v_H file vol_enthalpy.dat


timer           timeout 23:50:00 every 1000
New timer settings: style=normal  mode=nosync  timeout=23:50:00

fix 		1 all shake 1e-6 200 0 b 1 a 1
       0 = # of size 2 clusters
       0 = # of size 3 clusters
       0 = # of size 4 clusters
     288 = # of frozen angles
  find clusters CPU = 0.295 seconds
fix             2 all nph iso ${pressure} ${pressure} ${pressureDamp}
fix             2 all nph iso 10250 ${pressure} ${pressureDamp}
fix             2 all nph iso 10250 10250 ${pressureDamp}
fix             2 all nph iso 10250 10250 1000
fix             3 all temp/csvr ${temperature} ${temperature} ${tempDamp} ${seed}
fix             3 all temp/csvr 254.53 ${temperature} ${tempDamp} ${seed}
fix             3 all temp/csvr 254.53 254.53 ${tempDamp} ${seed}
fix             3 all temp/csvr 254.53 254.53 100 ${seed}
fix             3 all temp/csvr 254.53 254.53 100 745823

run             250000
PPPM initialization ...
  extracting TIP4P info from pair style
  using 12-bit tables for long-range coulomb (../kspace.cpp:340)
  G vector (1/distance) = 0.37453343
  grid = 24 24 24
  stencil order = 5
  estimated absolute RMS force accuracy = 0.0031301262
  estimated relative force accuracy = 9.4262821e-06
  using double precision FFTW3
  3d grid and FFT values/proc = 2535 216
Last active /omp style is kspace_style pppm/tip4p/omp
Neighbor list info ...
  update every 1 steps, delay 7 steps, check yes
  max neighbors/atom: 2000, page size: 100000
  master list distance cutoff = 10.8154
  ghost atom cutoff = 10.8154
  binsize = 5.4077, bins = 4 4 4
  1 neighbor lists, perpetual/occasional/extra = 1 0 0
  (1) pair lj/cut/tip4p/long/omp, perpetual
      attributes: half, newton on, omp
      pair build: half/bin/newton/omp
      stencil: half/bin/3d
      bin: standard
Per MPI rank memory allocation (min/avg/max) = 9.237 | 9.240 | 9.243 Mbytes
Step Temp PotEng TotEng E_pair E_mol Press Lx Ly Lz Volume Pxx Pyy Pzz Pxy Pxz Pyz Enthalpy 
25250000    276.22811   -3891.7819   -3418.3364   -3891.7819            0    8815.9492    16.919091    19.928454    20.641251     6959.638    8831.9504    9751.8617    7864.0355    795.17123   -736.56876   -124.79733   -2523.5248 
25251000    258.79058   -3886.5584   -3443.0002   -3886.5584            0    9280.2485    16.854159    19.851973    20.562034    6879.8159    10573.424    9128.2146    8139.1063   -1512.2859   -449.41947   -623.05234   -2511.8659 
25252000    259.58421    -3886.352   -3441.4335    -3886.352            0    10720.609    16.800869    19.789204    20.497021     6814.764    11203.942    10428.849    10529.036    538.31459   -1323.4032   -713.66754   -2375.9514 
25253000    260.99111   -3912.8487   -3465.5189   -3912.8487            0     11084.11    16.845396    19.841652    20.551344    6869.0914    11207.004    12553.909    9491.4173   -553.91561   -739.23821    902.03855   -2355.1276 
25254000    241.01136   -3897.3446   -3484.2594   -3897.3446            0    11204.318    16.813853    19.804498    20.512862    6830.5763    10028.035    11320.145    12264.774   -280.48269    878.56917   -1877.7915   -2368.1195 
25255000    255.75856   -3882.8425   -3444.4811   -3882.8425            0    7277.6897    16.941297     19.95461    20.668342     6987.077    8542.8204    5732.6766    7557.5721    1410.8343     849.3333    1301.9356   -2702.8892 
25256000    259.34399   -3887.1321   -3442.6254   -3887.1321            0    11135.422    16.806456    19.795786    20.503837    6821.5653    11098.345    10064.216    12243.703   -977.30674    126.89771   -863.65871    -2334.812 
25257000    258.03832   -3898.2552   -3455.9864   -3898.2552            0    11528.261    16.773347    19.756787    20.463444    6781.3281    9981.7377    11628.317    12974.727    524.40669    191.68198    1096.2468   -2315.8562 
25258000    267.73189   -3913.1141   -3454.2308   -3913.1141            0    10055.315    16.759738    19.740757    20.446841    6764.8357    10012.278    11617.115    8536.5522   -218.73489    2855.4774    522.11721   -2462.1916 
25259000    254.70234   -3870.3633   -3433.8123   -3870.3633            0    12605.713    16.763806    19.745549    20.451804    6769.7625    11979.508    12923.364    12914.268   -268.09505   -2401.2362    999.89975   -2189.2496 
25260000    257.95206   -3897.7422   -3455.6212   -3897.7422            0    10984.173     16.80425    19.793187    20.501146     6818.879    9605.7659    14492.977     8853.775    810.25461   -359.90441   -14.822493   -2363.2853 
25261000    259.71432   -3909.2996   -3464.1582   -3909.2996            0    9200.4846    16.853207    19.850852    20.560873    6878.6509    12088.424    8018.0725     7494.957    1657.1303   -867.30464   -581.73526   -2541.1833 
25262000    260.35392   -3869.3828   -3423.1451   -3869.3828            0    10591.178    16.850862    19.848089    20.558012    6875.7795    10287.737    9063.8071    12421.989    1791.6049   -468.49317   -419.16398   -2361.1021 
25263000    258.83874   -3894.6197    -3450.979   -3894.6197            0    9776.4964    16.904795    19.911616    20.623811    6942.0115    10300.621    9128.6465    9900.2216    425.00298    309.11117   -911.79305   -2461.1858 
25264000    244.01404   -3917.4242   -3499.1925   -3917.4242            0    12084.927    16.839012    19.834132    20.543556    6861.2844    13547.476    11781.833    10925.473    357.49197   -513.83138    242.80959   -2289.9167 
25265000    244.65204   -3876.0247   -3456.6995   -3876.0247            0    11749.172    16.874187    19.875564    20.586469     6904.372    10642.825    12543.648    12061.042    27.536464   -135.48771   -1361.0463    -2273.638 
25266000    265.63158   -3917.3095   -3462.0261   -3917.3095            0     10450.63    16.849607    19.846612    20.556481    6874.2437    11028.847    9709.7644    10613.279    -1891.252   -778.36039   -989.26682   -2414.3108 
25267000    251.51071   -3890.6697    -3459.589   -3890.6697            0    10990.383    16.831019    19.824717    20.533803    6851.5177    9383.4485    11811.728    11775.973   -616.74849    75.283847    1011.1813    -2361.404 
25268000      248.048   -3909.1061   -3483.9603   -3909.1061            0    10288.395    16.900624    19.906702    20.618721    6936.8737     9677.289    9941.4893    11246.407   -177.86685    1606.4021    292.29417   -2443.1123 
25269000    248.22861   -3894.5336   -3469.0783   -3894.5336            0     10502.03    16.833246     19.82734     20.53652    6854.2378    11996.622    9673.5871    9835.8795     561.1831    897.36206   -230.59005   -2419.2741 
25270000    251.78028   -3924.1968    -3492.654   -3924.1968            0    10215.866    16.804969    19.794034    20.502023    6819.7547    9992.9517    10320.212    10334.436     1184.924    965.75306   -607.10648   -2476.5928 
25271000    256.66929   -3944.2895   -3504.3671   -3944.2895            0    10363.782    16.817245    19.808494       20.517    6834.7112     9730.457    10522.025    10838.864   -915.23815   -616.61813    920.53374   -2471.3338 
25272000    259.71031   -3931.5721   -3486.4376   -3931.5721            0    9368.0167    16.877332    19.879268    20.590306    6908.2332    8091.7748    10550.767    9461.5084    1495.9833    450.31138     997.0677   -2542.6146 
25273000    243.06222   -3931.0091   -3514.4088   -3931.0091            0    11510.819    16.773155    19.756561    20.463209    6781.0951    12515.789    12257.786    9758.8836   -74.663274   -36.065403   -1555.6129   -2376.0426 
25274000     268.6551   -3865.8143   -3405.3486   -3865.8143            0    10623.514    16.845805    19.842133    20.551843    6869.5912    10917.046    10373.745    10579.751     180.6367    493.16908    292.71655   -2341.0219 
25275000    248.12565   -3904.5112   -3479.2324   -3904.5112            0    12302.167    16.801169    19.789557    20.497386    6815.1286    10609.888    13954.366    12342.247    164.81191   -1180.3651    719.97522   -2256.4996 
25276000    270.84533   -3906.7388   -3442.5192   -3906.7388            0    12125.457    16.794434    19.781624     20.48917    6806.9362    9380.8375    12388.477    14607.058    558.87313   -131.09418   -615.81138   -2238.7985 
25277000    265.96218   -3903.2601   -3447.4101   -3903.2601            0    11731.829    16.842457     19.83819    20.547759    6865.4965    8941.2683    11632.937    14621.282    588.93049   -1934.8022   -1129.0538   -2272.7463 
25278000    244.97097    -3898.225   -3478.3531    -3898.225            0    9971.0793     16.80097    19.789323    20.497144    6814.8869        10705    9892.2136    9316.0247    960.75477   -1871.7613   -999.47853   -2487.3461 
25279000      242.708   -3896.1801   -3480.1868   -3896.1801            0    11879.565    16.753898    19.733879    20.439716    6757.7667    9734.6183    13586.638    12317.438    430.93322   -500.52299    3239.8611   -2309.3952 
25280000    263.44885   -3889.4691   -3437.9268   -3889.4691            0    11846.521    16.769138    19.751829    20.458309    6776.2247     10178.17    11262.241    14099.151    418.16334   -522.01336    270.11965   -2267.2029 
25281000    258.65562   -3882.4438   -3439.1169   -3882.4438            0    9032.8448    16.785992    19.771681    20.478871    6796.6764    7733.2755    8071.7651    11293.494    271.48999    853.32228    1005.1511   -2543.7583 
25282000    255.05087   -3877.8631   -3440.7147   -3877.8631            0    10185.642    16.806835    19.796232      20.5043    6822.0268    9572.5405    11377.416    9606.9706    -1472.084    1818.1213    6.3574854   -2427.3221 
25283000    254.25991   -3885.2177   -3449.4249   -3885.2177            0    10440.718    16.784224    19.769599    20.476715    6794.5301    10029.914    9046.5379    12245.701    -963.4806     1192.241    31.073524   -2414.8412 
25284000    245.06987   -3903.6898   -3483.6484   -3903.6898            0    10147.042    16.773653    19.757148    20.463818       6781.7    9377.7227    10053.484     11009.92   -463.37626   -1167.1183    605.44159   -2480.0639 
25285000    240.81153   -3910.7527     -3498.01   -3910.7527            0    11176.416    16.751584    19.731153    20.436893    6754.9671    12637.958    11218.431    9672.8601     388.8749   -653.96894   -319.30241   -2396.9735 
25286000    245.54262   -3922.0829   -3501.2313   -3922.0829            0    9542.0009    16.781221    19.766062     20.47305     6790.883    10679.831    9133.8694    8812.3028    1855.3888     2068.448    -418.7375     -2556.21 
25287000    249.79144   -3900.0687   -3471.9347   -3900.0687            0    8986.6385    16.833747     19.82793    20.537132    6854.8501    10141.225    7385.9881    9432.7025   -1528.5696    2016.4904    18.268987   -2573.5319 
25288000    255.34369   -3933.2837   -3495.6333   -3933.2837            0    8563.2191    16.858428    19.857002    20.567243    6885.0458    9498.7246    8497.7737     7693.159   -1337.0945    15.305659   -1093.7146   -2635.7891 
25289000    245.38147   -3916.2255   -3495.6501   -3916.2255            0    8972.7881     16.80958    19.799465    20.507649      6825.37     7825.752    9379.5499    9713.0625   -2133.9502    1446.4868   -895.01919   -2602.4896 
25290000    252.88507   -3938.2832   -3504.8469   -3938.2832            0    12026.747    16.761872    19.743272    20.449445    6767.4209    12509.619     13359.14    10211.481   -137.42106   -209.91306    462.40281   -2317.8564 
25291000    251.07616   -3940.9952   -3510.6593   -3940.9952            0    8828.6374    16.832263    19.826182    20.535321     6853.037     9047.218    9409.7334    8028.9607   -1004.6224   -326.85606    278.45101   -2628.2854 
25292000     241.4768    -3917.857    -3503.974    -3917.857            0     10309.85    16.811473    19.801694    20.509957    6827.6753     9440.694    10770.993    10717.864   -1196.6492    -695.5136   -608.12349   -2477.3744 
25293000    263.95952   -3938.4363   -3486.0188   -3938.4363            0    8884.7713    16.854512    19.852389    20.562466    6880.2492    9611.4847    9675.9414    7366.8877    510.10985    -339.3879   -639.29512   -2594.5086 
25294000    262.79572   -3947.6114   -3497.1885   -3947.6114            0    11065.152    16.816508    19.807625      20.5161    6833.8122    13904.368    11605.809    7685.2791   -107.63392     520.1809   -780.82273   -2394.3896 
25295000    238.79409   -3957.0851   -3547.8002   -3957.0851            0    10134.493    16.823375    19.815714    20.524479    6842.1878    9202.8619    11229.758    9970.8594    694.24314   -709.16424    876.26911   -2536.5167 
25296000    256.12466   -3906.7326   -3467.7437   -3906.7326            0    11515.663    16.791566    19.778247    20.485671    6803.4498     10827.37     11891.62    11827.999    126.22793   -782.31962   -481.89929   -2325.1442 
25297000    250.17225   -3926.2673   -3497.4806   -3926.2673            0    10103.976    16.799103    19.787124    20.494866    6812.6152    12300.597    10087.123    7924.2076   -1223.1699    727.82355   -491.91909      -2493.6 
25298000    277.68608   -3956.3017   -3480.3573   -3956.3017            0    10566.116    16.768013    19.750504    20.456937     6774.861    9386.8918    11352.135    10959.322    -1559.337     922.3446   -1807.1378   -2436.3785 
25299000    251.63288   -3915.8749   -3484.5848   -3915.8749            0    10923.306    16.767257    19.749613    20.456014    6773.9442    11179.764    11384.486     10205.67   -2016.5575    679.34953    140.31242   -2405.4601 
25300000    245.25395   -3935.4444   -3515.0876   -3935.4444            0    9722.1269    16.816127    19.807176    20.515635    6833.3475    10502.362    8472.4063    10191.613    1453.9744   -567.11625    433.79246    -2546.206 
25301000     251.0561   -3909.5162   -3479.2146   -3909.5162            0    9295.7255    16.834697    19.829049    20.538291    6856.0106    8376.1028    9565.6582    9945.4154    -500.3221    134.96851    681.72679   -2549.7547 
25302000    256.55248    -3938.049   -3498.3269    -3938.049            0    10921.893    16.793296    19.780285    20.487782    6805.5534     12077.48     9384.492    11303.707   -726.75119   -1084.4227    1167.8437    -2414.307 
25303000    240.96466   -3933.2699   -3520.2647   -3933.2699            0    11613.584      16.7695    19.752256    20.458751    6776.6636    11751.126    11940.613    11149.014    -1694.024   -1328.9169    523.36565   -2372.4862 
25304000    274.99172    -3960.732   -3489.4056    -3960.732            0    8328.7312    16.845206    19.841427    20.551112    6868.8581    8222.7699    9737.4206    7026.0032    -1594.486    826.48281    326.76392   -2655.0729 
25305000     257.0177    -3927.062   -3486.5425    -3927.062            0    12226.375    16.737051    19.714036    20.419164    6737.4017    13371.499    12260.593    11047.034    -789.8444    1513.2087   -1483.9138   -2285.2022 
25306000    265.87776   -3908.0871   -3452.3817   -3908.0871            0    9450.0839    16.807039    19.796471    20.504548    6822.2744    8447.1668    9902.9746     10000.11   -1836.0495   -565.85955   -1655.4802   -2512.1373 
25307000    254.58591    -3929.245   -3492.8935    -3929.245            0    8542.3761    16.825419    19.818121    20.526971    6844.6812    8508.1545     8187.029    8931.9448   -1630.2475   -687.89684   -1291.9109   -2640.1708 
25308000    256.76332   -3927.3745    -3487.291   -3927.3745            0     12259.67    16.767792    19.750244    20.456667    6774.5934     11488.14    10603.472    14687.399    618.97902     608.4734   -406.90453   -2276.0295 
25309000    257.07011   -3925.5088   -3484.8994   -3925.5088            0     10140.48     16.83892    19.834024    20.543443    6861.1718    9858.6497    9417.5611    11145.228    757.31674   -105.05157    1041.6037    -2470.211 
25310000     246.7626   -3938.3432   -3515.4005   -3938.3432            0    9208.3509    16.816693    19.807843    20.516326    6834.0377    10319.943    9019.9478    8285.1624   -1375.0501   -63.816081   -58.998867   -2597.6279 
25311000    253.19475   -3902.3568   -3468.3896   -3902.3568            0    12405.263    16.798158    19.786011    20.493714    6811.4658    12560.526    11393.218    13262.044    492.99844      62.8395   -884.48641   -2236.0726 
25312000    262.13643   -3908.6256   -3459.3328   -3908.6256            0    9313.5354    16.859416    19.858166    20.568449    6886.2566    8581.4424    9567.3011    9791.8626    869.04378   -23.902602    79.271469   -2523.9838 
25313000    263.31472   -3876.0517   -3424.7393   -3876.0517            0    10101.285    16.878546    19.880697    20.591786    6909.7234    10499.397    9008.1124    10796.347   -707.39583   -401.34804    1253.8032   -2406.8203 
25314000    247.94948   -3904.0498   -3479.0729   -3904.0498            0    9829.7906    16.895098    19.900194     20.61198    6930.0717    10874.438    9801.0532     8813.881    1829.4336   -436.07484   -734.12667   -2485.5958 
25315000    244.29494   -3927.7271   -3509.0139   -3927.7271            0    9681.6816    16.847305    19.843899    20.553672    6871.4259    10631.126    8164.7297    10249.189    486.01902   -28.476683   -158.18973   -2538.7865 
25316000    265.63854   -3900.6346   -3445.3393   -3900.6346            0    9652.3271    16.861711    19.860868    20.571247    6889.0681    11098.168    8205.2506    9653.5627    945.03275    388.93295    377.47855     -2475.57 
25317000    248.63085   -3943.1018   -3516.9571   -3943.1018            0    10469.778    16.823437    19.815786    20.524554    6842.2628    9818.6811    13793.605    7797.0476   -259.95531    563.69236    744.34989   -2472.2053 
25318000    244.95066   -3891.6843   -3471.8473   -3891.6843            0    11974.514    16.794497    19.781699    20.489247    6807.0126    13068.928    10750.484     12104.13   -148.73357    1416.3694   -950.43336   -2283.0978 
25319000    242.76597   -3940.5717   -3524.4791   -3940.5717            0    8121.4766    16.870591    19.871328    20.582082     6899.959    7685.8304    8630.7663    8047.8332    576.72966   -89.831329    495.78464   -2707.2245 
25320000     263.7645   -3940.1974   -3488.1141   -3940.1974            0    8603.0938    16.889012    19.893026    20.604556     6922.586    7545.0857    8894.6486    9369.5472    376.55562     1388.898    1668.2241   -2619.5559 
25321000    266.97363   -3922.9077   -3465.3241   -3922.9077            0    10358.095    16.816977    19.808178    20.516673    6834.3845    11950.234    10158.171     8965.879    721.30188    420.21984    611.90528    -2432.907 
25322000    275.78407   -3892.7577   -3420.0732   -3892.7577            0    9150.4873    16.894632    19.899645    20.611412    6929.4985    7841.2824    10651.078    8959.1014    468.64566   -498.00704   -659.85622   -2495.3284 
25323000    238.64726   -3906.6314   -3497.5982   -3906.6314            0    11678.878    16.781484    19.766371    20.473371    6791.2024    10960.042    12096.854    11979.739     529.2462    1400.9235   -1065.4693   -2340.8903 
25324000    261.76016   -3934.7714   -3486.1234   -3934.7714            0    11202.295    16.804125    19.793039    20.500993    6818.7268    10970.748    10466.394    12169.742    818.48517    1306.9529   -1117.2673   -2372.1209 
25325000    255.58022   -3914.1515   -3476.0957   -3914.1515            0    10714.589    16.822598    19.814799     20.52353    6841.2396    10748.142    10375.525    11020.102   -2385.5548    985.57286    403.15739   -2407.0747 
25326000    252.99044   -3890.3935   -3456.7765   -3890.3935            0    10305.571     16.79881     19.78678     20.49451    6812.2594    9775.3716    10882.497    10258.846    1038.8443   -700.94176   -448.64516   -2432.9199 
25327000    253.66618   -3932.1078   -3497.3327   -3932.1078            0      9683.36    16.793652    19.780704    20.488216    6805.9857    8621.1098    11292.864    9136.1064   -588.67959   -238.52209   -245.34002   -2536.1786 
25328000    267.71139   -3893.3113   -3434.4631   -3893.3113            0    10823.766    16.800577    19.788861    20.496665    6814.4092    11004.912    9835.7583    11630.628   -561.36549    373.28735    1482.6513   -2358.7846 
25329000    261.29838   -3941.3467   -3493.4902   -3941.3467            0    10130.246    16.829749    19.823221    20.532254    6849.9672    9712.6757     9773.482     10904.58    -1048.103    187.27031   -378.12231   -2481.4812 
25330000    264.99815   -3878.4382   -3424.2404   -3878.4382            0    10436.961    16.854775    19.852699    20.562787    6880.5712    9368.0143    10127.864    11815.005   -511.80343   -824.74187   -758.58845   -2376.9324 
25331000    259.11985   -3920.5903   -3476.4677   -3920.5903            0    11575.721    16.812817    19.803278    20.511598     6829.314    9293.5126    12917.225    12516.427   -2169.7841    1628.8302    1515.0722   -2323.5428 
25332000    251.80395   -3928.2399   -3496.6565   -3928.2399            0    8788.7382    16.853968    19.851748    20.561802    6879.5826    7121.9014    9758.0099    9486.3034   -810.68676    394.30827    567.48979   -2614.8679 
25333000    245.92719    -3912.056   -3490.5452    -3912.056            0    9964.9595    16.838314     19.83331    20.542704    6860.4313    10123.874     10815.01    8955.9943   -2076.3123   -392.33141   -962.15236   -2493.5276 
25334000     269.1595   -3878.9462   -3417.6161   -3878.9462            0    10311.112    16.820005    19.811744    20.520366     6838.076    11440.777     8454.093    11038.466   -547.18639     760.1398    2124.5258   -2389.3268 
25335000     250.2979    -3880.825   -3451.8229    -3880.825            0    11570.563    16.810795    19.800895     20.50913    6826.8493     12512.45    10427.075    11772.163    615.17557   -724.14623    114.37679   -2299.8277 
25336000    251.88384    -3893.683   -3461.9627    -3893.683            0    8939.2245      16.9221    19.931999    20.644923    6963.3524    10694.195    7194.0823    8929.3962   -2945.8496   -743.87583   -1217.8308   -2554.1545 
25337000    262.05206   -3917.2295   -3468.0812   -3917.2295            0    8926.6571    16.821374    19.813357    20.522038    6839.7468    11458.509    7857.2885    7464.1735     281.8401   -758.66572    677.30284    -2577.641 
25338000    278.78816   -3914.2553    -3436.422   -3914.2553            0    10928.465    16.866455    19.866457    20.577036    6894.8855    13028.632    10176.487    9580.2763    454.12555   -584.01198    1537.5522    -2337.512 
25339000    250.15535   -3934.1861   -3505.4284   -3934.1861            0    9303.4382    16.815152    19.806028    20.514446    6832.1594    8822.4695     9691.173    9396.6723   -759.98543   -1257.0549    36.724552   -2578.4335 
25340000    269.20956   -3921.5607   -3460.1447   -3921.5607            0    10630.053    16.798946     19.78694    20.494675    6812.4247     11888.33    8960.6951    11041.133   -1845.4711   -397.12644    230.86925   -2404.0253 
25341000    249.13823   -3921.9739   -3494.9595   -3921.9739            0    10048.883    16.889059     19.89308    20.604612     6922.643    10372.773    8637.8623    11136.013   -632.53379   -675.76305    433.67615   -2480.4279 
25342000    263.42882   -3906.1538   -3454.6458   -3906.1538            0    9961.9685     16.90326    19.909808    20.621938    6940.1209    7484.1467    11641.048    10760.711    632.33941    48.932145   -870.55948   -2446.3497 
25343000    242.71912   -3899.8746   -3483.8624   -3899.8746            0    11067.904    16.873323    19.874546    20.585415    6903.3117    10411.872    10858.273    11933.566    794.73335   -625.16484   -602.23883   -2369.5711 
25344000    249.33436   -3889.2271   -3461.8766   -3889.2271            0    9654.1617    16.854814    19.852745    20.562834    6880.6187    10573.106    9530.1996    8859.1793    417.77997   -1287.8567    387.71221   -2493.1126 
25345000    249.73118   -3912.0821   -3484.0514   -3912.0821            0    9853.4228     16.85037     19.84751    20.557412    6875.1779    9485.3595    10918.073    9156.8364   -936.69439   -2056.2214   -813.47912   -2496.0742 
25346000    260.85808   -3889.2381   -3442.1363   -3889.2381            0    8853.1357     16.88271    19.885602    20.596867    6914.8391    10029.495    9588.5645    6941.3474    630.35395   -867.68612   -487.64381   -2549.3344 
25347000    248.49748    -3873.212   -3447.2959    -3873.212            0    10826.918    16.855377    19.853408    20.563521     6881.308    9839.3673     10215.93    12425.455   -315.26512    212.51464   -674.53565   -2360.7409 
25348000    256.70507   -3911.8328   -3471.8491   -3911.8328            0    10933.844    16.813456    19.804031    20.512378    6830.0928    9360.5252    12116.577    11324.429    69.741082   -604.28274     1548.023     -2382.73 
25349000    254.83326    -3904.841   -3468.0655    -3904.841            0    8569.8815     16.87451    19.875944    20.586863     6904.768     8848.408    8544.1779    8317.0586   -531.26734   -9.0359741    1692.1048   -2605.0874 
25350000     255.8474   -3925.2863   -3486.7727   -3925.2863            0     9299.434    16.876415    19.878187    20.589186    6907.1065    7791.5692    11651.648    8455.0849     -555.519    2075.3561   -334.32701   -2550.0122 
25351000    252.99403   -3908.6081    -3474.985   -3908.6081            0     10749.56    16.820283    19.812071    20.520705    6838.4149    11190.677    10488.971    10569.032   0.19189123   -705.60364    562.08957   -2402.9178 
25352000    258.16083   -3889.2833   -3446.8044   -3889.2833            0    8863.0948    16.885724    19.889152    20.600544    6918.5431    8133.1648     9333.883    9122.2367    1067.0804    -700.5895   -995.56328   -2552.5195 
25353000     247.5749    -3883.927   -3459.5921    -3883.927            0    10856.756    16.856587    19.854833    20.564997    6882.7907    9016.2435    12074.052    11479.973   -1679.1809    133.59176    -1636.949   -2369.8078 
25354000    246.02798   -3888.7285   -3467.0449   -3888.7285            0    9946.2169    16.906684    19.913841    20.626115    6944.3389    9241.8807    10903.731    9693.0391   -464.01217    2059.5743    1.9131602   -2459.7313 
25355000     269.1476    -3881.394   -3420.0842    -3881.394            0    9771.3073    16.859157     19.85786    20.568132    6885.9383    8412.3104    10381.775    10519.836    831.32497    264.04086   -1180.1523   -2438.8071 
25356000    240.54664   -3879.0792   -3466.7905   -3879.0792            0    11153.868    16.791778    19.778496     20.48593    6803.7073    11125.931    11055.648    11280.025   -1643.9213    325.06821    1969.7957   -2360.0469 
25357000    249.02927   -3909.3948   -3482.5672   -3909.3948            0    8068.1854    16.830143    19.823685    20.532735    6850.4481    8267.3262    9354.5174    6582.7127    426.34746   -929.13252    966.49607   -2676.5009 
25358000     243.5881   -3860.8066   -3443.3049   -3860.8066            0    10418.905    16.830955    19.824642    20.533726    6851.4399    12348.836    8987.3458    9920.5346   -443.07167    1409.2964    -755.4277   -2402.2352 
25359000    261.61267   -3909.3521    -3460.957   -3909.3521            0    11219.302    16.820169    19.811937    20.520567    6838.2764    12495.486    8793.4565    12368.962   -1487.4099    1338.7714   -1143.4242   -2342.0645 
25360000     257.3613   -3916.8183   -3475.7099   -3916.8183            0    6995.7944    16.867392    19.867559    20.578179    6896.0338     8968.214    8199.2204    3819.9488    511.19578   -1005.3634    1979.7979   -2772.1318 
25361000    258.34024   -3913.3107   -3470.5244   -3913.3107            0    10504.879    16.826728    19.819663    20.528569    6846.2799    10827.097    9734.1579    10953.382    761.47715   -1197.6363    -504.3757   -2421.6546 
25362000    258.62383   -3910.4608   -3467.1884   -3910.4608            0    10044.594    16.789414    19.775712    20.483046    6800.8345    10087.836    10998.736    9047.2085   -363.90311    1355.6361    1153.3527   -2470.9335 
25363000    244.82763   -3910.2318   -3490.6056   -3910.2318            0    9887.5214    16.794189    19.781336    20.488871    6806.6386    10495.367    8873.1098    10294.087    1126.2615    849.12516    -1257.374   -2509.0927 
25364000    262.98404   -3891.7796    -3441.034   -3891.7796            0    10139.588    16.838429    19.833445    20.542843     6860.571     9741.233    8928.5664    11748.964   -690.21984    812.80018    431.99086   -2426.5237 
25365000    257.17839   -3887.4114   -3446.6165   -3887.4114            0    9753.0758    16.859665    19.858459    20.568752    6886.5615    9692.2719    10356.559     9210.397     743.9357    -555.1158    457.33622   -2467.0816 
25366000    254.64253   -3908.8435   -3472.3949   -3908.8435            0    10002.702    16.827387    19.820439    20.529373    6847.0839    9046.6234    9032.7085    11928.773    13.622768    821.20953    1292.3476   -2473.5482 
25367000    245.40483   -3928.4082   -3507.7927   -3928.4082            0     8682.906    16.849013    19.845911    20.555756    6873.5162    9599.4859    9300.6043    7148.6278    776.27772    -30.81249   -683.04415   -2637.3906 
25368000    250.40479   -3926.3992    -3497.214   -3926.3992            0    8710.2542    16.871765     19.87271    20.583514    6901.3988    8876.4875    7364.7105    9889.5645    720.45546     905.1134   -565.70393   -2620.5284 
25369000    253.70459   -3906.5471   -3471.7061   -3906.5471            0     8507.454    16.906363    19.913463    20.625724    6943.9438    10148.687    7105.2345    8268.4402    1478.3404    -2255.643   -833.89978   -2610.1537 
25370000    255.30292   -3938.8325    -3501.252   -3938.8325            0    8954.1945    16.833287    19.827389    20.536571    6854.2889    6285.4344    9298.4138    11278.735    1995.7243    230.14655      -340.81   -2606.1659 
25371000    263.42152   -3940.8451   -3489.3496   -3940.8451            0    8868.9126    16.832994    19.827044    20.536213    6853.9306    9301.2919    8462.7197    8842.7263    916.46056   -685.69632    2102.4989   -2602.8349 
25372000    271.86643   -3890.1414   -3424.1716   -3890.1414            0    10185.083     16.82242    19.814589    20.523313    6841.0222      11160.1    9287.7934    10107.356    216.13963    632.17934    858.26504   -2408.0131 
25373000    242.40905    -3891.199   -3475.7182    -3891.199            0      9222.68    16.821178    19.813125    20.521798    6839.5068    8573.4156    9787.6698    9306.9545   -101.95279    1353.8527    1308.7528   -2555.7818 
25374000    263.50164   -3896.2278   -3444.5951   -3896.2278            0    9845.6263    16.864124    19.863711    20.574192    6892.0273    9242.4745    11241.974    9052.4303    1841.8613   -399.42157    -1214.855   -2454.9802 
25375000    261.14358   -3863.7825   -3416.1914   -3863.7825            0    9761.4382     16.83863    19.833682    20.543089    6860.8172    12723.915    8434.6738    8125.7257   -1439.9248    1697.6944    261.96076   -2439.4815 
25376000    258.43326   -3890.6578    -3447.712   -3890.6578            0    8315.7355    16.867766    19.868001    20.578636    6896.4934    9354.1565    7089.9504    8503.0995    1707.5143    370.67398   -570.64114   -2611.3296 
25377000    250.51238   -3885.0229   -3455.6533   -3885.0229            0    9740.4943    16.883546    19.886587    20.597887    6915.8663    10495.708    9346.1994    9379.5754   -1984.2073    788.44024   -462.83392   -2473.2191 
25378000     266.5421   -3922.1577   -3465.3136   -3922.1577            0    8892.7715    16.893067    19.897802    20.609502    6927.5731    9806.0472    7411.7122    9460.5552    618.61706    181.86788    1925.1763   -2566.8632 
25379000    254.79331   -3853.0985   -3416.3915   -3853.0985            0    9825.5534    16.841107      19.8366    20.546111    6863.8455    8748.5854    8908.6658    11819.409    121.67742   -948.43066   -464.72234   -2432.8325 
25380000    249.09867   -3864.8472   -3437.9006   -3864.8472            0    10127.505    16.825626    19.818365    20.527224    6844.9338    9488.7431    9968.1265    10925.647    1168.7403    1433.6943   -107.67038   -2426.9088 
25381000     251.3559   -3882.5123   -3451.6969   -3882.5123            0    12528.567    16.760131    19.741221    20.447321     6765.312    10314.108    12832.793    14438.799    1318.2174   -709.57357    150.20856   -2215.5641 
25382000    260.51997   -3848.8597   -3402.3374   -3848.8597            0    12718.238    16.772941    19.756309    20.462949    6780.8361    14510.665    11912.591    11731.459    -1923.518    759.13581    77.509562   -2144.6113 
25383000    265.33168    -3915.823   -3461.0536    -3915.823            0    8733.4086    16.861442    19.860552     20.57092    6888.7391    9306.7372    6524.1292    10369.359   -1293.6033    746.83569    134.65831     -2583.65 
25384000    244.95688   -3937.0584   -3517.2107   -3937.0584            0    9412.3388    16.858714    19.857338    20.567592    6885.3958    9851.8716    9506.0453    8879.0996    1230.5109    707.72185    1176.3356   -2572.0572 
25385000    244.01703   -3933.7703   -3515.5334   -3933.7703            0    11780.818    16.787175    19.773075    20.480314    6798.1139    12148.535     9935.746    13258.174    329.78981   -109.62015    1450.3651   -2347.5416 
25386000    259.55768    -3922.185    -3477.312    -3922.185            0    9797.7995     16.85857    19.857169    20.567416    6885.2197    7933.5764    9086.5542    12373.268   -746.72047   -1819.5771     783.2799   -2493.4771 
25387000     253.4737   -3917.6671   -3483.2218   -3917.6671            0    10401.113    16.820196    19.811969      20.5206    6838.3098    9274.0691    10084.258    11845.011    261.90407   -1012.3567     1057.854   -2445.9216 
25388000    249.64588   -3901.3347   -3473.4502   -3901.3347            0    10297.462    16.872853    19.873992    20.584841    6902.7343    10986.377    9062.8765    10843.132   -721.31935   -268.94794   -146.02464    -2436.812 
25389000    248.60988   -3961.5984   -3535.4895   -3961.5984            0    9866.6498    16.848717    19.845563    20.555395    6873.1545    8932.0491    11010.698    9657.2024    302.85191     411.1618    1915.1547   -2546.4772 
25390000    244.87346   -3909.8195   -3490.1148   -3909.8195            0    11501.635    16.862631    19.861952     20.57237    6890.1961    12700.418    11856.285    9948.2008    286.49667    11.685453   -270.21514   -2334.3564 
25391000    242.57069   -3911.5559    -3495.798   -3911.5559            0    8328.2981    16.830008    19.823527    20.532571    6850.2843    9338.5839    5872.6617    9773.6488    762.63602   -176.90074     18.24188   -2663.7647 
25392000    248.81376    -3920.232   -3493.7738    -3920.232            0    10046.674    16.823089    19.815376    20.524129    6841.8379    9958.6247    11669.563    8511.8333    519.85655   -1202.2632    1154.9667   -2491.3047 
25393000    249.45937   -3917.3727   -3489.8079   -3917.3727            0    9815.8083    16.842992     19.83882    20.548411    6866.1502    9176.8867    10230.574    10039.964   -1029.3661    547.13097     2680.255   -2506.8945 
25394000    246.13979   -3888.0381   -3466.1629   -3888.0381            0    10561.356    16.864421     19.86406    20.574554    6892.3906    9133.6669    11451.838    11098.565   -730.38443    923.36552   -182.68393   -2404.5518 
25395000    264.89767   -3913.0983   -3459.0727   -3913.0983            0    8692.3493    16.888106    19.891959     20.60345     6921.472    8877.1663    6915.4921     10284.39   -1372.4048   -570.77625    141.97853   -2581.6447 
25396000    248.10881   -3920.9477   -3495.6977   -3920.9477            0    10324.861    16.873843    19.875158    20.586049    6903.9493    7837.3326     9427.511     13709.74   -484.75054    539.31336   -238.80161   -2456.1182 
25397000    253.42844   -3929.2089   -3494.8413   -3929.2089            0    10769.582     16.83759    19.832456     20.54182    6859.5455     12003.74    9904.0435    10400.961    -1699.971    1500.3929   -891.80484   -2417.4584 
25398000    245.73102   -3934.1679   -3512.9934   -3934.1679            0    10562.792    16.836187    19.830805    20.540109     6857.832    10606.597    9978.0991    11103.679    2171.3762   -296.46883   -1236.4544   -2456.5616 
25399000    250.73057   -3893.5078   -3463.7642   -3893.5078            0    10311.286    16.882722    19.885616    20.596881    6914.8535    9975.5887    10906.515    10051.754   -1197.1419     458.5365   -1404.1114   -2423.9118 
25400000     248.9967   -3907.1263   -3480.3544   -3907.1263            0    10332.977    16.838963    19.834074    20.543495    6861.2241    10670.847    9628.8802    10699.204   -1694.7973   -33.293463   -810.48809   -2446.3963 
25401000    250.66314   -3896.2235   -3466.5955   -3896.2235            0     9202.378    16.921107    19.930829    20.643711    6962.1263    9107.7603    9130.9265    9368.4471    -1983.678    876.40242   -2207.8456   -2532.2277 
25402000    241.42226   -3909.0302   -3495.2407   -3909.0302            0    9294.3287    16.845195    19.841415    20.551099    6868.8455    7423.1623    10308.723    10151.101   -848.03934    1597.6985    -325.8395   -2564.1808 
25403000    258.89509   -3913.3042   -3469.5669   -3913.3042            0     8311.131    16.918949    19.928287    20.641078    6959.4632    8387.2805    8668.2107    7877.9018   -1503.3673    888.74058   -73.703194   -2626.0151 
25404000    238.33778   -3881.1144   -3472.6116   -3881.1144            0     10177.87    16.827429    19.820488    20.529424    6847.1344    11356.344    9815.2162    9362.0501    1026.9666    885.81995    1645.7543   -2456.2654 
25405000    253.94772   -3894.0594   -3458.8017   -3894.0594            0    9007.5472    16.854814    19.852744    20.562834    6880.6185    8248.2365    8710.4601    10063.945   -1040.7451   -671.74518   -78.973449   -2554.9235 
25406000    238.17948   -3893.6182   -3485.3868   -3893.6182            0    9088.8356    16.781806    19.766751    20.473765     6791.594    8557.1763    8794.8136     9914.517    671.80394   -495.23721    350.05858   -2585.1518 
25407000     245.9862   -3892.2011   -3470.5892   -3892.2011            0    10916.876    16.794667    19.781899    20.489454    6807.2197    11271.339    9762.2773    11717.011   -1553.1285    -63.72879     1916.048    -2386.802 
25408000    256.01891   -3917.2721   -3478.4645   -3917.2721            0     11001.44    16.806261    19.795555    20.503599     6821.327    11011.021    10869.562    11123.736    1606.3209   -1421.3274   -893.77399   -2384.0186 
25409000    254.27523   -3901.5241   -3465.7051   -3901.5241            0    9730.7013    16.829263    19.822649    20.531661    6849.3738    11458.668    10101.724     7631.712   -468.15768   -548.39269    529.74167   -2493.6947 
25410000    262.88168   -3844.5225   -3393.9523   -3844.5225            0    10278.552    16.814157    19.804856    20.513232    6830.9463    9892.7319    11433.826     9509.097   -1810.2078   -30.710087   -662.89122   -2369.9789 
25411000    249.35906   -3895.0186   -3467.6258   -3895.0186            0    12549.393    16.816802    19.807972    20.516459    6834.1709    12614.233    14580.751    10453.195    731.99019    865.42376    1416.2607   -2216.8356 
25412000    247.92237   -3872.5458   -3447.6153   -3872.5458            0    9906.3082    16.860296    19.859202    20.569522    6887.3345    9933.7575    9737.5512    10047.616   -1121.2784   -1106.9421   -147.46626   -2452.5791 
25413000    254.16932   -3867.1379   -3431.5004   -3867.1379            0    11701.381    16.774753    19.758443    20.465159     6783.034     13158.95    12490.533    9454.6623    414.10627   -1297.5298   -1685.5203   -2273.9577 
25414000    253.77393    -3872.508   -3437.5482    -3872.508            0     12201.05    16.722181     19.69652    20.401022    6719.4597     13886.31    10255.039      12461.8    1136.8658   -382.21781   -1236.4863   -2241.8889 
25415000    249.14375   -3890.7734   -3463.7495   -3890.7734            0     9666.723    16.843154    19.839011    20.548608    6866.3485    8242.8863    11503.547    9253.7357    1165.0292    193.76352   -1166.0726   -2495.7369 
25416000    261.45282    -3896.931   -3448.8098    -3896.931            0    10622.197    16.784569    19.770005    20.477135    6794.9486    12784.709    8370.4275    10711.455    1070.0385    1532.5163    527.05264   -2396.1781 
25417000    239.98548    -3918.864    -3507.537    -3918.864            0    9806.1479    16.757112    19.737664    20.443637    6761.6564    11484.994    9161.9817    8771.4681   -1464.5029   -474.96353   -304.57365   -2540.5349 
25418000    255.85254    -3867.634   -3429.1115    -3867.634            0    11446.213     16.76436    19.746202     20.45248    6770.4344      12944.9    10369.571    11024.168    995.80043   -389.46113   -384.52279   -2298.9143 
25419000    260.62942   -3874.9927   -3428.2828   -3874.9927            0    10285.057    16.765561    19.747616    20.453945     6771.889    11736.251    10064.398    9054.5224   -343.66791    525.83149    233.20177   -2412.5197 
25420000    256.88678   -3881.2546   -3440.9595   -3881.2546            0    11919.801    16.727267    19.702511    20.407227    6725.5926    13583.626    10327.558    11848.219    908.24544    2146.6891   -868.97169   -2271.7954 
25421000    247.70139   -3911.0713   -3486.5196   -3911.0713            0    9819.1017    16.800232    19.788455    20.496244    6813.9894    10910.105    9861.4176    8685.7827   -418.44179   -1729.7372   -902.55166   -2510.7459 
25422000    255.98765   -3926.4984   -3487.7444   -3926.4984            0    8922.0901    16.788061    19.774119    20.481395    6799.1906    10845.245    9294.8342    6626.1906   -955.88428    1091.7777   -1585.7494   -2603.0369 
25423000    249.62001   -3930.3545   -3502.5143   -3930.3545            0    8859.3545    16.839784    19.835041    20.544497    6862.2278    9162.8822    9164.6523    8250.5291     423.4955    137.96733     763.2467   -2615.8829 
25424000    243.22407    -3882.176   -3465.2983    -3882.176            0    11669.447    16.734458    19.710981    20.415999    6734.2701     10791.95    14057.569    10158.823    496.66176    147.13299    1607.2652   -2319.2136 
25425000    259.92508   -3893.0451   -3447.5424   -3893.0451            0    9333.1961    16.807307    19.796788    20.504876    6822.6016    7892.8453    11822.155    8284.5881   -1444.0744    116.54833   -72.597093   -2518.8833 
25426000     248.5574   -3935.6058    -3509.587   -3935.6058            0    11309.891     16.77505    19.758793    20.465522    6783.3946    12131.923    11771.491     10026.26   -1069.0322    1514.5566    397.19466   -2390.7124 
25427000    252.64417   -3886.4512   -3453.4277   -3886.4512            0    10013.119    16.833119     19.82719    20.536365    6854.0826    9732.2004    11618.776    8688.3818    -1117.218    1390.3093    21.953134   -2452.5186 
25428000    247.12668   -3882.1097    -3458.543   -3882.1097            0    13032.266    16.788385      19.7745     20.48179     6799.584     12130.04    14489.661    12477.096   -134.82512    654.77986   -211.91525   -2166.1989 
25429000    251.28891   -3913.8802   -3483.1796   -3913.8802            0     10101.52     16.79884    19.786815    20.494546    6812.2956    9255.8015    10703.892    10344.866    1218.4731    112.78428    705.96343   -2479.5901 
25430000    242.85233   -3901.7586   -3485.5181   -3901.7586            0    10357.762    16.813945    19.804607    20.512974    6830.6886    9870.8585     10590.62    10611.806   -655.39931   -1487.6947   -177.44935   -2453.6925 
25431000    261.51128     -3903.22   -3454.9986     -3903.22            0    11256.868    16.762024     19.74345     20.44963    6767.6044    12883.646    11302.315    9584.6449   -1649.3799    456.27382   -498.39149   -2343.9618 
25432000    260.88503   -3893.1615   -3446.0135   -3893.1615            0    10353.354    16.830307    19.823879    20.532935     6850.649    9714.9232     10396.82     10948.32    841.55522    520.07485    3.7871244    -2411.613 
25433000    250.88735   -3911.9882   -3481.9758   -3911.9882            0    8925.9243    16.834357    19.828649    20.537876    6855.5955    9362.6698    8973.1924    8441.9108   -1407.6132   -1486.9515    135.80598   -2589.5456 
25434000    246.76193   -3912.8716   -3489.9301   -3912.8716            0    10290.556    16.889024     19.89304     20.60457    6922.6004    11271.711     10579.66    9020.2961    84.227825    864.66435   -558.92817   -2451.0056 
25435000    249.60263   -3895.8317   -3468.0214   -3895.8317            0    10595.902    16.880122    19.882554     20.59371    6911.6599    11208.821    10991.927    9586.9579     175.6207   -142.56862    1300.6434     -2399.96 
25436000    261.47003   -3897.3333   -3449.1826   -3897.3333            0     10265.27     16.85681    19.855095    20.565268    6883.0629    11375.607    10882.395    8537.8074   -614.18262    322.69939    558.18654   -2418.7301 
25437000    249.47615   -3919.1781   -3491.5845   -3919.1781            0     12114.47    16.801083    19.789456    20.497282    6815.0244     12944.71      12448.1    10950.599   -545.36262    1587.5344    14.206753   -2287.5257 
25438000     254.8138   -3861.3811   -3424.6389   -3861.3811            0    13030.482     16.82145    19.813447     20.52213    6839.8395    11765.562    15309.907    12015.976   -1164.2129    1681.3874   -536.45737   -2124.8217 
25439000    242.83195   -3916.7115   -3500.5058   -3916.7115            0    7497.1153    16.915221    19.923896     20.63653    6954.8635    8236.0528    7577.4228    6677.8703    774.26197    -1207.854   -218.12155   -2740.0768 
25440000    268.58509   -3873.5355   -3413.1899   -3873.5355            0    12592.061    16.820669    19.812526    20.521177    6838.8865    12058.398    16379.799    9337.9876   -10.860289   -755.36808   -486.40964    -2157.281 
25441000    262.20029   -3884.7397   -3435.3374   -3884.7397            0    11563.473    16.831967    19.825833     20.53496    6852.6756    10461.077    11563.727    12665.614   -1758.9756   -3278.6181   -454.57632   -2279.6927 
25442000    242.33249   -3866.6695   -3451.3199   -3866.6695            0    10581.315    16.833373     19.82749    20.536676    6854.3939    11678.949    9707.4874    10357.508    1918.8318    181.54357    2208.2539   -2393.5661 
25443000    257.23631   -3881.3988   -3440.5046   -3881.3988            0    10019.247    16.847438    19.844057    20.553835    6871.5893    10223.639    9330.0819     10504.02   -797.55806    957.95616   -2072.2992   -2436.4249 
25444000    258.75758   -3870.5554   -3427.0537   -3870.5554            0     9727.265    16.789274    19.775547    20.482875    6800.6642    9933.4038     9149.326    10099.065    1346.5203    211.59797    207.97446   -2462.2966 
25445000     248.0948    -3898.033    -3472.807    -3898.033            0     9498.366    16.843321    19.839207    20.548812     6866.553    10697.987     9050.787     8746.324   -1777.9122   -282.88896     779.9759   -2521.6251 
25446000     265.9009   -3922.3742   -3466.6292   -3922.3742            0    9125.1516    16.809921    19.799867    20.508064    6825.7851    10923.132    8475.4894    7976.8338    332.63507   -1428.5665    1229.6996   -2558.2471 
25447000    247.64157   -3890.1084   -3465.6592   -3890.1084            0    9719.7404      16.8141    19.804789    20.513163    6830.8773    10160.051    8132.9452    10866.225    799.01843     224.8411   -440.16779   -2497.3657 
25448000    269.47464   -3941.1453    -3479.275   -3941.1453            0    9550.9923    16.820688    19.812548      20.5212     6838.909    8826.1059    11024.069    8802.8019   -422.77258   -519.48526     -1078.97   -2526.6736 
25449000    259.87179   -3906.4819   -3461.0705   -3906.4819            0    9518.3638    16.826329    19.819193    20.528083    6845.7928    10074.473    8333.0922    10147.526   -985.81111    137.65675   -451.59826   -2510.7679 
25450000    236.07957   -3876.6647   -3472.0324   -3876.6647            0    11020.747    16.817985    19.809364    20.517902    6835.6126    8294.0281    11063.663    13704.549    377.52606   -324.86918   -321.90394   -2373.3698 
25451000    242.95048   -3893.6499   -3477.2411   -3893.6499            0    9706.1879    16.850575    19.847752    20.557663    6875.4288    9202.2354    10651.371    9264.9576    744.57994    -1782.774   -618.31718   -2503.9912 
25452000    251.67761   -3879.6573   -3448.2905   -3879.6573            0    9321.1984    16.863833    19.863368    20.573837    6891.6698    8254.3862    9784.7948    9924.4141    -1302.334    1987.4412    12.123251   -2511.4361 
25453000    252.18699     -3931.85   -3499.6101     -3931.85            0    11203.524     16.81907    19.810643    20.519226    6836.9365    12682.062    9976.7007    10951.809   -589.05622    25.997787   -530.64259     -2382.51 
25454000     253.3481   -3925.8396   -3491.6097   -3925.8396            0    11678.227    16.799652    19.787771    20.495536    6813.2835    11550.106     10776.79    12707.785   -324.25502    -51.12655   -357.97317   -2331.2056 
25455000    243.88143   -3898.8065   -3480.8021   -3898.8065            0    11590.577    16.776075        19.76    20.466772    6784.6378    13006.709    10649.207    11115.817   -2017.4035    1081.8711   -201.96286   -2333.9494 
25456000     248.0943    -3912.046   -3486.8209    -3912.046            0    9687.0272    16.827354      19.8204    20.529332     6847.043    9167.7353    10786.037    9107.3096   -847.07738    184.40379    522.13167   -2519.5025 
25457000    250.16603   -3917.4622   -3488.6862   -3917.4622            0    9768.5543    16.867112     19.86723    20.577838    6895.6911    9019.9443    10312.158    9973.5609    -1620.318   -498.25114      382.997   -2506.2961 
25458000    268.11077   -3920.9365   -3461.4038   -3920.9365            0    10299.983    16.838946    19.834055    20.543475    6861.2041    7915.8534    12015.634    10968.462   -1434.8881   -703.85945    1007.8926   -2430.7502 
25459000    250.71649   -3882.3052   -3452.5858   -3882.3052            0    11437.017    16.772905    19.756267    20.462905    6780.7924    11539.962    12818.775    9952.3129   -1751.7684    -176.3672   -70.336549   -2321.5688 
25460000    252.16152   -3852.3759   -3420.1797   -3852.3759            0    10503.127    16.877212    19.879126    20.590159    6908.0852    8543.6463    11327.318    11638.418    563.62109    300.41545   -934.66364   -2362.0175 
25461000    251.59477   -3900.6951   -3469.4702   -3900.6951            0    10681.447    16.821832    19.813896    20.522596     6840.305    10752.369    11804.685    9487.2879    1326.7094    2484.4882    1453.6269   -2403.9015 
25462000     255.7434   -3878.3875    -3440.052   -3878.3875            0    11466.582    16.797978      19.7858    20.493494    6811.2471    10701.794    12266.857    11431.094   -128.61656   -1988.4594   -91.815705   -2301.0185 
25463000     271.5734   -3903.5543   -3438.0868   -3903.5543            0    11972.939    16.853756    19.851498    20.561543    6879.3227    11034.997    11686.155    13197.664    228.80987   -749.75953    808.98685   -2236.8674 
25464000    248.89571   -3898.5485   -3471.9497   -3898.5485            0    9222.0679    16.898504    19.904205    20.616135    6934.2636    9608.2405    8213.6948    9844.2685    858.18762    1599.3567    708.62402   -2539.3301 
25465000    240.91331   -3917.2792   -3504.3621   -3917.2792            0    10437.645    16.858051    19.856557    20.566783    6884.5834    11954.316     10061.23    9297.3879   -1565.7526    107.73533    1465.0108   -2456.3747 
25466000    244.17577   -3892.5729    -3474.064   -3892.5729            0    9964.6716    16.821844     19.81391     20.52261    6840.3192    9401.9711    7649.6991    12842.345   -117.35543    1215.2071   -104.47029    -2479.998 
25467000    246.50271   -3930.6395   -3508.1422   -3930.6395            0    11653.736    16.843066    19.838907    20.548501    6866.2405    12494.718    9495.6252    12970.865   -248.52247    814.19755    1433.8211   -2341.1712 
25468000    263.47713   -3896.9904   -3445.3996   -3896.9904            0     9946.314    16.824382    19.816899    20.525706    6843.4159    10213.155    9655.1363    9970.6509    729.22608     -713.658    269.94052   -2452.7157 
25469000    257.09081   -3896.7554   -3456.1105   -3896.7554            0    7738.5017    16.940471    19.953637    20.667335    6986.0554    7282.3931    6810.0839    9123.0282    75.930217    124.08284    564.04395   -2667.6775 
25470000    252.58569   -3920.0569   -3487.1336   -3920.0569            0     10268.76    16.827688    19.820794     20.52974    6847.4514    11227.834    8618.3186    10960.127    925.60575   -71.211778   -624.96062   -2461.6639 
25471000    250.60512   -3877.6692   -3448.1407   -3877.6692            0    10888.461    16.831157    19.824879    20.533972    6851.6864    9472.4422    10516.462    12676.477    763.61505   -1055.0989   -579.93316   -2360.1132 
25472000    247.23742     -3898.28   -3474.5235     -3898.28            0      11283.8    16.882377     19.88521     20.59646    6914.4293    11738.509    8593.2745    13519.617    438.43849     291.4554   -1334.1552   -2336.6667 
25473000    258.32505   -3891.5473    -3448.787   -3891.5473            0    9254.9654    16.843624    19.839564    20.549182    6866.9233    10119.235     9664.466    7981.1955    801.09556   -1288.6215    1101.9661   -2521.9296 
25474000    266.35001   -3908.8653   -3452.3505   -3908.8653            0    11257.333    16.778451    19.762799    20.469671    6787.5212     10335.58    11630.267    11806.151    1263.5067    777.70214   -366.01596    -2337.998 
25475000    246.06916   -3890.4465   -3468.6924   -3890.4465            0    12577.975    16.745718    19.724244    20.429737    6747.8732    11279.089    14368.407    12086.428   -601.05721   -916.21365   -378.12615   -2230.8837 
25476000    247.73041   -3876.1482   -3451.5468   -3876.1482            0     9002.517     16.86161     19.86075    20.571125    6888.9454     9892.713    8722.0102    8392.8278    259.59658    46.798908    532.09097   -2547.0801 
25477000    260.34014   -3848.5061    -3402.292   -3848.5061            0    8989.8069    16.902461    19.908866    20.620962    6939.1358    8052.2241    8428.7705    10488.426   -315.77886    432.16753    1191.0834    -2492.522 
25478000    262.73069   -3896.1414     -3445.83   -3896.1414            0    9710.4893      16.9103      19.9181    20.630526    6948.7953     11269.42    8896.9418    8965.1064    600.36831    320.78083    546.29957   -2461.7588 
25479000    251.51411   -3899.3859   -3468.2993   -3899.3859            0    9295.8313    16.919541    19.928984      20.6418    6960.1933    6610.4335    9644.2342    11632.826   -777.71614    1576.4296    1019.9477   -2524.7048 
25480000    251.56906   -3856.7651   -3425.5843   -3856.7651            0    9450.4791    16.892874    19.897575    20.609267    6927.3358    8611.9407    10405.217      9334.28   -907.04722   -1707.5116     211.2274   -2470.8205 
25481000    250.67383   -3875.1846   -3445.5382   -3875.1846            0    9290.8934     16.82965    19.823105    20.532134     6849.847    9459.2594    9290.4788    9122.9421    722.72622    232.47746    2050.5101   -2517.3966 
25482000    256.33858   -3915.5211   -3476.1655   -3915.5211            0    9866.1005    16.790737     19.77727     20.48466    6802.4424     8808.911    9796.6244    10992.766    877.02867   -1648.1908   -2392.5255   -2497.3828 
25483000     252.0291   -3924.8235   -3492.8542   -3924.8235            0    11176.425    16.804226    19.793158    20.501116    6818.8497    10401.422    9885.9575    13241.896   -593.18298   -374.77501    182.94661   -2381.4043 
25484000     260.3116   -3898.3903   -3452.2251   -3898.3903            0    11554.528    16.760942    19.742176    20.448311    6766.2944    11680.303    12189.525    10793.755   -471.29503    833.56346    39.791692   -2312.0305 
25485000    244.35022    -3902.435   -3483.6271    -3902.435            0    14617.484    16.713495    19.686289    20.390425    6708.9941    15234.556    13562.228    15055.668    -735.1859    -788.9847    58.616491   -2053.3969 
25486000    251.98155   -3916.7599   -3484.8722   -3916.7599            0    9330.0459    16.838413    19.833427    20.542825    6860.5526    9563.6519    7802.3933    10624.092   -552.19943   -1239.0989    258.16666   -2551.3626 
25487000    264.24276   -3937.6176   -3484.7145   -3937.6176            0    9981.3206    16.853835    19.851591    20.561639     6879.419    9541.9014     9711.026    10691.035    396.72623    251.91323   -378.86841   -2483.2959 
25488000    255.51545   -3888.6721   -3450.7273   -3888.6721            0    8635.0379    16.892603    19.897254    20.608936    6927.0015    6979.5137    10301.292    8624.3081   -414.99035    211.34295   -427.12608   -2578.3881 
25489000     259.7392   -3921.7838   -3476.5997   -3921.7838            0    11696.949    16.877812    19.879833    20.590891    6908.8221    11312.752    14002.958    9775.1369    895.16265    235.65388    412.66237   -2298.0375 
25490000     254.2274   -3874.1227   -3438.3857   -3874.1227            0    12996.295    16.826234    19.819081    20.527966    6845.6763    13184.886    11216.876    14587.123    463.14004     -694.557    -1311.446   -2140.8724 
25491000    249.79351   -3910.7546    -3482.617   -3910.7546            0    10289.472    16.855761     19.85386    20.563989    6881.7783    9403.7798    10489.446    10975.191   -1210.2365   -2466.3675   -1092.3413   -2449.9277 
25492000    257.06074   -3912.3979   -3471.8046   -3912.3979            0    10506.053    16.849409    19.846378     20.55624    6874.0012    9756.2079    9442.0169    12319.934   -300.49685   -274.85527    2480.6484   -2418.5701 
25493000    265.95888    -3914.656   -3458.8116    -3914.656            0    9138.7703    16.869807    19.870405    20.581125    6898.9969    9664.8075    9144.1127    8607.3908   -976.97336    -1940.301     908.5523   -2539.3161 
25494000    256.17367   -3890.0583   -3450.9854   -3890.0583            0    11262.049    16.800139    19.788345    20.496131    6813.8762    11282.248    10949.932    11553.967   -2061.7321   -714.63317   -926.06146   -2331.8373 
25495000    254.81714   -3875.9859   -3439.2381   -3875.9859            0     9503.217    16.886408    19.889959    20.601379    6919.3845    8410.5686    9165.0524     10934.03   -130.58005   -1618.7743    -679.6932   -2480.2482 
25496000     253.9371   -3901.4731   -3466.2336   -3901.4731            0      9719.95    16.822093    19.814203    20.522914    6840.6231    11144.164    8446.7277    9568.9587   -599.01753   -265.11859    2356.3924   -2496.5377 
25497000    251.04636   -3896.1493   -3465.8644   -3896.1493            0    12224.045    16.799975    19.788152    20.495931    6813.6766    12134.537    10946.434    13591.163   -2296.6495    152.18363   -1577.3495   -2251.1552 
25498000    261.42041   -3879.4394   -3431.3738   -3879.4394            0    7550.9297    16.898851    19.904614    20.616559    6934.6911    8538.7789    6415.9257    7698.0844     175.6969     1377.034    814.80944   -2667.7078 
25499000    248.37904   -3902.3722    -3476.659   -3902.3722            0    9886.4579    16.820431    19.812246    20.520886    6838.5956    10221.001    10508.173    8930.1996    499.21267    9.3065042    842.08887    -2490.644 
25500000    274.92129   -3902.4141   -3431.2084   -3902.4141            0    10251.704    16.853008    19.850617     20.56063    6878.4065    9948.8995    9923.0061    10883.206    864.36846    2221.5907   -1165.8486   -2402.8138 
Loop time of 425.063 on 64 procs for 250000 steps with 864 atoms

Performance: 101.632 ns/day, 0.236 hours/ns, 588.149 timesteps/s
99.1% CPU use with 64 MPI tasks x 1 OpenMP threads

MPI task timing breakdown:
Section |  min time  |  avg time  |  max time  |%varavg| %total
---------------------------------------------------------------
Pair    | 22.039     | 27.269     | 32.601     |  50.8 |  6.42
Bond    | 0.2624     | 0.2777     | 0.28623    |   0.8 |  0.07
Kspace  | 179.33     | 187.99     | 202.99     |  37.5 | 44.23
Neigh   | 4.6731     | 5.587      | 7.1593     |  25.8 |  1.31
Comm    | 82.802     | 97.437     | 106.51     |  54.6 | 22.92
Output  | 1.5362     | 1.5381     | 1.5534     |   0.3 |  0.36
Modify  | 98.316     | 100.31     | 102.12     |  10.0 | 23.60
Other   |            | 4.651      |            |       |  1.09

Nlocal:        13.5000 ave          18 max           7 min
Histogram: 3 2 6 6 6 4 14 7 5 11
Nghost:        2300.31 ave        2364 max        2242 min
Histogram: 5 3 6 7 13 10 10 4 4 2
Neighs:        4480.16 ave        6803 max        2278 min
Histogram: 3 6 10 4 7 14 7 8 2 3

Total # of neighbors = 286730
Ave neighs/atom = 331.86343
Ave special neighs/atom = 2.0000000
Neighbor list builds = 13152
Dangerous builds = 0

unfix		3
unfix		2
unfix		1

write_data	data.final.${pid}
write_data	data.final.0
System init for write_data ...
PPPM initialization ...
  extracting TIP4P info from pair style
  using 12-bit tables for long-range coulomb (../kspace.cpp:340)
  G vector (1/distance) = 0.37485551
  grid = 24 24 24
  stencil order = 5
  estimated absolute RMS force accuracy = 0.003093898
  estimated relative force accuracy = 9.3171819e-06
  using double precision FFTW3
  3d grid and FFT values/proc = 2535 216
Last active /omp style is kspace_style pppm/tip4p/omp
WARNING: Not all mixed pair coeffs generated from mixing. Use write_data with 'pair ij' option to store all pair coeffs. (../write_data.cpp:312)

write_restart   restart.lmp.${pid}
write_restart   restart.lmp.0
System init for write_restart ...
PPPM initialization ...
  extracting TIP4P info from pair style
  using 12-bit tables for long-range coulomb (../kspace.cpp:340)
  G vector (1/distance) = 0.37485551
  grid = 24 24 24
  stencil order = 5
  estimated absolute RMS force accuracy = 0.003093898
  estimated relative force accuracy = 9.3171819e-06
  using double precision FFTW3
  3d grid and FFT values/proc = 2535 216
Last active /omp style is kspace_style pppm/tip4p/omp
Total wall time: 0:07:06
