LAMMPS (30 Jul 2021)
Processor partition = 0
  using 4 OpenMP thread(s) per MPI task
using multi-threaded neighbor list subroutines
variable        pid world 0 1
variable        phase world IceVI IceV

shell cd ${phase}
shell cd IceVI
include Restart.lmp
echo both
log log.lammps
#include		in.partitions
include		in.temp
variable        temperature equal 195.77
variable	tempDamp equal 100.0
include		in.pressure
variable        pressure equal 8294.4
variable        pressureDamp equal 1000.0 # This is 1 ps
include		in.seed
variable        seed equal 745823

units		real
atom_style	full
read_restart	restart.lmp.${pid}
read_restart	restart.lmp.0
Reading restart file ...
  restart file = 30 Jul 2021, LAMMPS = 30 Jul 2021
  restoring atom style full from restart
  orthogonal box = (-0.11059986 -0.055629892 -0.0079381049) to (24.840601 24.785631 22.817938)
  4 by 2 by 2 MPI processor grid
  restoring pair style lj/cut/tip4p/long/omp from restart
  restoring bond style harmonic/omp from restart
  restoring angle style harmonic/omp from restart
  1920 atoms
  1280 bonds
  640 angles
Finding 1-2 1-3 1-4 neighbors ...
  special bond factors lj:    0        0        0       
  special bond factors coul:  0        0        0       
     2 = max # of 1-2 neighbors
     1 = max # of 1-3 neighbors
     1 = max # of 1-4 neighbors
     2 = max # of special neighbors
  special bonds CPU = 0.001 seconds
  read_restart CPU = 0.004 seconds
include 	in.setup
variable	out_freq equal 1000
variable	out_freq2 equal 10000
variable	out_freq3 equal 1000

timestep	2.0

neigh_modify    delay 7 every 1

include		in.tip4p
# This is TIP4P/Ice

# create groups ###
group ox type 2
640 atoms in group ox
group hy type 1
1280 atoms in group hy

# set charges - beside manually ###
set group ox charge -1.1794
Setting atom values ...
  640 settings made for charge
set group hy charge 0.5897
Setting atom values ...
  1280 settings made for charge

# ### TIP3P Potential Parameters ###
pair_style lj/cut/tip4p/long/omp 2 1 1 1 0.1577 8.5
pair_coeff 1 1*2 0.000 0.000
pair_coeff 2 2 0.21084 3.1668
bond_style  harmonic
bond_coeff  1 450 0.9572
angle_style harmonic
angle_coeff 1 55 104.52
kspace_style pppm/tip4p/omp 1.0e-5
pair_modify tail yes

thermo          ${out_freq}
thermo          1000
thermo_style    custom step temp pe etotal epair emol press lx ly lz vol pxx pyy pzz pxy pxz pyz enthalpy

restart 	${out_freq3} restart.lmp.${pid} restart2.lmp.${pid}
restart 	1000 restart.lmp.${pid} restart2.lmp.${pid}
restart 	1000 restart.lmp.0 restart2.lmp.${pid}
restart 	1000 restart.lmp.0 restart2.lmp.0


include         in.dump
dump            myDump all atom ${out_freq2} dump.water.${pid}
dump            myDump all atom 10000 dump.water.${pid}
dump            myDump all atom 10000 dump.water.0
dump            myDump2 all dcd ${out_freq2} dump.dcd
dump            myDump2 all dcd 10000 dump.dcd
dump_modify     myDump append yes
dump_modify     myDump2 append yes


variable natoms 	equal  "count(all)"                        # NUMBER ATOMS
variable H      	equal  "enthalpy/v_natoms"                 # ENTHALPY-per-atom
variable Vol      	equal  "vol/v_natoms"                 # volume-per-atom
fix AVG all 		ave/time ${out_freq} 1 ${out_freq} v_Vol v_H file vol_enthalpy.dat
fix AVG all 		ave/time 1000 1 ${out_freq} v_Vol v_H file vol_enthalpy.dat
fix AVG all 		ave/time 1000 1 1000 v_Vol v_H file vol_enthalpy.dat




fix 		1 all shake 1e-6 200 0 b 1 a 1
Finding SHAKE clusters ...
       0 = # of size 2 clusters
       0 = # of size 3 clusters
       0 = # of size 4 clusters
     640 = # of frozen angles
  find clusters CPU = 0.000 seconds
fix             2 all nph aniso ${pressure} ${pressure} ${pressureDamp}
fix             2 all nph aniso 8294.4 ${pressure} ${pressureDamp}
fix             2 all nph aniso 8294.4 8294.4 ${pressureDamp}
fix             2 all nph aniso 8294.4 8294.4 1000
fix             3 all temp/csvr ${temperature} ${temperature} ${tempDamp} ${seed}
fix             3 all temp/csvr 195.77 ${temperature} ${tempDamp} ${seed}
fix             3 all temp/csvr 195.77 195.77 ${tempDamp} ${seed}
fix             3 all temp/csvr 195.77 195.77 100 ${seed}
fix             3 all temp/csvr 195.77 195.77 100 745823


run             250000
PPPM initialization ...
  extracting TIP4P info from pair style
  using 12-bit tables for long-range coulomb (../kspace.cpp:340)
  G vector (1/distance) = 0.3746775
  grid = 30 30 30
  stencil order = 5
  estimated absolute RMS force accuracy = 0.003247907
  estimated relative force accuracy = 9.7809756e-06
  using double precision FFTW3
  3d grid and FFT values/proc = 7920 1800
Last active /omp style is kspace_style pppm/tip4p/omp
Neighbor list info ...
  update every 1 steps, delay 7 steps, check yes
  max neighbors/atom: 2000, page size: 100000
  master list distance cutoff = 10.8154
  ghost atom cutoff = 10.8154
  binsize = 5.4077, bins = 5 5 5
  1 neighbor lists, perpetual/occasional/extra = 1 0 0
  (1) pair lj/cut/tip4p/long/omp, perpetual
      attributes: half, newton on, omp
      pair build: half/bin/newton/omp
      stencil: half/bin/3d
      bin: standard
Setting up Verlet run ...
  Unit style    : real
  Current step  : 13750000
  Time step     : 2
Per MPI rank memory allocation (min/avg/max) = 12.55 | 12.56 | 12.56 Mbytes
Step Temp PotEng TotEng E_pair E_mol Press Lx Ly Lz Volume Pxx Pyy Pzz Pxy Pxz Pyz Enthalpy 
13750000    205.78033   -9408.1057   -8623.5772   -9408.1057            0    8359.2964    24.951201    24.841261    22.825876    14147.918    7088.5435     8368.252    9621.0937   -675.21896   -333.58929   -1338.5166   -6898.7796 
13751000    192.71511   -9381.2782   -8646.5603   -9381.2782            0    8956.2272    24.846596    24.958841    22.760022    14114.451    9196.6008    8595.8927    9076.1881   -431.88552   -204.37361   -674.99723   -6802.9676 
13752000    198.84205   -9392.7283   -8634.6518   -9392.7283            0    8858.9994    24.828528    24.941621    22.847483    14148.618    8123.2091     8890.775    9563.0141    458.88763    843.66926    1274.4708   -6806.6586 
13753000    191.96378   -9372.7525    -8640.899   -9372.7525            0    7564.9215    24.849938    24.991084    22.861776    14197.778    7942.1918    6797.2707    7955.3022     294.3752   -1030.2006    1317.3726   -7074.5061 
13754000    191.99246   -9416.8211   -8684.8583   -9416.8211            0    6995.6028     24.91312    24.862555    22.898098    14183.169    6775.1828    6855.3642    7356.2613    312.38798    389.23677    774.27179    -7237.839 
13755000    202.13535   -9395.2177   -8624.5856   -9395.2177            0    8211.7535    24.892673    24.837512    22.888662     14151.42     8089.017    8510.4824    8035.7611   -15.236041   -507.60861    539.40043   -6929.8115 
13756000    195.42598   -9356.2676   -8611.2146   -9356.2676            0    7748.3222    24.817668     24.95781     22.86506    14162.496    8077.1996    7063.2541     8104.513    246.88905     157.5762    643.15009   -7010.8338 
13757000    191.74138   -9389.6574   -8658.6518   -9389.6574            0    8498.1063    24.915629    24.806677    22.879142    14141.002     7282.786    9462.9438    8748.5892    424.93525    857.24924   -400.18269   -6906.0702 
13758000    194.74512   -9397.4676   -8655.0104   -9397.4676            0     8588.407    24.937948    24.846215    22.846127    14155.772    8035.2028    8243.1223    9486.8958   -56.406319   -42.469663   -227.84038    -6881.956 
13759000    204.26736   -9386.5159   -8607.7556   -9386.5159            0    8323.9018    24.752166    25.060049    22.838168    14166.299    8857.3364    7042.8367    9071.5323   -203.19084   -538.00548    296.71925   -6888.0297 
13760000    195.88149   -9375.5627   -8628.7731   -9375.5627            0    8696.4883    24.914988    24.881599    22.862036    14172.742    9014.3669    8369.4282    8705.6696    34.966073   -173.82719     884.6629   -6831.2533 
13761000    194.74849   -9388.6199   -8646.1498   -9388.6199            0    8853.5962    24.908149    24.789656    22.882718    14129.265    8447.3519     9974.711    8138.7258   -504.75536   -1001.5694     138.6451   -6821.7704 
13762000    196.55093   -9351.2993   -8601.9575   -9351.2993            0    8934.4773    24.727973    24.953653    22.912085    14137.976    9896.5638    8109.1977    8797.6704    -315.8494   -714.41564    670.80496   -6759.7765 
13763000    194.72165   -9359.5917   -8617.2239   -9359.5917            0    8172.1108    24.874915    24.874539    22.918205    14180.686    7864.0139    8508.6055     8143.713    -555.0064   -25.459687   -183.08802   -6927.1435 
13764000    191.09894   -9408.9594   -8680.4031   -9408.9594            0    8851.4992    24.859344    24.744427     22.98125    14136.461     8429.257    9883.3907      8241.85   -471.08852   -757.64686   -630.56241   -6855.5269 
13765000     198.5582   -9398.8934    -8641.899   -9398.8934            0    8864.0036    24.804812    24.865493    22.921769    14137.777     8538.927    8985.8734    9067.2103   -252.61521   -242.87916    158.14864   -6814.2746 
13766000    195.91967   -9376.9333   -8629.9981   -9376.9333            0    7646.7072    24.841767    24.882535    22.926839    14171.678    7856.6245    8143.9356    6939.5615   -865.96927    -232.5109    995.60691   -7049.5813 
13767000    198.48324   -9396.4207   -8639.7121   -9396.4207            0     6553.895    24.884341    24.908794    22.964984    14234.591    7170.5064    5836.9692    6654.2096    17.072276   -999.96176   -648.85146   -7279.1437 
13768000    193.24395   -9411.6279   -8674.8938   -9411.6279            0    8546.4962    24.723864    24.870483    22.956864    14116.048    8610.3391    9005.5619    8023.5876   -357.35854    12.593542    45.172077   -6915.4431 
13769000    193.39512   -9384.4987   -8647.1883   -9384.4987            0    9470.4354    24.847758    24.788545     22.89575    14102.403    10036.752    9229.0063    9145.5474   -359.19173   -525.29149   -744.80626   -6699.4126 
13770000    198.55418   -9410.8581    -8653.879   -9410.8581            0    7656.1824    24.867511    24.836279     22.92101    14156.393    8020.5059    7728.6087    7219.4325    23.409596   -246.00744   -128.93488   -7073.2107 
13771000     192.1692   -9384.0209   -8651.3842   -9384.0209            0    8288.1705    24.730725    24.949147     22.94547    14157.596    8685.3535    8047.3543    8131.8038     1030.591    775.43451   -626.77226   -6940.0924 
13772000    201.94309   -9390.9533   -8621.0542   -9390.9533            0     8456.813     24.87643    24.853528    22.911653     14165.52    8244.7314    7641.7214    9483.9864   -321.83139    41.112513    43.566813   -6873.9647 
13773000    193.86746   -9414.0565   -8674.9453   -9414.0565            0    8578.3028    24.896589     24.84332    22.834074    14123.192     7759.727     8923.244    9051.9373   -906.10951    46.065591    429.04977   -6908.0528 
13774000    204.38531   -9375.7496   -8596.5395   -9375.7496            0    7640.5993    24.901564    24.971182    22.823743    14192.294    7259.6534    6975.1793    8686.9654   -54.828717   -502.11004    448.07052   -7015.0879 
13775000    196.26777   -9387.1814   -8638.9191   -9387.1814            0    7681.1165     24.89143     24.88466    22.883441    14174.341    8033.0128    7299.2819    7711.0546   -528.75888   -13.597266    1116.5594   -7051.0923 
13776000    204.64209   -9384.4469    -8604.258   -9384.4469            0    9079.5224    25.008857    24.854643    22.690405    14104.043    7362.3735    9136.4019    10739.792    -854.6366   -694.57712    63.463631   -6736.6638 
13777000    200.77465   -9406.7957   -8641.3512   -9406.7957            0    6916.0305    24.886392    24.988067    22.829819    14197.016    6565.6571    6979.5768    7202.8575     147.6443   -563.50816    333.89214   -7209.3946 
13778000    195.03515   -9408.0243   -8664.4613   -9408.0243            0    7618.7024    24.879101    24.927312    22.843871    14167.063    7233.3571    8063.6329    7559.1173   -98.776063   -402.45085    751.09236   -7090.3454 
13779000     188.8519   -9387.8732   -8667.8836   -9387.8732            0     8030.016    24.927673    24.788255    22.876909    14135.952     7327.513    9095.1885    7667.3465    -399.0053   -393.24978   -182.34041   -7012.4287 
13780000    200.14823   -9377.2117   -8614.1553   -9377.2117            0    8207.3685    24.837373    24.925265    22.871731    14159.388    8754.6018    8024.3332    7843.1706   -702.30602   -69.609798    73.506404   -6919.3325 
13781000    197.88428   -9364.7748   -8610.3496   -9364.7748            0    7673.5181    24.842302    24.965114    22.900679    14202.793     7910.151    6705.9985    8404.4048    144.80036    55.311841   -163.43642   -7020.9096 
13782000    195.81377   -9365.3463   -8618.8149   -9365.3463            0     7780.683     24.96142    24.826622     22.93702    14214.249    6738.2758    8319.7252    8284.0479     254.2933    703.90044    886.24503   -7005.8775 
13783000    196.87991     -9386.08    -8635.484     -9386.08            0    7761.5945    24.826973    25.002876     22.84051    14178.149    8480.9076    6460.7516    8343.1243    395.46495    499.33256   -263.52238   -7030.5899 
13784000    194.95164   -9422.2936   -8679.0491   -9422.2936            0    8380.4529    24.807393    24.902248    22.873768    14130.495    8876.9216    7877.4861     8386.951    583.20052     36.07859   -450.56233   -6952.0156 
13785000     183.0724    -9387.328   -8689.3725    -9387.328            0    7648.4505    25.026494    24.852651    22.834596    14202.542     6797.639    7499.5529    8648.1597    410.35849   -1868.5849    81.330014   -7105.1527 
13786000    192.25149   -9381.5448   -8648.5944   -9381.5448            0    7415.9855    24.881345    24.977011    22.834543    14190.792    7229.3527    7197.6744    7820.9295   -473.24685   -178.40937    4.8185374   -7113.7958 
13787000    203.65337   -9419.4358   -8643.0163   -9419.4358            0    8478.1258    24.687928    25.020173    22.871869    14127.868    9161.8852    8402.5964    7869.8957   -642.43781    453.14161    236.83334   -6896.1794 
13788000    198.59861   -9383.0315    -8625.883   -9383.0315            0    8414.9612    24.902698    24.815708    22.907376    14156.256    8010.8258    8185.6973    9048.3604    262.92781    370.14027    61.249283   -6888.5766 
13789000    195.97881   -9399.8141   -8652.6535   -9399.8141            0    9169.1227    24.899537    24.753264    22.898406    14113.314    8012.9689    10482.382    9012.0173     388.9121    281.53931    294.28001   -6765.3894 
13790000    193.89536   -9396.4502   -8657.2327   -9396.4502            0    8102.1313     24.80653    24.962494    22.869567    14161.588    8827.8029    6877.1045    8601.4865     287.6528   -358.23947    524.06105   -6983.8815 
13791000     189.3434   -9403.5186   -8681.6552   -9403.5186            0    8590.6044    24.949373    24.741138    22.885701    14126.791    7813.0791    9770.5405    8188.1936   -137.86577   -396.18118     125.3544    -6911.778 
13792000    198.65598     -9406.78   -8649.4127     -9406.78            0    8178.9968    24.753607    24.901982    22.942334    14141.973    8408.8714    7595.7675    8532.3515    104.81859    315.27117     651.4957    -6962.526 
13793000    198.36569   -9381.6169   -8625.3564   -9381.6169            0    8459.9646    24.765993    24.950866     22.93534    14172.503    8840.6544    9178.6492    7360.5904    596.17132   -711.56736   -880.21655   -6876.7543 
13794000    194.00988   -9393.5784   -8653.9243   -9393.5784            0    7430.4223    24.901077    24.875948    22.921706    14198.573    6590.1991    8434.4798    7266.5879    62.313633   -761.89142   -962.67465   -7115.2946 
13795000    194.54076    -9433.007   -8691.3289    -9433.007            0    9710.6672    24.877653    24.813486    22.813661    14082.902    9041.0275    10074.671    10016.303   -89.035292   -513.18388   -283.71786   -6696.9066 
13796000    203.20077   -9375.8979   -8601.2039   -9375.8979            0    9056.7236    24.894266    24.940591    22.776203    14141.237    8325.5896    8353.4574    10491.124    242.42488   -622.39153    -62.90234   -6733.3866 
13797000    194.78259    -9406.104    -8663.504    -9406.104            0    8073.8035    24.919799    24.882334    22.864497    14177.423    6436.7613    8293.1142    9491.5349    257.37385    42.278407    1076.2547   -6994.1388 
13798000    193.85418   -9390.4594   -8651.3988   -9390.4594            0    8214.1958    25.004049     24.87746    22.746242    14149.009    6983.8493    8026.4253    9632.3128   -74.560341   -1219.2967    604.72974   -6956.4095 
13799000    199.90595   -9392.8192   -8630.6866   -9392.8192            0    8634.1817    24.798767    24.957431     22.86837    14153.543    8971.2234    7952.3105    8979.0111   -426.35936    157.46616    383.72136   -6848.4627 
13800000    202.32942   -9384.1023   -8612.7303   -9384.1023            0    8371.2926    24.850843    24.962509     22.82827    14161.275    8132.6012    8179.5443    8801.7324    170.42574   -340.38183   -1023.1133   -6883.8267 
13801000     197.9328   -9389.8144   -8635.2043   -9389.8144            0    8570.9636    24.972971    24.817427    22.809734    14136.672    7375.0111    8872.1338     9465.746    67.116387    -615.7203    563.26285   -6868.1385 
13802000    201.31388   -9420.0985   -8652.5982   -9420.0985            0    7555.8415    24.836924    24.926817    22.908491    14182.771     7766.698    8443.2271    6457.5995    143.38666    945.92069    -844.0348   -7089.7391 
13803000    195.59958   -9391.9742   -8646.2594   -9391.9742            0     8583.456    24.769506     25.00281       22.817    14130.733    8795.5352    7605.4234    9349.4095    194.71358   -1465.0413   -481.50558   -6877.3614 
13804000    192.83205   -9363.0841   -8627.9204   -9363.0841            0    8129.7827    24.927617     24.82997    22.885175    14164.824    7206.3761    8333.2986    8849.6734     73.55889    209.90385    840.63061   -6948.4745 
13805000     203.1785   -9398.8001    -8624.191   -9398.8001            0    8420.4658    24.780573    24.950247    22.893229    14154.458    8980.1542    7567.5071     8713.736     426.8674    726.14818   -298.64808    -6885.969 
13806000    195.47942   -9362.3252   -8617.0685   -9362.3252            0    8614.2005    24.771816    24.993613    22.892205    14173.415    9657.0464    7091.2372    9094.3181   -634.70192    266.93774    648.15323   -6836.4725 
13807000     196.9199   -9385.9169   -8635.1684   -9385.9169            0    9872.2166    24.933996    24.783707    22.765186    14067.903    8870.7935    9893.2466     10852.61   -130.35173    195.07603    62.816326   -6609.7258 
13808000    193.10198   -9385.8968    -8649.704   -9385.8968            0    8535.3506    24.906377    24.826408    22.852339    14130.421    8607.6487    9262.5967    7735.8063    570.35142   -343.58302    911.24327   -6890.7586 
13809000    192.61887   -9388.1281   -8653.7772   -9388.1281            0    7119.9764    24.897586    24.975282    22.873988      14223.6    7689.5852    6257.0818    7413.2622   -316.91718     655.3673   -758.23683   -7176.8334 
13810000    195.16773   -9419.1199   -8675.0515   -9419.1199            0    9032.1312    24.767136      24.9106    22.856466    14101.621    8273.1738    8822.9222    10000.298   -446.19875    135.64283   -253.02942   -6817.5244 
13811000    195.66782   -9405.5682   -8659.5932   -9405.5682            0    7487.8862    24.872196    24.826343     22.95745    14175.897     7289.913    8831.0575    6342.6882    39.615176   -513.29718   -730.95561   -7111.5408 
13812000    194.89402    -9394.147   -8651.1221    -9394.147            0    7164.8776    24.853462    24.809331    23.044066     14208.92    7859.3833    7048.7254    6586.5242   -59.591127   -697.06769   -365.42197   -7166.3981 
13813000     196.0848   -9353.1048   -8605.5401   -9353.1048            0    9572.9061    24.788494    24.878064      22.8773    14108.197    9631.8043    9320.7836    9766.1305    352.01486     177.8118   -140.67919   -6635.8804 
13814000    196.56227   -9389.3123   -8639.9272   -9389.3123            0    8351.3787    24.776445    24.918889    22.904306    14141.152    8629.6979    8706.1205    7718.3176    314.80725   -1280.4255    124.40432   -6917.5873 
13815000    191.91714   -9411.7702   -8680.0945   -9411.7702            0      8640.79    24.950651    24.714899    22.893938    14117.612    7129.0114    10387.309    8406.0498    301.21395    187.24456   -187.14489   -6901.0346 
13816000     206.0442   -9374.2166   -8588.6821   -9374.2166            0    8054.4277    24.820257    24.923184    22.915304    14175.403    8317.6894    7057.0475    8788.5462    290.65589   -410.83654    718.72748   -6923.5604 
13817000    194.35701   -9417.0402   -8676.0626   -9417.0402            0      8537.16    24.962585    24.825963    22.790709    14123.863    7056.5014    8811.5763    9743.4024   -110.60059   -799.13202   -763.07436   -6917.5608 
13818000     194.2498   -9413.6896   -8673.1208   -9413.6896            0     7417.011    24.898886    24.917157    22.885627    14198.459    7068.8783    7175.7214    8006.4333    25.542609    629.13207    89.870797   -7137.2806 
13819000    198.10616   -9434.7201   -8679.4491   -9434.7201            0    7443.0323      24.7871    24.917904    22.933649    14164.798    7247.9595    7829.0899    7252.0476   -172.51477   -33.053981    193.19303   -7141.8746 
13820000    189.75426   -9381.7199   -8658.2901   -9381.7199            0    9135.2169    24.861394    24.870497    22.847809    14127.149    9042.3483    8913.1444    9450.1579    8.2360933    269.87965   -1213.4101   -6776.1616 
13821000    198.41104   -9394.9158   -8638.4825   -9394.9158            0    9113.5639    24.933743    24.891756    22.742034    14114.721    9022.2481    8504.8497    9813.5938    245.64481    556.91076    -710.7972   -6762.4669 
13822000    192.55422   -9354.6815    -8620.577   -9354.6815            0    8368.9474    24.973943     24.94909    22.747592    14173.505    8734.0492    7483.2312    8889.5618   -502.85811   -333.81092   -394.15422   -6890.6651 
13823000    192.02412   -9433.4023   -8701.3188   -9433.4023            0     8322.478    24.843663    24.878739     22.87155    14136.425    8669.1768    7088.4362     9209.821    293.74993   -412.14265   -460.23459   -6985.5129 
13824000    203.47932   -9402.9849   -8627.2289   -9402.9849            0    8842.2686    24.745552    24.889693    22.953417    14137.221    9598.3983    8478.3733    8450.0341    164.68945   -333.72586    63.966519   -6804.1577 
13825000    206.59428   -9393.5933   -8605.9617   -9393.5933            0    9058.1445    24.815559    24.756399    23.004546    14132.702    8586.9267    10446.888    8140.6191    -427.1047    56.653729    1630.5967   -6738.9788 
13826000    196.14401   -9388.9234    -8641.133   -9388.9234            0    8550.7478    24.803633    24.828891    22.980723    14152.603    7692.2566    8874.1555    9085.8312    253.27227   -706.80791     674.7179   -6876.2484 
13827000    194.04262   -9414.8584   -8675.0795   -9414.8584            0    8761.7324    24.627758     24.81571    23.103173    14119.627    11272.368    7835.4089     7177.421   -268.10433   -102.56617   -162.01238   -6870.8611 
13828000    198.87155   -9378.2953   -8620.1063   -9378.2953            0    7978.3856     24.83722    24.829198     22.99634    14181.573    7926.3653    8480.7602    7528.0313    52.658207   -945.35453   -750.23712   -6969.9871 
13829000    196.98252   -9406.2044   -8655.2172   -9406.2044            0    8485.7747    24.863164    24.749129    22.979982    14140.541    7235.3809    10382.391    7839.5519    59.500607   -734.82191    1152.1164    -6905.236 
13830000    193.33854   -9385.3859   -8648.2912   -9385.3859            0    8050.9563    24.793444    24.909709    22.924088    14157.859     8420.632    7653.3167    8078.9201    119.58174    -483.3589   -838.31977   -6985.9471 
13831000    201.88732   -9387.6034   -8617.9169   -9387.6034            0    7694.0389    24.826316    25.003239    22.861171    14190.805    8272.5488    6942.6184    7866.9495   -671.63525   -1166.4664   -797.64537   -7025.5714 
13832000    194.78994   -9392.0131   -8649.3851   -9392.0131            0    8462.8555    24.892852    24.838434    22.861887    14135.493    6833.5002    9692.3809    8862.6854    429.91979    212.04072    499.49412   -6904.7533 
13833000    184.94611   -9389.7266   -8684.6276   -9389.7266            0    7126.8754    24.829841    25.066226    22.811509    14197.664    7818.2663    6236.9129    7325.4471   -23.960633    163.66391   -711.56206   -7208.9484 
13834000     204.6334   -9394.6379    -8614.482   -9394.6379            0    7764.8848    24.919606    24.869274    22.861818    14168.212    7252.4312     7977.594    8064.6292     442.3603   -493.43915    146.15037   -7010.0329 
13835000    188.61138   -9379.0654   -8659.9928   -9379.0654            0    8139.4431    24.930359    24.847722    22.863642    14163.172     6716.544    9113.2137    8588.5718   -284.90696   -142.83977    56.586173   -6978.7474 
13836000    201.71472   -9396.7939   -8627.7654   -9396.7939            0    9449.0968    24.797203    24.950791    22.781208    14094.958    9643.6735    8620.3301    10083.287   -133.14783   -895.97162    236.39703   -6685.4043 
13837000    197.08606   -9392.3874   -8641.0055   -9392.3874            0    8408.7851    24.866886    24.891277    22.861238    14150.387    7602.4149    7881.9627    9741.9777    245.11383   -334.30353     124.9243   -6905.6939 
13838000    197.05184   -9376.4774   -8625.2259   -9376.4774            0    7221.7316    24.924558    24.935672    22.859507    14207.426    7728.0588    5774.4403    8162.6957   -192.19419   -719.85805     51.87255   -7128.8778 
13839000    191.61354   -9416.9655   -8686.4473   -9416.9655            0     9116.673    24.833377    24.949917    22.733492     14085.46    8972.4878    8667.2152     9710.316    469.33982   -165.42341    415.08119   -6813.6822 
13840000     200.8408   -9401.2106   -8635.5138   -9401.2106            0    8056.5875    24.867945    24.928386    22.851133    14165.823    7961.0746    7942.3811    8266.3068    227.87861    151.10567   -291.09254   -6971.0712 
13841000    193.98228   -9414.2576   -8674.7087   -9414.2576            0    7585.9439     24.95204    24.866638    22.822447     14160.72    6454.9116    7859.5839    8443.3362    43.845417   -459.13844    591.55254   -7108.0628 
13842000    194.97961   -9382.8911   -8639.5399   -9382.8911            0    7631.1539    24.976793    24.925143     22.75146    14163.925    6908.0344    7558.8067    8426.6206    82.111949    266.57548    17.164052   -7063.2006 
13843000    204.76817   -9419.4513   -8638.7816   -9419.4513            0    8185.1986    24.870866    24.911588    22.843694    14153.331    7917.1166    7723.7266    8914.7526   -446.29805    255.12495   -552.79221     -6949.26 
13844000    192.50803   -9372.5285   -8638.6001   -9372.5285            0     9062.436    24.889497    24.879891    22.809514    14124.745    7897.6701    9421.6771    9867.9609   -847.14134   -322.00106    1023.7604   -6771.7843 
13845000    187.42641   -9416.2462   -8701.6913   -9416.2462            0     7718.141    24.925283    24.926974     22.83176    14185.644    8102.4914     6330.026    8721.9056    165.74075   -535.37063    391.15809   -7104.9386 
13846000     194.4974   -9375.7916   -8634.2788   -9375.7916            0    9145.0383    24.859488    24.899715    22.787105    14105.084    9640.4956    8251.3425    9543.2766   -498.82395     -582.328    -1037.854   -6753.0695 
13847000    203.24804   -9400.5077   -8625.6335   -9400.5077            0    8144.0196    24.858421    24.901963    22.841702     14139.55    7816.8706    8047.6588    8567.5295    172.53202    327.29665   -469.92332   -6946.2485 
13848000    187.67851   -9405.4983   -8689.9822   -9405.4983            0    8835.7887    24.832337    24.817552    22.924519    14127.872    8777.0523    8698.1083    9032.2055    172.76676   -574.48802   -859.90176   -6869.4517 
13849000     201.5021   -9390.8494   -8622.6315   -9390.8494            0    8316.7109    24.801098    24.930324    22.882857    14148.457    7847.0057     8732.429     8370.698    529.84588   -667.79394  -0.23830265   -6906.5553 
13850000    194.94765   -9423.2422   -8680.0129   -9423.2422            0    6351.4448    24.891882    24.946871    22.922267    14234.145    5889.9025    6562.5904    6601.8416   -217.10273     94.42746    200.59983   -7361.5139 
13851000    197.97006   -9411.8695   -8657.1174   -9411.8695            0     9324.855    24.823434    24.843076    22.867427    14102.124    9018.7484    9327.7074    9628.1093   -307.09506   -461.81271    392.54727   -6739.3209 
13852000    199.12089   -9370.4116   -8611.2719   -9370.4116            0      10537.3    24.784543    24.802624    22.885357    14068.126     10205.42    10965.475    10441.004    18.261376    672.08816    1112.7827   -6449.3427 
13853000      197.148   -9389.2486   -8637.6306   -9389.2486            0    7577.2115    24.804269    24.966533     22.92071    14194.259      8550.85    6609.1113     7571.673    599.29935   -271.98998   -355.10755   -7069.0818 
13854000    194.75283   -9399.2352   -8656.7485   -9399.2352            0     7428.436    24.894028     24.97619    22.832764    14196.453    7295.0878    6792.7142     8197.506   -709.65579    30.068895    183.71121   -7118.7599 
13855000    195.55353   -9377.2342    -8631.695   -9377.2342            0    7867.3077     24.96193    24.856184    22.866868    14187.939    6495.2369    8665.7376    8440.9486    233.91465   -586.29373   -32.951785    -7003.819 
13856000     195.6189   -9407.1376   -8661.3492   -9407.1376            0    8523.4415    24.786475    24.971581    22.846624    14141.088    8649.3801    7799.9768    9120.9675    -612.6143   -50.090954   -356.21001    -6903.532 
13857000    201.40332   -9422.4531   -8654.6118   -9422.4531            0    6816.5951     24.92645    24.893676    22.919862    14222.026    6474.4603    7379.9526    6595.3724    425.25112    158.84623    284.60392   -7240.7569 
13858000    202.47288   -9423.8717   -8651.9528   -9423.8717            0    7101.5201    24.846236    24.836437    22.957172    14166.686    6982.0401    8162.2098    6160.3104   -715.02969   -157.26386    985.78217   -7184.7319 
13859000    191.46734   -9387.3563   -8657.3954   -9387.3563            0    8952.4233    24.719301    24.952861    22.905685    14128.622    9465.3063    9377.4747    8014.4887    -203.5537    520.14734     155.3147   -6812.7355 
13860000    191.10118    -9389.359   -8660.7942    -9389.359            0    9194.2292    24.851766    24.824183    22.881577    14116.212    9387.0956    9331.7003    8863.8917   -915.33096   -410.98742   -33.904083   -6767.9739 
13861000    191.44729   -9364.7419   -8634.8575   -9364.7419            0    9205.1886    24.850865    24.805235    22.909291    14122.009    7991.5784    11037.548    8586.4395    339.17205    435.82244    663.65234   -6739.0028 
13862000    193.60425   -9372.7563   -8634.6487   -9372.7563            0    8131.4346    24.813849    24.891206    22.952788    14176.712    8301.5222    8834.8387    7257.9429   -438.31524   -274.05105    -266.6604   -6953.4518 
13863000    191.71872   -9377.1532   -8646.2339   -9377.1532            0    8528.5398    24.896251      24.9589    22.763453    14144.824     7753.452    8579.2211    9252.9463   -604.70543    -1426.119    129.52442   -6886.9007 
13864000    204.08402   -9370.8904    -8592.829   -9370.8904            0    8691.3714    24.903741    24.977133    22.744984    14147.927    7708.7604    8001.5959    10363.758    119.49155   -129.13224    541.69005   -6799.5122 
13865000    201.25106   -9376.4614   -8609.2006   -9376.4614            0    8306.7795    24.856623    24.917991     22.85986    14158.874    8543.8463    8508.9106    7867.5815    127.54098   -252.92154   -129.85161   -6893.9117 
13866000     186.2928   -9376.3821    -8666.149   -9376.3821            0     8625.811    24.776344    24.966061    22.897416    14163.602     9601.669    7994.9556    8280.8085    341.77167   -196.39713     22.90092   -6884.3876 
13867000    187.14344   -9399.8712    -8686.395   -9399.8712            0    8547.5316    24.928942    24.818891    22.834284     14127.77    8190.9684     8107.089    9344.5376    636.39037     261.5409    27.266061   -6925.2698 
13868000    187.61686   -9401.0647   -8685.7837   -9401.0647            0    8271.0266    24.901818    24.898047    22.812833    14144.108     8091.776    8848.3443    7872.9595   -1023.0298      322.087    41.235072   -6979.6586 
13869000    193.20608   -9372.2022   -8635.6125   -9372.2022            0    9428.0701    24.922335    24.866254    22.732497    14087.899    8308.9798    9563.6619    10411.569    271.90652     158.8004   -307.98778   -6698.5443 
13870000    190.32244   -9384.3914   -8658.7955   -9384.3914            0    7774.0366    24.811316    24.925694    22.941613    14187.994    8287.6242    8066.9123    6967.5734   -537.44709    151.32783    62.696268   -7050.2124 
13871000    192.79448   -9395.7217   -8660.7012   -9395.7217            0    7990.7854    24.789899    24.966303    22.868994    14153.898    8654.5009    7262.9803    8054.8751     -383.759    537.26158   -299.06749   -7011.2427 
13872000    195.25192   -9360.7454    -8616.356   -9360.7454            0    9471.5422    24.844396    24.869992    22.848502    14117.631    8366.9533    10330.401    9717.2728   -737.28486     420.3821    397.13473   -6666.2491 
13873000    189.61107   -9383.3556   -8660.4717   -9383.3556            0    8692.3203    24.884016    24.893904    22.809825    14129.781    8587.1401    8372.3209    9117.4999   -402.93977    154.77807   -42.304657   -6869.2595 
13874000    201.46885   -9386.4771    -8618.386   -9386.4771            0    8400.3616    24.828896    24.894116    22.869863    14135.712    9024.3316    7533.0923    8643.6608   -537.87913    235.89989    724.22279   -6886.6106 
13875000    203.55898   -9379.8357    -8603.776   -9379.8357            0    8953.0927    24.834616    24.871459    22.872765    14127.892    9865.3496    8512.2379    8481.6906    147.82505   -721.97748    263.35184   -6759.0735 
13876000    194.23921   -9397.6593   -8657.1308   -9397.6593            0     6840.656    24.840804    24.985378    22.909681    14219.052    6928.2276    6663.8597    6929.8807   -224.54952   -266.38416    256.80169   -7238.5821 
13877000    198.26873   -9394.4881   -8638.5972   -9394.4881            0    8145.9615    24.856169    24.895737    22.863632    14148.305    8162.5565    7597.4257    8677.9025   -183.93442    408.38986    734.15272   -6957.7716 
13878000    194.31824   -9383.9218   -8643.0921   -9383.9218            0    10291.477    24.778638    24.913534    22.730722    14032.208    10475.975    9831.6021    10566.855   -414.06773   -1296.5619    360.15276    -6536.989 
13879000    198.98877   -9392.8409   -8634.2049   -9392.8409            0    8299.7351    24.871587    24.908091    22.836008    14146.992    8365.6277    8409.8457    8123.7319   -122.59509    655.34227   -193.60914   -6921.8088 
13880000     189.5757   -9394.5756   -8671.8266   -9394.5756            0    9098.1337    24.889738    24.810192    22.873525     14124.84    9052.5264    8685.0348    9556.8399    262.01547   -286.92913   -48.724955   -6797.6446 
13881000    197.18628   -9427.4599   -8675.6959   -9427.4599            0     7871.481    24.804231    25.021028    22.802392    14151.788    8504.8915    6556.0086    8553.5429    328.43021   -214.20841   -1833.2494   -7051.1063 
13882000    194.37148    -9391.052   -8650.0192    -9391.052            0    8454.1583    24.893757    24.933959    22.777125     14137.76    8519.9932    7125.6305    9716.8512    214.48933   -457.38997    322.88802   -6906.9009 
13883000    194.41863   -9396.9427   -8655.7302   -9396.9427            0     8077.379    24.937221    24.797459    22.890582    14155.072    7174.6114    8967.1863    8090.3392    582.21264   -158.90542    578.69587   -6988.2587 
13884000    192.47226   -9410.8583   -8677.0663   -9410.8583            0    8398.6638    24.751771    24.888133     22.90539    14110.302    8918.4002    8194.6293    8082.9619    142.84851   -569.31948    596.48934   -6948.7533 
13885000    189.63653   -9418.6427   -8695.6617   -9418.6427            0    6465.2199    24.885268    25.013117    22.874281    14238.282    7272.2418    4542.5078    7580.9103   -896.57139   -1193.9463    818.81101    -7353.154 
13886000    192.32268   -9368.2589   -8635.0372   -9368.2589            0    9294.4598    24.809665     24.85077    22.894605    14115.423    9815.4181    8678.6944    9389.2668   -210.82208   -865.56993    1045.0019   -6721.6892 
13887000     189.6117   -9378.1509   -8655.2646   -9378.1509            0    8758.1697    24.866047    24.779845    22.937667    14133.658    8434.7325    9561.3638    8278.4128   -306.25779   -399.46435    215.31599   -6849.9877 
13888000     192.0525   -9379.4455   -8647.2537   -9379.4455            0    7456.6418    24.890776    24.893377    22.925046    14204.713     7295.646    7281.2925     7792.987   -26.756083   -509.11908     712.5822   -7102.5271 
13889000     191.6912   -9404.5178   -8673.7036   -9404.5178            0    9286.6137    24.723439    24.939488    22.861127     14095.94    9867.7987    9646.3094     8345.733   -125.36254   -1419.2703    -1421.309   -6764.6095 
13890000    197.57904   -9389.1809   -8635.9196   -9389.1809            0    9083.8938    24.885547    24.805956    22.829313    14092.758      7624.38    11084.976    8542.3258    407.21923   -411.91646    105.78381   -6768.9212 
13891000    196.91506   -9423.2206   -8672.4906   -9423.2206            0    7668.5393    24.890861    24.893775    22.862777    14166.405    7798.0733    7457.6054    7749.9391   -1006.4442    687.71832      217.317   -7088.1514 
13892000    193.11436   -9415.3277   -8679.0877   -9415.3277            0    7463.8725    24.778479    25.032558    22.841963    14168.155    8783.1513    5867.6239    7740.8424   -911.75853   -828.66468    180.83203   -7136.8426 
13893000    196.99474   -9395.6161   -8644.5823   -9395.6161            0    8108.0402    24.844359    24.899364    22.857008    14139.545    7956.4584    7538.8754    8828.7869   -429.51987   -243.98837   -860.37698   -6972.6172 
13894000    194.49809   -9400.0588   -8658.5434   -9400.0588            0    7971.6128    24.932659    24.824231    22.872296    14156.444    8006.9088    7883.6318    8024.2978   -937.63647    996.05573   -754.56061   -7012.7465 
13895000    209.22497   -9387.1186   -8589.4576   -9387.1186            0    10067.564    24.880332    24.845304    22.746804    14061.151    9549.1873    9434.7539     11218.75   -1010.8913   -235.17145    -24.66474   -6524.9279 
13896000    199.23308   -9410.4181   -8650.8507   -9410.4181            0    8103.5454     24.87787    24.942471    22.764347    14125.631    8098.8027    7661.1463    8550.6873   -99.399675   -216.48045    244.59644   -6981.4569 
13897000    198.92024   -9408.0986   -8649.7239   -9408.0986            0    8959.9284    24.853032    24.957972    22.755973    14115.104    9856.5327    7617.3687    9405.8838   -338.73815   -200.62546   -497.73641    -6805.284 
13898000    195.80121    -9428.108   -8681.6245    -9428.108            0    7900.7158    24.971143    24.849213     22.79568    14145.021     7041.601    8135.4067    8525.1397   -225.37773   -371.36854    501.15013    -7051.781 
13899000    198.28458   -9402.9295   -8646.9782   -9402.9295            0    7769.1277    24.885822    24.947343    22.795531    14152.267    7965.6316    6867.2273    8474.5241    778.81378     657.6485    469.48944   -7043.4591 
13900000     194.5948   -9404.4923   -8662.6082   -9404.4923            0    7959.6995    24.906245    24.885887    22.808724    14137.167     7757.392    7869.3331    8252.3734    705.22944   -430.92212   -851.65607   -7021.5086 
13901000    197.76545   -9400.4122   -8646.4402   -9400.4122            0    6909.2648      24.9003    24.930457    22.900135    14215.851    7111.1244    6448.0369    7168.6331   -215.73931    96.350839   -17.618039   -7213.9865 
13902000    190.74309   -9387.6457    -8660.446   -9387.6457            0     8969.289    24.757116    25.006004    22.819679    14127.128    9458.3906    8329.6577    9119.8188   -408.30891   -340.60051   -113.99475   -6812.5064 
13903000    200.03823   -9397.9755   -8635.3386   -9397.9755            0    8009.2446    24.934539    24.857475    22.858543    14167.946    6241.7886    9107.1399    8678.8053   -109.91181   -638.82098   -647.03588   -6980.4287 
13904000     188.9799   -9398.7761   -8678.2985   -9398.7761            0     7860.093    24.863851    24.900349    22.852187    14148.213    9327.4054    6929.9893    7322.8843    194.85747    8.2221423    82.166789   -7056.4691 
13905000    200.39826   -9410.4038   -8646.3942   -9410.4038            0      8867.35    24.823538    24.918435    22.776502    14088.717    8767.3049    8196.5479    9638.1971      431.287    -576.2672    78.845856   -6824.4243 
13906000    183.20347   -9412.0583   -8713.6032   -9412.0583            0    8350.8763    24.924269    24.848902    22.811848    14128.306    6733.4593    9594.7221    8724.4476     350.2367   -54.401678    1859.1508   -6992.9314 
13907000    187.87486   -9376.7823   -8660.5176   -9376.7823            0    8202.9275    24.866668    24.987335    22.802147    14168.154    8402.9064     7111.824    9094.0522    -203.2495   -458.21626    -567.8912   -6965.5631 
13908000    196.91985   -9394.4597   -8643.7114   -9394.4597            0    9126.1894    24.858059    24.884522    22.785688    14094.792     8735.859    8234.6048    10408.104    43.910158   -929.25883   -808.48564   -6767.7495 
13909000    200.34046   -9379.4656   -8615.6764   -9379.4656            0    9038.5124     24.87436     24.89101     22.80417    14119.155    9313.8543    7541.8868    10259.796   -342.39559    639.21209   -376.35095   -6754.5256 
13910000    193.13253   -9386.9949   -8650.6856   -9386.9949            0    8876.5335    24.960813    24.864659    22.767702    14130.594    7289.9893    9322.0239    10017.587   -132.92189   -655.44798    131.04715   -6821.4076 
13911000    192.71665   -9429.1488   -8694.4251   -9429.1488            0    8334.9905    24.885347    24.900778    22.804986    14131.441    7804.3543     8799.876    8400.7411    11.296934    218.37078    566.16854   -6976.6455 
13912000    194.24484   -9398.3291   -8657.7791   -9398.3291            0    8381.3809    24.846289    24.865398     22.88496    14138.623    8873.2935    7542.6326    8728.2167   -140.89637   -744.32601     -136.494   -6929.5609 
13913000    198.40185   -9393.2627   -8636.8644   -9393.2627            0    7845.1092    24.850646    24.861098    22.941252    14173.435    7994.4769    8621.9042    6918.9467    79.145759   -203.19886    65.122605    -7015.241 
13914000    191.06053   -9404.4101   -8676.0002   -9404.4101            0    7435.0106    24.836885    24.921439    22.898354    14173.415    7717.3147    6672.0192    7915.6979    84.307671   -406.99704    709.11024   -7139.1484 
13915000    195.08707   -9390.9684   -8647.2076   -9390.9684            0    8546.8996    24.897711    24.754692    22.939514     14138.43    8286.7632    8437.8001    8916.1353    452.15583   -466.61258   -419.56288   -6884.8839 
13916000    198.09509   -9375.7283   -8620.4995   -9375.7283            0     8523.228    24.778643    24.998477    22.828349    14140.526    9366.3189    7197.7372     9005.628    552.08004   -1107.2591    462.91265   -6862.7962 
13917000    189.36545    -9413.254   -8691.3066    -9413.254            0    8228.0227    24.876007     24.89374    22.848203    14148.906     7206.225    8593.3319    8884.5112   -279.66999   -1554.8064    1159.8824   -6993.4764 
13918000    198.65189   -9372.6892   -8615.3376   -9372.6892            0    8281.5316    24.893539    24.848179    22.918742    14176.597    8847.7019    7842.8729    8154.0199    21.216458   -383.24541   -97.749661   -6903.1216 
13919000    192.10903   -9372.5646   -8640.1574   -9372.5646            0    8701.1036    24.794114    24.988836    22.787892    14118.832     9405.575    7814.8681    8882.8677   -554.22083    105.82724   -750.58706   -6848.5246 
13920000    189.54778    -9383.708   -8661.0654    -9383.708            0    8337.4165    24.933446    24.839995    22.831593    14140.671    7745.4085    9361.5064    7905.3346   -556.62758   -1516.6781    287.61015   -6941.6635 
13921000    190.79068   -9387.3649   -8659.9838   -9387.3649            0    7569.3442    24.901361    24.962781    22.804394    14175.376    7113.7123    7168.0757    8426.2447   -310.83435     468.2299    288.08307   -7095.1482 
13922000    197.57568   -9406.7227   -8653.4741   -9406.7227            0    8684.3174     24.91672    24.924128     22.74964    14128.153    8048.8145    8070.9004    9933.2371    374.76963   -124.91233   -702.20135   -6864.1172 
13923000    201.52272   -9417.5363   -8649.2397   -9417.5363            0    8098.9445    24.889252    24.953058    22.770031    14141.623    7439.9126     7820.764     9036.157   -1111.8704   -607.16249    138.46812   -6978.9048 
13924000    198.72077   -9424.4562    -8666.842   -9424.4562            0    7572.5928    24.936896     24.95335    22.743428    14152.305     7175.139    6812.0465     8730.593    358.65994   -530.05263   -389.86391   -7103.8826 
13925000    192.88075   -9383.1308   -8647.7815   -9383.1308            0     9035.491    24.857887    24.898064    22.821409    14124.472    8596.2226     9327.524    9182.7263    581.38329    292.02577     285.3939   -6786.5522 
13926000    192.70782   -9402.2927   -8667.6026   -9402.2927            0    6790.7057    24.883682    25.054641    22.793281     14210.51    7300.8984    5987.3958    7083.8228    476.07702    376.53362    647.07981    -7260.258 
13927000    201.93113   -9406.8995   -8637.0459   -9406.8995            0    8831.8879    24.871269    24.871665    22.789627    14097.432     8476.442    8174.6678     9844.554   -460.71381    225.14111   -592.72442   -6821.2399 
13928000    189.28932   -9369.9393   -8648.2821   -9369.9393            0    8399.7779    24.851166    24.941664     22.83796     14155.64    8526.9529    7996.1778    8676.2028    153.57046   -237.26932    391.26079   -6914.1859 
13929000    195.24594   -9398.0603   -8653.6937   -9398.0603            0    8267.0372    24.770225    25.006239    22.861689    14160.762    9576.3846    6831.6076    8393.1194    141.75009   -121.50427     22.31888   -6946.3836 
13930000    197.08087   -9427.0178   -8675.6556   -9427.0178            0    7243.3741    24.952574    24.821217    22.878071    14169.608    6657.4086    8546.1913    6526.5224    959.55458   -534.29565   -661.56353   -7178.8182 
13931000    195.46259   -9393.9661   -8648.7735   -9393.9661            0    9700.3917    24.865619    24.891311    22.759863    14086.941    9222.0027    8821.4928     11057.68   -453.58988   -769.86569   -162.81048   -6655.8903 
13932000    191.42538   -9349.6211   -8619.8202   -9349.6211            0      9451.29    24.807861    24.910573    22.891206    14146.262    10002.098    9275.6291    9076.1425   -36.017307   -306.52148   -747.27298   -6669.9367 
13933000    193.08959   -9375.8395   -8639.6939   -9375.8395            0    9052.5355    24.886607    24.806853    22.846848    14104.693    8816.9241     9295.881    9044.8016   -74.922719   -582.79088    -649.2675   -6777.5648 
13934000    197.32129   -9398.0466   -8645.7679   -9398.0466            0    7913.2916    24.829527    24.952458    22.854749    14159.837     8169.941       6816.7    8753.2338   -494.93741    608.98804    324.46226   -7011.6202 
13935000    205.03185   -9382.4275   -8600.7526   -9382.4275            0    8906.8542    24.945757    24.878849     22.76277    14127.069     8281.252    9341.9595    9097.3511   -321.50092   -962.50065   -90.062232    -6765.684 
13936000    200.23062   -9382.5995    -8619.229   -9382.5995            0    8016.6519    24.932538    24.866841    22.864822     14176.04    7619.7396    8807.0525    7623.1635   -431.54813   -408.98609   -128.28298   -6961.8423 
13937000    196.72603   -9435.9398   -8685.9305   -9435.9398            0    7969.8397    24.827183    24.961822    22.833735     14150.79    7591.3467    7461.1282    8857.0442    314.33304    534.36973   -574.05054   -7041.1568 
13938000    198.46628   -9392.9709    -8636.327   -9392.9709            0    6662.1691    24.954661    24.941393    22.882396    14242.095    5708.0602    6500.0875    7778.3597   -469.39655    426.98865    522.79137   -7252.5521 
13939000    188.68702   -9403.8467   -8684.4857   -9403.8467            0    8840.4226     24.88789     24.82512    22.848599    14116.889    8106.3538    8832.4427    9582.4713    216.27728    89.750931    358.85495   -6864.4164 
13940000     201.4402   -9375.7754   -8607.7934   -9375.7754            0     9003.446    24.667461    25.043808    22.874787    14131.292    10225.734    7285.8625    9498.7418   -708.11017    -326.3309    99.337995   -6752.2696 
13941000    195.34456   -9384.8759   -8640.1333   -9384.8759            0    8354.7807    24.887049    24.850212    22.882773    14151.815    7937.6081     7964.113     9162.621     53.66516    349.09587   -265.91599   -6915.7926 
13942000    203.06527   -9395.7703   -8621.5929   -9395.7703            0    9109.9456    24.891926    24.821951    22.846346    14115.984    8935.5173    8588.6484     9805.671    517.31936   -43.691103   -27.952315   -6746.1543 
13943000    196.13259   -9388.3892   -8640.6423   -9388.3892            0    9320.4073    24.746481    24.946375    22.860725    14112.726    10441.026    7890.4138    9629.7818   -675.61132   -731.80451    534.84242   -6722.3195 
13944000    197.23645   -9413.3944   -8661.4391   -9413.3944            0    6676.0958    24.911169    24.873761    22.931734    14209.292    6819.3853    6356.5986    6852.3036   -87.945883   -616.51799    884.38389   -7277.9654 
13945000    189.08234   -9379.5148   -8658.6467   -9379.5148            0    7600.1392    24.862621    24.874613     22.92147    14175.739    7454.3425    8352.1088    6993.9664    298.85353    462.89938    114.08805   -7087.4045 
13946000    205.52727   -9410.1516    -8626.588   -9410.1516            0    9617.7944    24.767859    24.882175    22.845997    14079.489    9223.5532    9468.5966    10161.233   -62.089747   -885.90966   -202.11496    -6651.719 
13947000    190.37387   -9377.2022   -8651.4102   -9377.2022            0    7144.8651     24.96459     24.86153    22.882835    14202.412    5425.4817    7862.2075    8146.9062   -170.60435    193.56635    934.53481   -7171.5113 
13948000      193.346   -9371.9595   -8634.8364   -9371.9595            0    8926.2047    24.826673    24.846434    22.884865    14116.627    8292.2688    9593.0383    8893.3071   -446.78643   -34.182678   -93.381464   -6797.1404 
13949000    201.59957    -9393.795   -8625.2055    -9393.795            0    7648.5363    24.827525    24.920675    22.931897    14188.393    8960.7649    6915.1717    7069.6723   -327.19774    542.05411   -287.66441   -7042.5463 
13950000    191.39111   -9383.0362    -8653.366   -9383.0362            0    7497.5688    25.024745      24.7539    22.932201    14205.582    6680.1108    9037.0132    6775.5826    182.28416    844.79129   -253.36729   -7100.0659 
13951000    197.25409   -9370.0635    -8618.041   -9370.0635            0    8524.2413    24.835124    24.870911    22.909701    14150.684    9848.2722    7719.9908    8004.4609    218.54012   -95.328683    512.53441   -6858.8659 
13952000    194.32025   -9390.4356   -8649.5981   -9390.4356            0    9713.6311    24.739093     24.86916    22.861721    14065.456    10177.873    10227.913    8735.1073   -122.61309    285.80532    216.26077   -6657.0386 
13953000    196.53334   -9434.9214   -8685.6466   -9434.9214            0    7873.5911    24.910808     24.82165    22.893135    14155.452    7828.9718    8022.4834    7769.3181    263.30693    1001.2273    210.19699   -7060.2009 
13954000    197.46988   -9392.6583   -8639.8131   -9392.6583            0    6836.2319    24.807014    24.948607     22.96609    14213.724    7328.2361    6789.5161    6390.9436    64.045932    443.31929    44.472802   -7222.7129 
13955000    194.68859   -9411.5135   -8669.2718   -9411.5135            0    8438.5779    24.830189    24.926253    22.814329    14120.326    8271.6703    8873.3884     8170.675   -590.80289   -298.13009    1066.5469   -6931.5114 
13956000     193.2511    -9441.067   -8704.3057    -9441.067            0    8986.7338    24.895914    24.797499    22.794839    14072.539    8045.7115    9886.3227    9028.1671    291.23817   -408.10319     519.5296   -6859.9264 
13957000    186.04772   -9354.3571   -8645.0583   -9354.3571            0    7887.9442    24.921026    24.930592    22.818718    14177.177    8313.4672    6241.9283    9108.4372    29.882275   -77.978497   -62.167007   -7014.1503 
13958000    194.34328   -9397.0545   -8656.1292   -9397.0545            0    7324.8467    24.827533    24.999924    22.916505    14223.964    8525.6761    5817.5167    7631.3472    583.16477    193.62173    513.61053    -7136.649 
13959000    192.74012   -9352.1659   -8617.3527   -9352.1659            0    9264.3513    24.840147    24.851803    22.883883    14126.735     9029.079    9327.3252    9436.6498   -347.92892    -97.70928     1417.293   -6708.6745 
13960000    196.62521   -9391.0914   -8641.4664   -9391.0914            0    8230.6792    24.871338    24.769019    22.951187    14138.819    8005.1697    9116.8798    7569.9882    428.58041   -142.55288    240.66523   -6944.2989 
13961000    200.76699   -9389.3171   -8623.9018   -9389.3171            0    9175.0495    24.793493    24.891224    22.881569     14121.14    8986.3706    8640.4012    9898.3769   -618.27532   -835.46121   -214.21953   -6734.3705 
13962000    194.20373   -9391.8545   -8651.4613   -9391.8545            0    8361.6816    24.844694    24.852418    22.911196    14146.535    8585.4629    8564.2054    7935.3766    548.59397    821.72958    722.72479   -6926.3403 
13963000    193.13267   -9401.5888    -8665.279   -9401.5888            0    8018.0935    24.945089    24.808287    22.911482    14178.654    7983.5138    7847.5111    8223.2555   -515.15537   -343.49249    1169.5141   -7007.2886 
13964000    195.23285   -9385.8123   -8641.4956   -9385.8123            0     7737.504    24.743544    25.049553    22.894699    14190.471    8676.2395    7110.4823    7425.7901    384.75334    606.98625    1187.6446   -7040.1924 
13965000    196.61897   -9414.4376   -8664.8365   -9414.4376            0    8593.3743    24.854841    24.927961    22.805571    14129.887    9067.1082    8754.6706    7958.3442   -571.91471   -3.4351257    185.31792   -6894.0005 
13966000    191.52688   -9401.2096   -8671.0218   -9401.2096            0    8030.5464     24.89766    24.911491    22.819305    14153.396    7606.5566    7482.0921    9002.9904   -267.11246    472.38067   -153.87302   -7013.4145 
13967000    196.79653   -9384.5911    -8634.313   -9384.5911            0    7905.4619    24.930693    24.843606    22.907357    14188.091    7195.9071    8355.1466    8165.3319   -836.69879    72.093675    990.65357   -6998.5247 
13968000    200.24799   -9407.9154   -8644.4787   -9407.9154            0    8793.0256    24.744099    24.946555    22.883584     14125.58    9677.7403    8010.4067    8690.9298    402.59389   -312.32973    401.24147   -6833.0531 
13969000    194.36934   -9426.4414   -8685.4168   -9426.4414            0    7148.1096     24.80622     24.91933    22.967055    14197.186     7874.116    6736.0256    6834.1872   -19.714284    496.04538    162.94613   -7205.3908 
13970000    197.24788    -9405.902   -8653.9032    -9405.902            0    8237.2493    24.923929    24.778891     22.90138    14143.602    8113.3463    8816.1915    7782.2102    329.29258    162.75775   -316.69279   -6954.8063 
13971000    193.42611   -9381.9915    -8644.563   -9381.9915            0    9688.2147    24.848909    24.859478    22.821088    14097.291     9280.775    10017.822    9766.0467    454.14975    929.65654    970.25221    -6652.719 
13972000    190.06346   -9395.6257   -8671.0172   -9395.6257            0    7815.2853    24.795724     24.95096    22.919117    14179.533    7828.3698    7483.4171    8134.0689    125.26891    1022.9831    163.62084   -7054.8635 
13973000    202.88697   -9420.3775   -8646.8798   -9420.3775            0    9383.3736    24.903243    24.759229     22.85836    14094.125     8088.709    9900.1264    10161.286    81.435014   -311.69937   -180.11601   -6718.1429 
13974000    203.02825   -9367.0614   -8593.0251   -9367.0614            0     8678.764    24.868765      24.8868    22.867051    14152.509    9326.9666    8209.7722    8499.5532   -272.25221    243.29555    15.294273   -6801.7297 
13975000    195.55924   -9409.0629   -8663.5018   -9409.0629            0    8904.8527    24.789327    24.966038    22.791573    14105.506    8567.2144    8996.1688    9151.1749    166.32416   -309.55167    396.14985    -6831.646 
13976000    195.10684   -9384.6913   -8640.8551   -9384.6913            0    9552.1763    24.914403    24.809228    22.791362    14087.503    9089.5355    10686.585    8880.4087    246.95632    -633.4464    626.48307   -6678.3434 
13977000    200.23869   -9392.0857   -8628.6845   -9392.0857            0    7658.2492    24.910464    24.914134    22.849392     14180.85    8254.3324    6953.2088    7767.2063   -450.44486    461.85386    633.84011   -7044.8578 
13978000    198.02781   -9380.8912   -8625.9188   -9380.8912            0    8139.1909    24.948094    24.932302     22.77925    14168.999    6975.2924    7955.0005    9487.2796   -659.92912   -585.03263    657.16162   -6944.0338 
13979000     193.4355   -9403.5977   -8666.1334   -9403.5977            0    8112.6676    24.820525    24.940737    22.851397    14145.978    8902.4228    7030.4503    8405.1296   -605.24719   -4.8122139   -3.6495506   -6992.4529 
13980000    194.83096   -9378.6963   -8635.9118   -9378.6963            0    8252.8276    24.893591     24.89804    22.825153    14147.067    8018.3468    7961.1228    8779.0133    100.12252     616.4878   -879.87774   -6933.1847 
13981000    197.36432   -9373.4672   -8621.0244   -9373.4672            0    7765.5543     24.92641    24.799115    22.986589    14209.227    6874.0718      9253.41    7169.1812   -298.59417   -687.71239   -170.79189   -7011.7918 
13982000    194.14697    -9379.612   -8639.4352    -9379.612            0    7461.3831    24.812723    24.894652    22.983148    14196.785    7275.4789    7803.3119    7305.3586    859.34432   -1074.9691   -320.54408   -7094.5891 
13983000    197.69763   -9376.7956   -8623.0821   -9376.7956            0    8098.2959    24.797014    24.831641      22.9995    14161.955    9220.1025    8627.6197    6447.1654    471.63416   -45.600216     257.8558   -6950.4796 
13984000    196.22512   -9374.8497     -8626.75   -9374.8497            0    9550.5841    24.830667    24.828389    22.869385    14099.101    9441.4263    9240.6899    9969.6362    232.53065    145.43104   -185.57052   -6662.9501 
13985000    199.19537   -9424.2702   -8664.8466   -9424.2702            0    8388.6814     24.86325    24.884997    22.864972    14147.059    8454.6283    8161.2829    8550.1332   -918.00115   -214.26172    152.35806   -6934.0909 
13986000    198.51414   -9392.0267   -8635.2002   -9392.0267            0    7782.0832    24.800537     25.01032    22.841604    14167.947    7711.9739    8065.0417    7569.2341   -760.68478   -546.94548     20.43978   -7027.2275 
13987000    193.51755   -9393.7009   -8655.9238   -9393.7009            0    8191.6524    24.988827    24.848965    22.763872    14135.146    6545.3916    8782.4155    9247.1501    268.25357   -574.95808    343.94673   -6967.2424 
13988000    197.23923   -9350.2329    -8598.267   -9350.2329            0     8780.143    24.825999    24.919459    22.885715    14158.258    10013.778    7493.0431    8833.6076   -595.18234   -260.19463     17.69166   -6785.3109 
13989000    194.68119   -9385.7529   -8643.5394   -9385.7529            0    7559.6521    24.819064    24.977226    22.904017    14198.461    6619.0962    8040.7039    8019.1562   -318.71091   -239.75107   -445.50506   -7078.1624 
13990000    200.12275   -9377.6461   -8614.6869   -9377.6461            0    9184.1071    24.809289    24.738506      23.0183    14127.361     8624.311     10930.95      7997.06   -410.37738     330.4139    1027.1547   -6722.4571 
13991000    193.90846   -9367.6581   -8628.3906   -9367.6581            0    9108.9534    24.782073    24.839034    22.945836    14124.602    9637.2351    8485.8996    9203.7254   -703.01576   -417.27115    804.07374   -6752.0115 
13992000    201.31831   -9379.7668   -8612.2496   -9379.7668            0    10012.378    24.773421    24.808544    22.922448    14087.964    9700.7947    10114.394    10221.945    205.16495    429.97568    168.58539   -6555.1214 
13993000    195.67874   -9395.1763   -8649.1597   -9395.1763            0    8157.8523    24.802257    24.808553    23.023336    14166.446    8546.5713    7880.2801    8046.7055   -328.82551    533.54587    670.95386   -6963.7223 
13994000    191.42322   -9400.4823   -8670.6897   -9400.4823            0    7232.6588    24.746302    24.872991    23.061255    14194.538    8850.0319    6255.1661    6592.7782   -136.55349   -813.42314    354.52013   -7173.4369 
13995000    197.29198   -9396.9785   -8644.8115   -9396.9785            0    8441.6259    24.857379    24.801928    22.977023    14165.585    7993.9356    8898.0125    8432.9295   -45.060841    290.79039   -76.697849   -6900.8515 
13996000    196.51407   -9408.3719   -8659.1707   -9408.3719            0    8960.4857    24.771912    24.832153    22.940231    14111.452    9622.2268    9125.4972    8133.7331    635.33311   -352.28822   -878.68536   -6815.0933 
13997000    199.27609    -9367.451   -8607.7197    -9367.451            0    8267.7267    24.715476    24.910749    23.003728    14162.959    9796.0772    7469.9025    7537.2003    124.08064    294.94026    870.79352   -6900.0023 
13998000     186.9781   -9386.4784   -8673.6326   -9386.4784            0    9119.6239    24.847939    24.741311    22.962337    14116.569    9722.0591     9384.243    8252.5696   -5.2425937   -276.34478    363.30007   -6796.1238 
13999000    192.21001   -9430.6759   -8697.8836   -9430.6759            0    8209.8428     24.72697    24.867131    22.987109    14134.515    8075.7971    8758.5105    7795.2207   -38.704716   -557.23573    13.328677   -7005.5279 
14000000    200.37911   -9384.9099   -8620.9733   -9384.9099            0    9311.9897     24.81468    24.862347    22.881429    14116.725    8696.8853    8897.0524    10342.031    -357.8478   -236.57793    722.53538     -6703.84 
Loop time of 491.76 on 64 procs for 250000 steps with 1920 atoms

Performance: 87.848 ns/day, 0.273 hours/ns, 508.378 timesteps/s
385.8% CPU use with 16 MPI tasks x 4 OpenMP threads

MPI task timing breakdown:
Section |  min time  |  avg time  |  max time  |%varavg| %total
---------------------------------------------------------------
Pair    | 75.506     | 76.984     | 78.731     |   9.9 | 15.65
Bond    | 1.4633     | 1.6839     | 2.0986     |  10.6 |  0.34
Kspace  | 238.82     | 243.72     | 248.51     |  17.7 | 49.56
Neigh   | 2.1965     | 2.3621     | 2.564      |   8.7 |  0.48
Comm    | 63.339     | 67.805     | 72.105     |  35.3 | 13.79
Output  | 0.75285    | 0.75319    | 0.7551     |   0.1 |  0.15
Modify  | 75.053     | 83.539     | 87.529     |  34.1 | 16.99
Other   |            | 14.91      |            |       |  3.03

Nlocal:        120.000 ave         127 max         116 min
Histogram: 2 2 3 2 5 1 0 0 0 1
Nghost:        4167.38 ave        4217 max        4120 min
Histogram: 2 0 4 0 3 1 0 3 2 1
Neighs:        43050.2 ave       45469 max       41440 min
Histogram: 1 3 3 1 3 3 1 0 0 1

Total # of neighbors = 688804
Ave neighs/atom = 358.75208
Ave special neighs/atom = 2.0000000
Neighbor list builds = 5207
Dangerous builds = 0

unfix		3
unfix		2
unfix		1

write_data	data.final.${pid}
write_data	data.final.0
System init for write_data ...
PPPM initialization ...
  extracting TIP4P info from pair style
  using 12-bit tables for long-range coulomb (../kspace.cpp:340)
  G vector (1/distance) = 0.37478043
  grid = 30 30 30
  stencil order = 5
  estimated absolute RMS force accuracy = 0.0032333549
  estimated relative force accuracy = 9.7371522e-06
  using double precision FFTW3
  3d grid and FFT values/proc = 7920 1800
Last active /omp style is kspace_style pppm/tip4p/omp
WARNING: Not all mixed pair coeffs generated from mixing. Use write_data with 'pair ij' option to store all pair coeffs. (../write_data.cpp:312)

write_restart   restart.lmp.${pid}
write_restart   restart.lmp.0
System init for write_restart ...
PPPM initialization ...
  extracting TIP4P info from pair style
  using 12-bit tables for long-range coulomb (../kspace.cpp:340)
  G vector (1/distance) = 0.37478043
  grid = 30 30 30
  stencil order = 5
  estimated absolute RMS force accuracy = 0.0032333549
  estimated relative force accuracy = 9.7371522e-06
  using double precision FFTW3
  3d grid and FFT values/proc = 7920 1800
Last active /omp style is kspace_style pppm/tip4p/omp
Total wall time: 0:08:11
