LAMMPS data file via write_data, version 30 Jul 2021, timestep = 19500000

864 atoms
2 atom types
576 bonds
1 bond types
288 angles
1 angle types

0.735788107792958 17.47178429219692 xlo xhi
1.9581924713037342 21.67098532868637 ylo yhi
0.8976597728959987 21.31553602710137 zlo zhi

Masses

1 1.00794
2 15.9994

Pair Coeffs # lj/cut/tip4p/long/omp

1 0 0
2 0.21084 3.1668

Bond Coeffs # harmonic/omp

1 450 0.9572

Angle Coeffs # harmonic/omp

1 55 104.52

Atoms # full

237 1 1 0.5897 0.7360546307132401 4.565192221562091 1.6398756816621227 -1 -9 -4
346 1 2 -1.1794 4.0632209243915565 4.641122122977244 1.6984092010323 -6 4 -2
754 1 2 -1.1794 1.7909508102776217 4.312507440131608 3.2298636908185117 -6 3 -12
347 1 1 0.5897 3.2342309083486573 4.403035013729721 2.1135848899841827 -6 4 -2
111 1 1 0.5897 2.2082063335233437 2.0910513255239556 5.667981601287651 -2 3 -9
756 1 1 0.5897 1.6103547108130332 3.3743801334896335 3.289601113525141 -6 3 -12
708 1 1 0.5897 3.6346692276103942 4.799679432942522 5.946949193313431 -3 -4 -10
707 1 1 0.5897 2.3599695589712653 5.616372187748754 5.933945759389914 -3 -4 -10
755 1 1 0.5897 2.221265841024953 4.527245868184316 4.057500486824165 -6 3 -12
706 1 2 -1.1794 2.693227629868174 4.731003966201458 5.7878759931225625 -3 -4 -10
221 1 1 0.5897 4.918946928493198 6.081032553648384 4.806507641539609 -4 -1 6
666 1 1 0.5897 1.6856398106575308 6.580187891121092 1.0748553625326625 2 -1 1
511 1 2 -1.1794 2.055325777807698 3.829454780363755 8.34483922057451 -7 7 -1
190 1 2 -1.1794 4.111539585222577 4.4137181789168185 10.13985346701872 2 5 -10
513 1 1 0.5897 1.9902435606846436 2.955106387857132 7.960703510176623 -7 7 -1
799 1 2 -1.1794 1.9298186204068188 6.66633442642252 8.476013880289713 6 -5 2
512 1 1 0.5897 2.391163912100221 4.3784985366373 7.636292237434328 -7 7 -1
191 1 1 0.5897 3.73100973919639 5.115635314424873 10.667855255966971 2 5 -10
801 1 1 0.5897 2.815354794073304 6.87806947718359 8.180503171034626 6 -5 2
192 1 1 0.5897 3.427198576801805 4.189909162899863 9.509096673489674 2 5 -10
330 1 1 0.5897 4.875678185082666 1.973398712857148 8.468232438819719 4 8 -2
544 1 2 -1.1794 4.587381775208982 6.482046011277246 7.8826040344617025 -3 5 7
842 1 1 0.5897 4.872198607845926 2.8022859313835813 10.606901938769843 -11 1 -6
186 1 1 0.5897 0.8555992466220524 5.559817258352167 7.492453940757923 -3 7 6
800 1 1 0.5897 1.955906901785502 6.795630267416166 9.424108443465363 6 -5 2
546 1 1 0.5897 4.91860008140081 6.012809356741516 8.64835766808522 -3 5 7
390 1 1 0.5897 3.1235891129768345 1.9607907723055336 14.050493397820881 4 9 2
464 1 1 0.5897 1.98302472929966 2.6494715969449985 12.696656317555606 6 7 3
388 1 2 -1.1794 3.471989352347068 2.768143801841529 13.672249405371605 4 9 2
465 1 1 0.5897 0.9183886367263844 2.927772948881752 11.656906275442063 6 7 3
389 1 1 0.5897 3.132570409531555 3.4632940873985456 14.236054900609117 4 9 1
463 1 2 -1.1794 1.1792691091491512 2.289886523221727 12.321223477271472 6 7 3
218 1 1 0.5897 4.711645977378566 4.8305197135603395 13.757836524665448 4 0 -6
391 1 2 -1.1794 1.3098780523643352 5.258443633711117 12.977162975381523 5 -1 1
677 1 1 0.5897 1.7481929673422472 3.8151822653482794 15.699826542989422 -1 6 -9
219 1 1 0.5897 4.507563608770834 6.255405142367365 14.226913725583204 4 0 -6
678 1 1 0.5897 1.9669294643142694 5.004229776781866 14.788614177552557 -1 6 -9
86 1 1 0.5897 2.041695754300744 6.1898393237204745 11.68759152564363 -4 0 -2
217 1 2 -1.1794 4.71911472589052 5.737030681450367 13.450509132093005 4 0 -6
676 1 2 -1.1794 2.4144585753439753 4.4442284582441385 15.422950937497138 -1 6 -9
233 1 1 0.5897 0.7672886729484432 6.65166454690565 16.198267092916154 -4 -4 0
781 1 2 -1.1794 3.3736183386843637 3.439647526594542 17.72186493665335 -6 -1 0
782 1 1 0.5897 3.8424996944224796 2.6158698823114075 17.58838636920297 -6 -1 0
144 1 1 0.5897 1.7634387776672535 3.5478185845017967 20.514165958336655 -9 3 8
142 1 2 -1.1794 2.5692245791348465 3.082687211418511 20.289143274887643 -9 3 8
29 1 1 0.5897 4.140296281575365 6.212786289676841 16.287768010509367 -9 5 7
143 1 1 0.5897 2.841112017692832 3.4637419740816315 19.45419363656625 -9 3 8
348 1 1 0.5897 4.060144400050042 4.1668016978430895 21.284848134806026 -6 4 -3
543 1 1 0.5897 2.797313298078582 5.097599045861067 18.46506272373144 -10 4 9
542 1 1 0.5897 1.3239692388765705 5.393997446754758 18.647864073975448 -10 4 9
541 1 2 -1.1794 2.190587252879041 5.7952767499068685 18.712866336472835 -10 4 9
783 1 1 0.5897 3.1880724708775636 3.7561527719825305 16.837741835096338 -6 -1 0
467 1 1 0.5897 4.641162532957231 6.381822390431618 19.437362696306188 3 -2 8
361 1 2 -1.1794 2.081006194810106 7.494325328151661 5.545666646719205 8 -5 0
664 1 2 -1.1794 2.2938978296939556 7.201324984678773 1.4754667793423106 2 -1 1
351 1 1 0.5897 0.9812910909583159 10.813318351243241 4.824214750055097 -8 5 -5
129 1 1 0.5897 2.086704330440622 9.322051764114072 1.1570368665273865 2 -2 -3
407 1 1 0.5897 3.6120870783077574 10.004234510778922 5.03076850259538 -8 -4 5
406 1 2 -1.1794 3.8188746416031787 9.70520161385608 4.145269060373174 -8 -4 5
363 1 1 0.5897 1.8279838100780357 8.415760841029892 5.489061980329412 8 -5 0
225 1 1 0.5897 3.9726485897296366 11.672343336866719 1.4435271037664381 8 -2 -9
362 1 1 0.5897 2.465560756220192 7.298127728356992 4.69133026455755 8 -5 0
394 1 2 -1.1794 3.9569393544693177 7.048730608122284 3.66785921641219 10 0 5
395 1 1 0.5897 4.026107341426021 7.994606391802351 3.7974801747183333 10 0 5
408 1 1 0.5897 4.558795961646284 10.249029489853383 3.8749742022816984 -8 -4 5
396 1 1 0.5897 3.3630689858428027 6.9512946221613285 2.9234841145166337 10 0 4
224 1 1 0.5897 4.7889442821493144 10.414343079885422 1.2357665079521551 8 -2 -9
66 1 1 0.5897 0.8721417849325791 8.045768145170285 2.6318727107120345 2 5 -3
360 1 1 0.5897 0.8185820284269676 11.344847214674285 1.674682255488291 5 -2 2
848 1 1 0.5897 4.718830822161284 7.467159052845177 10.678029892066524 1 4 5
214 1 2 -1.1794 3.9169570877554722 9.592980759675623 7.073228541127498 2 -8 -3
540 1 1 0.5897 1.1568098738248607 8.33809176637924 8.5188463494984 2 1 4
332 1 1 0.5897 2.7471916175263518 11.142502465061666 7.514398457532352 -2 -2 1
449 1 1 0.5897 3.4137749152155967 10.250586242388684 10.261174331243643 8 -5 0
215 1 1 0.5897 3.790666502719285 9.580219005668226 8.022000772276172 2 -8 -3
450 1 1 0.5897 4.779361413194469 9.894455674135175 9.713124383341727 8 -5 0
448 1 2 -1.1794 3.8880750340760337 9.557009268713822 9.802619710727834 8 -5 0
333 1 1 0.5897 1.4762786725139692 10.67118005950589 8.188688101801194 -2 -2 1
331 1 2 -1.1794 1.9579172413140413 11.463424453669923 7.950684119804817 -2 -2 1
216 1 1 0.5897 3.5901415157473733 8.743725950857886 6.77617167361196 2 -8 -3
785 1 1 0.5897 4.522357282244341 9.448777005132168 15.131077392475156 5 6 6
762 1 1 0.5897 2.4759502550080628 10.741621453651396 15.194897648690729 -3 -7 -3
760 1 2 -1.1794 2.588454484993828 9.827709347918804 15.45647933599894 -3 -7 -3
326 1 1 0.5897 3.0606489650193747 9.632864252613729 12.395004555334046 0 -4 -2
87 1 1 0.5897 2.6046635630440553 7.590116391623125 11.807547666426132 -4 0 -2
325 1 2 -1.1794 3.1381324046169716 8.808276996186308 12.87505623498821 0 -4 -2
327 1 1 0.5897 2.9726146681239993 9.045357364233599 13.787575329813148 0 -4 -2
761 1 1 0.5897 1.7057290852635074 9.53111398195777 15.67806184083569 -3 -7 -3
232 1 2 -1.1794 1.3425667536123733 7.196843524657131 15.661512978692445 -4 -4 0
28 1 2 -1.1794 3.9607952092715464 6.943722124108325 15.696339184238195 -9 5 7
659 1 1 0.5897 1.675878507317346 11.801309080975637 11.233763962362096 2 6 -3
658 1 2 -1.1794 2.429928559325541 11.305106119887363 11.552324086220281 2 6 -3
234 1 1 0.5897 0.8417070077265864 7.359789250978236 14.862225612484133 -4 -4 0
30 1 1 0.5897 3.007674412950597 7.031678561284349 15.705900089150417 -9 5 7
85 1 2 -1.1794 2.3683689609997467 6.9217871149285495 11.16428634588738 -4 0 -2
223 1 2 -1.1794 4.2856533985170495 11.076914902714686 21.180379305272698 8 -2 -10
501 1 1 0.5897 2.7593786553268798 10.399265134378654 17.937384689048177 -1 2 -6
530 1 1 0.5897 1.6805585259651634 7.737339073091246 18.737107710920938 0 1 -5
529 1 2 -1.1794 0.995206405040638 8.398068671217612 18.83709085343821 0 1 -5
240 1 1 0.5897 0.8771801142560359 10.865095212193086 17.222211094091797 -6 -2 4
376 1 2 -1.1794 4.69543057695374 7.7920983096152545 20.597504491754997 3 -1 -2
127 1 2 -1.1794 1.8533962692478094 9.880436653353442 20.833256315107853 2 -2 -4
775 1 2 -1.1794 4.117358554945378 8.490182367991675 18.191205300099703 8 -2 1
377 1 1 0.5897 4.4524256289276245 8.116684323493008 19.73040180115507 3 -1 -2
777 1 1 0.5897 3.7513380551828686 7.7887587555782485 17.652407391577256 8 -2 1
499 1 2 -1.1794 2.541582111121307 11.306658947838017 18.150617263874363 -1 2 -6
531 1 1 0.5897 1.3407377050244504 9.00510180924832 19.491633558014758 0 1 -5
776 1 1 0.5897 4.876362755651788 8.800820746244199 17.697560475989565 8 -2 1
128 1 1 0.5897 2.6745824720524243 10.30501024421116 20.584863288903612 2 -2 -4
500 1 1 0.5897 3.3224832574402745 11.804268992818008 17.90803861137751 -1 2 -6
665 1 1 0.5897 3.0326638087532736 7.239548718421573 21.285854577041103 2 -1 0
681 1 1 0.5897 2.9449641729051197 12.778933771618131 3.3776919881366094 1 -4 4
680 1 1 0.5897 2.73316284086534 13.558283443762583 2.0971696806733555 1 -4 4
714 1 1 0.5897 4.525409936139371 13.955957864082997 3.4150417357960254 -2 -3 5
679 1 2 -1.1794 3.3104441269151605 12.911498496499101 2.502982166364414 1 -4 4
176 1 1 0.5897 1.9190104889086972 13.203527375070363 5.401569210926968 3 -4 5
422 1 1 0.5897 3.4767893834950705 15.870439057122756 4.89401234102659 -2 -5 3
272 1 1 0.5897 4.655015508025963 15.549819135200893 2.2324751909397653 -2 -5 4
712 1 2 -1.1794 4.846702941999692 14.807729328381697 3.7109327822734173 -2 -3 5
177 1 1 0.5897 1.1273276746509842 13.160513877635191 4.111845351596744 3 -4 5
16 1 2 -1.1794 1.7265201001255885 14.743005195533808 1.1837436986046155 -7 11 4
175 1 2 -1.1794 1.6566616453602256 12.615025847788754 4.693674188852381 3 -4 5
271 1 2 -1.1794 4.686105732280136 16.089356415131093 1.442409789834818 -2 -5 4
763 1 2 -1.1794 4.183599204271216 12.595290375358728 6.460372773046008 -5 1 -10
172 1 2 -1.1794 3.543902796171328 16.52679976371094 8.701501325753362 9 5 4
5 1 1 0.5897 1.0001698842529319 14.664288119913875 8.756188864620185 -1 2 -3
757 1 2 -1.1794 2.1227275091098203 14.34210717769588 7.090174604862572 1 4 3
262 1 2 -1.1794 4.242521998093542 12.534159302392155 9.396342788080043 -6 2 6
6 1 1 0.5897 1.4170146183745684 15.641364206851062 9.83491560427732 -1 2 -3
114 1 1 0.5897 3.579803870036289 13.782012408117259 10.408348723563243 4 -6 0
759 1 1 0.5897 2.7301003098646497 15.074642248372191 7.193978841198495 1 4 3
758 1 1 0.5897 2.6411198185340297 13.567712448768624 7.308998839929644 1 4 3
264 1 1 0.5897 3.4127772847105073 12.091374957644616 9.218031391001812 -6 2 6
174 1 1 0.5897 3.4158246633523963 15.81464378083692 9.32815860378366 9 5 4
112 1 2 -1.1794 3.111771271606821 14.576428341644734 10.665574210733942 4 -6 0
765 1 1 0.5897 4.867040818751766 11.925667854042983 6.431798176364359 -5 1 -10
764 1 1 0.5897 4.642991536197606 13.39648817275302 6.711985193979149 -5 1 -10
263 1 1 0.5897 4.878420961461828 11.824546097196784 9.48780712265132 -6 2 6
27 1 1 0.5897 2.373473459816723 15.353693146427794 13.499784850588355 3 4 2
660 1 1 0.5897 3.1058327322563097 11.965963897618048 11.7029491778753 2 6 -3
656 1 1 0.5897 1.6155661177886071 13.438406837984532 13.968932916988615 -4 0 -2
26 1 1 0.5897 3.6753519348234005 15.91369848994598 14.03226379993364 3 4 2
827 1 1 0.5897 3.3493111842135894 12.553051684638605 14.343842202538198 -5 -1 3
826 1 2 -1.1794 2.6535334706530764 12.539476578550264 15.001117385904589 -5 -1 3
828 1 1 0.5897 3.1112568858890297 12.629278422984315 15.837018257284353 -5 -1 3
113 1 1 0.5897 3.0042796597992854 14.495403410046004 11.613284319449603 4 -6 0
655 1 2 -1.1794 1.148256283722245 14.07323882024016 13.425881071316393 -4 0 -2
25 1 2 -1.1794 3.008081481567458 16.05675542955872 13.361016350008995 3 4 2
253 1 2 -1.1794 4.350410659541423 12.984651275412682 12.76371384228239 -1 3 -3
434 1 1 0.5897 4.610374071980617 14.646323025977555 15.78384825173747 -5 -1 -5
653 1 1 0.5897 4.594547312644229 15.933447732382817 12.436091451860095 -4 2 2
255 1 1 0.5897 4.886487879028946 13.472316529234753 13.389081077214916 -1 3 -3
379 1 2 -1.1794 3.2466771916506447 15.32254117630588 16.877299224987738 10 -1 -1
171 1 1 0.5897 4.389869098510447 13.32022400069369 20.56660185247054 -2 0 -4
381 1 1 0.5897 3.2295527659992 16.176910831758434 16.44599127791104 10 -1 -1
18 1 1 0.5897 1.9808867517849436 15.586629879626253 21.227631306066613 -7 11 3
575 1 1 0.5897 1.2417788621613055 12.642100621897713 18.862693843990538 -4 4 -4
17 1 1 0.5897 1.4228027486235182 14.230219112323258 20.852562008802025 -7 11 3
170 1 1 0.5897 4.3337363546626655 14.833118662924992 20.56948110446606 -2 0 -4
380 1 1 0.5897 2.357311411907462 14.983859494798786 16.774336111373632 10 -1 -1
510 1 1 0.5897 2.9363738045628702 16.002654384990947 18.894686170319428 -1 3 0
415 1 2 -1.1794 4.874551476577197 12.588084734560729 17.46063923559905 7 -5 2
508 1 2 -1.1794 2.5631640955014596 16.609786462943262 19.533757022119264 -1 3 0
169 1 2 -1.1794 4.342494566231282 14.07705400437399 19.982444231047428 -2 0 -4
324 1 1 0.5897 1.8343755695349448 17.750988064073756 1.8484934460384568 13 1 -11
315 1 1 0.5897 1.93076343582606 19.280730010258587 5.543896646762217 -4 -3 -3
258 1 1 0.5897 2.952373152392003 21.550450231234052 2.8847269590912497 6 -4 0
180 1 1 0.5897 1.2157392198938048 20.662761009521404 3.6515029597593482 -4 6 -1
109 1 2 -1.1794 3.109192919370746 21.498033436520252 5.772767111188974 -2 2 -9
322 1 2 -1.1794 2.605729159160226 18.29867428699874 1.9945478166393509 13 1 -11
313 1 2 -1.1794 1.4566093985636135 19.138774475640005 4.724561889325292 -4 -3 -3
323 1 1 0.5897 2.523641502508712 18.59169123139882 2.902131263363357 13 1 -11
273 1 1 0.5897 4.174609395569821 16.867775545754185 1.663097611699061 -2 -5 4
3 1 1 0.5897 4.909636339865467 17.476625790544304 4.670716339195144 -3 -4 11
314 1 1 0.5897 0.9954786977746117 18.310092517639625 4.854610608439613 -4 -3 -3
178 1 2 -1.1794 1.156886028754468 21.37607853011768 3.015892057791535 -4 6 -1
256 1 2 -1.1794 3.8737315614034062 21.581956105297344 3.1424389647424906 6 -4 0
421 1 2 -1.1794 3.313699599030449 16.809009656893103 4.987766204841475 -2 -5 3
179 1 1 0.5897 0.8697747909806769 20.95325280398957 2.2065250350553223 -4 6 -1
257 1 1 0.5897 3.858155615188641 21.517914494188595 4.097386904443107 6 -4 0
423 1 1 0.5897 2.4215387127523886 16.931173976376122 4.663125895963717 -2 -5 3
107 1 1 0.5897 1.2998884212273456 18.19350253497054 7.735056837275203 -1 -7 -4
76 1 2 -1.1794 0.9696205236058182 20.864615107561775 7.899565743814385 2 0 -3
106 1 2 -1.1794 2.1897065096811663 18.42133287703188 7.465612806110747 -1 -7 -4
534 1 1 0.5897 4.816914386170458 20.053530513423354 6.966410069834999 -10 -3 -5
77 1 1 0.5897 1.4822927891615274 20.062097178777805 7.802405514468013 2 0 -3
108 1 1 0.5897 2.717875451867323 17.663403682009992 7.716351505479526 -1 -7 -4
173 1 1 0.5897 3.875728510561944 17.253612970622733 9.228694333642629 9 5 4
328 1 2 -1.1794 4.024493998969916 21.289102357253128 8.28357810125512 4 7 -2
110 1 1 0.5897 3.289047277657539 21.59708916655061 6.707718473912896 -2 2 -9
329 1 1 0.5897 3.6697765527398327 21.07023719468772 9.145324078382377 4 7 -2
97 1 2 -1.1794 2.783646162910442 20.233394324873117 10.624074671954668 6 -7 6
99 1 1 0.5897 2.526702599149022 19.31150859399797 10.6437980583202 6 -7 6
517 1 2 -1.1794 1.9450264920011582 17.606523969412464 10.848069808123828 4 0 -1
24 1 1 0.5897 4.680835568559724 19.576500060181395 9.23239744772372 -1 -2 2
518 1 1 0.5897 1.1107700052966392 17.85843711908014 11.244082000513798 4 0 -1
303 1 1 0.5897 2.1864264552877675 18.58947660711759 14.409875930832243 2 3 3
740 1 1 0.5897 4.28867022210617 19.03499849118605 13.04494798746112 5 -3 4
302 1 1 0.5897 2.699988020324917 19.984993760182952 14.694151435252493 2 3 3
515 1 1 0.5897 3.3564972725500217 18.150033063254398 15.677416197850265 0 -15 1
45 1 1 0.5897 1.0029239376497419 21.132718662178284 15.424135071645381 -2 13 -2
301 1 2 -1.1794 2.8783975145497904 19.205230285549618 14.168379457303761 2 3 3
514 1 2 -1.1794 4.079370776006842 17.731644974071564 16.145056192045622 0 -15 1
519 1 1 0.5897 2.3844242781516707 17.088963921993717 11.522854787945187 4 0 -1
670 1 2 -1.1794 1.2161429498295555 17.69631266857683 15.669329487281427 9 2 0
43 1 2 -1.1794 1.8899888391608908 21.20596098383423 15.776299979395102 -2 13 -2
98 1 1 0.5897 2.1891044388686156 20.661471789587324 11.240148981525252 6 -7 6
843 1 1 0.5897 4.552481413605692 21.130356602343 11.128767107866642 -11 0 -6
516 1 1 0.5897 4.794935655228328 17.708643113520917 15.509640685944166 0 -15 1
482 1 1 0.5897 1.8885466304285912 19.916287017667585 18.9233785372659 2 7 -4
481 1 2 -1.1794 1.4343353304292106 19.974898915729078 18.08280358808667 2 7 -4
771 1 1 0.5897 4.692920640862441 17.801527469866734 17.788855033812382 7 -6 2
733 1 2 -1.1794 2.7936989368137337 20.063625200137302 20.389568611352324 -1 -3 -7
735 1 1 0.5897 2.7308513659976335 21.001746956677856 20.56914792478823 -1 -3 -7
44 1 1 0.5897 1.837462785973098 20.8056303551173 16.644200387671894 -2 13 -2
734 1 1 0.5897 2.6044365635885782 19.64529450018987 21.229481181736716 -1 -3 -7
509 1 1 0.5897 3.2162321112991523 17.305021034651894 19.614184865249836 -1 3 0
559 1 2 -1.1794 4.903729292398227 20.68631725887495 17.313345298198257 -1 5 3
336 1 1 0.5897 4.466816033357102 20.47270678282593 20.58374626678824 4 -3 1
671 1 1 0.5897 1.1332964843708022 17.60086411690115 16.61817701408976 9 2 0
561 1 1 0.5897 4.825658203817088 20.06590887172404 18.03809747854566 -1 5 3
483 1 1 0.5897 0.7385073109184859 20.615545898982262 18.23015862591929 2 7 -4
62 1 1 0.5897 5.540460823881868 3.768634545698407 2.168851310694122 -10 0 6
12 1 1 0.5897 8.087899435656862 2.375003985787469 1.8205718066458925 2 5 4
121 1 2 -1.1794 8.07414268330362 5.635505558944448 4.687746527944377 1 2 6
10 1 2 -1.1794 8.598760552827347 2.1894680023518736 1.032596189836227 2 5 4
122 1 1 0.5897 7.806393193079461 6.526286383847645 4.461653334771496 1 2 6
628 1 2 -1.1794 6.114178068691407 2.4591263587509187 5.21599863418471 -4 0 -4
123 1 1 0.5897 7.299175241131843 5.2479239550140235 5.094530839803312 1 2 6
63 1 1 0.5897 6.085831354674844 3.51842929954693 3.5587977072590613 -10 0 6
61 1 2 -1.1794 6.355591945135719 3.6100454768452144 2.6449574168383165 -10 0 6
846 1 1 0.5897 8.653490278736871 5.893983435242336 1.136280367284072 -2 -4 6
52 1 2 -1.1794 6.786481769614803 6.08581890626616 1.7345071202060198 -2 -4 4
54 1 1 0.5897 6.858691203651025 5.339640264066512 2.329713045011335 -2 -4 4
220 1 2 -1.1794 5.432566115626171 5.527111569995798 5.39442646993554 -4 -1 6
629 1 1 0.5897 5.881598261652028 3.212511719101048 5.758786286057169 -4 0 -4
53 1 1 0.5897 5.881525446690431 6.0582412278537 1.423764929907605 -2 -4 4
312 1 1 0.5897 8.33063285153288 2.1348400366977427 5.840447629262969 -5 -1 9
669 1 1 0.5897 8.565458482531461 5.589202046350646 6.464435858503318 -10 -1 -1
426 1 1 0.5897 6.478941845357188 3.7982201800713398 8.679591631125387 5 -7 -2
424 1 2 -1.1794 6.338112709919802 2.987911123956469 8.18985056467307 5 -6 -2
549 1 1 0.5897 7.62708356817964 5.088116436453015 9.86215383408323 7 -8 12
668 1 1 0.5897 8.395399438847104 5.81075899566124 7.952381494056885 -10 -1 -2
547 1 2 -1.1794 6.8786688209931075 5.496428162756824 9.426915762724986 7 -8 12
425 1 1 0.5897 7.161876014707231 2.8424888338467045 7.724512763819299 5 -6 -2
475 1 2 -1.1794 8.805350538309174 3.4119961507591796 10.237639580532157 2 -4 2
310 1 2 -1.1794 8.673143420978974 2.314172630439976 6.7161179374186375 -5 -1 9
548 1 1 0.5897 6.402441668171783 5.936653060002256 10.130968584101911 7 -8 12
667 1 2 -1.1794 9.057106178443615 5.629900289534674 7.284748698070551 -10 -1 -1
222 1 1 0.5897 5.390370596450214 5.971810782857471 6.241033743279339 -4 -1 6
477 1 1 0.5897 8.330155153202938 2.596872074420981 10.398993991872679 2 -4 2
841 1 2 -1.1794 5.250866307594707 2.071343445629721 11.0953950939992 -11 1 -6
690 1 1 0.5897 8.185760353440573 4.4295462199511135 15.475509156246396 -1 1 1
835 1 2 -1.1794 8.512051232995484 5.026446437357468 12.423629882206761 -3 0 -1
837 1 1 0.5897 8.85922215304281 4.747831144376185 13.27105123991351 -3 0 -1
556 1 2 -1.1794 6.4281679509769445 3.25175765591798 13.213490484887226 3 4 3
557 1 1 0.5897 7.136841700258883 3.6760013054853404 12.729682730687514 3 4 3
295 1 2 -1.1794 6.4162437714574425 4.85844395447562 15.447932733227391 3 4 -4
296 1 1 0.5897 6.3534395602797655 4.332632153429767 14.65053302446029 3 4 -4
836 1 1 0.5897 8.921742034497237 4.436597123497222 11.790763850045938 -3 0 -1
558 1 1 0.5897 5.845602121391402 2.9099121770110656 12.53523443175261 3 4 3
688 1 2 -1.1794 9.058734772549485 4.210517361714496 15.149610627943822 -1 1 1
275 1 1 0.5897 7.098596724889079 6.615672471181495 14.760530998032134 4 7 -6
689 1 1 0.5897 8.99499271736237 3.2907873002784855 14.892106150838336 -1 1 1
297 1 1 0.5897 6.292350000323511 4.230601509728043 16.15978736946909 3 4 -4
849 1 1 0.5897 5.3074297654854625 6.843389813750276 11.925640325977312 1 4 5
250 1 2 -1.1794 8.249979709559717 4.2932786703519445 19.475761514682407 2 -4 -4
614 1 1 0.5897 6.113629829830979 2.265956782561584 17.087452847314562 -11 -5 1
405 1 1 0.5897 5.603149825337758 2.5974197759670603 20.119568067554088 8 1 1
251 1 1 0.5897 7.985229592402843 5.203189145035957 19.340694571869612 2 -4 -4
404 1 1 0.5897 6.538864321987627 3.754887162223422 20.39659410340678 8 1 1
403 1 2 -1.1794 5.70086196570701 3.540340525794087 19.98672267384536 8 1 1
615 1 1 0.5897 6.318227299984048 3.200064641744672 18.26119241942959 -11 -5 2
252 1 1 0.5897 8.512294351840499 3.988212224625383 18.607199355285733 2 -4 -4
613 1 2 -1.1794 6.670235674437715 2.9798132774302166 17.398696167712256 -11 -5 2
11 1 1 0.5897 8.639410360689773 3.0266683057759223 20.98817678279671 2 5 3
468 1 1 0.5897 5.270483964025179 5.037030225928465 19.141452985105072 3 -2 8
183 1 1 0.5897 8.483151518958305 6.59299468807075 17.640563389069385 0 4 -6
466 1 2 -1.1794 5.082244193741493 5.888165465388176 18.745950578970618 3 -2 8
860 1 1 0.5897 6.603970757638741 6.823919809586507 18.77174934575088 0 -1 6
343 1 2 -1.1794 6.075487793467451 11.28900518135267 3.2857865870561476 -4 5 2
162 1 1 0.5897 6.513958031161555 7.918032452673826 5.529405403755185 1 8 4
31 1 2 -1.1794 6.948140647335383 7.794644689613565 3.6918107055151097 6 4 5
277 1 2 -1.1794 8.894975521202966 10.817799551536101 5.169137385671383 2 4 -3
33 1 1 0.5897 7.901500589600949 7.831728777827593 3.6136252018933153 6 4 5
815 1 1 0.5897 6.769746324046618 9.211410868875003 2.091441226464556 2 10 -4
563 1 1 0.5897 8.146991818068155 11.15361852289693 2.628866198868132 5 -2 6
32 1 1 0.5897 6.660698178316186 7.331281744771874 2.905083000761908 6 4 5
562 1 2 -1.1794 8.882758155334882 10.995360992830758 2.0373637156300894 5 -2 6
814 1 2 -1.1794 6.808213071042182 9.353660693609676 1.145630802760008 2 10 -4
279 1 1 0.5897 8.987750460123834 9.988470230724436 4.700203512175467 2 4 -3
345 1 1 0.5897 6.455369057679473 11.747237370496322 4.035471755288055 -4 5 2
816 1 1 0.5897 7.673114943974476 9.73532320965101 0.9953241923463672 2 10 -4
824 1 1 0.5897 7.319113962004559 10.764193069429007 6.054983521815749 -3 5 7
291 1 1 0.5897 7.815199155171833 7.978896730598158 10.64188887592073 -3 -6 -9
200 1 1 0.5897 6.898919831278117 11.262481544884531 9.695518943900488 -1 -6 2
161 1 1 0.5897 7.2961636012604005 8.19844881501271 6.794928230046913 1 8 4
199 1 2 -1.1794 6.292343218466775 10.744259035649085 9.16654197756887 -1 -6 2
290 1 1 0.5897 7.218704627768858 9.171648198132917 9.92526707989336 -3 -6 -9
823 1 2 -1.1794 6.479504771822659 10.928050213444045 6.484487735689622 -3 5 7
289 1 2 -1.1794 7.9894076041236834 8.604075529597699 9.938274699415619 -3 -6 -9
201 1 1 0.5897 6.556011203129227 10.915245820243065 8.262374705528877 -1 -6 2
75 1 1 0.5897 8.675110001170811 8.636530566823655 8.199332981481863 0 -1 3
825 1 1 0.5897 6.017871866533951 10.090888064554424 6.436310953952702 -3 5 7
545 1 1 0.5897 5.293151055659157 7.0839192991226945 7.646149865373081 -3 5 7
73 1 2 -1.1794 8.809725052459727 8.342245912986362 7.298456164009326 0 -1 3
160 1 2 -1.1794 6.403589451511475 8.138345145513975 6.454373338605262 1 8 4
74 1 1 0.5897 9.091355225185369 7.4313092053716465 7.383089517395546 0 -1 3
847 1 2 -1.1794 5.5521931077551105 7.229464321133649 11.084611717222433 1 4 5
367 1 2 -1.1794 5.666582713993984 10.325556672613455 12.187351569140345 4 -3 -8
274 1 2 -1.1794 7.358095671848561 7.476335556825094 15.089472489402223 4 7 -6
369 1 1 0.5897 5.908581191156401 10.46806254655872 13.10244754627662 4 -3 -9
193 1 2 -1.1794 7.947779112358778 8.985680618623302 12.75891557447179 2 -2 -6
276 1 1 0.5897 7.682581761932771 7.940390605706526 14.317692804221629 4 7 -6
786 1 1 0.5897 5.893393178033436 8.865631749450994 14.86239416960198 5 6 6
784 1 2 -1.1794 5.4044651693435215 9.688423223836349 14.846960314810088 5 6 6
194 1 1 0.5897 8.33093539295227 9.6924517524465 13.278483589673554 2 -2 -6
195 1 1 0.5897 7.161359680482519 9.371034289968598 12.37249116445116 2 -2 -6
368 1 1 0.5897 5.1019027452560035 9.5528570253156 12.205973592908524 4 -3 -8
182 1 1 0.5897 8.674589048068196 7.015564270661976 16.199439860417925 1 4 -6
141 1 1 0.5897 7.992200731964508 11.672293903953413 14.076166144842997 -6 5 4
611 1 1 0.5897 6.658300442219821 10.969404858964886 18.664964395255645 6 3 1
794 1 1 0.5897 8.368341293485143 11.696733016761991 16.622029316481274 -3 -1 1
583 1 2 -1.1794 6.503091534379001 9.469878657594826 17.41900921018226 3 0 2
859 1 2 -1.1794 7.514038445677908 7.006244944140321 19.005876161479748 0 -1 6
861 1 1 0.5897 7.489251812791412 7.875177471975499 19.406688151498567 0 -1 6
584 1 1 0.5897 6.371996931422577 10.118335086482304 16.72721071147762 3 0 2
498 1 1 0.5897 8.27619589290765 10.462929923890616 19.45439366524178 -5 3 -1
585 1 1 0.5897 6.774884805758548 8.6770945956808 16.95646532481598 3 0 2
612 1 1 0.5897 6.164623825853195 11.088920964268464 20.091149876490757 6 3 1
378 1 1 0.5897 5.519561171112513 8.235982707454713 20.797639364656305 3 -1 -2
610 1 2 -1.1794 6.824616439764628 11.429918563926314 19.48748529715674 6 3 1
496 1 2 -1.1794 8.893442978998113 9.738384486267808 19.352644031566538 -5 3 0
411 1 1 0.5897 7.8174808536377 16.065674077720445 1.913660701368319 6 3 -7
280 1 2 -1.1794 7.204713083790578 13.5574066801554 4.686000408491898 -3 1 3
553 1 2 -1.1794 8.713937712394346 15.293703428877166 3.5656443208317543 -3 -3 8
282 1 1 0.5897 7.896165050217621 13.882523453942875 4.109392295584813 -3 1 3
344 1 1 0.5897 5.937522240019825 11.973406070619284 2.630935493551103 -4 5 2
167 1 1 0.5897 7.187787667589633 13.90473832025065 1.2949625736042616 5 -4 8
409 1 2 -1.1794 7.3651123227485185 15.786335001623149 1.1176646748329109 6 3 -7
713 1 1 0.5897 5.652355704573241 14.607919217714937 4.18767597386206 -2 -3 5
166 1 2 -1.1794 6.60935818937077 13.148534256711164 1.1956904258330856 5 -4 8
555 1 1 0.5897 8.525650567627656 16.04203899515601 4.132046734885709 -3 -3 8
410 1 1 0.5897 6.437665410705219 15.930763764070305 1.3054495980480672 6 3 -7
281 1 1 0.5897 7.619816954894566 13.49352190848297 5.5461632567117185 -3 1 3
284 1 1 0.5897 7.458484541213422 12.975492565458692 10.399802635163912 12 -2 -1
370 1 2 -1.1794 5.422620465106525 15.306330906609153 6.9629019553804214 -1 8 1
283 1 2 -1.1794 8.008234615472771 12.269937227364107 10.740739747082156 12 -2 -1
427 1 2 -1.1794 8.709312854438746 13.855345336045595 6.973897117885013 -2 5 -2
428 1 1 0.5897 8.485301004291728 14.374936342925025 7.745985794965377 -2 5 -2
67 1 2 -1.1794 6.36200310384747 14.369501843911308 9.963015788503075 2 -9 -5
68 1 1 0.5897 6.561032199710874 15.25083017467437 9.646870065967434 2 -9 -5
372 1 1 0.5897 6.312646995444654 15.620219645919104 6.802626974210371 -1 8 1
69 1 1 0.5897 5.725096917504638 14.027578107094186 9.335529614059354 2 -9 -5
429 1 1 0.5897 9.01345620345775 13.019327259368378 7.327223509288051 -2 5 -2
371 1 1 0.5897 4.977358537876082 16.04730425171605 7.374117791711346 -1 8 1
474 1 1 0.5897 9.059724943550016 14.218689854706026 10.263507035737824 4 3 1
817 1 2 -1.1794 6.975054462389912 16.739895604310174 8.99925772209918 5 0 3
675 1 1 0.5897 7.293775615766019 16.606680148501933 15.31300833468825 -1 -4 2
433 1 2 -1.1794 5.083093888413061 14.708128230543442 14.953785614916935 -5 -1 -5
654 1 1 0.5897 5.623041225402907 15.405572370757948 11.458576324489595 -4 2 2
652 1 2 -1.1794 5.431704118756802 16.15192317742851 12.026572775824068 -4 2 2
140 1 1 0.5897 7.896325370667538 13.05314409109394 13.462922585081456 -6 5 4
435 1 1 0.5897 5.924937976759658 15.100335971619488 15.185638875640688 -5 -1 -5
864 1 1 0.5897 7.285968582361878 15.85196243634981 12.830450734386424 9 2 2
139 1 2 -1.1794 7.53010058585536 12.170839790112035 13.40221956048439 -6 5 4
862 1 2 -1.1794 7.862974791324926 15.207049874401813 13.239673742256691 9 2 2
254 1 1 0.5897 4.958327407998666 12.36746198885393 12.356534766611105 -1 3 -3
863 1 1 0.5897 8.67927134045339 15.681401019088533 13.397748650098203 9 2 2
285 1 1 0.5897 7.682676961264039 12.11953581456605 11.628244844664934 12 -2 -1
795 1 1 0.5897 7.803949535890188 12.852621074055808 15.823657686076869 -3 -1 1
636 1 1 0.5897 7.303082043468653 15.047284794148858 17.22496404557759 -5 3 7
168 1 1 0.5897 6.858953974378252 12.764174390477791 20.773145285256916 5 -4 7
469 1 2 -1.1794 6.378593509831536 15.438192297256888 18.78122825745395 0 -10 0
470 1 1 0.5897 5.77204522824967 14.941919970452334 19.330848929557312 0 -10 0
471 1 1 0.5897 7.17662858402749 15.506306378610136 19.3054378007101 0 -10 0
635 1 1 0.5897 8.421072173928811 15.802093988781182 16.537692171750066 -5 3 7
793 1 2 -1.1794 7.543728284167416 12.117893745832145 16.379295965957848 -3 -1 1
416 1 1 0.5897 5.723868358282399 12.68672511274736 17.030270024849457 7 -5 2