#include		in.partitions
include		in.temp
variable        temperature equal 210.22
variable	tempDamp equal 100.0
include		in.pressure
variable        pressure equal 1649.6
variable        pressureDamp equal 1000.0 # This is 1 ps
include		in.seed
variable        seed equal 745823

units		real
atom_style	full
#include		in.box
read_restart	restart.lmp.${pid}
read_restart	restart.lmp.0
Reading restart file ...
  restart file = 30 Jul 2021, LAMMPS = 30 Jul 2021
  restoring atom style full from restart
  orthogonal box = (-0.023966492 0.038516425 0.20459610) to (18.231539 23.590661 22.008600)
  2 by 4 by 4 MPI processor grid
  restoring pair style lj/cut/tip4p/long/omp from restart
  restoring bond style harmonic/omp from restart
  restoring angle style harmonic/omp from restart
  864 atoms
  576 bonds
  288 angles
Finding 1-2 1-3 1-4 neighbors ...
  special bond factors lj:    0        0        0       
  special bond factors coul:  0        0        0       
     2 = max # of 1-2 neighbors
     1 = max # of 1-3 neighbors
     1 = max # of 1-4 neighbors
     2 = max # of special neighbors
  special bonds CPU = 0.002 seconds
  read_restart CPU = 0.006 seconds
include 	in.setup
variable	out_freq equal 1000
variable	out_freq2 equal 10000
variable	out_freq3 equal 1000

timestep	2.0

neigh_modify    delay 7 every 1

include		in.tip4p
# This is TIP4P/Ice

# create groups ###
group ox type 2
288 atoms in group ox
group hy type 1
576 atoms in group hy

# set charges - beside manually ###
set group ox charge -1.1794
Setting atom values ...
  288 settings made for charge
set group hy charge 0.5897
Setting atom values ...
  576 settings made for charge

# ### TIP3P Potential Parameters ###
pair_style lj/cut/tip4p/long/omp 2 1 1 1 0.1577 8.5
pair_coeff 1 1*2 0.000 0.000
pair_coeff 2 2 0.21084 3.1668
bond_style  harmonic
bond_coeff  1 450 0.9572
angle_style harmonic
angle_coeff 1 55 104.52
kspace_style pppm/tip4p/omp 1.0e-5
pair_modify tail yes

thermo          ${out_freq}
thermo          1000
thermo_style    custom step temp pe etotal epair emol press lx ly lz vol pxx pyy pzz pxy pxz pyz enthalpy

restart 	${out_freq3} restart.lmp.${pid} restart2.lmp.${pid}
restart 	1000 restart.lmp.${pid} restart2.lmp.${pid}
restart 	1000 restart.lmp.0 restart2.lmp.${pid}
restart 	1000 restart.lmp.0 restart2.lmp.0


include         in.dump
dump            myDump all atom ${out_freq2} dump.water.${pid}
dump            myDump all atom 10000 dump.water.${pid}
dump            myDump all atom 10000 dump.water.0
dump            myDump2 all dcd ${out_freq2} dump.dcd
dump            myDump2 all dcd 10000 dump.dcd
dump_modify     myDump append yes
dump_modify     myDump2 append yes


variable natoms 	equal  "count(all)"                        # NUMBER ATOMS
variable H      	equal  "enthalpy/v_natoms"                 # ENTHALPY-per-atom
variable Vol      	equal  "vol/v_natoms"                 # volume-per-atom
fix AVG all 		ave/time ${out_freq} 1 ${out_freq} v_Vol v_H file vol_enthalpy.dat
fix AVG all 		ave/time 1000 1 ${out_freq} v_Vol v_H file vol_enthalpy.dat
fix AVG all 		ave/time 1000 1 1000 v_Vol v_H file vol_enthalpy.dat


timer           timeout 23:50:00 every 1000
New timer settings: style=normal  mode=nosync  timeout=23:50:00

fix 		1 all shake 1e-6 200 0 b 1 a 1
       0 = # of size 2 clusters
       0 = # of size 3 clusters
       0 = # of size 4 clusters
     288 = # of frozen angles
  find clusters CPU = 0.001 seconds
fix             2 all nph aniso ${pressure} ${pressure} ${pressureDamp}
fix             2 all nph aniso 1649.6 ${pressure} ${pressureDamp}
fix             2 all nph aniso 1649.6 1649.6 ${pressureDamp}
fix             2 all nph aniso 1649.6 1649.6 1000
fix             3 all temp/csvr ${temperature} ${temperature} ${tempDamp} ${seed}
fix             3 all temp/csvr 210.22 ${temperature} ${tempDamp} ${seed}
fix             3 all temp/csvr 210.22 210.22 ${tempDamp} ${seed}
fix             3 all temp/csvr 210.22 210.22 100 ${seed}
fix             3 all temp/csvr 210.22 210.22 100 745823


run             250000
PPPM initialization ...
  extracting TIP4P info from pair style
  using 12-bit tables for long-range coulomb (../kspace.cpp:340)
  G vector (1/distance) = 0.37164803
  grid = 24 27 25
  stencil order = 5
  estimated absolute RMS force accuracy = 0.0031509402
  estimated relative force accuracy = 9.4889628e-06
  using double precision FFTW3
  3d grid and FFT values/proc = 4410 672
Last active /omp style is kspace_style pppm/tip4p/omp
Neighbor list info ...
  update every 1 steps, delay 7 steps, check yes
  max neighbors/atom: 2000, page size: 100000
  master list distance cutoff = 10.8154
  ghost atom cutoff = 10.8154
  binsize = 5.4077, bins = 4 5 5
  1 neighbor lists, perpetual/occasional/extra = 1 0 0
  (1) pair lj/cut/tip4p/long/omp, perpetual
      attributes: half, newton on, omp
      pair build: half/bin/newton/omp
      stencil: half/bin/3d
      bin: standard
Per MPI rank memory allocation (min/avg/max) = 10.20 | 10.22 | 10.23 Mbytes
Step Temp PotEng TotEng E_pair E_mol Press Lx Ly Lz Volume Pxx Pyy Pzz Pxy Pxz Pyz Enthalpy 
 8500000    221.67358    -4323.164   -3943.2231    -4323.164            0    1003.4988    18.255505    23.552145    21.804004    9374.7689    506.43174   -310.79101    2814.8557    236.68287   -477.81638   -232.35099   -3806.0234 
 8501000    213.33312   -4346.3603   -3980.7146   -4346.3603            0    1380.6274      17.9413    23.453124    22.210075    9345.5453    1169.4434    1449.6597    1522.7793    66.185093   -31.661609    79.076692   -3792.5417 
 8502000    198.34783   -4318.4976   -3978.5362   -4318.4976            0    2393.9132    18.148254    23.390045     21.87524    9285.7875     1493.692    2069.9864    3618.0613    530.34182    331.99161    748.28333   -3654.3436 
 8503000    208.57239   -4344.6446   -3987.1587   -4344.6446            0    1777.2403    18.033016     23.30801    22.233107      9344.88    2252.8058    2424.6547    654.26048    732.48832   -431.63107    749.93204   -3744.9466 
 8504000    198.34112   -4351.6975   -4011.7476   -4351.6975            0    1650.8405    18.011413    23.546151     21.87424    9276.8532    1574.8868     2037.086    1340.5488   -1297.7684   -371.39106   -524.08056   -3788.3998 
 8505000    209.98535   -4336.6124   -3976.7047   -4336.6124            0    805.64476    17.915902     23.49365    22.311912    9391.3051    917.33758    1491.1219    8.4747598   -472.10856   -111.25184   -1040.4342   -3866.3616 
 8506000    212.70669   -4335.1081   -3970.5362   -4335.1081            0    1185.8254    18.152491    23.454814    21.954624    9347.4734    910.19296    931.18266    1716.1004   -96.814984    117.61973   -179.59234   -3808.8805 
 8507000    216.46862     -4350.84   -3979.8202     -4350.84            0    1598.0968    17.974643    23.390543    22.102138     9292.549    710.14878    1395.4849    2688.6567   -493.80203    786.26551   -67.736956   -3763.2425 
 8508000    212.97013   -4340.3588   -3975.3352   -4340.3588            0     971.2135      18.0036    23.716592    21.896034    9349.2571    639.23659   -37.119985    2311.5239    -1224.104    318.11315    240.74811   -3842.9109 
 8509000    222.12263   -4339.8326    -3959.122   -4339.8326            0    1788.3831    18.053129    23.297522    22.177794    9327.8286    3153.8087    1862.1964    349.14411   -432.46113     334.2801    410.91637   -3715.8361 
 8510000    216.68871   -4352.2827   -3980.8856   -4352.2827            0    1713.5718    18.056301    23.410975     21.96453    9284.7498    986.97271    1660.7144    2493.0284   -259.24937   -23.445566    255.24683   -3748.8534 
 8511000    212.24234   -4348.2136   -3984.4375   -4348.2136            0     966.7997    18.037484    23.493743    22.044098    9341.5837    1300.3241    1184.8423    415.23276    352.93564   -693.32616   -678.86462   -3852.7232 
 8512000    224.69546   -4329.9421   -3944.8217   -4329.9421            0    981.75352    18.079514    23.233197    22.239152    9341.4429     911.0759    1376.8355    657.34918    115.32669    89.911834   -70.364417   -3811.0722 
 8513000    223.85061   -4339.7751   -3956.1029   -4339.7751            0    1854.6123    18.052919    23.505081    21.811845    9255.5361    1492.7349    1919.9655    2151.1366   -394.87958   -487.54653   -290.15535   -3705.7627 
 8514000    199.48551   -4339.7535   -3997.8422   -4339.7535            0    2352.2613    17.784377    23.443131    22.093698    9211.3372    2233.9885    2422.2846     2400.511   -410.75764    49.125226    180.27885   -3681.8444 
 8515000    212.74221   -4341.4655   -3976.8326   -4341.4655            0    1985.8347    18.128597    23.262511    21.955757    9259.1089    1766.1935    2180.9824    2010.3283   -388.56811    201.25706    -432.4577   -3708.6762 
 8516000    210.91065   -4339.2404   -3977.7468   -4339.2404            0    1439.7238    17.983538    23.345026    22.163506      9304.82    2515.6837    2012.6818   -209.19405    79.732023   -471.58643   -237.68529   -3782.3745 
 8517000    216.57555   -4343.6702   -3972.4671   -4343.6702            0    2518.4728    17.831349    23.738969    21.855301    9251.3018     4252.752    1507.1359    1795.5306   -3.3488947   -720.10555    331.85497   -3632.6729 
 8518000     198.0113   -4342.4514   -4003.0668   -4342.4514            0      1354.48    18.087003    23.315081     22.07272    9308.0645    181.44434    564.23549    3317.7602    734.34015    187.17259    79.708638    -3819.198 
 8519000    205.19457   -4336.1457   -3984.4492   -4336.1457            0    771.25118     18.07478    23.373548    22.013507    9300.0845     173.5408    501.88664    1638.3261     115.4843   -414.64662    378.33338   -3879.8427 
 8520000    199.44141   -4332.2195   -3990.3837   -4332.2195            0    1477.0903    17.975315    23.403527    22.083035    9290.0187    1220.3496    1121.6469    2089.2744   -150.08414    686.39868   -242.74845   -3790.2596 
 8521000    212.96423   -4365.6235   -4000.6101   -4365.6235            0    1452.7708    17.893745    23.509629    22.054586    9277.8198    2008.0823     666.5688    1683.6615    8.5778134    389.41894     679.7193   -3804.0394 
 8522000    221.02232   -4344.3677    -3965.543   -4344.3677            0    1450.6833    18.236268    23.382351    21.951268    9360.1699    481.26279    499.63803     3371.149   -427.80284    134.56555   -623.97727   -3767.5125 
 8523000    211.07433   -4356.8468   -3995.0726   -4356.8468            0    3308.8967    17.847512    23.293388    22.115212    9193.9357    2980.9391    2848.2917    4097.4594   -206.07889   -677.65378   -232.63392   -3551.4021 
 8524000    222.45745   -4324.3024    -3943.018   -4324.3024            0    200.25987    18.073126    23.558396    22.036529    9382.5782    1043.1298    -979.3166    536.96644   -161.91961    33.371545     467.6485   -3915.6153 
 8525000    209.52865   -4331.4151   -3972.2901   -4331.4151            0    731.20965    17.919012    23.519567    22.212243    9361.2921    299.83911    1439.5826    454.20723    682.93978   -121.74172   -232.25244   -3872.4619 
 8526000    219.12461   -4332.3883   -3956.8162   -4332.3883            0    1578.0906    18.266666    23.247683    21.920008    9308.4995    1571.0725    1602.5806    1560.6186   -646.35776    457.80896    -996.3668   -3742.5827 
 8527000    210.85147    -4318.935   -3957.5428    -4318.935            0    1881.2628    17.959296    23.395797    22.067552    9272.1684    1834.6438    2712.2812    1096.8634   -33.822693   -793.48579   -79.015749   -3703.1489 
 8528000    209.45288   -4354.5085   -3995.5135   -4354.5085            0    2555.2832    17.967543    23.414641    21.971268     9243.391    1725.3648    2727.6346    3212.8501    566.43688    104.40136   -249.97492   -3651.0476 
 8529000     202.1966   -4362.5299   -4015.9718   -4362.5299            0    352.76293    18.024502    23.569956    21.985195    9340.1182     585.4107   -218.23604    691.11412   -167.55999    103.83066   -545.09245   -3967.9199 
 8530000    218.01793   -4336.6334   -3962.9581   -4336.6334            0    1820.2701    17.997684     23.38289    22.062832    9284.8751    1333.2226    698.23012    3429.3576   -272.96824   -65.807275    1204.1178   -3716.4747 
 8531000    212.13781   -4323.3856   -3959.7886   -4323.3856            0    2519.6419    18.172854     23.51893    21.759253    9300.0373    2642.9053     2757.744    2158.2763   -372.26463    223.36145   -631.18352   -3618.0458 
 8532000     212.4374   -4328.0942   -3963.9837   -4328.0942            0    793.64229    17.998958    23.310383    22.260779    9339.7901    1405.0783    1791.3362   -815.48767   -193.85477   -679.51839   -59.074309   -3855.8807 
 8533000    207.57303   -4337.7533   -3981.9802   -4337.7533            0    2090.3814    18.168275    23.427702    21.856693    9303.1032    951.81979    2976.0264     2343.298   -273.16926   -927.69846   -717.57346   -3698.3652 
 8534000    211.35091   -4366.2463    -4003.998   -4366.2463            0     1205.862    17.951274    23.384526    22.085122    9270.9375    920.70086    748.19621    1948.6889     372.0602    351.04895   -314.03057   -3840.9569 
 8535000    207.71138   -4367.0112    -4011.001   -4367.0112            0    2806.4662    18.124376    23.415448    21.841305    9269.2399    1746.1659     3154.579    3518.6539   -182.30419    127.53579   -326.19391   -3631.6162 
 8536000    194.82317   -4333.8399   -3999.9197   -4333.8399            0    752.01146    18.189575    23.163672    22.167003    9339.7861   -110.01728    1337.8889    1028.1627   -504.59438   -579.59547    -696.4594   -3897.4873 
 8537000    213.65406   -4344.0629   -3977.8671   -4344.0629            0    643.25076    17.950565    23.639666    22.067028    9364.0415    1863.2996    545.51787   -479.06518    -780.2314   -121.49499     960.6845   -3890.0216 
 8538000    206.53674   -4337.6283   -3983.6314   -4337.6283            0    153.94126    17.948149    23.699664    22.042922    9376.2902    1313.2858   -1134.8277    283.36567     208.4848    405.24409    690.08839   -3962.5809 
 8539000    214.28962   -4347.4941   -3980.2091   -4347.4941            0    418.58907    18.227611    23.308569    22.102825    9390.5957     752.4429    928.90788   -425.58356   -575.79392    730.76249    -295.7974   -3922.8824 
 8540000    202.84211   -4336.2502   -3988.5858   -4336.2502            0    1486.2044    17.937577    23.665321    22.016344    9345.9052    2601.8059    2362.3929   -505.58563   -878.88108   -514.19048   -198.96791   -3786.0155 
 8541000    206.35338   -4337.8744   -3984.1917   -4337.8744            0    1926.6745    17.939291    23.527174    22.004809    9287.3676    1439.9111    1470.1467    2869.9658    20.147461    510.28279     499.7791     -3723.23 
 8542000      209.795   -4347.9851   -3988.4036   -4347.9851            0    2277.7439    18.141764    23.161777    22.117137    9293.5215    1779.7613    3582.2732    1471.1973    201.04932   -178.14143   -353.81927   -3679.6862 
 8543000    208.73178   -4327.5711    -3969.812   -4327.5711            0    2386.1708    18.024886    23.540558    21.862322    9276.5303    3096.9599    2785.8769    1275.6757   -954.81354   -471.70706    57.159831   -3646.9901 
 8544000    213.80838   -4341.1834   -3974.7232   -4341.1834            0    2364.6798    17.902279     23.39882    22.136859    9272.9578    2574.8687    3194.4674    1324.7034    267.79528     185.9197   -746.03918   -3654.9319 
 8545000    192.22425   -4352.1521   -4022.6864   -4352.1521            0    1105.3149    18.239067    23.090855    22.016425    9272.3421    534.39208    1305.4144    1476.1384     417.3357    345.74347    54.821952   -3873.2173 
 8546000    220.06277   -4347.4568   -3970.2768   -4347.4568            0    2171.6978    17.981506    23.353431    21.973589     9227.366    2239.8683    2837.5087    1437.7164    -1211.964   -359.33539    -277.1292   -3678.0278 
 8547000    208.88331   -4356.3769    -3998.358   -4356.3769            0    1366.0334    17.935958    23.570431     22.07386    9331.9067    2605.0539    516.91335    976.13301    463.61005    474.09666   -142.47999    -3812.446 
 8548000    212.19648   -4336.2274   -3972.5299   -4336.2274            0    2846.3884    18.077042    23.265459    22.000284    9252.6746    3368.7756    2525.6329    2644.7567    601.82743    62.180001   -76.426217   -3588.4361 
 8549000    207.52442   -4325.1218    -3969.432   -4325.1218            0    2059.2554    17.959241    23.593125     21.90285    9280.5577    1894.4586     1224.685    3058.6225   -889.79091   -838.68416    652.64506   -3690.7171 
 8550000    207.91551   -4345.0739   -3988.7139   -4345.0739            0    1862.1729    18.104272    23.293605    21.974718    9267.0407     1002.842    1263.6665    3320.0103    1004.5666   -105.58115    313.89016   -3737.0407 
 8551000    216.56674   -4331.3928   -3960.2048   -4331.3928            0    1205.7961    18.027059    23.389979    22.126236    9329.5834    405.01959    2795.6604    416.70829   -161.64056   -500.00227    66.054701   -3796.1413 
 8552000    209.52794    -4344.603   -3985.4793    -4344.603            0    2075.0988    17.829998    23.621657    22.040704     9282.974    3059.1591    1086.1438    2079.9934    313.70087    516.12099    -27.85567    -3704.547 
 8553000    206.75942   -4352.6628   -3998.2842   -4352.6628            0    1542.5711    18.161604    23.184199    22.110295    9309.8102    1214.0985    2452.7872    960.82758    222.72721   -19.492325    432.44306   -3788.8431 
 8554000    213.95779   -4330.8502   -3964.1339   -4330.8502            0    2031.3444    18.193894    23.365242    21.917426    9317.2013    1738.5622    3082.4106    1273.0603   -493.13214    -695.6539    26.029064   -3688.1111 
 8555000    203.23831    -4331.793   -3983.4494    -4331.793            0    1468.3667    17.986755    23.477722    21.972283    9278.6321     1751.744    1347.9451    1305.4109    447.77674   -522.87453   -89.901754    -3784.751 
 8556000    214.69329   -4324.5155   -3956.5386   -4324.5155            0    790.58314    17.891446    23.400156    22.237335    9309.9411    1504.6884    2466.0834   -1599.0224   -565.78739    19.487482    112.49425   -3849.1964 
 8557000     209.8713   -4340.4253   -3980.7131   -4340.4253            0    1281.5384    18.224702    23.332421    21.946627    9332.2855    466.16306    1261.0967    2117.3553    88.531552    349.56177   -127.18271   -3806.2934 
 8558000    209.26533   -4341.4338   -3982.7602   -4341.4338            0    356.58116    17.975025    23.473686    22.219588    9375.3349    894.69938   -80.893259    255.93736    449.79837     334.5984   -514.94912    -3934.005 
 8559000    209.13108   -4338.0392   -3979.5957   -4338.0392            0    1600.2221    18.103818    23.507664    21.864112    9304.8954    1099.5021    1802.3202     1898.844   -66.710169    131.70382    226.64121   -3762.4418 
 8560000    197.85726   -4349.6979   -4010.5773   -4349.6979            0    1189.4177    18.123094    23.011515    22.327493    9311.4544   -473.43552    3274.7307    766.95787    1328.3047    434.53756   -280.88463   -3849.0568 
 8561000    213.62629   -4351.7704   -3985.6222   -4351.7704            0    1418.3784    18.036815    23.628649    21.864052    9318.1439    983.84465    2197.6716     1073.619   -228.89695    257.47548     257.5596   -3792.8709 
 8562000    207.91246   -4317.7529   -3961.3981   -4317.7529            0    1950.8361    17.910348    23.353588     22.09141    9240.1935    1593.3536    2880.3198     1378.835    538.63553   -66.754016    807.56006   -3698.5059 
 8563000    222.62935   -4329.1529   -3947.5738   -4329.1529            0    2015.3074    18.040785    23.383348    22.008595    9284.4127    1924.9352    3007.2062    1113.7807    -65.20531    343.67542   -526.44401   -3674.6938 
 8564000    207.01526   -4332.0299   -3977.2128   -4332.0299            0    3439.4452    17.809919    23.614827    21.956554     9234.447    3170.9302    2626.1628    4521.2428    1025.2724   -325.84191    128.14334   -3514.0057 
 8565000    202.30386   -4355.2593   -4008.5174   -4355.2593            0    869.30986    17.983022    23.511844    22.165574    9371.9151    701.70576    2094.6086   -188.38477   -747.29972    490.47583    215.46945   -3889.7003 
 8566000    218.62896   -4329.6513   -3954.9287   -4329.6513            0    2460.2012    18.341737    23.099201    21.900183    9278.6579    1315.2535    2971.1337    3094.2164   -394.59642   -311.44672    836.37309    -3622.015 
 8567000    192.87342   -4344.5825   -4014.0041   -4344.5825            0    1118.2783    17.914465    23.504852    22.120572    9314.4609    2524.2939    698.52563    132.01545   -422.52577   -1005.0179    129.30652   -3862.0951 
 8568000    211.85268   -4348.6601   -3985.5519   -4348.6601            0    294.01834    18.019249    23.592205    22.002507    9353.5693    1752.7461   -805.14905   -65.542068    560.87242   -504.19318    304.69109   -3945.4442 
 8569000    204.65748   -4363.1722   -4012.3963   -4363.1722            0    1604.3928    18.110554    23.170946    22.044966    9250.9199    993.63804    2802.4294    1017.1111     134.5206    8.0893786   -778.94093   -3795.9393 
 8570000    228.18816    -4371.603   -3980.4963    -4371.603            0    2229.6695      17.9727     23.39003    21.958913    9231.1312    2807.0023    1251.3603     2630.646    -517.8344    372.54335    202.08181   -3680.3235 
 8571000     211.4275    -4345.568   -3983.1885    -4345.568            0    1234.1057     17.74212    23.771532    22.023686    9288.6522    1201.3476    571.76374    1929.2057     733.8774    51.139469    443.93023   -3816.0098 
 8572000    227.16072   -4322.8043   -3933.4586   -4322.8043            0    2056.6319     18.11216    23.209974    22.070735    9278.1565    884.22797    1962.1087     3323.559    309.05593   -1041.1234    -472.5928   -3655.1708 
 8573000    209.31364   -4367.6868   -4008.9304   -4367.6868            0    1165.1422     17.99197    23.523358    21.957883     9293.269    854.98584    634.12733    2006.3133   -221.08268    5.5683989     85.73435   -3851.0154 
 8574000    215.25926   -4353.3268   -3984.3798   -4353.3268            0    1159.9364     17.85376    23.453303    22.191238    9292.1292    754.76714    1946.0119    779.03026   -1201.9971    393.46469     82.08973   -3827.1897 
 8575000    206.16029   -4346.6438   -3993.2921   -4346.6438            0    1044.2865    18.155698    23.367751    21.958407    9316.0262    1640.0603    412.53324     1080.266    202.62207   -493.05905    254.00409   -3851.4105 
 8576000    219.08551   -4365.1136   -3989.6085   -4365.1136            0    2085.9837    18.002254    23.312291    22.012841    9238.2121    1060.9377    1284.0861    3912.9273    639.22359    -431.3327    293.66789   -3708.5642 
 8577000    212.44482   -4362.0354   -3997.9122   -4362.0354            0    2599.8229    17.796537    23.631765    21.940296    9227.2891    2816.6362    2791.9566    2190.8759    1082.4841    417.41279    -119.1105   -3648.0526 
 8578000    225.15844   -4331.2614   -3945.3475   -4331.2614            0     992.9449    18.044736    23.307655    22.169938     9324.243    1434.2733   -186.01861      1730.58    195.57315    209.36526   -364.27928   -3810.3224 
 8579000    208.82174    -4344.682   -3986.7687    -4344.682            0    1319.0207    18.334269     23.10795    21.891808    9274.8449   -400.05989    2898.5368    1458.5851   -643.55127    205.96083     104.9702   -3808.3526 
 8580000    223.66744   -4332.0873    -3948.729   -4332.0873            0    1999.0062    17.913018    23.487583    22.061432    9281.9835    2858.9833    1523.5488    1614.4863    350.65063    245.23606    491.44618   -3678.1271 
 8581000    213.34044   -4346.0359   -3980.3777   -4346.0359            0    1603.3708    18.036254    23.460644    21.912043    9271.9089    2225.9579    877.34955     1706.805   -190.23249    183.84139   -275.15789   -3763.5679 
 8582000    211.21554    -4358.435   -3996.4188    -4358.435            0    2000.7883    18.153299    23.077781    22.000539    9216.8589    2049.3821    1846.7667    2106.2159    11.689915   -575.01562   -57.215731    -3727.476 
 8583000    199.33792   -4346.1275   -4004.4691   -4346.1275            0     693.7852    17.904395    23.589518    22.112727    9339.4439    532.13549    782.73538    766.48471   -1467.1881     22.59851   -390.20057   -3909.9713 
 8584000    222.88356   -4330.7197   -3948.7049   -4330.7197            0    1495.3195    17.973387    23.595369    21.992464    9326.7549    805.18797    1581.7642    2099.0063    244.82578     698.8709     915.3055   -3745.3098 
 8585000    217.32473   -4360.1904   -3987.7033   -4360.1904            0    2406.8647    18.079081    23.305286    21.972329    9257.7804    3021.4549     2389.862    1809.2771   -336.27078   -453.10253   -1118.4979   -3662.7399 
 8586000    210.38914   -4342.7088    -3982.109   -4342.7088            0    479.39592    17.957007    23.623856    22.044554    9351.6029    420.54616   -122.22619    1139.8678   -275.12224    -283.5764    113.44765   -3916.7273 
 8587000    215.82222   -4368.8291   -3998.9172   -4368.8291            0    1121.5678    18.015797    23.445101    21.959726    9275.3973   -593.18214    2355.5689    1602.3167   -120.23344    395.82709   -582.49576   -3847.2003 
 8588000    206.74609   -4308.9457     -3954.59   -4308.9457            0    1979.2173    18.317027    23.157727    21.940512    9306.7415    1398.8236    1267.1493    3271.6789   -593.41423   -55.061184    164.62753   -3685.9522 
 8589000    200.35597   -4353.3376   -4009.9343   -4353.3376            0    1572.9113    17.940417    23.411984    22.187894    9319.3762    2728.2167    1318.4588    672.05836    5.7808557    69.327736    831.48303   -3796.1544 
 8590000    211.48111   -4342.5352   -3980.0638   -4342.5352            0    996.37573    17.953351    23.838799    21.819967    9338.6473    1383.2985   -64.191209    1670.0199   -862.34906    1.9545816   -197.53006   -3844.3628 
 8591000    208.55775   -4369.3615   -4011.9006   -4369.3615            0    777.97954    18.097199    23.360245    22.105524    9345.2211    541.72044    706.27252    1085.9457   -613.59231    235.53415     -484.381   -3905.8694 
 8592000    209.91609   -4325.0338   -3965.2448   -4325.0338            0    1511.4158    18.093233    23.416199    21.942356    9296.4223    1256.6306    1991.3128    1286.3042   -221.04829    418.43116    19.142058   -3760.3289 
 8593000    208.66042   -4361.9836   -4004.3468   -4361.9836            0    1642.6018    17.962955    23.350305    22.236738     9326.988    1626.3692    2902.0763       399.36    225.59456   -358.69346   -511.26504   -3780.9126 
 8594000     207.6416    -4340.846   -3984.9554    -4340.846            0    1899.4658    18.268514     23.39002    21.709726    9276.5859   -62.042311    3185.4996    2574.9401   -574.62616    7.3131255   -190.77068   -3727.9776 
 8595000    211.27446   -4363.7921   -4001.6749   -4363.7921            0    2199.2266    17.899257    23.345365    22.246954    9296.2169     2965.474    1974.7996    1657.4062   -260.61775   -121.04741   -709.82918    -3703.513 
 8596000     218.3099   -4345.0811   -3970.9054   -4345.0811            0    1761.1615    18.101502    23.475782    21.900778    9306.6678    1939.9199    1431.5293    1912.0352   -660.07681    120.22242     935.6749   -3731.8661 
 8597000    216.06007   -4347.2074   -3976.8878   -4347.2074            0    1211.9442    17.943674    23.279773    22.203525    9274.9597    880.79936     1340.351    1414.6823     843.2646    18.125531   -391.05362   -3812.9532 
 8598000    200.27008   -4356.3073   -4013.0513   -4356.3073            0    261.66289    18.300785    23.530089    21.824576    9398.0791   -694.12033    407.45517    1071.6538   -455.90947    181.45989   -113.49473   -3977.1874 
 8599000    220.01423   -4349.9312   -3972.8343   -4349.9312            0     2117.853    17.984696    23.271264    22.200833    9291.6394    2664.6035    2264.8429    1424.1124   -378.19575    724.96434    631.23032   -3685.8461 
 8600000    207.46442   -4353.2885   -3997.7016   -4353.2885            0    1488.3982    18.068848    23.579655    21.824943    9298.6741    1779.0442       811.65    1874.5003    -189.9246    286.71741   -121.99159   -3795.8575 
 8601000    208.24548   -4369.3502   -4012.4246   -4369.3502            0    2054.5944    18.047484    23.100474     22.19201    9251.9698    1965.8187    3253.5716    944.39294   -909.11426   -383.79718    108.56006   -3735.1971 
 8602000    221.62909   -4352.6046     -3972.74   -4352.6046            0    1590.1981    18.127674     23.48506    21.864453     9308.343    773.55188    1169.5539    2827.4884    427.29446   -595.39286   -194.56545   -3756.8664 
 8603000    213.00773   -4329.1645   -3964.0765   -4329.1645            0     1432.355    17.964834    23.395794    22.101681    9289.3712    420.09697    3253.9559    623.01218   -450.21717    180.56643   -163.59659   -3770.0269 
 8604000    211.98785    -4349.405   -3986.0651    -4349.405            0    1479.2801     18.17763    23.408159     21.89529    9316.5522    1190.5997    396.67014    2850.5704    940.70873   -290.17642    300.03334   -3785.0718 
 8605000    214.71667   -4330.5451    -3962.528   -4330.5451            0    499.84193    17.842714    23.502971    22.279327    9342.9866    2323.7685    686.44444   -1510.6872   -418.15216   -438.62884    480.18168   -3894.4206 
 8606000    198.52814   -4344.5557   -4004.2853   -4344.5557            0    1530.1786    18.141519    23.575198    21.720454    9289.6189     1205.514    1459.8003    1925.2215    622.94809   -602.15852     -99.5963   -3796.9773 
 8607000    205.86378   -4353.8392   -4000.9958   -4353.8392            0    1573.8665     18.04621    23.322635     22.16634    9329.4839    565.89828    2345.0932    1810.6081   -310.43286   -367.49673    271.09137    -3786.854 
 8608000    213.76161   -4348.1689   -3981.7888   -4348.1689            0    1548.1419    17.898373     23.59456    22.017825     9298.221    2907.8305    1518.5046    218.09053    984.49585    451.31521    -102.5084    -3771.853 
 8609000     208.6123   -4352.9518   -3995.3975   -4352.9518            0    2074.3482    18.112002     23.29884    22.053231     9306.213    1151.5099    2661.5659    2409.9687    41.303284   -906.73501      692.435   -3713.8637 
 8610000    213.84566   -4354.6714   -3988.1473   -4354.6714            0     1733.008    18.246547    23.292032    21.840053    9282.0041    867.18112    750.73721    3581.1056    79.707059   -457.46866   -470.95831   -3753.5526 
 8611000    211.39531     -4336.77   -3974.4456     -4336.77            0     2448.321    17.865192    23.603749    22.001716    9277.8045    3416.6361    1881.0558    2047.2712   -73.591058    213.70668    390.09788     -3643.17 
 8612000    214.81471    -4360.418    -3992.233    -4360.418            0   -157.32366     18.09807    23.411119    22.185705    9399.9957    66.166179    178.52751   -716.66468   -183.53754   -763.43022    56.270409   -4013.8004 
 8613000    210.73289   -4349.1374   -3987.9484   -4349.1374            0    807.71729    18.226532    23.203343     22.14532     9365.621    163.49506    2269.3461   -9.6892934     944.2929   -369.01131   -243.39737    -3877.624 
 8614000    209.06269   -4309.0091   -3950.6828   -4309.0091            0    1855.7494    17.902431     23.61106    22.056655    9323.2461    1400.7866    2192.1561    1974.3057      2.57058   -154.80989   -11.249361   -3698.3566 
 8615000    224.47338   -4346.7226   -3961.9829   -4346.7226            0    1969.4928    18.046706    23.445148    21.997449    9307.2897    1849.8356    1806.0816    2252.5612   -1028.9383   -368.86998      625.821   -3694.6493 
 8616000    206.64228   -4352.1526   -3997.9748   -4352.1526            0    3805.7232    18.100749    23.201317    21.968768    9226.0303    3746.6424    4604.8609    3065.6663    -587.7243   -578.75365    453.55209   -3485.9064 
 8617000    208.63475   -4367.7399    -4010.147   -4367.7399            0    2462.0401    17.924272    23.440702    22.015371    9249.9234    3773.4558    1372.3319    2240.3326     65.31505    1494.3651    195.84111   -3678.0162 
 8618000    213.35647   -4366.1758   -4000.4901   -4366.1758            0    1247.5432    17.998506    23.526867    22.020816    9324.6807    1609.7386    1025.3999     1107.491      17.8805    1031.7453    580.15233   -3830.8356 
 8619000    220.40924    -4353.786   -3976.0121    -4353.786            0    1648.1534    18.099996    23.282889    22.056449    9295.0332    2035.0841    2156.8202    752.55596    456.86596    73.482828    109.13416   -3752.5909 
 8620000    207.77431    -4353.081    -3996.963    -4353.081            0     1392.368    17.852788    23.741634    21.918166    9290.1103    1359.7042    809.10063    2008.2993   -344.88533   -169.16113    916.42842   -3808.3156 
 8621000    201.51596   -4348.5703   -4003.1788   -4348.5703            0    1652.2623    17.987262    23.389947    22.115525    9304.4683    875.26589    2921.4735    1160.0475   -1374.1269    160.43783    54.312585   -3778.9732 
 8622000    220.68235   -4336.7618   -3958.5198   -4336.7618            0    2076.4717    18.096517    23.318189    21.916584    9248.3161    1819.8752    2206.4268    2203.1131    417.37514    197.61447    139.66128   -3678.4511 
 8623000     207.7666   -4367.7033   -4011.5985   -4367.7033            0    787.32265    17.914129    23.462859    22.101823     9289.765    1393.8875     34.48797    933.59249    745.85661     -406.029    52.412667   -3904.9307 
 8624000     215.6401   -4339.0259   -3969.4262   -4339.0259            0    1584.6699     18.03303    23.449991    21.847065    9238.5646    1326.5447    729.53313    2697.9319   -646.43496   -39.203757   -66.340879   -3755.9157 
 8625000    226.67631   -4337.4589   -3948.9434   -4337.4589            0     2679.126    17.949279    23.270104    22.126108    9241.6681    3758.2605    3541.3327    737.78498   -737.37096    48.645097    506.61135   -3587.8501 
 8626000    215.21723   -4349.5847   -3980.7098   -4349.5847            0    3468.1676     17.98094    23.283047    22.048164    9230.4872    4207.6345    3828.6962     2368.172    -82.06509   -540.32807    -94.43898   -3513.8348 
 8627000    211.25187   -4337.6552   -3975.5767   -4337.6552            0    2416.1448    18.076052    23.288222    22.032343     9274.716    1459.2883     2216.387    3572.7591      401.703   -283.75359   -882.91771   -3648.7636 
 8628000    218.14355   -4356.8544   -3982.9638   -4356.8544            0    2602.2677    17.912416    23.522382    22.021259    9278.4964     2291.874    2139.2298    3375.6992   -856.45031     -245.533   -64.293851   -3630.8319 
 8629000    218.13181    -4336.288   -3962.4176    -4336.288            0    1742.0504    17.919514    23.455354     22.04482    9265.6264    1081.0822    1953.8513    2191.2177    257.72374    205.19684    40.619352   -3727.0149 
 8630000      208.663   -4363.0776   -4005.4364   -4363.0776            0    1382.7343    18.256619    23.187908    22.085632    9349.5725   -397.63912    2906.8328    1639.0093    626.60648    142.32966   -18.079433   -3816.8951 
 8631000     209.9304   -4367.8465   -4008.0329   -4367.8465            0    2210.5461    18.030498    23.444016    21.945216     9276.403    2457.2486    1397.8284    2776.5612   -237.66969    139.12726   -328.77961   -3708.9752 
 8632000    214.06272   -4323.3304   -3956.4342   -4323.3304            0     2274.252    17.776227    23.655442      22.1324    9306.7736    3351.9455    2452.8908    1017.9198    552.00911   -517.74997   -159.83677   -3647.7506 
 8633000    207.77127   -4350.5466   -3994.4338   -4350.5466            0     2809.521    18.094232    23.285947    21.976032    9259.4107    1386.2054    3657.2742    3385.0835   -477.74456   -27.816372    240.32937   -3615.0388 
 8634000    207.00611   -4362.1173   -4007.3159   -4362.1173            0    2329.9878    18.026906    23.315516    22.008336    9250.2487    1366.3993    2539.0657    3084.4984    246.15768    289.09502    71.474771    -3692.988 
 8635000    198.97289   -4358.6007    -4017.568   -4358.6007            0    2193.8975    17.876828     23.71105    21.900596    9283.1889    3653.9839    771.05318    2156.6556   -827.60008   -335.61109    535.90127   -3720.5454 
 8636000    206.43581   -4334.4812   -3980.6572   -4334.4812            0     1588.594    18.095601    23.341257    21.966133     9277.925    1131.3255     819.2341    2815.2223    866.95009   -1181.7651    46.484021   -3765.7062 
 8637000    203.50336   -4349.2963   -4000.4985   -4349.2963            0    286.52087    18.278528    23.139249    22.169126    9376.4634   -1097.6218    1894.5912    62.593251    111.46697   -93.273395    450.58049   -3961.3179 
 8638000    210.06203   -4340.1093   -3980.0702   -4340.1093            0    2035.5904    17.992324    23.513865    21.867452    9251.4427     1694.621    1244.9843    3167.1659   -915.51729   -216.75657     269.5031   -3705.4226 
 8639000    200.10041   -4366.6231   -4023.6579   -4366.6231            0    1919.5014    17.812235      23.4415    22.103522    9229.2266    1112.6405    1999.5729    2646.2908   -22.880204    340.68177    387.34262   -3765.2953 
 8640000    208.66308   -4342.6776   -3985.0362   -4342.6776            0    2981.8245    17.987783    23.376291    21.923963    9218.7558    3433.3355    2450.5497    3061.5883   -14.015575    -952.4764     182.1496   -3584.1416 
 8641000    205.87702   -4361.3344   -4008.4683   -4361.3344            0    2935.2783     18.11012    23.021242    22.139329    9230.2727    2238.3515    3173.0727    3394.4107    -300.7348    127.31063    64.049683   -3613.3385 
 8642000    202.79454   -4347.8449    -4000.262   -4347.8449            0    1300.1211    18.025569    23.458398    21.950245    9281.6822   -1075.3537     2207.114    2768.6031   -166.86235   -562.00127   -329.94667   -3824.2726 
 8643000    215.77963   -4365.6103   -3995.7714   -4365.6103            0    1311.7509    17.892514    23.454001    22.125284    9284.8983    2264.3275    -188.2699    1859.1952    78.025413   -162.74598    81.917456   -3818.1463 
 8644000    199.39824    -4332.748   -3990.9862    -4332.748            0    1133.4888    18.067687    23.577192    21.969603    9358.7287    826.69043     1576.222    997.55388    753.19059   -462.95366     -20.4545   -3836.2792 
 8645000      218.018   -4338.6239   -3964.9485   -4338.6239            0    2201.4175    18.124289    23.161492    22.128529    9289.2374    1832.2822    2254.9248    2517.0456   -1588.6651   -372.71118   -801.70339   -3666.7136 
 8646000     206.5174   -4352.0364   -3998.0726   -4352.0364            0    1394.5299    18.092681    23.414246    22.018092    9327.4467    1003.6765    2554.2194    625.69361    488.23782    260.08972   -437.67367    -3808.373 
 8647000    191.30989   -4335.8302   -4007.9315   -4335.8302            0    2556.6025    17.811035    23.595424    22.007147    9248.6996    3179.5111    2857.4285     1632.868    887.94437     43.29696    59.042182   -3663.0899 
 8648000     196.0342   -4352.7643   -4016.7683   -4352.7643            0    1045.7162    18.043991    23.531418    21.974922    9330.5673    483.78749    306.56752    2346.7935    32.580189    339.62944    97.932484   -3874.4707 
 8649000    216.74443   -4325.5774   -3954.0848   -4325.5774            0    3072.9021    18.081683    23.331256    21.930596    9251.8246    3170.1941    2260.9408    3787.5714   -55.825304    207.49901   -582.76661   -3539.4631 
 8650000    210.52513   -4354.9212   -3994.0883   -4354.9212            0    1030.4911    18.146761    23.473638    21.964236    9356.1166    828.79041    782.54315    1480.1397    514.19727   -334.45571   -628.73014   -3853.4785 
 8651000    213.32674   -4332.7787   -3967.1439   -4332.7787            0    1531.9822    17.885841    23.306949    22.358842    9320.6049    2978.7086    1119.2883     497.9495   -12.307784   -235.24953    472.92182   -3758.8994 
 8652000    207.22865    -4360.354   -4005.1712    -4360.354            0     1298.846    18.051899    23.462355    22.001954    9318.7091    450.69118    1519.5762    1926.2706   -909.65815    101.16156    338.22524   -3828.6531 
 8653000    207.72383   -4334.3393   -3978.3077   -4334.3393            0    1704.1767     17.96088    23.420745    22.201971    9339.4185    2373.5363    1393.8997     1345.094   -272.58836    -105.8642   -913.58805   -3746.1889 
 8654000    202.66987   -4356.0452    -4008.676   -4356.0452            0    705.70979    18.100463    23.529044    21.939317    9343.6614   -21.834218    823.34093    1315.6227    545.27132    5.8144655   -203.10075   -3912.5105 
 8655000    207.27639   -4349.2685   -3994.0039   -4349.2685            0    1736.8079    18.006642    23.389706    22.154728    9330.9085    1327.6394     1428.022    2454.7623    413.58413   -621.65611    900.80282   -3757.6561 
 8656000    198.44876   -4369.4144     -4029.28   -4369.4144            0    1885.3728    18.179294    23.426116    21.858622    9308.9373    928.29163    2001.6539     2726.173   -312.71867    173.94344    717.41285   -3773.3193 
 8657000    203.74106   -4346.4338   -3997.2286   -4346.4338            0    948.29977     17.93736    23.439811    22.185694    9327.9379    1532.0798    38.684131    1274.1354   -3.7186321   -341.58816    638.14667   -3868.2234 
 8658000    211.08166   -4353.6991   -3991.9123   -4353.6991            0    2614.1011    18.238161    23.290008    21.694717    9215.1978    2483.7683    2145.2157    3213.3191   -1199.8487    382.63242    552.40437   -3640.5923 
 8659000     202.5709   -4337.7862   -3990.5866   -4337.7862            0    2501.1767    17.995291    23.290937    22.073105    9251.4384    2237.8058    2125.2662     3140.458   -8.2491878    592.89991    29.273966    -3653.121 
 8660000    216.81833   -4334.4684   -3962.8492   -4334.4684            0    1449.9245    18.032373    23.618237    21.955377    9350.6384    1462.5807    468.81508    2418.3777    -807.2728    240.01397   -308.00201   -3765.1238 
 8661000    201.45843    -4355.511   -4010.2182    -4355.511            0    836.20554    18.182319     23.14292    22.113564    9305.2098     652.9432    1069.5007    786.17276   -74.087416    1370.3073   -155.72023   -3896.7393 
 8662000    207.64708   -4352.1262   -3996.2263   -4352.1262            0    1027.4458    18.123101    23.316056    22.012737    9301.6849    355.39306    1688.5431    1038.4014     453.0134    606.25017    607.08977   -3856.8475 
 8663000    215.60243   -4360.9413   -3991.4061   -4360.9413            0    1358.3945    17.858068    23.578639    22.100962    9306.0283    2200.2836   -630.87191    2505.7718    161.65736   -572.14016    152.06916   -3807.0463 
 8664000    217.22789   -4367.3476   -3995.0264   -4367.3476            0    1334.8184    18.136616    23.422774    21.902583     9304.433     1007.032    1395.2638    1602.1594    57.923374    108.95117    522.63795   -3813.8974 
 8665000      213.046    -4353.149   -3987.9955    -4353.149            0    1372.2579    18.051182    23.335037    22.094318     9306.679     1520.149  -0.14784804    2596.7726    371.43617   -285.66321    51.837691   -3801.7411 
 8666000     206.8019   -4323.3658   -3968.9144   -4323.3658            0    2559.0237    17.738205    23.645889    21.953098    9207.9114    3650.3688    2204.4373    1822.2648    283.59493    -870.1785   -446.36476   -3625.2684 
 8667000    197.22769   -4351.5462   -4013.5047   -4351.5462            0    1099.9789    18.118299    23.199841    22.147222    9309.4003    281.07242    942.01297    2076.8512     182.4489   -181.48834    420.15947   -3864.1627 
 8668000    218.14633   -4323.8554     -3949.96   -4323.8554            0     965.0849    18.191919    23.371534    21.879811    9302.7061     735.9254    1409.6186    749.71071    585.84448   -471.98914    645.39371   -3819.0266 
 8669000    219.95579   -4336.9532   -3959.9565   -4336.9532            0     2168.063    17.986744     23.43608     22.02641    9284.9857    3020.4111    699.09023    2784.6876     508.5124   -16.352011    906.42776   -3666.3748 
 8670000     221.9344   -4366.5708   -3986.1828   -4366.5708            0    1115.2692    17.996962    23.559446    21.996824    9326.6192    1526.1787    1473.7186    345.91036    196.40298    65.249968    747.70178   -3834.4848 
 8671000    204.17386   -4338.5654   -3988.6184   -4338.5654            0    1700.4595    18.019788    23.252974    22.197053    9300.8685    2200.9692       268.03    2632.3794   -970.02847   -356.14367   -80.603402   -3757.9619 
 8672000    199.79202   -4335.6221   -3993.1855   -4335.6221            0     1370.077    18.205223     23.55106    21.776618    9336.7748    210.80409    1242.8432    2656.5837   -369.66899     741.5553   -457.55576   -3806.6258 
 8673000    208.08959   -4350.7264   -3994.0679   -4350.7264            0    652.58522     17.96482    23.422645    22.201144    9341.8776    859.38043    -66.76831    1165.1435    -281.1632     89.98528    239.68333   -3905.1586 
 8674000    198.53748   -4343.0231   -4002.7367   -4343.0231            0     1342.014    18.210311    23.458804    21.799504    9312.5764   -319.50062    2690.8998    1654.6428   -542.55204   -326.39594   -1003.8434   -3820.4719 
 8675000    208.62024   -4331.3176   -3973.7497   -4331.3176            0    2176.5043    17.854952    23.396163    22.170463    9261.4308    2211.6118     2026.954    2290.9472     38.61137   -203.72329    48.160746   -3679.7726 
 8676000    210.67924   -4358.2585   -3997.1615   -4358.2585            0    2360.1323    18.162664    23.311565    21.832627    9243.9368    842.87705    1863.3994    4374.1205   -1222.7257    961.23269   -94.721709   -3678.9842 
 8677000    215.48168   -4336.6356   -3967.3073   -4336.6356            0    1250.8151    18.097323    23.288414     22.19436    9353.9895    819.02818    1337.2198    1596.1972   -404.67718   -90.766637    542.10706   -3796.6732 
 8678000    209.37573   -4327.9103   -3969.0475   -4327.9103            0    3058.1249    17.879768     23.58606    21.888497    9230.6694    2897.4514    3313.5134    2963.4098    755.85536   -263.27554    422.19974   -3557.3632 
 8679000    205.94121   -4342.2103   -3989.2341   -4342.2103            0    1852.4863    18.212759     22.99679    22.120143    9264.6902    1894.1709    2471.4358    1191.8523    1165.9428    652.96704     916.3139   -3738.9336 
 8680000    215.25854   -4358.5276   -3989.5818   -4358.5276            0    828.60514    18.055203    23.433662    22.018038    9315.8212     258.4549    871.20089    1356.1596   -274.88433   -255.21239    394.67034   -3877.0061 
 8681000    207.57006   -4334.4819   -3978.7139   -4334.4819            0    2390.6761    17.833675    23.622504     22.03175    9281.4491    2991.4536    1907.9617    2272.6131   -584.68672    89.260504   -122.06608    -3655.111 
 8682000     215.7066   -4327.7439   -3958.0301   -4327.7439            0    1974.2729     18.20124    23.235792    21.961195    9287.8336    1517.2509    898.73944    3506.8285    1397.6974    505.56964    72.161868   -3690.6079 
 8683000    202.21779   -4348.4392   -4001.8448   -4348.4392            0    2325.2889    17.960961    23.367846    22.183042    9310.4215    3641.0711    708.72822    2626.0673   -493.32734    -334.5588   -331.48115   -3686.1103 
 8684000    208.63831   -4360.2071   -4002.6081   -4360.2071            0    1803.3277    17.923323    23.537195    21.897532    9237.7969    3075.9469    1833.1736    500.86249    332.19327   -798.01979    251.20095    -3759.657 
 8685000    213.37137   -4331.7448   -3966.0336   -4331.7448            0    2216.0981     18.15215    23.346406     21.97045    9310.8011    1196.3193    1536.5041    3915.4709   -1.7979311   -305.22241   -206.14636    -3665.113 
 8686000    214.52523   -4327.6618   -3959.9729   -4327.6618            0    2258.9007    18.059224    23.116108    22.135005    9240.4567    984.00067    2590.6293    3202.0721   -162.84507   -47.960018   -57.692588   -3655.5576 
 8687000    196.13183   -4330.0208   -3993.8575   -4330.0208            0    1843.6884    17.967745    23.543791    21.936206    9279.6472    2238.6523    675.30353    2617.1094   -262.90295    519.64303   -100.05342   -3744.3436 
 8688000    217.36705   -4324.3603   -3951.8006   -4324.3603            0    3422.1469    18.106015    23.090626    22.031362    9210.8546    3436.1502    3942.3532    2887.9374    33.102738   -515.46052   -696.79365   -3492.1006 
 8689000    200.01613   -4352.7037   -4009.8829   -4352.7037            0    2411.3586    18.038829    23.496724    21.925909    9293.3705    3263.7112    2238.0794    1732.2852   -516.25694    -757.8058    267.62045   -3683.0611 
 8690000    221.75904   -4331.2238   -3951.1364   -4331.2238            0    284.28082    17.989644    23.565017     22.07789    9359.3975    179.61099    368.27391    304.95756   -854.40661    61.880506    504.69653   -3912.3328 
 8691000    211.51353   -4336.1209    -3973.594   -4336.1209            0    1235.5206    18.140008    23.406997    22.052242    9363.4509    654.59759    2247.9187     804.0455    44.555354    287.50991    966.63962   -3804.8758 
 8692000    208.17894   -4328.8415   -3972.0299   -4328.8415            0    1695.6003    18.200003     23.09499    22.090101    9285.1077    2483.0579    2840.2186   -236.47558    234.01075    161.20649   -365.33708   -3742.4223 
 8693000     214.3303   -4346.3574   -3979.0026   -4346.3574            0    640.97675    17.983652    23.537814    22.027526    9324.1607    252.31394    1237.7349    432.88141    516.24827     731.9546   -73.623768   -3891.8405 
 8694000    223.10136   -4349.0101    -3966.622   -4349.0101            0    1179.4836    18.006578    23.463435    22.051624    9316.7268    1707.1169    1631.0526    200.28119   -749.01501    160.04735   -115.07284   -3806.3598 
 8695000    211.65273   -4353.0317   -3990.2662   -4353.0317            0    2145.1828    18.070376    23.283159    22.014956    9262.4722     2230.528    2124.2466    2080.7739   -1205.7108   -125.39388   -340.21656    -3700.487 
 8696000    213.14135   -4348.9641   -3983.6472   -4348.9641            0    906.29165    18.073012    23.386113    22.107697    9343.9841     351.5967    1314.6481    1052.6301   -386.66268    22.617713   -387.51112   -3860.1446 
 8697000    206.15588   -4336.8908   -3983.5467   -4336.8908            0    1150.6023    18.088799    23.525394    21.966297    9347.6723    6.3315383    1550.0355    1895.4399   -128.82763    134.14983    561.10112   -3826.6894 
 8698000    211.18193   -4335.1887   -3973.2301   -4335.1887            0    1054.2816    18.024589    23.255744    22.281049    9339.6638    1724.6593    2023.3796   -585.19403    197.20288   -481.43081    58.642595    -3829.627 
 8699000    220.30375   -4342.2727   -3964.6796   -4342.2727            0    581.03538    18.148522    23.576473    21.857898    9352.5169    1158.9708   -1145.9363    1730.0716    679.58454   -259.06848    95.747376   -3885.4282 
 8700000    210.46872   -4349.0706   -3988.3344   -4349.0706            0    1014.6744    17.937673    23.467329    22.160041     9328.253    1217.2276    1230.7504    596.04527   -1883.7867   -503.25636    750.74332    -3850.295 
 8701000    209.69107   -4341.4081   -3982.0048   -4341.4081            0    864.66955    18.211863    23.430886    21.881027    9337.0735    884.98573    527.78568    1181.2372   -892.77964    532.73322   -566.31347   -3864.2613 
 8702000    212.89467   -4340.9643   -3976.0701   -4340.9643            0    835.95112    17.974564    23.386708    22.243389    9350.3617    922.71606    1082.7594    502.37789   -518.08109   -519.41882    403.02763   -3862.0753 
 8703000    203.14077   -4350.3925   -4002.2161   -4350.3925            0     1944.037     17.98237    23.519541     21.89294    9259.3362    3138.7154    1492.3633    1201.0322   -792.56209   -536.61528    294.24029   -3739.6974 
 8704000    209.05924   -4363.6394    -4005.319   -4363.6394            0    1707.8411    18.043742    23.285637    22.102177     9286.451    1265.5737    1197.6723    2660.2774    30.228892    91.665105    609.88551   -3774.0203 
 8705000    197.45948    -4346.457   -4008.0182    -4346.457            0    2404.6008    18.024794    23.485082    21.907967    9273.9437     2261.003    1963.7374    2989.0621   -1114.4654   -738.98409    -135.1729   -3682.7936 
 8706000    202.58946   -4346.3149   -3999.0835   -4346.3149            0     1628.193    17.717906    23.538583    22.322806    9309.8244    2789.4136    510.59684    1584.5685    23.914936    10.180886    627.19326   -3778.0168 
 8707000    202.38465   -4340.4492   -3993.5688   -4340.4492            0    1259.8669    18.300395    23.223967    21.956148    9331.5333    433.61187    958.51933    2387.4694    136.15892   -875.22117   -213.21593   -3822.1125 
 8708000    221.75682   -4350.4756    -3970.392   -4350.4756            0    980.76524     17.97105    23.423186    22.194504    9342.5378    702.51401    919.78203    1319.9997   -347.76227   -689.86125     124.8746   -3836.7615 
 8709000    202.46237    -4341.557   -3994.5434    -4341.557            0    503.08637    18.023875    23.717288    21.982985    9397.2296    1079.4231   -8.9992203    438.83519   -638.21428   -206.40362    43.031938   -3925.5959 
 8710000    216.11271   -4330.3549   -3959.9451   -4330.3549            0    1275.6531    18.098642    23.337137    22.140619    9351.5444     1894.607     280.4481    1651.9042      680.695    248.34579   -35.916717   -3785.9681 
 8711000    215.96965   -4365.6638   -3995.4992   -4365.6638            0    1959.4484    17.958829    23.471413    22.026766    9284.7025    2583.8081    1617.0514    1677.4857    166.55464    56.867485    690.65452   -3730.1745 
 8712000    223.62209   -4363.1097   -3979.8291   -4363.1097            0    2251.6795    17.994854     23.37904    22.025642    9266.2408    2673.7475     1806.882     2274.409   -158.51563    8.7918984   -477.70697   -3675.5403 
 8713000    212.17849   -4335.4404   -3971.7737   -4335.4404            0    2116.7185    18.394406    23.045518    22.038219    9342.1911    2350.1094    1084.1241     2915.922    321.42898   -273.98791   -193.11646   -3683.3787 
 8714000    201.21653   -4332.7181   -3987.8399   -4332.7181            0    590.33668      17.9426    23.592453    22.068873    9341.9732   -103.13975    219.88114    1654.2686    534.39957    267.68935    185.81657   -3907.4106 
 8715000    204.81124   -4382.4891   -4031.4496   -4382.4891            0    1750.1467    17.929627    23.512123    22.119902    9324.9455    3009.1748    1400.7147    840.55066   -352.07572   -1005.6063    593.97814   -3793.4388 
 8716000    211.25819   -4357.3581   -3995.2688   -4357.3581            0    2159.8874    18.271268    23.182946    21.890489    9272.4134    2087.6513    2041.1384    2350.8724   -510.35026   -85.686874   -64.683332   -3703.1902 
 8717000    212.28842    -4370.293   -4006.4379    -4370.293            0    683.43657    18.092235    23.321772    22.130679    9337.8846    1159.4847    2122.5507   -1231.7256    210.54425    -101.7763   -178.93676   -3913.3652 
 8718000    209.47136   -4337.3095   -3978.2828   -4337.3095            0    1769.4472     17.94303    23.519483      22.0063    9286.8956    2533.4415    1945.9974    828.90254   -537.12359    -723.3194   -224.00303   -3738.6291 
 8719000    212.07941   -4334.4842   -3970.9874   -4334.4842            0    1612.3188    17.928314    23.443006    22.190706     9326.611    2906.0584    1801.5987    129.29943    -479.3727    470.30926   -50.978828   -3751.6813 
 8720000    208.49825   -4361.3953   -4004.0365   -4361.3953            0    2314.3762    18.225857    23.242368    21.812999    9240.2496    1664.0512     1181.194    4097.8835   -650.06006    76.875709    432.21319   -3692.1521 
 8721000    213.34428   -4355.4916   -3989.8268   -4355.4916            0    1551.6561    17.888488    23.474794    22.131497    9293.6483    1695.2386    2193.0048    766.72494      434.316   -481.11244    370.08242   -3779.5179 
 8722000    212.03238   -4365.0731   -4001.6569   -4365.0731            0    1468.0527    17.945549    23.610233    21.911328    9283.7989    2083.2839   -564.14296    2885.0171   -188.67932   -818.09732   -323.00993   -3802.8904 
 8723000    201.74938   -4339.2528   -3993.4613   -4339.2528            0    1281.1345     18.17244    23.167414    22.124483    9314.5939    967.29943    1688.2426    1187.8616   -530.34041   -504.58438    705.67409   -3819.4271 
 8724000    209.96125   -4343.8178   -3983.9514   -4343.8178            0    1069.6529    18.106754    23.365029    21.960732    9290.8134    828.92876    889.63992    1490.3899   -170.23316   -1026.1016    350.07379   -3839.0167 
 8725000    203.46066   -4352.4461   -4003.7215   -4352.4461            0    924.29145    17.934471       23.585    22.026801    9316.9953    836.84967    1151.0335    784.99121    -691.8443    648.89388   -226.25216   -3878.1299 
 8726000    209.46356   -4340.8114    -3981.798   -4340.8114            0    1825.2261    18.106794    23.380155    22.018533    9321.3179    555.01454    2128.8205    2791.8433   -713.84178    44.636109   -71.432614   -3733.6734 
 8727000    217.05165   -4304.6546   -3932.6355   -4304.6546            0    1575.1259    17.899159     23.43853    22.195866    9311.8312    1967.1395    1494.5538    1263.6844    243.99524    685.77432    636.30132   -3718.7278 
 8728000    211.32936   -4331.8342   -3969.6229   -4331.8342            0    896.98311    18.075173    23.485236    22.003488     9340.474    806.23949    1089.1848    795.52501    368.70873   -95.370717     -995.481   -3847.4348 
 8729000    206.69369    -4321.171   -3966.9051    -4321.171            0    3852.7877    17.998652    23.189628    22.004515    9184.2894    3549.8568    2873.4611    5135.0452    -445.2068   -215.61618   -141.01346   -3450.8495 
 8730000     213.0037   -4318.8139   -3953.7328   -4318.8139            0    1314.4238    18.037878    23.554112    21.870392    9291.9902    212.54534    949.21203    2781.5141   -146.58258   -31.039926   -38.317748   -3775.6098 
 8731000    220.37182   -4343.7538    -3966.044   -4343.7538            0    1198.2648    17.951712    23.417378    22.205543    9334.8107     2400.012    874.23315     320.5494   -6.5671893    260.64433   -709.29267   -3802.9139 
 8732000    213.25505    -4345.043   -3979.5311    -4345.043            0    1002.2181    18.075856     23.51104    21.946635    9326.9287    1492.9489    816.15849    697.54691     146.0675    156.13114   -363.90562   -3843.2057 
 8733000    203.50404    -4343.613    -3994.814    -4343.613            0    1564.0828    17.890497    23.323633    22.256599    9287.0423    1367.1839    3136.5261    188.53835    1026.2771   -187.58246   -724.61059   -3782.9715 
 8734000    217.38017   -4334.6355   -3962.0533   -4334.6355            0    2741.2381    18.130523    23.439005    21.687303    9216.2669    1976.5045    1791.0445    4456.1652   -66.583456    196.38501    24.644364   -3593.6041 
 8735000    203.65804   -4353.5235   -4004.4606   -4353.5235            0    2128.1026    17.941642    23.308528    22.160111    9267.2093    1949.7345    2183.1059    2251.4673   -1424.1549   -58.035995   -158.57403   -3716.8417 
 8736000    213.81454   -4361.2014   -3994.7306   -4361.2014            0    908.58106    18.171789    23.566532    21.808182    9339.2679    291.96609    366.67767    2067.0994   -972.66678    -47.19299    -904.9258   -3870.9785 
 8737000    214.97282    -4353.317    -3984.861    -4353.317            0     944.9367    17.877968     23.42914    22.214392    9304.8408    2348.1651    944.93093   -458.28596   -1245.2863   -89.734838   -113.17468   -3856.6316 
 8738000    214.48263   -4336.2754   -3968.6595   -4336.2754            0    2272.3813    18.117375    23.688076    21.672161    9300.9495    1300.1523    1094.4989    4422.4929    -50.49099    209.66851   -722.99093   -3660.4228 
 8739000    213.87668   -4346.7685   -3980.1912   -4346.7685            0   -190.91901    18.125241    23.327988    22.315357    9435.4998   -360.01677    -361.0587    148.31844    97.896767   -793.37335   -433.73253    -4006.463 
 8740000    213.89391   -4349.4067   -3982.7999   -4349.4067            0    1082.7535    18.115135    23.595471    21.885624    9354.6847     1747.828    1157.0813    343.35114     98.92262    20.549118    470.17761   -3835.0815 
 8741000    199.14353   -4338.6734   -3997.3482   -4338.6734            0    2270.7939    17.835272     23.34855    22.183209    9237.7035    3098.7951    2393.2406     1320.346    250.19855    218.79484    116.25639   -3691.4214 
 8742000    211.29148   -4345.3282   -3983.1818   -4345.3282            0    66.338349    18.278057    23.513782    21.893092    9409.3498    -936.9081    67.152053    1068.7711   -506.00903   -341.93179   -48.163074   -3974.0785 
 8743000    215.98246   -4332.1695    -3961.983   -4332.1695            0    1915.2846    17.902251    23.301176    22.232069    9273.9629    2567.4715    1662.8491    1515.5332    -877.7478    521.26795   -38.459794   -3702.9384 
 8744000    213.34719   -4333.6098     -3967.94   -4333.6098            0    2703.7276    17.943021    23.545535    21.838601    9226.3291    3405.2631    3025.8779    1680.0417    71.763178    145.32348    100.45112   -3604.1357 
 8745000    220.20882   -4338.0973   -3960.6669   -4338.0973            0    2175.1173    17.985954    23.302928    22.091818    9259.2424    1881.1845    2655.7134     1988.454   -285.04779   -1283.8521   -227.76101   -3666.9466 
 8746000    212.23619   -4350.7612   -3986.9956   -4350.7612            0    1481.0773    18.120095    23.637216    21.793455    9334.3244    792.32445    750.54772    2900.3598    242.90065    317.22028    209.72558   -3785.3743 
 8747000    213.02261   -4358.6711   -3993.5576   -4358.6711            0     847.6478    18.010494    23.320038    22.291783    9362.6696    1883.4554    2147.6875   -1488.1995   -799.67116    102.69182   -468.22946   -3877.8156 
 8748000    214.89729   -4323.7977   -3955.4711   -4323.7977            0     2227.751    18.101075    23.401774    21.926434    9287.9775    1071.0128    2748.6512    2863.5891     847.2892    262.09738    752.41825   -3653.7097 
 8749000    205.61623   -4353.9506   -4001.5314   -4353.9506            0    1738.0548    17.942114    23.187307    22.327249    9288.7901    2429.3712    3405.4538   -620.66058    813.36521    59.975282   -61.996571   -3766.0815 
 8750000      223.721   -4341.1192   -3957.6691   -4341.1192            0    1355.8383    18.037973    23.560699    21.880596    9298.9741     1308.421    302.79852    2456.2953   -515.42461   -530.18688    302.01502   -3773.7957 
Loop time of 372.985 on 64 procs for 250000 steps with 864 atoms

Performance: 115.822 ns/day, 0.207 hours/ns, 670.269 timesteps/s
195.3% CPU use with 32 MPI tasks x 2 OpenMP threads

MPI task timing breakdown:
Section |  min time  |  avg time  |  max time  |%varavg| %total
---------------------------------------------------------------
Pair    | 16.861     | 24.749     | 35.868     | 107.2 |  6.64
Bond    | 0.91635    | 1.2001     | 1.9077     |  17.4 |  0.32
Kspace  | 184.46     | 198.37     | 212.37     |  44.7 | 53.19
Neigh   | 1.1924     | 1.3035     | 1.566      |   8.8 |  0.35
Comm    | 53.796     | 62.5       | 66.826     |  33.3 | 16.76
Output  | 0.55505    | 0.55532    | 0.55685    |   0.0 |  0.15
Modify  | 67.184     | 69.818     | 73.188     |  18.0 | 18.72
Other   |            | 14.48      |            |       |  3.88

Nlocal:        27.0000 ave          39 max          17 min
Histogram: 5 3 4 4 0 6 2 3 1 4
Nghost:        2118.28 ave        2227 max        2014 min
Histogram: 13 3 0 0 0 0 0 0 8 8
Neighs:        6542.53 ave        9543 max        3975 min
Histogram: 5 2 5 4 1 4 2 5 0 4

Total # of neighbors = 209361
Ave neighs/atom = 242.31597
Ave special neighs/atom = 2.0000000
Neighbor list builds = 4546
Dangerous builds = 0

unfix		3
unfix		2
unfix		1

write_data	data.final.${pid} nocoeff
write_data	data.final.0 nocoeff
System init for write_data ...
PPPM initialization ...
  extracting TIP4P info from pair style
  using 12-bit tables for long-range coulomb (../kspace.cpp:340)
  G vector (1/distance) = 0.37170194
  grid = 24 27 25
  stencil order = 5
  estimated absolute RMS force accuracy = 0.0031546316
  estimated relative force accuracy = 9.5000794e-06
  using double precision FFTW3
  3d grid and FFT values/proc = 4410 672
Last active /omp style is kspace_style pppm/tip4p/omp

write_restart   restart.lmp.${pid}
write_restart   restart.lmp.0
System init for write_restart ...
PPPM initialization ...
  extracting TIP4P info from pair style
  using 12-bit tables for long-range coulomb (../kspace.cpp:340)
  G vector (1/distance) = 0.37170194
  grid = 24 27 25
  stencil order = 5
  estimated absolute RMS force accuracy = 0.0031546316
  estimated relative force accuracy = 9.5000794e-06
  using double precision FFTW3
  3d grid and FFT values/proc = 4410 672
Last active /omp style is kspace_style pppm/tip4p/omp
Total wall time: 0:06:13
