LAMMPS data file via write_data, version 30 Jul 2021, timestep = 3000000

864 atoms
2 atom types
576 bonds
1 bond types
288 angles
1 angle types

0.10441107646600223 18.103161323534273 xlo xhi
0.16647431287837833 23.462703487120528 ylo yhi
0.08325847641335216 22.129937323583885 zlo zhi

Masses

1 1.00794
2 15.9994

Atoms # full

707 1 1 0.5897 2.8866570227212125 2.1120866517470986 3.760201429685649 0 0 0
706 1 2 -1.1794 2.8114206312344776 2.115745150563235 2.806019103407369 0 0 0
30 1 1 0.5897 5.210584744330256 3.8515584006451418 2.0095105075379505 0 0 0
708 1 1 0.5897 2.0057733851093644 2.6020017565256035 2.630682789566464 0 0 0
29 1 1 0.5897 4.3504627242395415 2.6260946128696885 2.2338516689962216 0 0 0
28 1 2 -1.1794 5.199511513123513 2.9020886901959906 1.8886323232148663 0 0 0
188 1 1 0.5897 2.8490967002597234 0.26586962761047006 2.342477772133183 0 1 0
495 1 1 0.5897 7.874607281902438 2.190252069894702 2.9501539472397886 0 0 0
136 1 2 -1.1794 4.988653676725401 5.591218419436253 2.844908763416379 0 0 0
494 1 1 0.5897 6.378631148120196 2.028994922364511 2.7826947729812237 0 0 0
493 1 2 -1.1794 7.131768936806439 1.66526961792839 3.2482277706202485 0 0 0
3 1 1 0.5897 0.735280848228823 4.4970087823740466 2.15599041253148 0 0 0
1 1 2 -1.1794 0.6847814168492945 3.5886452490006437 1.8584138028492287 0 0 0
846 1 1 0.5897 6.956079126284128 1.5520768549069865 5.25203088044896 0 0 0
20 1 1 0.5897 1.0478159679779209 3.2785104770713542 0.1653741879158705 0 0 0
137 1 1 0.5897 5.182124476947004 5.820273612192864 3.753895605279846 0 0 0
784 1 2 -1.1794 0.7742743508608231 3.5106055947806056 6.737164326949083 0 0 0
489 1 1 0.5897 2.965033207483039 1.07302089360673 5.883798212004555 0 0 0
355 1 2 -1.1794 7.397924063169078 2.059645165461583 10.05116737530833 0 0 0
488 1 1 0.5897 2.2737235179859505 2.4008339965381507 6.109406199232978 0 0 0
112 1 2 -1.1794 0.32213606048279597 5.869845677253895 10.466103141248906 0 0 0
34 1 2 -1.1794 0.7147227827692996 3.465553249356459 9.351204034890548 0 0 0
82 1 2 -1.1794 5.151287603976108 3.7304490704824356 6.655658776608791 0 0 0
675 1 1 0.5897 2.966528169391876 1.6450490539699614 9.800559186136168 0 0 0
84 1 1 0.5897 5.90156261718143 3.15876108627991 6.492877285339389 0 0 0
785 1 1 0.5897 0.6087900476071308 3.476830057952825 7.679306841494286 0 0 0
845 1 1 0.5897 7.609072175804261 0.8081214421995834 6.397413985500181 0 0 0
274 1 2 -1.1794 5.355236135133744 3.82428455544339 9.354441028976192 0 0 0
678 1 1 0.5897 5.22731683795695 5.213239779339101 10.403796619235216 0 0 0
35 1 1 0.5897 0.48114373242747055 4.292726153191529 9.77243889080874 0 0 0
36 1 1 0.5897 1.5864297850694584 3.2614955315408225 9.689903590744235 0 0 0
356 1 1 0.5897 7.271061456976166 1.1531292017756387 9.771207055151624 0 0 0
674 1 1 0.5897 3.8009081295256495 2.9063709200867662 9.869656938970143 0 0 0
83 1 1 0.5897 4.39286671554831 3.2152605262972744 6.380654221714776 0 0 0
276 1 1 0.5897 6.004241493513146 3.1966378329145897 9.672379203181585 0 0 0
357 1 1 0.5897 7.383501299263093 2.0197132086486835 11.007381018818615 0 0 0
275 1 1 0.5897 5.463767840108214 3.8207373689663857 8.403465802155948 0 0 0
673 1 2 -1.1794 3.0343034484071882 2.4837423647764827 10.256860003587866 0 0 0
844 1 2 -1.1794 7.209899809296412 1.6478499719592503 6.169937023427748 0 0 0
183 1 1 0.5897 0.8938538648540102 5.0956363009580485 6.216715300987132 0 0 0
686 1 1 0.5897 5.291954841769803 5.284552862233928 5.883222002060386 0 0 0
419 1 1 0.5897 8.758927396646985 2.8124816638221533 6.274972141037615 0 0 0
487 1 2 -1.1794 3.024214220606369 2.0036040308080665 5.66759867498681 0 0 0
166 1 2 -1.1794 3.3422665778239367 1.9860806054170614 13.01848994304827 0 0 0
167 1 1 0.5897 3.247757057892853 2.245498613245254 12.102016141963572 0 0 0
457 1 2 -1.1794 5.444224154879387 3.0259064743722806 14.104012332373538 0 0 0
458 1 1 0.5897 6.215444663321075 2.630193176492176 13.697990448363514 0 0 0
459 1 1 0.5897 4.702981961092493 2.565159602822629 13.710931014296266 0 0 0
762 1 1 0.5897 5.159544805774245 4.875604613742799 13.744123648380755 0 0 0
71 1 1 0.5897 5.637634170942106 3.0564001318812872 15.740028268044028 0 0 0
168 1 1 0.5897 2.5149235746920846 2.2412804738051317 13.426658268844777 0 0 0
594 1 1 0.5897 8.34459410925205 2.389805858331632 13.271930982637164 0 0 0
592 1 2 -1.1794 7.584464877234291 2.0363596552345173 12.809871709247808 0 0 0
468 1 1 0.5897 0.9119860467997316 2.7835183042586302 15.03047912597961 0 0 0
365 1 1 0.5897 0.7768671059759887 4.410015167175393 13.407199795881727 0 0 0
593 1 1 0.5897 7.478867293869592 1.152692282623295 13.16233024564998 0 0 0
466 1 2 -1.1794 0.9028970678565271 2.6796989051180433 14.079018414241823 0 0 0
760 1 2 -1.1794 5.193036762726927 5.805528998886651 13.519637503605408 0 0 0
737 1 1 0.5897 3.0747652702091663 0.27384172464259554 13.464702718736337 0 1 0
467 1 1 0.5897 0.1969030663897749 2.055098696647498 13.912505778060234 0 0 0
761 1 1 0.5897 5.183231107121749 5.821836124657174 12.562654098102097 0 0 0
113 1 1 0.5897 0.38658140357517917 5.622910131166913 11.3886081953809 0 0 0
364 1 2 -1.1794 0.624373575862594 5.262451343161938 12.999338510372741 0 0 0
366 1 1 0.5897 1.3501893201412984 5.807350038049522 13.303532461116301 0 0 0
144 1 1 0.5897 5.180968094895136 5.797477956704425 19.573353907790576 0 0 0
40 1 2 -1.1794 7.5253551788654836 1.6393173985110836 20.255104594357242 0 0 0
290 1 1 0.5897 3.262579908823317 1.309835781202033 17.23892406608078 0 0 0
755 1 1 0.5897 7.71146243476576 1.8789427148027549 18.438696921861798 0 0 0
754 1 2 -1.1794 7.875442840369906 1.8018622346872375 17.49884044946508 0 0 0
291 1 1 0.5897 2.3569106131602497 2.5204585099135035 17.317447699384747 0 0 0
289 1 2 -1.1794 3.217635275379864 2.200249153868241 17.587387654355076 0 0 0
277 1 2 -1.1794 5.298864862412129 5.651368683958013 17.644036791492386 0 0 0
143 1 1 0.5897 5.411071764453358 4.950707870230504 20.806968071142276 0 0 0
569 1 1 0.5897 2.2790425999845465 2.233341992595543 20.710745488067342 0 0 0
134 1 1 0.5897 0.6522493022443958 4.051323158654984 17.098689719283648 0 0 0
570 1 1 0.5897 3.001160969584655 1.9033147982044802 19.421754428153804 0 0 0
667 1 2 -1.1794 5.362157694976467 3.1180165925259895 21.132789861967858 0 0 0
669 1 1 0.5897 4.679972624139646 2.6229536371036435 20.679181460353412 0 0 0
571 1 2 -1.1794 0.5697133238008751 5.803845626717468 17.887002789213483 0 0 0
19 1 2 -1.1794 0.9292848428963922 3.1163465233377394 21.276208433364975 0 0 0
568 1 2 -1.1794 3.0341100639775824 1.7558811948298347 20.366916173128008 0 0 0
41 1 1 0.5897 6.725223202802869 2.0065964896811077 20.63078850142751 0 0 0
72 1 1 0.5897 4.826049462553134 2.801787311226533 16.99232586219095 0 0 0
21 1 1 0.5897 0.6847572650303639 3.9680400717908624 20.914182003465445 0 0 0
756 1 1 0.5897 7.072471384031829 2.1224191132336223 17.088074520292775 0 0 0
42 1 1 0.5897 7.448533245557568 0.696528206361976 20.4017061463154 0 0 0
278 1 1 0.5897 5.322657007031558 4.728980959811482 17.38928722003086 0 0 0
142 1 2 -1.1794 5.187696271638511 5.839183060659968 20.52958768963805 0 0 0
70 1 2 -1.1794 5.668543518946054 3.1433658066708916 16.692718982140942 0 0 0
133 1 2 -1.1794 0.6274791412466256 3.152607776144271 16.77018031150584 0 0 0
81 1 1 0.5897 3.291895830804243 0.21497512049064688 21.1648854821336 0 1 0
360 1 1 0.5897 8.903670246509904 2.6380611061746824 20.978176028571088 0 0 0
648 1 1 0.5897 0.5849241389841677 5.692957812185615 19.621441309613967 0 0 0
279 1 1 0.5897 4.389436763411518 5.915460652969545 17.504622655124685 0 0 0
646 1 2 -1.1794 0.5246086985680138 5.715243304478586 20.57644063957346 0 0 0
668 1 1 0.5897 5.27755199720479 2.8580586236582857 22.050079378483463 0 0 -1
162 1 1 0.5897 7.276287351343653 7.372867284033243 0.24567751061052465 0 0 1
123 1 1 0.5897 3.131951927635285 8.79769020902091 2.773650540684465 0 0 0
121 1 2 -1.1794 3.1729391023192837 9.630645191786712 3.2434581267796867 0 0 0
122 1 1 0.5897 3.060440034734215 9.392815346491311 4.163765100876771 0 0 0
44 1 1 0.5897 1.5550378518927863 10.729617643431803 2.9704625492647105 0 0 0
218 1 1 0.5897 6.273874062403763 10.659998548917153 2.324842340779217 0 0 0
595 1 2 -1.1794 0.821737894996386 6.1528293468594075 3.0813663029171545 0 0 0
219 1 1 0.5897 4.785469914473105 10.567265862263417 2.5855871726120894 0 0 0
43 1 2 -1.1794 0.6661097771617323 11.005570355736461 2.747082020923157 0 0 0
255 1 1 0.5897 2.383757621737643 6.7984913757687115 2.3192418435562083 0 0 0
254 1 1 0.5897 3.1152144191324918 7.182189742066168 1.0505727399486853 0 0 0
415 1 2 -1.1794 7.142902979917717 7.08016167001013 2.161946597993615 0 0 0
217 1 2 -1.1794 5.4387542579132555 11.06922256797406 2.098233868157475 0 0 0
66 1 1 0.5897 7.447908792730341 9.73643612547466 3.736488287791787 0 0 0
65 1 1 0.5897 7.3527754686074225 8.794060912059638 2.555514493502793 0 0 0
64 1 2 -1.1794 7.572539847479273 9.696136863641936 2.7883319064176955 0 0 0
253 1 2 -1.1794 3.1419766295724623 7.288719848462014 2.0014161537362094 0 0 0
417 1 1 0.5897 7.944147361198263 6.617091346692878 2.4065338672421186 0 0 0
416 1 1 0.5897 6.442547571613081 6.446360204373328 2.3169922436029102 0 0 0
396 1 1 0.5897 1.1151679062189068 11.131628284187636 0.8901451626006066 0 0 0
597 1 1 0.5897 0.84566286784497 6.1910557644168165 4.037464254554665 0 0 0
138 1 1 0.5897 4.327907834731519 6.227921153592929 2.5724130645629164 0 0 0
363 1 1 0.5897 5.390137307459658 10.760696891952728 0.29262890018860094 0 0 1
685 1 2 -1.1794 5.162948951346029 6.1769473149102785 5.561955669405796 0 0 0
712 1 2 -1.1794 7.490795421798864 9.826920807033266 5.538786877934187 0 0 0
12 1 1 0.5897 2.8920906001474416 8.041323766751812 6.840922647183188 0 0 0
528 1 1 0.5897 7.8808801816895775 6.767794481704219 9.691318079035197 0 0 0
578 1 1 0.5897 5.985907046500859 10.661435406791995 6.295995339700798 0 0 0
526 1 2 -1.1794 7.14628107551469 7.278991187337383 9.351803185355527 0 0 0
145 1 2 -1.1794 7.372344430370521 7.29589137451679 6.666757765890124 0 0 0
114 1 1 0.5897 1.13490447738598 6.342644217498489 10.286893809223917 0 0 0
580 1 2 -1.1794 4.984884056164938 10.791226604608843 9.683788209231933 0 0 0
794 1 1 0.5897 2.1685189931637936 10.137096116909454 6.379884456735428 0 0 0
714 1 1 0.5897 7.5177345235004855 8.958095360013662 5.939611185081097 0 0 0
793 1 2 -1.1794 2.9160112851023063 9.613371709419894 6.091329974107132 0 0 0
650 1 1 0.5897 3.1472942399363206 7.183423569652092 8.94893155883397 0 0 0
820 1 2 -1.1794 7.4235543561007935 9.729979830825723 10.472281660868422 0 0 0
527 1 1 0.5897 7.265606825897886 8.150510242079065 9.729205412747023 0 0 0
15 1 1 0.5897 1.4798248684997837 10.7928423262778 9.980339909911875 0 0 0
552 1 1 0.5897 0.437991364243471 11.738958297103402 6.5363969081763305 0 0 0
581 1 1 0.5897 5.81603068379782 10.59163020647073 10.114582344325092 0 0 0
147 1 1 0.5897 7.207090566266463 7.353737966349774 7.6077656705543975 0 0 0
822 1 1 0.5897 8.020318876873883 10.328477124311146 10.022863035068218 0 0 0
649 1 2 -1.1794 2.9118953152449367 7.145341356699457 9.875914202048458 0 0 0
577 1 2 -1.1794 5.283457458017 10.934969007936457 6.885865585480572 0 0 0
11 1 1 0.5897 2.3070569111282118 6.646121685555006 6.785510473876373 0 0 0
258 1 1 0.5897 3.5065736841771313 10.064803463424274 10.387208210124836 0 0 0
13 1 2 -1.1794 0.6468088251541808 11.219879435071574 9.780306634073245 0 0 0
257 1 1 0.5897 2.6619757687987775 8.810236167924511 10.318684212436652 0 0 0
256 1 2 -1.1794 2.6837208244695527 9.68820614334208 10.699359385424154 0 0 0
582 1 1 0.5897 5.165646204770387 10.680157173833377 8.750440083166714 0 0 0
10 1 2 -1.1794 3.0886035355855666 7.129102046641732 7.054148302561518 0 0 0
146 1 1 0.5897 6.585179962403981 6.88460493382704 6.309703673067431 0 0 0
550 1 2 -1.1794 0.5768271983978628 10.894231903953598 6.964654996665136 0 0 0
713 1 1 0.5897 8.281616521201657 10.262528168905076 5.8567612346589275 0 0 0
795 1 1 0.5897 3.6820565948476727 10.10351822583612 6.389993860411978 0 0 0
651 1 1 0.5897 3.6740972114359893 6.7522145943400735 10.301066434021612 0 0 0
551 1 1 0.5897 0.573737579981789 11.09616244018649 7.900274257902768 0 0 0
182 1 1 0.5897 0.10471475262894359 6.387612485805764 6.211766570617708 1 0 0
165 1 1 0.5897 8.8669678361733 6.435855647441127 6.121391931697291 0 0 0
677 1 1 0.5897 5.937590822748576 6.550173455035398 10.40868567948624 0 0 0
181 1 2 -1.1794 0.9401229203184758 6.009809099133351 5.936758892804846 0 0 0
687 1 1 0.5897 4.529683935324907 6.56110407239738 6.168273960188923 0 0 0
579 1 1 0.5897 5.041497107742061 11.809661532112733 6.58158203490648 0 0 0
676 1 2 -1.1794 5.233944164920468 6.06527107560688 10.83993178922137 0 0 0
828 1 1 0.5897 7.638296797376813 7.260306321657885 14.8188084949746 0 0 0
333 1 1 0.5897 3.4719019988308535 6.067514736335933 14.155295257858866 0 0 0
332 1 1 0.5897 2.8789413722658543 7.456624491079696 14.258630391832142 0 0 0
797 1 1 0.5897 2.99313097204083 9.298479442926652 12.431956493199941 0 0 0
796 1 2 -1.1794 2.92346412406532 9.229409723784372 13.384070097984347 0 0 0
798 1 1 0.5897 2.126999128634608 9.713497295262146 13.602150272090498 0 0 0
722 1 1 0.5897 4.373405085707383 10.117136662644793 13.925085955430129 0 0 0
225 1 1 0.5897 3.015062767710958 6.762517049734923 16.229646659331365 0 0 0
723 1 1 0.5897 5.252176624998796 10.783974222048277 14.96185366203121 0 0 0
259 1 2 -1.1794 0.7888133918865619 10.716478105688418 14.10308932581732 0 0 0
827 1 1 0.5897 6.821274916107133 6.738157049823537 13.656211665396008 0 0 0
331 1 2 -1.1794 2.673934786646457 6.5332381154306916 14.40551430721432 0 0 0
261 1 1 0.5897 0.6911083175241 10.803495475280425 15.051263630943168 0 0 0
826 1 2 -1.1794 7.573453567478173 7.292371169632068 13.864393183149218 0 0 0
475 1 2 -1.1794 7.6322962735119 9.912100483111361 13.152167435337242 0 0 0
476 1 1 0.5897 6.7511914638783885 10.189025006327478 13.403567557316398 0 0 0
477 1 1 0.5897 7.642213331088048 8.968492957937986 13.312578167909816 0 0 0
721 1 2 -1.1794 5.235160899008767 10.516815129661325 14.042896802138833 0 0 0
821 1 1 0.5897 7.621094110768622 9.847026507245015 11.401487027076676 0 0 0
104 1 1 0.5897 9.084200678605235 10.63104892597249 13.932613365304881 0 0 0
851 1 1 0.5897 9.082595559688384 6.168530444126022 13.120486432337351 0 0 0
520 1 2 -1.1794 7.8508418168831176 7.193624315857034 16.556757733194548 0 0 0
287 1 1 0.5897 9.08445344993364 10.424236130970309 21.359670907451527 0 0 0
395 1 1 0.5897 0.516839175614038 10.751178799075337 21.59929630970163 0 0 0
7 1 2 -1.1794 7.729282203846368 9.978320526070336 17.629002148811605 0 0 0
139 1 2 -1.1794 7.771836357479138 9.910817096956865 20.383639567295017 0 0 0
394 1 2 -1.1794 1.260453756843088 11.206876609827594 21.993759428169117 0 0 0
462 1 1 0.5897 8.961639399991418 6.336770491607932 20.73618508765914 0 0 0
141 1 1 0.5897 7.740522019538048 8.996279354324875 20.664475202065585 0 0 0
160 1 2 -1.1794 7.352572773611105 7.354713896315196 21.338419929515073 0 0 0
361 1 2 -1.1794 5.434498169837787 10.886385948466254 21.391480513895964 0 0 0
627 1 1 0.5897 2.280971269813375 10.110707533235265 17.66291237091422 0 0 0
690 1 1 0.5897 2.5110374104295285 10.315487641608827 20.939892855784652 0 0 0
625 1 2 -1.1794 3.0266370365259694 9.559285141696025 17.899984913194462 0 0 0
688 1 2 -1.1794 3.099773632973467 9.663390178854625 20.559917832474465 0 0 0
140 1 1 0.5897 6.956964727804312 10.290764233348062 20.712064048621436 0 0 0
521 1 1 0.5897 7.034322356183926 6.796726138521593 16.86007190736754 0 0 0
689 1 1 0.5897 3.9777086245875295 9.978581931732366 20.774678780018053 0 0 0
161 1 1 0.5897 6.543327005978327 6.938976172405542 21.040841126003862 0 0 0
626 1 1 0.5897 3.0730754386255024 9.61583535881583 18.854338409390465 0 0 0
223 1 2 -1.1794 2.902729228242846 6.713365897457621 17.17891408003588 0 0 0
6 1 1 0.5897 2.6841103482791118 8.056909871721798 20.92492460598752 0 0 0
5 1 1 0.5897 3.4225903406066203 6.747457431937745 21.103760373759844 0 0 0
8 1 1 0.5897 7.650493976810712 9.923358787799733 18.58132395863661 0 0 0
4 1 2 -1.1794 2.622735826137141 7.206528316848786 21.360122940495863 0 0 0
9 1 1 0.5897 6.855777613600842 10.231140275845826 17.3301423063016 0 0 0
647 1 1 0.5897 1.233290236696727 6.2985254810811115 20.848103280280196 0 0 0
446 1 1 0.5897 0.5582674042715161 11.59524158460588 17.279136990616422 0 0 0
572 1 1 0.5897 1.4205581466027521 6.159351350645291 17.630211251305912 0 0 0
522 1 1 0.5897 7.823540774435235 8.088128969712619 16.89636807002203 0 0 0
224 1 1 0.5897 3.0872924053500292 7.600067392819886 17.488629832773082 0 0 0
679 1 2 -1.1794 5.177884126071404 10.800919397705593 16.77687791467082 0 0 0
680 1 1 0.5897 4.344599383889229 10.410169068442658 17.040031315455927 0 0 0
681 1 1 0.5897 5.066123527532042 11.737391751145202 16.94051715513695 0 0 0
445 1 2 -1.1794 0.737765433139561 10.664950613973318 17.14287698532787 0 0 0
479 1 1 0.5897 8.633759199881293 14.769176593713167 2.4345843070319533 0 0 0
173 1 1 0.5897 4.831590073285615 14.320318428584372 2.422283121999357 0 0 0
172 1 2 -1.1794 5.692814890647093 13.939660215985638 2.594426323796371 0 0 0
293 1 1 0.5897 3.3422849671815573 16.4903924708549 2.2356622678083395 0 0 0
558 1 1 0.5897 3.148031434568696 14.489651463039257 0.8638328387514284 0 0 0
556 1 2 -1.1794 3.1970245750294883 14.708773333802185 1.7942872167268564 0 0 0
557 1 1 0.5897 2.3305927605746635 14.491088974496712 2.138024867072692 0 0 0
478 1 2 -1.1794 7.934144952263442 15.265448261788004 2.009759096282636 0 0 0
200 1 1 0.5897 5.506680223383781 13.439379477644975 4.448768017604307 0 0 0
174 1 1 0.5897 5.672284542977512 13.090325676830561 2.1534574247222236 0 0 0
373 1 2 -1.1794 0.9213268054968348 13.752804162716453 3.232026728178909 0 0 0
449 1 1 0.5897 7.7083199393271515 16.93951266948514 2.626228947642932 0 0 0
480 1 1 0.5897 7.1588588675429445 14.711047455771036 2.0981270926790874 0 0 0
294 1 1 0.5897 3.1976854663439203 17.425127209769354 3.4176592708424263 0 0 0
374 1 1 0.5897 0.7781201016839145 13.601394735966519 4.1662164640290005 0 0 0
199 1 2 -1.1794 5.281963714262675 13.620441179001405 5.36138524860247 0 0 0
317 1 1 0.5897 7.605625303194728 15.158541824260503 0.11752401773639055 0 0 0
238 1 2 -1.1794 2.9232771166631895 17.225238125625367 5.180750628678656 0 0 0
45 1 1 0.5897 0.6544141271139222 11.9457156969652 2.9266291519990917 0 0 0
292 1 2 -1.1794 3.270498545021648 17.417357496083635 2.4633058840163233 0 0 0
239 1 1 0.5897 3.0948828038673235 16.289723442368967 5.289001919262578 0 0 0
518 1 1 0.5897 7.269172019850511 16.078740498550843 6.546393798969407 0 0 0
186 1 1 0.5897 7.1905095024577 16.617258513149167 9.580834433362753 0 0 0
18 1 1 0.5897 3.66003352279577 14.271958763945895 6.138950859623217 0 0 0
656 1 1 0.5897 1.2461245987599272 13.957853365851733 6.102195951440333 0 0 0
811 1 2 -1.1794 2.8909890902813475 14.760223912994736 9.189324067986748 0 0 0
655 1 2 -1.1794 0.5028463876687905 13.39201171086683 5.893289312021768 0 0 0
813 1 1 0.5897 2.1975224958084754 14.456807555394246 9.77520131622944 0 0 0
17 1 1 0.5897 3.028631897579314 14.800904150417713 7.409107319361659 0 0 0
384 1 1 0.5897 2.9994941670900563 16.213092181078945 9.995333891163193 0 0 0
377 1 1 0.5897 6.507808318495163 14.215187837731708 9.670485737618835 0 0 0
376 1 2 -1.1794 7.287211903458498 14.70880761202067 9.415256017499244 0 0 0
59 1 1 0.5897 8.804781159302498 14.086252451324873 9.86028929540987 0 0 0
382 1 2 -1.1794 2.8670604844321925 17.07167630984828 10.39724541062325 0 0 0
812 1 1 0.5897 3.651567382419783 14.227466539700705 9.421539431101403 0 0 0
456 1 1 0.5897 4.910362483392476 12.552100406326817 10.012444026230291 0 0 0
14 1 1 0.5897 0.7803778068258602 12.134646280456106 10.028483961351403 0 0 0
16 1 2 -1.1794 2.871611828472489 14.70202568991107 6.470109799417606 0 0 0
517 1 2 -1.1794 7.270474690361341 15.145563688417688 6.7595137726958665 0 0 0
519 1 1 0.5897 8.110849076971675 14.825635260570701 6.431419477523346 0 0 0
378 1 1 0.5897 7.267713127441446 14.710082248896104 8.458291125208799 0 0 0
454 1 2 -1.1794 4.95909242334918 13.502860636978356 10.112117139683132 0 0 0
766 1 2 -1.1794 0.9094162194747637 13.727653282113904 10.769129398134638 0 0 0
201 1 1 0.5897 5.9389864984251215 14.254319453715098 5.64909541644 0 0 0
184 1 2 -1.1794 7.20325666976505 17.532984828761116 9.859234213080459 0 0 0
455 1 1 0.5897 4.8893877601061675 13.64912542291371 11.055463056816052 0 0 0
383 1 1 0.5897 3.525936896861559 17.632501214936376 9.98788188518815 0 0 0
429 1 1 0.5897 5.711607422400821 13.498156308304518 13.029797369672723 0 0 0
232 1 2 -1.1794 2.9623998076382754 14.533455146063176 14.029788410299663 0 0 0
234 1 1 0.5897 3.1387298026064596 14.42925215802419 14.964788169875558 0 0 0
606 1 1 0.5897 3.002616729996294 16.225861844362278 13.364658970660109 0 0 0
427 1 2 -1.1794 4.929457839750211 12.984984945037313 12.826943415059688 0 0 0
233 1 1 0.5897 3.6785673677349826 14.068430702341606 13.597247896888286 0 0 0
639 1 1 0.5897 1.2988096447997726 13.874322923928029 13.630278414190402 0 0 0
637 1 2 -1.1794 0.4472272656966782 13.492291481590891 13.417904031863683 0 0 0
604 1 2 -1.1794 3.038116938531974 17.129417851830485 13.050723136673927 0 0 0
428 1 1 0.5897 5.0908028701132295 12.132007070464217 13.2302129393297 0 0 0
296 1 1 0.5897 6.9534792934991 14.444760540001456 14.416757030302037 0 0 0
295 1 2 -1.1794 7.038681442730879 14.38537693569776 13.46525640114529 0 0 0
270 1 1 0.5897 7.287167819452541 16.191709536798065 12.608759053004059 0 0 0
297 1 1 0.5897 7.929874808439513 14.066025275368313 13.323578644451883 0 0 0
638 1 1 0.5897 0.49336842953978666 12.59886932467486 13.758333328211735 0 0 0
268 1 2 -1.1794 7.425311254319039 17.13866265344101 12.62986268046465 0 0 0
269 1 1 0.5897 7.321444176461262 17.416666941639146 11.719872540040546 0 0 0
767 1 1 0.5897 0.8318026660337132 13.516971758605777 11.699596326124047 0 0 0
49 1 2 -1.1794 7.299709760383962 14.469230644729707 16.2073544722764 0 0 0
605 1 1 0.5897 2.989981685329755 17.054397251012578 12.097728659340643 0 0 0
50 1 1 0.5897 7.212464285561396 15.368891639193409 16.52236752714086 0 0 0
51 1 1 0.5897 8.144815783573893 14.17641624908895 16.548375770262513 0 0 0
126 1 1 0.5897 6.157208692757518 13.428109980494467 17.377505271942788 0 0 0
117 1 1 0.5897 8.909991216537195 13.893213485896803 20.71170982463466 0 0 0
824 1 1 0.5897 3.8046845339586857 14.520148758732907 17.44637466180629 0 0 0
53 1 1 0.5897 0.955715346204837 13.275851151436656 18.495258596454054 0 0 0
665 1 1 0.5897 2.28897853470456 14.312410108556081 20.843326599014706 0 0 0
823 1 2 -1.1794 3.091515232692828 14.817983126978286 16.881622895207187 0 0 0
125 1 1 0.5897 5.467530819174462 13.131055896653985 18.691983715590926 0 0 0
612 1 1 0.5897 8.255665685984944 17.20133378833104 17.079837959885637 0 0 0
684 1 1 0.5897 4.6164020151863605 13.827823286826627 20.5910326961909 0 0 0
584 1 1 0.5897 2.9771633172926864 16.49011461275203 17.244483076884094 0 0 0
666 1 1 0.5897 3.14738182451889 15.552263821598391 20.709664372443346 0 0 0
318 1 1 0.5897 7.4105711381433865 15.785713528846893 20.800253744863443 0 0 0
825 1 1 0.5897 2.3374038086329056 14.293253384167368 17.15035198857675 0 0 0
716 1 1 0.5897 2.9897109570952414 17.55203100983634 19.114754844687113 0 0 0
362 1 1 0.5897 5.416926933550124 11.836221339124082 21.274265857953004 0 0 0
157 1 2 -1.1794 7.438490702897189 17.24689761706948 19.910230715992462 0 0 0
683 1 1 0.5897 6.086222792068461 14.055846117947713 20.873153483786563 0 0 0
316 1 2 -1.1794 7.492013549743935 14.939142851047107 21.23948236854968 0 0 0
682 1 2 -1.1794 5.476887528391178 13.418303073524005 20.501011794310276 0 0 0
124 1 2 -1.1794 5.30070784015926 13.226431304278782 17.75430876963284 0 0 0
52 1 2 -1.1794 0.8855482407390199 13.346588654486546 17.543303091206266 0 0 0
610 1 2 -1.1794 7.399379809302069 16.847243423740277 17.319900650343524 0 0 0
451 1 2 -1.1794 0.723060733091632 13.343238577592109 20.23823517541367 0 0 0
664 1 2 -1.1794 3.1729260168386295 14.642171954458169 21.00513338129924 0 0 0
452 1 1 0.5897 0.8581663194459342 12.646471078441605 20.880466141615308 0 0 0
715 1 2 -1.1794 2.928178354457848 17.484654976944654 20.067563473242995 0 0 0
583 1 2 -1.1794 2.803355326507554 17.4308695174159 17.276509804326608 0 0 0
159 1 1 0.5897 7.377471840946937 17.295523399287877 18.956265012004742 0 0 0
611 1 1 0.5897 6.772625786747411 17.493136624762293 16.99396381172839 0 0 0
54 1 1 0.5897 0.12534836819159523 13.910311040826961 17.39993704839368 0 0 0
267 1 1 0.5897 6.051864609049198 22.016343144317226 2.68712603888924 0 0 0
696 1 1 0.5897 1.6667056720594422 21.782789247019444 2.576864491006388 0 0 0
266 1 1 0.5897 4.547552494467306 21.873705606195678 2.780211074607974 0 0 0
265 1 2 -1.1794 5.365080281245799 21.502408916025193 3.1119053380939183 0 0 0
187 1 2 -1.1794 2.932459180404024 22.642662994548704 2.089650990034187 0 0 0
228 1 1 0.5897 5.477233326028566 19.78708153346376 2.0273021618133904 0 0 0
343 1 2 -1.1794 0.7751825235797448 18.683367230149436 2.015793085733123 0 0 0
227 1 1 0.5897 4.757853313427974 18.460108191814214 1.9108431668514207 0 0 0
189 1 1 0.5897 3.1936596847226437 22.669630465809064 1.1692198448346602 0 0 0
226 1 2 -1.1794 5.511731765429153 18.944557449376482 1.5743183554765345 0 0 0
345 1 1 0.5897 0.854499029423586 18.836759240631 1.074345673216356 0 0 0
448 1 2 -1.1794 7.709828033214181 17.832684627077246 2.970426891902963 0 0 0
817 1 2 -1.1794 7.57713922269101 22.549061083733207 2.016885001326619 0 0 0
344 1 1 0.5897 1.5131284775148854 18.112165865487736 2.2288784822531396 0 0 0
818 1 1 0.5897 8.328291293892812 22.126241718390467 2.4330820194250595 0 0 0
249 1 1 0.5897 5.283490772597352 21.265850947708103 4.886893618975569 0 0 0
413 1 1 0.5897 0.8423629916386236 21.024275738294765 4.648477513159368 0 0 0
695 1 1 0.5897 0.9704887611011279 20.438513278207687 2.587260312842549 0 0 0
694 1 2 -1.1794 0.8740656803528647 21.343215389036388 2.884649862012979 0 0 0
498 1 1 0.5897 7.533443152447238 22.41946700140203 0.20000514841133646 0 0 0
819 1 1 0.5897 7.495673242332055 23.390181865135155 2.4664670516054965 0 -1 0
450 1 1 0.5897 6.888094827747408 18.211578369881423 2.6582813285235636 0 0 0
308 1 1 0.5897 7.7995985642529195 17.91826318961788 4.823939059432616 0 0 0
95 1 1 0.5897 0.15800152853651528 21.98603538651807 9.591154213933496 1 0 0
340 1 2 -1.1794 0.9395095239297316 18.614000500883584 6.582579399507841 0 0 0
553 1 2 -1.1794 5.116650385003574 21.293842593059736 10.120300000174426 0 0 0
700 1 2 -1.1794 2.855948202348072 22.59939532970002 6.412225818206286 0 0 0
702 1 1 0.5897 2.1404268468563297 21.969536491423906 6.325350321866995 0 0 0
307 1 2 -1.1794 7.592945760703327 17.942339941560697 5.758214162437569 0 0 0
309 1 1 0.5897 8.347020374733685 18.374068479163157 6.159719995103754 0 0 0
387 1 1 0.5897 5.0939753092854 19.434492838817743 6.126708566323625 0 0 0
39 1 1 0.5897 3.705344175213442 22.58070359295662 9.58559927566797 0 0 0
37 1 2 -1.1794 2.993417774918795 23.051287308850817 9.152071040073665 0 0 0
33 1 1 0.5897 7.020566508779221 21.887482920811983 6.182236409476092 0 0 0
385 1 2 -1.1794 5.065251989101186 18.4878455816797 6.265503001578349 0 0 0
85 1 2 -1.1794 7.444448085471027 22.47607246687934 9.325779679869004 0 0 0
102 1 1 0.5897 4.846791466958082 18.654791248912563 8.121621423352194 0 0 0
342 1 1 0.5897 1.0218180821888367 18.273222209292214 7.473232589159408 0 0 0
555 1 1 0.5897 5.050294189533458 20.389164014814185 9.814718296709827 0 0 0
31 1 2 -1.1794 7.791381199720672 22.285741467561607 6.586559506169843 0 0 0
38 1 1 0.5897 2.22545137383936 22.494012161502585 9.278372706420859 0 0 0
101 1 1 0.5897 5.700744913734495 18.22072431673329 9.293869710469568 0 0 0
386 1 1 0.5897 5.955615411655528 18.19065796934348 6.077849665750144 0 0 0
94 1 2 -1.1794 0.8057103736953941 21.38362870624104 9.956961855203213 0 0 0
100 1 2 -1.1794 4.832717545880178 18.558938460163226 9.07386989044592 0 0 0
86 1 1 0.5897 7.622664276049358 22.295404483203605 8.402860161488075 0 0 0
554 1 1 0.5897 5.924141116022609 21.62214552193693 9.72479665462656 0 0 0
32 1 1 0.5897 8.512421916488936 21.69912600594905 6.357949306902734 0 0 0
701 1 1 0.5897 2.8676695524870643 22.822401633325896 7.3429652454144625 0 0 0
341 1 1 0.5897 1.5712304932476548 18.10710217160259 6.07240084441503 0 0 0
87 1 1 0.5897 8.122557346136741 21.99471553654771 9.79983277829826 0 0 0
405 1 1 0.5897 0.5960480821103049 19.310144786610916 9.703476482799536 0 0 0
414 1 1 0.5897 1.0732793406231846 20.211665072213254 5.904701718139596 0 0 0
412 1 2 -1.1794 0.8499605205999395 21.092264330082617 5.603182003502545 0 0 0
404 1 1 0.5897 1.172914876400588 17.925180921585124 9.906077547629476 0 0 0
403 1 2 -1.1794 0.4691875026027798 18.39385543563237 9.457371336077438 0 0 0
248 1 1 0.5897 4.502223377551128 21.688557468103273 6.112746507098246 0 0 0
247 1 2 -1.1794 5.1887538425689135 21.0879578212724 5.822593074433968 0 0 0
96 1 1 0.5897 0.696027974395412 21.459957160648155 10.904745058106876 0 0 0
185 1 1 0.5897 8.103158928092357 17.819042716642883 9.70228975376227 0 0 0
240 1 1 0.5897 3.649752243137236 17.656128005486245 5.6311042073553175 0 0 0
350 1 1 0.5897 2.8992626754297937 22.73522821292232 15.784887744698741 0 0 0
88 1 2 -1.1794 4.993612918832067 21.27142415434548 12.869488828505489 0 0 0
381 1 1 0.5897 1.205670477226771 21.947115565016237 13.23149263640617 0 0 0
90 1 1 0.5897 4.964589295180057 20.322067796820463 12.988268645855042 0 0 0
763 1 2 -1.1794 5.311412814661621 18.585044039921705 13.644879636569295 0 0 0
738 1 1 0.5897 3.456818902561933 22.116365647052 13.645434175073175 0 0 0
89 1 1 0.5897 4.918642094137263 21.397331657576373 11.923614999905752 0 0 0
504 1 1 0.5897 1.0481499137676065 18.933312315222807 14.421889907931513 0 0 0
789 1 1 0.5897 6.427589445988467 22.251626052743536 13.504050962663758 0 0 0
567 1 1 0.5897 8.684350839532929 21.8412532319649 13.543159020171542 0 0 0
503 1 1 0.5897 1.7542510823435389 18.31131090440941 13.236010088537386 0 0 0
788 1 1 0.5897 7.087783091879412 22.609627262417565 14.81847237137378 0 0 0