LAMMPS data file via write_data, version 30 Jul 2021, timestep = 20750000

972 atoms
2 atom types
648 bonds
1 bond types
324 angles
1 angle types

0.1730770947113509 19.82692390528417 xlo xhi
0.06718319334917844 19.932817806627316 ylo yhi
0.06601640047428248 20.63398159953075 zlo zhi

Masses

1 1.008
2 15.999

Pair Coeffs # lj/cut/tip4p/long/omp

1 0 0
2 0.21084 3.1668

Bond Coeffs # harmonic/omp

1 450 0.9572

Angle Coeffs # harmonic/omp

1 55 104.52

Atoms # full

10 4 2 -1.1794 1.3715687291477106 4.070769208652284 3.62874974103244 0 0 0
11 4 1 0.5897 1.273448343850768 3.2653494632647893 3.1208896750759165 0 0 0
31 11 2 -1.1794 1.1816065859749205 1.8470779822263261 1.920499319333609 0 0 0
33 11 1 0.5897 1.8029876573532304 1.9445122961810946 1.1989051975559448 0 0 0
23 8 1 0.5897 2.7329867602764057 1.065322782142585 4.377592136488302 0 0 0
12 4 1 0.5897 2.3167220684887275 4.217527847805554 3.6657099936976065 0 0 0
16 6 2 -1.1794 4.1493439421927025 4.1797327743752035 3.656612970366802 0 0 0
18 6 1 0.5897 4.4866344920612145 3.314908960589109 3.423134724857017 0 0 0
4 2 2 -1.1794 4.355551128935639 1.3954274664554607 3.6215726435125264 0 0 0
5 2 1 0.5897 4.416857531111236 0.7402783932677341 2.9263665459996093 0 0 0
126 42 1 0.5897 4.435992246418541 9.822979844722408 3.2954938956811315 0 0 0
17 6 1 0.5897 4.461262699677 4.755452498464671 2.9583554355859074 0 0 0
674 225 1 0.5897 2.017661629281471 5.728273585512285 0.50846368230859 0 0 1
113 38 1 0.5897 4.941985972378995 7.685218849827161 4.154453423853306 0 0 0
111 37 1 0.5897 3.3288838297940644 9.176741457794856 0.6027263146075474 0 0 0
20 7 1 0.5897 0.955553086871672 5.509883885967292 2.486176307501564 0 0 0
13 5 2 -1.1794 4.976160258505105 5.887873724580811 1.6146710493628365 0 0 0
141 47 1 0.5897 0.8125456531059447 7.82397326630401 2.361367555019511 0 0 0
109 37 2 -1.1794 2.412758404844445 9.26709197229184 0.34049586626516104 0 0 0
110 37 1 0.5897 1.9199279037073973 9.180305727356654 1.156550064159843 0 0 0
112 38 2 -1.1794 4.317556957772437 7.846653973736382 3.447102997750621 0 0 0
22 8 2 -1.1794 2.08887173537569 0.7965324850164314 5.0327083314041365 0 0 0
19 7 2 -1.1794 0.7515634826106581 6.141986513542009 1.796911765290195 0 0 0
114 38 1 0.5897 3.4587582604692377 7.741021198838539 3.856449482434373 0 0 0
140 47 1 0.5897 1.0468988822386198 9.066708611870093 3.1936141229472588 0 0 0
14 5 1 0.5897 4.434654045423529 5.732620207888832 0.8407267230866319 0 0 0
139 47 2 -1.1794 0.7603570624093264 8.779095827681783 2.326695574611325 0 0 0
6 2 1 0.5897 5.004231855966694 1.1196515377645178 4.269225988707604 0 0 0
15 5 1 0.5897 4.583427402717421 6.6542383436079415 2.0326158191788704 0 0 0
81 27 1 0.5897 0.24803116789669727 4.419489889534162 5.057170504485079 1 0 0
32 11 1 0.5897 0.34830088844412876 2.1531683398613617 1.5625136926841896 0 0 0
132 44 1 0.5897 1.1458060616287447 7.531167982099404 5.123013640179774 0 0 0
130 44 2 -1.1794 2.0936329844520403 7.412430494579981 5.061892261772103 0 0 0
325 109 2 -1.1794 2.545858314599069 2.581846240994072 7.044524118490195 0 0 0
326 109 1 0.5897 2.3688239338490997 1.949393126902493 6.348130804189562 0 0 0
327 109 1 0.5897 3.492043182500194 2.5309917918778715 7.180064151328638 0 0 0
355 119 2 -1.1794 0.8152602840686397 2.0071805291455593 9.09964160299559 0 0 0
356 119 1 0.5897 1.548455525517223 2.1295363375195655 8.4965343306667 0 0 0
27 9 1 0.5897 2.649668765971533 4.291018255546617 6.448036840498672 0 0 0
342 114 1 0.5897 4.376934960722082 4.811196981118848 9.794846674563557 0 0 0
26 9 1 0.5897 2.2888751252453905 5.420006787056846 7.389943690394835 0 0 0
468 156 1 0.5897 4.429540175195438 9.163845120199472 7.572590309874611 0 0 0
341 114 1 0.5897 4.304545742321766 3.326266379211755 10.080375118265644 0 0 0
344 115 1 0.5897 1.4457543209251813 5.433434797633759 9.474127800264132 0 0 0
433 145 2 -1.1794 2.7574869044139345 9.206838376918359 7.37712850014577 0 0 0
25 9 2 -1.1794 2.814579615210512 5.218862052254789 6.615672189891872 0 0 0
328 110 2 -1.1794 4.029020521390162 1.379997987619633 9.792068357453688 0 0 0
343 115 2 -1.1794 1.2651100226181209 5.9099672027022665 8.663812078071016 0 0 0
339 113 1 0.5897 4.293389856527917 5.68089873937768 7.509589218858488 0 0 0
335 112 1 0.5897 1.1769611098641506 3.4719614590989667 10.010405350802772 0 0 0
437 146 1 0.5897 4.444294943215665 7.359761923952661 9.393720478681136 0 0 0
330 110 1 0.5897 4.2405953939894525 0.6401030237981892 9.222833623657575 0 0 0
464 155 1 0.5897 1.5179336752271042 8.88025000852184 8.626527485896437 0 0 0
463 155 2 -1.1794 0.741687883323318 8.569631400698322 9.09257853323029 0 0 0
435 145 1 0.5897 2.5211005538028717 8.673838747902334 6.61795511665589 0 0 0
345 115 1 0.5897 1.113468954925414 6.81230190004084 8.944875692191049 0 0 0
131 44 1 0.5897 2.2797812342448456 6.6687320978721685 5.635067995083746 0 0 0
337 113 2 -1.1794 4.878427681727238 5.836539434164266 8.251081975979496 0 0 0
438 146 1 0.5897 4.226777002243243 8.801474154736383 9.801106938045717 0 0 0
443 148 1 0.5897 1.1643688517903275 9.848426976135316 10.321895028260347 0 0 0
436 146 2 -1.1794 4.127057635755522 7.90285229905333 10.115336877823358 0 0 0
649 217 2 -1.1794 2.331495878562482 2.757253343542526 14.12330707529039 0 0 0
650 217 1 0.5897 2.3681005459341593 2.1262283953619954 13.40443714038983 0 0 0
348 116 1 0.5897 2.553250820240498 1.4360110698889719 11.00533751587827 0 0 0
347 116 1 0.5897 1.2598096334427 1.3641699203100244 11.788814323141997 0 0 0
651 217 1 0.5897 1.827456414701206 2.3144484341318887 14.806050789296432 0 0 0
346 116 2 -1.1794 2.206979580288927 1.2607660545976587 11.880419188640463 0 0 0
792 264 1 0.5897 4.448674335075503 9.347554017966539 14.308769084438902 0 0 0
683 228 1 0.5897 4.169544999291404 2.6794193223695593 14.20667361488298 0 0 0
351 117 1 0.5897 3.676438993703567 5.54358557521779 14.070831319559787 0 0 0
349 117 2 -1.1794 2.9852479606895064 5.31850310426402 13.448020418916668 0 0 0
350 117 1 0.5897 2.757453761510864 4.413135638111788 13.659249837501426 0 0 0
336 112 1 0.5897 2.3526808251305753 4.158560034253329 10.672373071450954 0 0 0
668 223 1 0.5897 1.5020976943663893 5.905334651052619 14.638809658266194 0 0 0
405 135 1 0.5897 0.37368793638439374 4.58486830845789 12.14870202798288 1 0 0
759 253 1 0.5897 2.5513976618428917 9.005454260906268 13.176969668275449 0 0 0
456 152 1 0.5897 2.6702735464534366 6.896570226504602 12.500994472363516 0 0 0
757 253 2 -1.1794 2.5463111113616974 9.545371835830633 13.967412403008948 0 0 0
454 152 2 -1.1794 2.411345490669602 7.695313457725453 12.04142629556724 0 0 0
455 152 1 0.5897 2.965409958752451 7.713597436739298 11.261042135471625 0 0 0
334 112 2 -1.1794 1.3965696276310826 4.169263883844143 10.628295726999887 0 0 0
329 110 1 0.5897 4.623999339574008 1.288146752523972 10.53629193870612 0 0 0
789 263 1 0.5897 1.4042392694491548 8.90505866172276 15.258923782968932 0 0 0
533 178 1 0.5897 0.3864089789097924 7.72820574097376 11.815288515022212 1 0 0
667 223 2 -1.1794 0.9822986784506579 5.976446932624557 15.439500264841007 0 0 0
340 114 2 -1.1794 4.139300814053122 4.18205493395353 10.476027974829535 0 0 0
658 220 2 -1.1794 1.4491572436095188 4.006939633564498 17.21620173849516 0 0 0
664 222 2 -1.1794 4.168128510889066 3.7410698128129694 17.252306201300478 0 0 0
671 224 1 0.5897 2.1745433003888914 1.5258612003934202 19.112666582126778 0 0 0
653 218 1 0.5897 3.2874632238978627 0.8170505099224893 17.275998237670333 0 0 0
670 224 2 -1.1794 1.8073278345110415 0.7477848235735389 18.693163453097224 0 0 0
652 218 2 -1.1794 4.205493595655221 0.966806252252154 17.050202380819968 0 0 0
672 224 1 0.5897 0.8625693687431906 0.8275395713575382 18.824670272514506 0 0 0
665 222 1 0.5897 3.2144752430533297 3.8031699780611206 17.198357078226888 0 0 0
666 222 1 0.5897 4.355794599173739 2.811449262403317 17.122772956300967 0 0 0
681 227 1 0.5897 0.887913351818467 2.3369272160535632 16.58026341007578 0 0 0
788 263 1 0.5897 1.1330235035152485 9.302473888780725 16.69446620932384 0 0 0
654 218 1 0.5897 4.377616389679881 0.36000485658660064 16.330161251904265 0 0 0
659 220 1 0.5897 0.8362239566595236 4.165637995967654 17.93413397578308 0 0 0
660 220 1 0.5897 1.2859861763542204 4.7202933331977475 16.59913405029739 0 0 0
673 225 2 -1.1794 2.7663342973705505 5.603550624674452 20.49317375895834 0 0 0
858 286 1 0.5897 0.3230178571684126 7.536977665902139 18.57052616506495 1 0 0
780 260 1 0.5897 2.9281430089069453 7.836264344649815 18.17987752978596 0 0 0
662 221 1 0.5897 4.494906690393654 5.040715034190012 16.19428686584462 0 0 0
675 225 1 0.5897 2.573471569866716 6.153707678458245 19.733926281792595 0 0 0
779 260 1 0.5897 2.2734278866114686 8.239679952162419 19.48403543463034 0 0 0
761 254 1 0.5897 4.580513478429004 8.993888540273673 17.041451917891298 0 0 0
679 227 2 -1.1794 0.7319767217731148 1.603284413347792 15.98553639076119 0 0 0
778 260 2 -1.1794 2.140760112799218 7.697647584766863 18.70626095086006 0 0 0
760 254 2 -1.1794 4.5423351013039825 8.055002385157582 17.22355816748835 0 0 0
669 223 1 0.5897 1.1843154489839984 6.847833382633052 15.780213827854668 0 0 0
661 221 2 -1.1794 4.5647748192934445 5.779086906385804 15.589139293108182 0 0 0
787 263 2 -1.1794 0.9195522398857751 8.63750799166225 16.039841392701383 0 0 0
663 221 1 0.5897 4.451230112690611 6.553002470493399 16.1408797151103 0 0 0
2 1 1 0.5897 2.584452057036781 3.6919361168250955 20.24989183065802 0 0 -1
1 1 2 -1.1794 2.7657885582617077 2.752796002482974 20.214077867882686 0 0 -1
3 1 1 0.5897 3.631254924188232 2.6601042763031946 20.612334271516808 0 0 -1
240 80 1 0.5897 2.6260717848643305 14.184855971546893 4.38876595254722 0 0 0
129 43 1 0.5897 1.0681636732697994 13.418060545161149 2.4678571197933277 0 0 0
120 40 1 0.5897 1.516210372597892 11.271421727103304 3.4537500673539916 0 0 0
118 40 2 -1.1794 1.8204463598963063 10.648983040658814 4.114285545199715 0 0 0
119 40 1 0.5897 2.772664068620375 10.746458201087613 4.115328944960854 0 0 0
127 43 2 -1.1794 0.9922339819872562 12.58076916839952 2.0102445265629605 0 0 0
124 42 2 -1.1794 4.561981824375846 10.758491235463952 3.4540147488103696 0 0 0
222 74 1 0.5897 4.308176411305317 13.777073071333742 2.6487519334297596 0 0 0
229 77 2 -1.1794 4.583853909393564 19.12521610415932 1.9821156819840604 0 0 0
123 41 1 0.5897 4.113384963730075 12.22538781301777 0.7654260427189619 0 0 0
220 74 2 -1.1794 3.8847157490224182 14.3181880902696 3.3152071417333326 0 0 0
122 41 1 0.5897 4.628524173876694 11.755936565434677 2.1094459842551485 0 0 0
890 297 1 0.5897 1.888288212889905 18.93024328461182 0.6389934277595898 0 0 1
247 83 2 -1.1794 0.979404546813826 15.327857270822916 2.279533445223212 0 0 0
217 73 2 -1.1794 2.7908012542127794 16.082133805247466 0.11881898046622472 0 0 0
221 74 1 0.5897 4.195753301249228 15.205682619385891 3.1368861223398943 0 0 0
230 77 1 0.5897 4.222548229773376 18.967157640928264 1.1098465283784198 0 0 0
249 83 1 0.5897 1.689762286661851 15.532634472710878 1.671457212146862 0 0 0
227 76 1 0.5897 1.5650985752204858 17.89573101964924 3.603907638510185 0 0 0
233 78 1 0.5897 4.550016028318973 17.659078788895883 2.9463819317218594 0 0 0
232 78 2 -1.1794 4.443733033753558 17.050798763484515 3.6778256148300814 0 0 0
228 76 1 0.5897 1.057236075566164 17.35971687964181 4.92564357190525 0 0 0
248 83 1 0.5897 1.0911661354793365 15.950710715236704 2.997777379863637 0 0 0
235 79 2 -1.1794 0.7978570094091778 19.00970483014231 2.188033035041293 0 0 0
234 78 1 0.5897 3.5424238359764546 17.18365123203955 3.971465756475589 0 0 0
226 76 2 -1.1794 1.762689731772033 17.25506818440715 4.287145146898297 0 0 0
783 261 1 0.5897 1.7687065632482917 12.370847955750724 0.4284607531407272 0 0 1
219 73 1 0.5897 3.7338966677174334 16.019848918732386 0.2701783304126979 0 0 0
236 79 1 0.5897 1.1129844037061865 19.912760587286897 2.224770098065674 0 0 0
317 106 1 0.5897 0.1859485574304908 13.730400642535788 4.791485929441659 1 0 0
121 41 2 -1.1794 4.77963523480762 12.410335770582227 1.4273956603884115 0 0 0
246 82 1 0.5897 5.057357525961918 14.003137024392645 4.656459561789069 0 0 0
238 80 2 -1.1794 2.002747138466726 14.113949324772767 5.111781790402963 0 0 0
188 63 1 0.5897 0.4369131062206774 10.901596008277842 5.137721664695212 1 0 0
889 297 2 -1.1794 2.664600249855661 18.858492813301552 0.08360925303427535 0 0 1
133 45 2 -1.1794 2.392529598705662 12.018341833191746 6.755426012249686 0 0 0
134 45 1 0.5897 1.900929245801549 12.258788870915296 7.540817416943163 0 0 0
135 45 1 0.5897 3.310222328869892 12.132650896562897 7.002411394444323 0 0 0
453 151 1 0.5897 1.0045844810920022 11.942989617555732 9.604688302257241 0 0 0
451 151 2 -1.1794 0.8112136727833086 12.715305774091673 9.073300359029878 0 0 0
450 150 1 0.5897 4.420333330052413 11.187121685447762 9.438798951679821 0 0 0
558 186 1 0.5897 4.391251089816191 17.88654856575279 9.615544613250462 0 0 0
576 192 1 0.5897 4.356624143769626 15.769263095925012 7.432889214879549 0 0 0
239 80 1 0.5897 2.267629297272892 13.322412769363678 5.5803236879816644 0 0 0
573 191 1 0.5897 0.9004482476673351 14.670887819315139 9.335243033540491 0 0 0
446 149 1 0.5897 4.434297034551933 13.52132121062332 8.697741622974567 0 0 0
543 181 1 0.5897 2.2273935323738967 15.435040393031464 6.49752245977688 0 0 0
242 81 1 0.5897 2.831152476846955 17.718745468659463 6.538375019397876 0 0 0
445 149 2 -1.1794 4.646262557739652 12.73402314063917 8.196262828710479 0 0 0
571 191 2 -1.1794 0.7284356654507287 15.587919126247456 9.121582243731988 0 0 0
555 185 1 0.5897 4.451919919369436 18.877915430387148 7.59630177287143 0 0 0
434 145 1 0.5897 2.617274131602657 10.109066402070427 7.089862574400263 0 0 0
559 187 2 -1.1794 0.9835324963703318 19.007993776914503 8.693284802170535 0 0 0
542 181 1 0.5897 2.0755785370521505 15.832597236535348 7.950520569412159 0 0 0
243 81 1 0.5897 2.23176750930627 18.951721713737832 7.180553383848223 0 0 0
541 181 2 -1.1794 2.6595536378927433 15.92431990730698 7.197612718541575 0 0 0
241 81 2 -1.1794 2.9078454193706693 18.67252235608987 6.56310582372963 0 0 0
572 191 1 0.5897 1.0529551680869451 16.075609807991462 9.878652183940005 0 0 0
448 150 2 -1.1794 4.064550096616094 10.668046044005523 10.160107021741984 0 0 0
551 184 1 0.5897 1.2775910223241043 18.05711948744098 10.259305466723752 0 0 0
544 182 2 -1.1794 4.234397091536585 14.754469550778369 10.006278449458957 0 0 0
557 186 1 0.5897 4.207922804186315 16.439190239825074 10.019726346524962 0 0 0
24 8 1 0.5897 2.4269650561487413 19.835327489229567 5.376581504237161 0 -1 0
561 187 1 0.5897 0.8189649906197088 19.9205824270673 8.930550993676352 0 0 0
553 185 2 -1.1794 4.944763831463274 18.993291623811068 8.408791442967603 0 0 0
457 153 2 -1.1794 2.521729445904655 12.279486887250963 13.403877310333357 0 0 0
458 153 1 0.5897 1.8292527875962905 12.485879245309452 14.031715552765803 0 0 0
459 153 1 0.5897 3.334315376852593 12.479637182774352 13.868540387067588 0 0 0
562 188 2 -1.1794 2.0553499295905837 14.34479574455286 11.55160258604756 0 0 0
563 188 1 0.5897 2.194363535062924 13.572353401004284 12.099561542264478 0 0 0
565 189 2 -1.1794 2.858434171974752 18.97916681965213 13.465843163492114 0 0 0
550 184 2 -1.1794 1.4776543475198343 17.42919287587099 10.953552119712716 0 0 0
879 293 1 0.5897 4.237765376978747 19.098118189774972 14.514300179231112 0 0 0
556 186 2 -1.1794 4.13396260555764 17.333363521571606 10.353179095951697 0 0 0
866 289 1 0.5897 3.7439288100148387 16.07918080127427 13.589250708706023 0 0 0
567 189 1 0.5897 2.604642951478397 19.568899084821005 12.75582799127539 0 0 0
564 188 1 0.5897 2.401799002130957 15.071625515377123 12.069238675699644 0 0 0
758 253 1 0.5897 2.458158021024725 10.442221067221032 13.644763810923207 0 0 0
867 289 1 0.5897 2.295924878052875 15.874893406424516 13.980899943550572 0 0 0
442 148 2 -1.1794 1.2483635907121433 10.687363584182135 10.775039984342651 0 0 0
449 150 1 0.5897 4.572707287298607 10.939355778030269 10.924618965811218 0 0 0
885 295 1 0.5897 1.57138886872599 18.762243016017926 14.740935887866751 0 0 0
566 189 1 0.5897 2.6744473418174843 18.102964639023156 13.127276047440471 0 0 0
865 289 2 -1.1794 2.849145551489217 16.257602959471342 13.299879778191729 0 0 0
552 184 1 0.5897 2.4335823672114536 17.42163565714342 11.0021483272766 0 0 0
769 257 2 -1.1794 4.635033427002038 12.711672689681897 14.90582213469685 0 0 0
546 182 1 0.5897 4.938690021289073 14.718405027976269 10.653554118252465 0 0 0
444 148 1 0.5897 2.192384994935941 10.831884668139377 10.839449093608726 0 0 0
545 182 1 0.5897 3.4463783646658297 14.518459821525253 10.495747162887163 0 0 0
896 299 1 0.5897 0.3953350159352209 15.733303247774439 15.381175833233351 0 0 0
642 214 1 0.5897 0.3356144237334161 14.210028536767387 11.861437478638573 1 0 0
877 293 2 -1.1794 4.937800328491312 19.136087830735505 15.166083189614637 0 0 0
883 295 2 -1.1794 0.8813509613390905 18.836335880990752 15.40022585271182 0 0 0
620 207 1 0.5897 0.24894057488753418 17.85911905549102 12.240506002408988 1 0 0
771 257 1 0.5897 4.554631529653198 13.484991639637007 15.464188756179098 0 0 0
888 296 1 0.5897 2.3406274070890762 13.406779896023593 19.209202734336095 0 0 0
768 256 1 0.5897 1.340344296540122 11.580576383513218 16.945694620840964 0 0 0
773 258 1 0.5897 3.40889309248779 10.881633451663145 17.319894077157063 0 0 0
766 256 2 -1.1794 1.6328036046809102 10.882888389912756 17.53218124068213 0 0 0
886 296 2 -1.1794 2.2537946987269213 14.265365340494052 18.795104620639105 0 0 0
772 258 2 -1.1794 4.332118622252855 10.80535914978767 17.0789148748559 0 0 0
891 297 1 0.5897 2.4429210126817504 19.355039243916906 19.863775745923625 0 0 0
869 290 1 0.5897 3.5010269853124387 14.37151132194307 17.358732974817226 0 0 0
887 296 1 0.5897 2.278582488672363 14.886434951652923 19.523082278834263 0 0 0
782 261 1 0.5897 2.1458408469980776 11.131459617049668 20.213103375708922 0 0 0
884 295 1 0.5897 0.868117735239246 19.765316871655358 15.6304588517661 0 0 0
965 322 1 0.5897 0.46381127105499553 14.018758948570184 18.91609917636018 1 0 0
868 290 2 -1.1794 4.327180927351427 14.458331339857578 16.88312915073648 0 0 0
775 259 2 -1.1794 0.9822087130223649 12.702635916410712 15.593714231187617 0 0 0
767 256 1 0.5897 0.9501368042761366 10.829660438681936 18.201087198148663 0 0 0
774 258 1 0.5897 4.442603775566166 11.42069708587588 16.354021390888143 0 0 0
876 292 1 0.5897 1.2728208392826788 18.077271148958886 16.921954649807674 0 0 0
875 292 1 0.5897 0.8959798344704377 17.565076531553636 18.29595924951715 0 0 0
874 292 2 -1.1794 1.5366602413720651 17.449026532260987 17.59426115587206 0 0 0
881 294 1 0.5897 3.3039344577071583 17.310716205409072 17.353563465753957 0 0 0
897 299 1 0.5897 1.4290395133007683 15.942070238101435 16.46744776921316 0 0 0
882 294 1 0.5897 4.313452811274355 16.28066715930762 16.89340581748539 0 0 0
880 294 2 -1.1794 4.217470267853641 17.21360275986798 17.0847524026498 0 0 0
895 299 2 -1.1794 1.261394171454862 15.44337441812202 15.667731707350116 0 0 0
878 293 1 0.5897 4.709836736502209 18.458810007261775 15.802952606577778 0 0 0
781 261 2 -1.1794 2.3071835750698755 12.073608516110946 20.262934340338653 0 0 0
870 290 1 0.5897 5.000921928901066 14.267376062746628 17.535749412230814 0 0 0
777 259 1 0.5897 1.1212873543085036 13.648877235373138 15.632072208153284 0 0 0
218 73 1 0.5897 2.6434907286657694 17.0016182761508 20.465339345034916 0 0 -1
711 237 1 0.5897 8.60203734230085 5.641057279057368 0.8554441266578569 0 0 1
143 48 1 0.5897 5.807816934628334 9.299618869214505 1.196245692435314 0 0 0
69 23 1 0.5897 6.675054012943263 2.317547038989964 1.7838283697231834 0 0 0
55 19 2 -1.1794 7.608838690766994 6.350728481208115 2.1595083532578183 0 0 0
46 16 2 -1.1794 8.059092444460159 4.192007045122771 3.859712688864966 0 0 0
175 59 2 -1.1794 7.3327998667234455 9.282377700087759 2.284352385150778 0 0 0
67 23 2 -1.1794 7.487418154557563 2.0136435853402865 2.1887440483964764 0 0 0
68 23 1 0.5897 8.166084736851138 2.2125490399774916 1.543642388018995 0 0 0
48 16 1 0.5897 7.425465960484251 4.140148780143841 4.575362007441599 0 0 0
47 16 1 0.5897 7.92353732236002 3.3867688462589145 3.3602607567430116 0 0 0
41 14 1 0.5897 9.891711540258564 1.1226990933518062 3.945837013836304 0 0 0
53 18 1 0.5897 9.969756460095937 4.359947276777216 3.9296148084116203 0 0 0
177 59 1 0.5897 7.873797653663968 9.378390320080749 1.5004843777714751 0 0 0
34 12 2 -1.1794 5.307521275331227 2.595862362895228 0.5182400228831301 0 0 0
176 59 1 0.5897 7.529513767790986 8.402368600573238 2.6054345109312407 0 0 0
57 19 1 0.5897 7.769327232587652 5.780396859755092 2.9113671991496406 0 0 0
56 19 1 0.5897 6.6970830015422464 6.1829066332352935 1.9212420903620795 0 0 0
142 48 2 -1.1794 5.148896601259792 9.405068021813717 0.5099401242449713 0 0 0
273 91 1 0.5897 7.2989395065525216 0.20023988608308066 1.9348620104608514 0 1 0
149 50 1 0.5897 9.941929057165256 7.702054664259344 3.577413909058383 0 0 0
9 3 1 0.5897 5.383787400579061 4.752726844338472 5.0508809559004435 0 0 0
166 56 2 -1.1794 8.459706857934645 7.915790573908874 4.927952767732882 0 0 0
37 13 2 -1.1794 9.298021388189468 2.7299818121837727 0.22927491638475705 0 0 0
36 12 1 0.5897 5.456339144508578 3.4285587334678893 0.07024489184946789 0 0 0
58 20 2 -1.1794 8.63995000326258 1.070603208265922 5.132574396195365 0 0 0
145 49 2 -1.1794 9.107982433455174 9.584634762343546 0.29171293317909175 0 0 0
709 237 2 -1.1794 9.153133558537993 5.484584296090975 0.08853827502493061 0 0 1
393 131 1 0.5897 7.630060420211944 1.465675624904972 8.92417888301323 0 0 0
361 121 2 -1.1794 9.297387095424842 3.090509852014716 7.036006864809534 0 0 0
391 131 2 -1.1794 7.512512969316396 2.4152211627165574 8.951166044817684 0 0 0
469 157 2 -1.1794 9.093457582192334 9.644476204338172 6.908448626436297 0 0 0
359 120 1 0.5897 6.042989674420887 2.5489727554989505 7.8580019023327345 0 0 0
168 56 1 0.5897 8.674464709168916 8.61045562521779 5.550523596142654 0 0 0
362 121 1 0.5897 9.268180991986835 3.970573448683857 6.660699614703825 0 0 0
466 156 2 -1.1794 5.386588767463025 9.174522231541573 7.559649775219204 0 0 0
8 3 1 0.5897 5.7556674724766905 4.067058272854206 6.348483535774917 0 0 0
392 131 1 0.5897 8.127726485081485 2.751799307283779 8.299602303894497 0 0 0
7 3 2 -1.1794 6.0368337903621665 4.759820479243779 5.7507403046552845 0 0 0
500 167 1 0.5897 7.8472547064172895 9.274280668955479 9.683229744334756 0 0 0
381 127 1 0.5897 7.874390724573453 5.2728520784586035 9.380626981571256 0 0 0
62 21 1 0.5897 8.884241166426834 5.726328712649374 7.1594337989476955 0 0 0
358 120 2 -1.1794 5.284172789758767 2.6298392858167543 7.280135610124448 0 0 0
470 157 1 0.5897 8.765004688652697 9.19344372162969 7.686285428514602 0 0 0
167 56 1 0.5897 8.858470688027074 7.128930641733971 5.299519617363715 0 0 0
61 21 2 -1.1794 9.478154965749551 5.748175837341431 6.409013593565532 0 0 0
499 167 2 -1.1794 7.724427488687812 8.580512955337747 9.03524075176435 0 0 0
338 113 1 0.5897 5.758073107985126 5.728283008958167 7.889506701555486 0 0 0
379 127 2 -1.1794 7.682004130980652 5.743363185071539 8.569505406923414 0 0 0
467 156 1 0.5897 5.622696544307857 8.62217036868423 6.814347641146341 0 0 0
501 167 1 0.5897 6.9017876120614305 8.802384965727503 8.5990223025005 0 0 0
360 120 1 0.5897 5.37296885163233 1.9025794486160381 6.664122363931613 0 0 0
380 127 1 0.5897 7.702032214933699 6.667580010172049 8.817742190078585 0 0 0
59 20 1 0.5897 9.009598418772512 1.690442495010761 5.761420240793901 0 0 0
137 46 1 0.5897 5.987957792262519 6.608970600921705 5.937276372804833 0 0 0
371 124 1 0.5897 8.010377950110563 3.531661499721783 10.256192737011858 0 0 0
60 20 1 0.5897 8.839558100452928 0.20919907864677545 5.4991268492358145 0 0 0
28 10 2 -1.1794 5.966682894863446 0.5540018035234966 5.666067051860122 0 0 0
29 10 1 0.5897 6.864089128370618 0.8582611057555577 5.530750994621704 0 0 0
136 46 2 -1.1794 5.93078127082055 7.499941773926259 5.592168376336592 0 0 0
138 46 1 0.5897 6.814317979592544 7.693028786671525 5.278608133110088 0 0 0
385 129 2 -1.1794 9.125090926419503 5.747850435272302 13.877668336016388 0 0 0
790 264 2 -1.1794 5.346891552219425 9.390609123294668 13.980757055956202 0 0 0
386 129 1 0.5897 8.983207682904858 4.830343897826027 13.644755394633501 0 0 0
490 164 2 -1.1794 8.695251647538385 7.544234789100917 11.912144899785122 0 0 0
354 118 1 0.5897 5.5165084300281695 1.4116944859183214 12.740953062158868 0 0 0
370 124 2 -1.1794 8.165603929270455 4.275961630701431 10.837705938229803 0 0 0
384 128 1 0.5897 9.104352319835607 1.0332519328502676 11.319945022234906 0 0 0
372 124 1 0.5897 7.421235891777507 4.269740666479181 11.439517432599615 0 0 0
352 118 2 -1.1794 5.580475252620851 1.0418058410730069 11.860344557042067 0 0 0
686 229 1 0.5897 8.159288087787488 2.751244181675204 14.464199791757583 0 0 0
353 118 1 0.5897 6.519426741541377 0.9222609131628835 11.717876519246055 0 0 0
383 128 1 0.5897 8.454605388221472 1.5997751616900258 12.564541922124283 0 0 0
382 128 2 -1.1794 8.40222873882351 0.8683198755882886 11.94932627396221 0 0 0
685 229 2 -1.1794 8.772826243099146 2.9646774816029327 13.761105005142136 0 0 0
791 264 1 0.5897 5.892290556936872 9.281671582510294 14.75984509588976 0 0 0
331 111 2 -1.1794 5.951843727945989 4.622617439918395 12.456021236522668 0 0 0
793 265 2 -1.1794 9.2444968506663 9.231878539042546 14.097850673435522 0 0 0
460 154 2 -1.1794 5.972826742164312 7.407097651232565 12.082674612681705 0 0 0
333 111 1 0.5897 5.950244182663875 5.579756880424932 12.448011190409222 0 0 0
684 228 1 0.5897 5.346301330176133 3.392554926281238 13.575324811360016 0 0 0
491 164 1 0.5897 9.168087266395743 7.650876740172636 11.08666679770948 0 0 0
705 235 1 0.5897 7.7725937341361 6.093744171213419 15.179777129174473 0 0 0
794 265 1 0.5897 8.988305456631258 8.781852507213605 13.292797136387705 0 0 0
687 229 1 0.5897 9.637640153081888 2.869061175444021 14.16009982025707 0 0 0
461 154 1 0.5897 5.917926593412531 8.063835962238334 12.776924062008794 0 0 0
387 129 1 0.5897 9.112971672447738 6.2124709172513075 13.040803957268185 0 0 0
492 164 1 0.5897 7.772065317706374 7.529599949646072 11.659679758459744 0 0 0
332 111 1 0.5897 5.265092535601105 4.376294508499735 11.836346285001513 0 0 0
462 154 1 0.5897 5.198401162802772 7.56368974261572 11.542305978447036 0 0 0
682 228 2 -1.1794 5.1240934349646325 2.652855976864406 14.140777109146626 0 0 0
377 126 1 0.5897 9.99668243413712 4.237413996047829 10.567278601874623 0 0 0
824 275 1 0.5897 8.047543702138407 9.014618834854877 15.375746345438266 0 0 0
762 254 1 0.5897 5.170099625240744 7.9225403210293495 17.9339649214471 0 0 0
702 234 1 0.5897 9.926900954931792 3.9430252855366548 17.626842486533626 0 0 0
715 239 2 -1.1794 7.141251286802385 2.1827905583616785 16.130470391966544 0 0 0
710 237 1 0.5897 9.082601886441301 4.543205161621947 20.498341072581283 0 0 0
655 219 2 -1.1794 5.852541480270831 4.614388763134752 19.306312389662338 0 0 0
823 275 2 -1.1794 7.234837636634067 8.934540937388801 15.875099519004888 0 0 0
657 219 1 0.5897 6.6272016990638285 4.285615413731274 18.850224887133006 0 0 0
716 239 1 0.5897 7.449721622569325 1.2775731639871823 16.090280634094633 0 0 0
38 13 1 0.5897 9.111624359546521 2.2232343116810824 20.00680022900904 0 0 -1
694 232 2 -1.1794 8.056722140788457 4.245066483423565 17.69439933150735 0 0 0
708 236 1 0.5897 7.622238681503026 1.2307324385672342 18.672089420355313 0 0 0
706 236 2 -1.1794 8.5707344328776 1.1020394750759275 18.67350837588859 0 0 0
695 232 1 0.5897 7.7647729473346585 3.522327586369032 17.13882360502227 0 0 0
676 226 2 -1.1794 5.7621414056653375 0.736650595495553 19.239051933571652 0 0 0
696 232 1 0.5897 7.805530856280854 5.033774861242936 17.213689020295334 0 0 0
677 226 1 0.5897 5.268391522651012 0.7914303450558737 18.42077746180087 0 0 0
814 272 2 -1.1794 8.565590215651547 7.605880573307879 18.961857264582985 0 0 0
656 219 1 0.5897 5.130158069749963 4.452608513097759 18.69945831949905 0 0 0
815 272 1 0.5897 8.645829641614874 6.745565829211202 19.373733832286224 0 0 0
784 262 2 -1.1794 5.988603599074454 7.297880426572292 19.54037071369591 0 0 0
785 262 1 0.5897 5.7976965550253565 6.362937282484434 19.465437797833243 0 0 0
825 275 1 0.5897 7.196220530670727 8.011158210874491 16.124237992102117 0 0 0
816 272 1 0.5897 8.763751283447458 8.226885320790261 19.66284155673292 0 0 0
786 262 1 0.5897 6.92186396315349 7.369073496160811 19.33992002756179 0 0 0
703 235 2 -1.1794 7.268258038488115 6.148634221759037 15.991543925847202 0 0 0
797 266 1 0.5897 9.792454982597427 7.7276972461961515 17.56182758606987 0 0 0
704 235 1 0.5897 6.357274525473605 6.048598465927864 15.715247664460573 0 0 0
707 236 1 0.5897 8.704467346223868 0.3084206556231237 19.191684540706838 0 0 0
35 12 1 0.5897 5.575963582493032 1.930954302322948 20.45207374199677 0 0 -1
144 48 1 0.5897 5.2371043189978215 8.619777182597025 20.537725348103365 0 0 -1
717 239 1 0.5897 6.425030423560387 2.220629956787066 15.496516039841403 0 0 0
224 75 1 0.5897 5.627285851973825 17.309603885817012 4.848340456746018 0 0 0
164 55 1 0.5897 6.726567719008503 12.68312523645163 1.6751140298997285 0 0 0
819 273 1 0.5897 8.667394042677516 12.388864707749423 0.45211414833951863 0 0 1
276 92 1 0.5897 8.817586510252507 14.521634990340013 4.267272082792684 0 0 0
156 52 1 0.5897 9.224994127506573 11.024300062164304 3.957192002732384 0 0 0
271 91 2 -1.1794 7.341265294469231 19.13705858463154 1.7075224506826454 0 0 0
154 52 2 -1.1794 8.288559564822 11.212156350353396 4.020504796999628 0 0 0
163 55 2 -1.1794 7.629511144530571 12.940908848261424 1.860770705447374 0 0 0
165 55 1 0.5897 7.888782110662435 12.391323297504643 2.6004009966650585 0 0 0
285 95 1 0.5897 7.811661420580493 14.791734905284878 2.108043311803859 0 0 0
272 91 1 0.5897 7.781389329768751 18.727536584975198 2.452425846158134 0 0 0
263 88 1 0.5897 7.865988113115739 17.536120620459016 4.461730413672696 0 0 0
254 85 1 0.5897 8.890956627151203 16.021272420196695 0.4444333106960461 0 0 0
284 95 1 0.5897 7.879969005630728 16.19178852764785 2.6798393045009927 0 0 0