LAMMPS (15 Apr 2020)
Running on 1 partitions of processors
sk
package omp 0
using multi-threaded neighbor list subroutines
echo both

include		in.partitions
variable        pid world 0
include		in.temp
variable	temperature equal 230.0
variable	tempDamp equal 100.0
include		in.pressure
variable        pressure equal 3000
variable        pressureDamp equal 1000.0 # This is 1 ps
include		in.seed
variable        seed world 745823

units		real
atom_style	full
include		in.box
read_data       iceIII.data
Reading data file ...
  triclinic box = (-0.0055270000 0.0044740000 -0.085387000) to (19.985526 19.995527 20.715385) with tilt (0.0000000 0.0000000 0.0000000)
  1 by 1 by 1 MPI processor grid
  reading atoms ...
  972 atoms
  scanning bonds ...
  2 = max bonds/atom
  scanning angles ...
  1 = max angles/atom
  reading bonds ...
  648 bonds
  reading angles ...
  324 angles
Finding 1-2 1-3 1-4 neighbors ...
  special bond factors lj:    0        0        0       
  special bond factors coul:  0        0        0       
     2 = max # of 1-2 neighbors
     1 = max # of 1-3 neighbors
     1 = max # of 1-4 neighbors
     2 = max # of special neighbors
  special bonds CPU = 0.000 seconds
  read_data CPU = 0.009 seconds
include 	in.setup
variable	out_freq equal 500
variable	out_freq2 equal 500

timestep	2.0

neigh_modify    delay 7 every 1

include		in.tip4p
# This is TIP4P/Ice

# create groups ###
group ox type 2
324 atoms in group ox
group hy type 1
648 atoms in group hy

# set charges - beside manually ###
set group ox charge -1.1794
Setting atom values ...
  324 settings made for charge
set group hy charge 0.5897
Setting atom values ...
  648 settings made for charge

# ### TIP3P Potential Parameters ###
pair_style lj/cut/tip4p/long 2 1 1 1 0.1577 8.5
pair_coeff 1 1*2 0.000 0.000
pair_coeff 2 2 0.21084 3.1668
bond_style  harmonic
bond_coeff  1 450 0.9572
angle_style harmonic
angle_coeff 1 55 104.52
kspace_style pppm/tip4p 1.0e-5
pair_modify tail yes

thermo          ${out_freq}
thermo          500
thermo_style 	custom step temp pe etotal epair emol press lx ly lz xy xz yz vol pxx pyy pzz pxy pxz pyz

restart 	${out_freq} restart.lmp.${pid} restart2.lmp.${pid}
restart 	500 restart.lmp.${pid} restart2.lmp.${pid}
restart 	500 restart.lmp.0 restart2.lmp.${pid}
restart 	500 restart.lmp.0 restart2.lmp.0


include         in.dump
dump            myDump all atom ${out_freq2} dump.water.${pid}
dump            myDump all atom 500 dump.water.${pid}
dump            myDump all atom 500 dump.water.0
dump            myDump2 all dcd ${out_freq2} dump.dcd
dump            myDump2 all dcd 500 dump.dcd
dump_modify     myDump append yes
dump_modify     myDump2 append yes


timer           timeout 00:55:00 every 1000
New timer settings: style=normal  mode=nosync  timeout=00:55:00

fix 		1 all shake 1e-6 200 0 b 1 a 1
       0 = # of size 2 clusters
       0 = # of size 3 clusters
       0 = # of size 4 clusters
     324 = # of frozen angles
  find clusters CPU = 0.000 seconds
fix             2 all nph tri ${pressure} ${pressure} ${pressureDamp}
fix             2 all nph tri 3000 ${pressure} ${pressureDamp}
fix             2 all nph tri 3000 3000 ${pressureDamp}
fix             2 all nph tri 3000 3000 1000
fix             3 all temp/csvr ${temperature} ${temperature} ${tempDamp} ${seed}
fix             3 all temp/csvr 230 ${temperature} ${tempDamp} ${seed}
fix             3 all temp/csvr 230 230 ${tempDamp} ${seed}
fix             3 all temp/csvr 230 230 100 ${seed}
fix             3 all temp/csvr 230 230 100 745823
velocity 	all create ${temperature} ${seed} dist gaussian
velocity 	all create 230 ${seed} dist gaussian
velocity 	all create 230 745823 dist gaussian

run             500000
PPPM initialization ...
  extracting TIP4P info from pair style
  using 12-bit tables for long-range coulomb (../kspace.cpp:340)
  G vector (1/distance) = 0.37651392
  grid = 25 25 27
  stencil order = 5
  estimated absolute RMS force accuracy = 0.0027243689
  estimated relative force accuracy = 8.204356e-06
  using double precision FFTW3
  3d grid and FFT values/proc = 36864 16875
Last active /omp style is kspace_style pppm/tip4p/omp
Neighbor list info ...
  update every 1 steps, delay 7 steps, check yes
  max neighbors/atom: 2000, page size: 100000
  master list distance cutoff = 10.8154
  ghost atom cutoff = 10.8154
  binsize = 5.4077, bins = 4 4 4
  1 neighbor lists, perpetual/occasional/extra = 1 0 0
  (1) pair lj/cut/tip4p/long/omp, perpetual
      attributes: half, newton on, omp
      pair build: half/bin/newton/tri/omp
      stencil: half/bin/3d/tri
      bin: standard
Per MPI rank memory allocation (min/avg/max) = 40.35 | 40.35 | 40.35 Mbytes
Step Temp PotEng TotEng E_pair E_mol Press Lx Ly Lz Xy Xz Yz Volume Pxx Pyy Pzz Pxy Pxz Pyz 
       0          230   -5023.4043     -4579.83   -5023.4043            0   -2027.4885    19.991053    19.991053    20.800772            0            0            0    8312.8663    5054.8675   -2271.6156   -8865.7176   -1874.4444   -4316.0378   -1965.7496 
     500    234.89161   -4775.1633   -4322.1551   -4775.1633            0    3419.4094    20.079857    19.983129    20.768187  0.077628052  -0.12255756  0.016677125    8333.4091    2709.5356     4538.038    3010.6546    931.89086    270.99489   -583.12728 
    1000    229.17732   -4773.7371   -4331.7493   -4773.7371            0    4201.6376    20.228806    20.321485    20.234237 -0.027650172  0.022162271   0.15806346    8317.8777    1878.0893    4697.0112    6029.8122   -78.341169   -778.47643   -271.65356 
    1500    229.76177   -4782.1683   -4339.0534   -4782.1683            0    2352.2642    20.198348    20.022313    20.841099  -0.10241429 -0.046032891  0.068263594    8428.5083     1392.513    2935.6834    2728.5963    14.469392   -1141.8432    459.79379 
    2000    224.44435    -4760.887   -4328.0272    -4760.887            0    3959.8815    20.050951    19.945616     20.90964   0.22096553  -0.20936575 -0.041452586    8362.3624     2776.737    5853.3785    3249.5291   -511.13984    232.16785    1196.8394 
    2500     222.1286   -4744.3118   -4315.9181   -4744.3118            0    3436.2443     20.24415    20.234635    20.533431  -0.19483462   0.22526305  0.095465055    8411.1705    2166.6665    4423.6992    3718.3672    452.40166    1110.8368    53.360087 
    3000    229.62902   -4777.9164   -4335.0576   -4777.9164            0    1505.7469    20.025189     20.22728    20.758913   0.22568581   -0.2419177 -0.095294506     8408.504     1053.478    505.19438    2958.5683   -211.11196    344.18936    53.412644 
    3500    222.36206   -4781.8825   -4353.0386   -4781.8825            0    2001.1325    19.932897    19.958172    21.070241 -0.049564532    0.4927396   0.24368103    8382.2514    3472.1132    1959.6651    571.61935   -483.08843   -2320.6276   -699.81546 
    4000    220.75173   -4793.9623    -4368.224   -4793.9623            0    3257.3219    20.029726    20.177871    20.595095   -0.1108219  -0.30283003  -0.20622774    8323.6569    2681.2886    4588.8481     2501.829    258.05578    987.87322    315.91602 
    4500    229.95915   -4784.5986    -4341.103   -4784.5986            0    3797.2599    20.068876    20.079812    20.680545   0.13655966  0.070710847   0.14162462    8333.8305     3830.921    3534.8313    4026.0275    -173.8741    -94.66342   -509.35452 
    5000    228.65706   -4770.0431   -4329.0588   -4770.0431            0    2402.5935    20.061714    20.128675    20.906761  -0.16537501  -0.17408019 -0.029338926    8442.4789    1568.0943    2730.3384    2909.3476    304.82934   -417.44945    355.97174 
    5500    218.69115   -4776.5666   -4354.8024   -4776.5666            0    5420.2759     20.21235    19.905629     20.67267   0.42814621  0.076738025    0.1770305    8317.4323    5569.2192    4131.3735    6560.2352    -309.4994   -1122.4632    1656.8614 
    6000    241.55599   -4777.1777   -4311.3166   -4777.1777            0    2434.2145    20.193979    20.035662    20.774758 -0.0018194259  -0.13621073  0.088723429    8405.4613    1967.4564    3643.7742    1691.4128     335.0292    667.78768    -637.1566 
    6500    239.17307   -4802.1294    -4340.864   -4802.1294            0    1970.9684    20.030838    20.077174    20.861467  0.074200857  -0.17393109  -0.25019616    8389.7024    1543.9793    2083.3683    2285.5576    632.21479    549.38816    1730.7266 
    7000    231.87058   -4774.0282   -4326.8463   -4774.0282            0    3807.8119    20.010502    20.122766    20.713562    0.4391519   0.23641609   0.41817348    8340.6606     3990.866    4004.5425    3428.0273   -517.40583    533.57371   -1012.1499 
    7500    226.52052   -4782.3786   -4345.5147   -4782.3786            0    3035.8255    20.073472    20.222284    20.600938  -0.22922062  -0.31809603  -0.13129211    8362.5685    2431.0292     3687.492    2988.9553    -175.2486    2138.2513    52.921802 
    8000    227.22782    -4763.521    -4325.293    -4763.521            0    3248.6104    20.131071    20.040242    20.890585   0.43623021    0.2068792   0.27622424    8427.9205    2701.7209    4011.5439    3032.5665   -699.27255   -1865.9013    -168.5644 
    8500    231.30189   -4769.9567   -4323.8715   -4769.9567            0    2658.4807    20.161637    20.020211    20.821787  -0.39736625  -0.40174774  -0.26398135    8404.5109    1062.0961    3229.6985    3683.6475    224.36319    1600.5073    901.80811 
    9000    241.46571   -4771.8802   -4306.1933   -4771.8802            0    2830.4954    20.153382    20.244633     20.59169   0.17162995    0.1544333   0.24375658    8401.3647    1795.1702    2890.4443    3805.8717    -330.8452    1061.3439   -1637.4073 
    9500    240.88742   -4759.3405   -4294.7689   -4759.3405            0    5072.6309     20.09597    19.947474    20.751287   0.20638961  -0.28077005  -0.19642109    8318.4404    2420.4907    7182.7582    5614.6439   -582.06604   -39.687198    917.81664 
   10000    226.35001   -4759.0694   -4322.5344   -4759.0694            0    1710.5469    20.182392    20.071755    20.956095  -0.37334862     0.155044   0.16000613    8489.2303    2152.7052     1536.327    1442.6084    553.02697   -1137.7984     5.805171 
   10500     238.3914   -4748.5511   -4288.7932   -4748.5511            0    2902.6792    20.250427    20.061499     20.65545   0.14413545 -0.061628967 -0.032710449    8391.3576    1515.7532    3001.0844    4191.2001   -325.21796   -626.35449   -516.06084 
   11000    246.57963   -4811.6475   -4336.0979   -4811.6475            0    3561.6015    19.762233    20.312916    20.867005   0.15031729  -0.21604021   0.33593685    8376.6121    5420.9653    1991.5632    3272.2761   -280.82636    1817.5605   -191.40827 
   11500    227.75966   -4792.8741   -4353.6204   -4792.8741            0    3198.4012    20.174051    19.973753     20.84271  0.038380725 -0.059256657  -0.23831825     8398.602    2853.0145    4117.5107    2624.6784    -24.96777    -672.9632    133.01147 
   12000    242.35179   -4750.6898    -4283.294   -4750.6898            0     3748.493     20.09716    20.330611    20.395621 -0.024914731 -0.042698665   0.44216986    8333.3965    4198.5342    2306.5412    4740.4035   -291.74626   -492.09093   -1374.2723 
   12500    236.44097   -4772.7023    -4316.706   -4772.7023            0    1651.0643    20.219557    20.028569    20.896678  0.088973781 -0.014627836  -0.25151679     8462.502    1676.0146    1611.1357    1666.0426   -336.78592   -115.05303   -986.15001 
   13000    237.08354   -4751.0812   -4293.8456   -4751.0812            0     1830.927    20.234116    20.136102    20.833405 -0.083857595 -0.012767531   0.27607951    8488.2839    747.99458    2891.6858    1853.1007    102.55728   -356.89943   -380.52831 
   13500    229.85607   -4782.2874   -4338.9907   -4782.2874            0    5020.6613    20.230794    19.952431    20.449512   0.15939376  -0.15788285   -0.6611459    8254.5175    4266.0275    4507.9506     6288.006   -262.61098    215.02981     1819.501 
   14000    222.70964    -4774.921   -4345.4067    -4774.921            0    1353.2881    20.199301    20.131923    20.819737 -0.010054855  0.035034865    0.2364752    8466.3623    1293.5523    2149.5271    616.78503   -35.200283   -720.68975    1198.5959 
   14500    227.00048   -4783.6514   -4345.8619   -4783.6514            0    3677.5885    19.992904    19.827723    20.919491 -0.0012434501  -0.14042875  -0.32331744    8292.7741    3464.0879    4169.3658    3399.3117    255.05503    66.988423    -126.9174 
   15000    233.97483   -4791.1913   -4339.9512   -4791.1913            0    2578.5751    20.236027    20.152696    20.626801   0.13220893 -0.068020945   0.31317827    8411.8259    1524.7732      2916.26    3294.6921    100.59505    437.39585    1268.5592 
   15500    235.34508   -4780.2347   -4326.3519   -4780.2347            0     1278.684    20.117381    20.298507    20.596049 -0.043034317 -0.0095893827  -0.11555392     8410.454    -1340.184    2595.5194    2580.7166   -302.78709   -125.56475    1512.6976 
   16000    230.74962   -4763.3446   -4318.3246   -4763.3446            0    3031.6895    19.780197    20.106363    21.038588   0.14134473 -0.028393839   0.39993971     8367.211    5040.0379     3199.854    855.17667   -930.32258   -1054.4143    742.08715 
   16500    222.79589   -4751.8747   -4322.1941   -4751.8747            0    2541.0169    20.019731    20.131901    20.837591  0.023877014 -0.024997125  -0.16787251    8398.2836    5816.7913    1528.6859    277.57351    911.81751     279.8703    737.40891 
   17000    226.02545   -4761.9953   -4326.0862   -4761.9953            0    3284.7559    20.185045    20.257872    20.445798  -0.16015751  -0.16866616   0.26407011    8360.4108    1787.4483    3453.8583    4612.9611    324.74276    791.42484   -1091.4053 
   17500    223.94538   -4749.8632   -4317.9657   -4749.8632            0     1968.208    20.131171    20.137306    20.746212   0.37938659  0.072868993  -0.45649362    8410.2562    3152.4983    447.79259     2304.333    65.398832   -497.65525     611.6069 
   18000    220.03885   -4782.2684   -4357.9049   -4782.2684            0    2706.6183    20.104021    20.006281    20.910009  -0.18098527   -0.2276082    0.3775923    8410.1455    1724.5511     4084.165    2311.1387    368.17562    963.61075   -2687.0483 
   18500    242.35293   -4800.8363   -4333.4383   -4800.8363            0    2231.6233    20.188767    20.157965    20.535789  0.016123833   0.20087298   -0.1114688    8357.3363    2618.1637    810.41308     3266.293     425.4048   -1251.4493    232.09899 
   19000     227.7546   -4781.1389    -4341.895   -4781.1389            0    1429.3003    20.294081    20.280293    20.590602   0.26121369  -0.27607435   0.12744058    8474.4721    58.506404    1661.9765    2567.4181   -664.59792   -107.73075    492.04081 
   19500    241.24775   -4781.6157   -4316.3491   -4781.6157            0    3728.2194    20.057566    19.977231    20.884757  -0.23678549  0.017625605  0.062453898    8368.4097    3951.5321    4398.7653    2834.3608    670.44335   -2674.4049   -1011.4976 
   20000    221.30048   -4764.2571   -4337.4605   -4764.2571            0    1951.3703    20.133226    20.134762    20.808913   0.29291009 -0.023972421 -0.084463429    8435.4696    3193.2145    1623.0494    1037.8469   -738.81458   -414.36934    522.32091 
   20500    229.53008    -4765.206   -4322.5379    -4765.206            0    2693.8347     19.98382    20.256048    20.578563  -0.43494584  0.073051183   0.22446762    8330.0625    3554.1268     1216.302    3311.0751    883.43481   -61.821167   -699.49766 
   21000    224.55391   -4787.6566   -4354.5855   -4787.6566            0    3032.8731    20.080898    19.944478    20.920409   0.15455132 -0.087855742  -0.19469265    8378.6871    2037.3095    4207.1173    2854.1925    114.78646    321.34124    809.86084 
   21500    220.85958   -4793.5969   -4367.6506   -4793.5969            0    1323.8927    19.969768    20.468232    20.695556   0.06276596 -0.047052358   0.23139867    8459.2224    2804.5558   -1003.1182    2170.2404   -230.64764     652.3818    -50.34686 
   22000    227.88638   -4764.3319   -4324.8338   -4764.3319            0     3078.478    20.185249    20.031391    20.684132  -0.10693536  -0.12161843   -0.1273323     8363.393    2255.1398    3765.8808    3214.4133    228.35763    745.25278     323.0994 
   22500    228.70763   -4782.9655   -4341.8836   -4782.9655            0    1274.0208    19.957417    20.103757    21.096779   0.49433189   0.14859854   0.14713208    8464.4298    2391.5433     492.0272    938.49182   -1075.5338    757.11249    437.32013 
   23000    221.50418   -4776.2782   -4349.0888   -4776.2782            0    3763.4646    20.014599    20.137432    20.656638  -0.37357288  -0.25344751  -0.13148377    8325.5053    3896.4011    4201.2549    3192.7379     783.6575   -283.20028    191.78311 
   23500    230.01358   -4771.3349   -4327.7344   -4771.3349            0      3736.82    20.077644    20.193046    20.638825   0.30583275   0.19432403   0.10448027    8367.5736     4767.246    2790.2491    3652.9648     -156.668   -222.96747    -24.67435 
   24000    237.27087   -4736.0742   -4278.4774   -4736.0742            0    3059.5829    20.029419    20.255122     20.87865  -0.14003342   -0.3970517  -0.15151179    8470.4331    3815.4569    2408.7251    2954.5668   -299.47957    323.48452    792.37275 
   24500    240.32129   -4802.9181   -4339.4383   -4802.9181            0    2489.8013    20.121495    20.063185    20.720446 -0.016499536   0.24976196   0.35758097    8364.8708    2206.9852     2112.503    3149.9156   -28.195592   -1461.2199   -525.39539 
   25000    236.17376   -4752.6682   -4297.1872   -4752.6682            0    3467.3313    19.969662    20.138946    20.754379   0.35078659  -0.31963025  -0.11542402    8346.7459    3384.8657    4091.2323    2925.8957   -234.05616    817.50021    -227.9727 
   25500    227.76576   -4767.8623   -4328.5968   -4767.8623            0    1533.5586    20.079214    20.171964    20.921499  -0.25802573   -0.1125134   0.15506869    8473.9852     1381.862    1429.9563    1788.8575    412.23823    -213.2234    318.15308 
   26000    235.09974   -4756.2403   -4302.8307   -4756.2403            0    3483.8828    20.322406    19.982626    20.691653   0.39658229  0.071144959  0.060470553    8402.7773    4094.4312    2402.9151    3954.3021    -1328.073      68.7542   -427.46408 
   26500    220.18082   -4764.1824   -4339.5452   -4764.1824            0    4078.4731    20.078917    20.016748    20.805397  -0.18237918   -0.2419068 -0.0046454503    8361.9932    4253.5549    3989.9568    3991.9076    354.10155    1213.0629    1681.6799 
   27000    240.75692    -4760.527   -4296.2071    -4760.527            0    3288.7032    20.066129    20.069485    21.008342   0.34991157   0.31963362 -0.036343568    8460.4139    2923.5038    3637.8446    3304.7613   -1177.6842   -977.33868   -2366.3757 
   27500    229.82912   -4754.6038    -4311.359   -4754.6038            0    3023.5209    20.252626    20.117897    20.525496 -0.040531376  -0.37374696    0.1758153    8362.9129    2450.2981    2030.8477    4589.4169    362.73507    1830.7372   -365.17021 
   28000    225.04936   -4781.1289   -4347.1023   -4781.1289            0    3610.6828     20.07132    20.072604    20.704805  -0.13301315    0.1437315  -0.15935016    8341.6275    2851.1206    3766.4475    4214.4804    302.76663    77.173662   -801.15166 
   28500    226.43328   -4750.5887    -4313.893   -4750.5887            0    2214.1128     19.99782    20.207269    21.000982   0.50882471     -0.18275   0.17960905    8486.5246    3559.3064    1407.8813    1675.1507   -341.52259    557.54299   -155.97328 
   29000    230.02356    -4763.718   -4320.0982    -4763.718            0    3541.6347    20.012081    20.299963    20.565708  -0.37097484 -0.084188862 -0.039726871    8354.7055     3784.107    2798.9179    4041.8794    159.55153    561.73446   -468.65196 
   29500    223.71836    -4769.327   -4337.8674    -4769.327            0    3834.5731    19.962864    20.135191    20.803135   0.32771064  0.030788852  0.006414014    8361.9463    5959.2798    2052.6906     3491.749     -707.077   -14.766291    954.58559 
   30000    232.67508   -4757.2502   -4308.5168   -4757.2502            0    2536.9903    19.905912    20.022906    21.247263  -0.34817755  -0.33897583   -0.1443026    8468.6114    3022.4598     4312.662     275.8491    460.85268    1196.1295    1122.2987 
   30500    221.93808   -4766.4039   -4338.3776   -4766.4039            0    2208.3796    20.237325    20.195655    20.618706 -0.089743415   0.11910593   0.12936629    8426.9894    517.33648    3602.7884    2505.0138    843.31195   -1358.8126   -1326.2666 
   31000    229.57492   -4741.4666   -4298.7121   -4741.4666            0    3401.8832     20.11905    20.255826    20.603291   0.16869979  -0.25751195 -0.098899385    8396.4174    2895.1566    2785.8816    4524.6113   -597.02321    1699.0293    97.391837 
   31500    229.26644   -4771.0139   -4328.8543   -4771.0139            0    3001.7572    20.009264    20.107541    20.943513  -0.53523014     0.201451   0.15286741    8426.3523    1829.8501    3461.6388    3713.7827    816.83201    346.37967   -977.41393 
   32000    228.86912   -4760.6672   -4319.2739   -4760.6672            0    3111.3657    20.165698    20.093621    20.701996   0.45905454  -0.16822596 -0.093654338     8388.488    3242.2783    2583.5652    3508.2536   -451.39314    1455.3189    93.599459 
   32500     222.5055   -4763.6196   -4334.4991   -4763.6196            0    4815.4888    20.154451    20.164265     20.52514  -0.49713873  0.086044358 0.0087474302    8341.4106    4340.0822    4987.8012    5118.5829    1023.2766   -209.87268   -1369.0759 
   33000    228.92947    -4762.802   -4321.2922    -4762.802            0    605.70502    20.066868    20.035449    21.088026   0.32389149   -0.1915909 -0.049110735    8478.4136    -1215.385    2796.4177    236.08237   -985.83859     -522.495    326.36048 
   33500    230.73736    -4782.528   -4337.5316    -4782.528            0    2546.1446    20.128709     20.13005    20.833759  0.039727697 -0.027529391  0.055158008    8441.6709    2450.1725    2370.2535    2818.0078   -478.34971    832.38497     134.5147 
   34000    220.77954   -4771.9033   -4346.1114   -4771.9033            0    2106.6728    20.355225     20.12856    20.463247  -0.15747378  0.018567459  -0.02251527    8384.2297    307.19083    2977.3142    3035.5132    -137.1865    62.623587    116.76924 
   34500     215.9877   -4772.7515   -4356.2011   -4772.7515            0     3435.568    20.045407     20.04222    20.888766   0.31342313  -0.23770269 -0.0010486331    8392.1546    4172.5752    2337.6534    3796.4754    -765.8356    261.91441    44.869645 
   35000    223.49321   -4805.3778   -4374.3523   -4805.3778            0    3818.6101    19.909299    20.076558    20.856599  -0.23986503    0.2607732  0.024180674    8336.5949    4258.7414    3787.4978     3409.591    799.76391   -917.14496    226.34825 
   35500    227.03474   -4765.8168   -4327.9612   -4765.8168            0    3801.3384    20.120702    20.266609    20.500237   0.15984758  -0.19588509  0.017838452    8359.5536    4072.6037    2307.3247    5024.0869    32.117127    1702.2735   -346.45573 
   36000    227.05759   -4787.3525   -4349.4528   -4787.3525            0    5222.7246    19.971975    20.010623    20.825208 -0.057268093  0.097392751  0.085611053    8322.8294    4575.9638    6645.9709     4446.239   -727.02851    -444.0262    440.47749 
   36500     229.5348   -4756.1555   -4313.4784   -4756.1555            0    3014.3008    19.878945    20.022037    20.983131  0.017765181  -0.22684264 -0.026287327    8351.6421    3102.9572    4224.4772    1715.4681    142.39096   -54.072409    -342.2943 
   37000    225.96664    -4768.509   -4332.7133    -4768.509            0    2912.7489     20.16785    20.197328    20.624746   0.37384628   0.19864388  0.045765131    8401.2156    3383.9332    2630.2609    2724.0525   -163.76786   -606.20054    342.96492 
   37500    226.64276   -4785.0741   -4347.9744   -4785.0741            0    3552.7802     20.09783    20.227472     20.70621  -0.26581591  -0.16087036  0.068795369    8417.6598    4097.6264    2406.6366    4154.0777    1208.2594    605.70058    1672.3196 
   38000    241.08057   -4773.2322    -4308.288   -4773.2322            0    2900.8433    19.846732    20.095193    20.948762   0.42974582 -0.0077409258  -0.21539017    8354.8672    3778.1711     2781.509    2142.8497   -653.99206    57.028438    998.59637 
   38500    231.18659   -4760.2369   -4314.3741   -4760.2369            0    1746.0036    20.191671    20.151508    20.689829 -0.072379584  -0.14133773   0.12599285     8418.539    546.42628    2979.0627    1712.5218    404.18596     1052.589   -981.92973 
   39000    219.65978   -4769.6211   -4345.9887   -4769.6211            0    3574.3931    20.200834    20.132263    20.557876  0.027816924  -0.19727557  -0.23480594    8360.6516    2680.4653    4010.2641    4032.4499    81.962673    84.712715    1762.3723 
   39500    229.10279   -4749.9227   -4308.0787   -4749.9227            0    1445.8079    20.190842    19.978171     21.06164   0.11410179   0.17200029   0.27786584    8495.7617    1502.7096     1993.907    840.80707   -260.60204   -119.75749   -909.47675 
   40000    220.50866   -4758.0812   -4332.8118   -4758.0812            0     3055.448    20.207327    19.987191    20.734774  -0.15607488  -0.25075396 -0.078508017    8374.5202    1578.4383    3993.6052    3594.3005    273.24754    2246.3487   -1132.1433 
   40500    217.28053   -4783.9135   -4364.8697   -4783.9135            0    2768.1388    20.248515    20.107538    20.579547   0.43692762   0.30170018   0.21649619    8378.9168    1852.5272    2129.2022    4322.6872   -804.76614    -559.8534   -1755.2324 
   41000      231.878   -4775.3929   -4328.1967   -4775.3929            0    2732.5024    20.040429    20.077021    20.904854  -0.18251216  -0.33380441 -0.010200553    8411.1121    3763.3081    2162.4176    2271.7814    -672.7595    1277.3205    450.05501 
   41500    240.14305   -4792.3027   -4329.1666   -4792.3027            0    3583.7802    19.949873    20.182819    20.736306  0.096907015  0.021987837  0.055052766    8349.3631    2652.0153    4900.3922     3198.933   -605.17183   -173.48324    66.672044 
   42000    228.62745   -4774.3001   -4333.3728   -4774.3001            0    3439.5144    20.056278     20.18122    20.455005  -0.14419135  -0.25954474 -0.015317579    8279.3709    3269.1698    4555.9626    2493.4108     1247.222    1026.6988    1285.3692 
   42500    236.76158   -4789.2739   -4332.6593   -4789.2739            0    2465.2845    20.038594    20.165229    20.935001  -0.28969138   0.14231147  -0.01374785     8459.475    3343.8446    2035.3952    2016.6137    597.52154   -679.28067   -999.15909 
   43000    228.66382   -4744.2537   -4303.2563   -4744.2537            0    4701.7513    19.972066    19.991938    20.806256   0.27017931  -0.10705515 -0.0065304555    8307.5284    3668.9157    5456.3037    4980.0344   -638.88688   -511.01388    228.95982 
   43500    223.18543   -4774.8151   -4344.3832   -4774.8151            0    2368.5252    20.302616    20.067162    20.637938  -0.43707736  -0.08649547  -0.13341877    8408.2234    624.66231    3073.8365    3407.0768    1212.1677    -1204.131    135.66289 
   44000     231.5404   -4798.0698   -4351.5247   -4798.0698            0    3629.8381    20.194678    20.022028    20.526785   0.28182121 -0.016304184   0.12737848    8299.7673    4280.2006    4080.3571    2528.9566   -634.11538   -660.62284    1452.1375 
   44500    229.08721   -4776.6161   -4334.8022   -4776.6161            0    4826.9398    19.866572    20.111692     20.82399  -0.10342043  -0.15625656 -0.064253079    8320.2332    5286.5094     4733.347    4460.9631   -457.37217    -1591.849    438.35915 
   45000    223.31733   -4793.4037   -4362.7174   -4793.4037            0    2766.7268    19.994557    20.242582    20.657684  0.075107866   0.11540136   0.16305294    8361.0214    4571.6338    1401.4097    2327.1369   -240.36096   -1442.9362    1322.7545 
   45500    231.12983   -4811.1645   -4365.4112   -4811.1645            0     1997.787    19.994073    20.445431    20.597748   0.24750097  -0.18827783 -0.044466599    8420.1004    3668.6064    444.61909    1880.1355   -422.46483     -108.952    249.84456 
   46000    227.07587   -4783.3256   -4345.3907   -4783.3256            0    3095.0927    19.898444    20.098303    20.894306  -0.21005637   0.12419568 -0.034402353    8356.1543    3543.3167    2617.4415    3124.5199    349.01736     428.1867    1118.4663 
   46500    230.52181    -4794.952   -4350.3713    -4794.952            0    2385.0163    19.901353    20.097286    20.993424   0.36879354  -0.39752149  0.095585794    8396.5966    3244.5396    1610.6893    2299.8198   -827.22541   -211.04311      727.776 
   47000    235.71352   -4789.9882   -4335.3949   -4789.9882            0    2169.9086    20.234367    20.146416    20.566612  0.010416977   0.15044056  0.036656691    8383.9788    2552.7524    1124.2038    2832.7697   -923.58778   -1789.1323    299.89151 
   47500    242.40216   -4793.9995   -4326.5066   -4793.9995            0    2850.3784    20.054227     20.17314    20.671576  0.083605789  -0.18938988  0.042519801     8362.825    3599.8244    2859.3738    2091.9369    -56.53107    519.99263   -729.59293 
   48000    218.41726   -4774.9095   -4353.6734   -4774.9095            0    3788.2655    19.904614    20.097853    20.917844  0.015066483   0.12422301   0.22294066    8367.9746    4365.5172    4814.1021    2185.1772   -4.1645679    39.126439   -848.41356 
   48500    236.17976   -4771.2674   -4315.7748   -4771.2674            0    3252.3224    20.013768     20.22357     20.73222 -0.091985314  -0.04310103 -0.078928971    8391.3627    2570.8518    3033.9428    4152.1725    -7.540407     597.9521    -422.2695 
   49000    240.00814   -4779.0122   -4316.1363   -4779.0122            0    3633.0975     20.00537     20.17949    20.617919   0.19501377 -0.087189679 -0.010473962     8323.416    4365.5225    2501.5924    4032.1777    214.58601    339.12225   -436.29514 
   49500    241.65011   -4749.0786   -4283.0361   -4749.0786            0    1682.7644    20.136771    20.143672    20.986105  -0.33032246   0.22858231   0.14833426    8512.5625   -0.4488891    3460.1496    1588.5926    1401.4007   -134.58161    954.55723 
   50000     225.6029   -4783.6678   -4348.5736   -4783.6678            0    3582.3763     20.16487    19.911189     20.74143   0.33065352  -0.30046759  -0.10124671    8327.8197    1353.3661    5240.9788    4152.7838   -348.02019    755.86723   -212.56348 
   50500    234.78633   -4777.5752     -4324.77   -4777.5752            0    2976.8187    20.277643    20.091808    20.652775 -0.072361463   0.23835576   0.09624743    8414.2399    3097.9025    2610.9056    3221.6481    287.04602   -1527.0265    1832.2872 
   51000    248.15405   -4750.5648   -4271.9788   -4750.5648            0    2566.1009    20.244237    20.081559    20.782194    0.1480142  -0.56915868  -0.14238894     8448.707    1726.8875     2912.552    3058.8632    207.88139    756.00317   -916.10567 
   51500    225.66374   -4764.1553   -4328.9438   -4764.1553            0     2409.521    20.017943    20.206393    20.745877 -0.0083471962    0.5619229   0.17549975    8391.5081     2096.949    4076.3783    1055.2357    86.668857   -1011.0013    311.47584 
   52000    224.18143   -4786.7119   -4354.3592   -4786.7119            0     995.4324    20.251073    20.190022    20.745715  0.063276137  -0.43782993  0.022582881    8482.2926    73.825723    1514.5784     1397.893    507.30477    1022.6046    319.99811 
   52500    233.25201   -4734.4584   -4284.6123   -4734.4584            0     3815.206    19.906997    20.259889     20.77745 0.0041622478    0.3254964  0.028832805    8379.8269    5626.7909     2257.445    3561.3822    -442.3745    -8.170166    546.83038 
   53000    231.96166   -4806.7611   -4359.4035   -4806.7611            0    2382.2766     20.17214    20.148691    20.703163  0.069247605  -0.70770291 -0.0061548283    8414.6396    2555.7773    1348.1072    3242.9452   -808.84915    598.80299   -439.32561 
   53500    230.41907   -4780.3888   -4336.0063   -4780.3888            0    2443.0951    19.981557    20.155779    20.694743 0.0052731806    0.2956705   0.10621468    8334.6804    2429.8934    2890.9806    2008.4114   -418.09984   -464.27035   -902.10508 
   54000    236.18355   -4762.0044   -4306.5046   -4762.0044            0     5109.829    19.930042    19.993724    20.887209  0.037031581  -0.18040902 -0.0034581928    8323.0466    4774.5688    6604.9682      3949.95   -202.55124    317.01534   -474.29253 
   54500    221.48236   -4795.5665   -4368.4191   -4795.5665            0    1277.3703     20.30247    20.271277    20.633167 -0.0015689149 -0.0067486123  0.026021359    8491.7244   -229.69156    1332.1578    2729.6447    490.93517   -664.58438   -27.828393 
   55000    233.29971   -4777.3655   -4327.4274   -4777.3655            0    3428.4007    20.098778    20.087533    20.687105  0.088641855  0.026424529   0.09240636    8352.1058    2540.0588    5073.0461    2672.0972   -80.737258    -369.5245   -42.187285 
   55500    220.48868   -4784.7098   -4359.4788   -4784.7098            0    2868.1115     20.00697    19.968171    20.948741 0.0061972575  -0.21757446 -0.088793344    8369.0764    4822.1582    1332.2517    2449.9247   -152.67118   -710.60252    703.03111 
   56000    241.00421   -4757.9587   -4293.1619   -4757.9587            0    3114.4562    20.025454    20.348453    20.577223  0.068939151   0.25158274   0.29372247    8384.9507    3691.9165    2637.7331    3013.7189    308.08287    1158.9404   -1817.6776 
   56500    243.49986   -4761.8621   -4292.2522   -4761.8621            0    3569.0011    19.997103    20.194007    20.732127  0.072849306  -0.40101898  -0.23806687    8372.0816    3629.2904    3283.9993    3793.7135   -606.48764    1384.3897    278.73574 
   57000    217.81738   -4788.8629   -4368.7838   -4788.8629            0    2257.8606    20.083238    20.037133    20.927995 -0.049764854   0.15000549   0.20549942    8421.6452    3483.2984    364.76158    2925.5218   -203.63847   -119.78245   -550.93292 
   57500    234.86756   -4768.8803   -4315.9185   -4768.8803            0    1841.6467    20.151987    20.278717    20.472549   0.22268412   -0.4873276 -0.031040762    8366.2389    1546.8387    1336.5531    2641.5482    137.05462   -405.81819     69.09036 
   58000    237.15748   -4785.1783   -4327.8001   -4785.1783            0     3352.164    20.132538    19.963923    20.746488   0.10149695   0.15500067   0.21831431    8338.5208    2447.0405    4447.1005     3162.351   -481.78235   -1695.6662   -598.13017 
   58500    221.35463   -4779.8664   -4352.9654   -4779.8664            0    2425.7775    20.122136    20.145192     20.83844 -0.035500207   -0.1683333 -0.036612752    8447.1592     2602.287    2463.6453    2211.4002    164.84836    343.78434    1458.1638 
   59000    233.05478   -4778.3128    -4328.847   -4778.3128            0    3693.2827    20.138305    20.029661    20.633205  0.028462908 -0.048557954 -0.079324927    8322.6804    3526.3676    4483.4678    3070.0126   -463.38594    12.473539    114.23408 
   59500      233.564   -4768.4389   -4317.9911   -4768.4389            0    2085.2483    20.118815    20.114602    20.884389  -0.31404414  -0.16230416   0.23095267    8451.5358    1888.9721    3379.8583    986.91454    369.45772    373.14652   -1357.5954 
   60000    226.79026   -4769.8716   -4332.4875   -4769.8716            0    4211.3882    20.150767     19.96208    20.727679   0.26682042 -0.020952517  -0.15885868    8337.7342    3430.1099    5048.4524    4155.6024    -187.7593    141.26415    1158.4981 
   60500    213.48742   -4774.9436   -4363.2151   -4774.9436            0    4444.6143    20.128856    20.060437    20.624409  -0.04925313 0.0067510749   0.22003007    8328.0054    3376.0067    5091.5025    4866.3336    547.67348    205.25388   -31.019961 
   61000    233.70523   -4774.6067   -4323.8865   -4774.6067            0    2848.2903    19.959014    20.234787     20.85578 0.00037967363   -0.1295399  -0.51347452    8422.9487    3910.6459    2813.9871    1820.2378    113.01222   -978.90754    1153.9121 
   61500    222.32134   -4776.8682   -4348.1028   -4776.8682            0    2139.0493    20.030248    20.116895    20.824462   0.12332341 0.0059364036   0.41632622    8391.1421    2455.8544    1346.6733    2614.6202    328.74528    390.33281    654.15797 
   62000    238.77544   -4753.9617   -4293.4632   -4753.9617            0    2683.7295    20.043094    20.323812    20.692857 -0.086399912 -0.095872047  -0.32528484    8429.2783    2067.3697    2782.5751    3201.2436   -171.50885    202.15357    873.01464 
   62500    229.19516   -4752.2209   -4310.1987   -4752.2209            0    1564.0594    20.237025    20.115098    20.779841   0.11365749 -0.067270014   0.31426019    8458.8445    2508.5512    581.79755    1601.8295   -380.27622   -1066.1701   -1208.0181 
   63000    237.51971   -4769.1414   -4311.0647   -4769.1414            0    3658.5626    20.076237      20.0963    20.751641 -0.035136135 0.0079219972  -0.24525161    8372.4171    2618.7319    4256.2684    4100.6874   -137.58491   -350.27413    96.656311 
   63500    226.10506   -4773.0793   -4337.0167   -4773.0793            0    2901.6584    19.986612    20.183405    20.831948  0.016193331 -0.069411699   0.32574346    8403.5639    4420.6062    1591.9534    2692.4157   -415.51727   -939.21678   -455.95746 
   64000    229.46655   -4771.8714   -4329.3258   -4771.8714            0    1961.6488    20.057492    20.009895    20.843548   0.28796799  -0.11304266  -0.34952013    8365.5227    1056.1745    4242.2335    586.53849   -217.99966   -161.46894    16.037719 
   64500    227.43423   -4778.4132   -4339.7872   -4778.4132            0    3160.2368    20.070136    19.952352    20.747303  -0.10383739  -0.10568932   0.13261238     8308.183    2997.0609     5171.665    1311.9844     1022.076    -1267.759   -367.10396 
   65000    235.80614   -4795.6876   -4340.9157   -4795.6876            0    1872.5737    20.231257    20.208032    20.645567   0.20726299   0.15642069  0.047301793    8440.6078    1110.1444    1443.9539    3063.6227   -198.46459   -892.80616   -779.17374 
   65500    221.85448     -4761.55    -4333.685     -4761.55            0    3722.9748    19.943411    19.945223    20.904921   -0.1214884   -0.3735892 0.00013724657    8315.4713    4448.9825    4159.5174    2560.4245   -507.54135    2196.5011    1692.1441 
   66000    239.20086   -4753.9352   -4292.6162   -4753.9352            0    2468.1917    20.226548    19.999838    20.831185  0.090737236   0.15662732  0.067047877    8426.7913    1449.7052    4054.7728    1900.0971    387.95832   -1591.8454   -19.498647 
   66500    245.72946   -4767.6059    -4293.696   -4767.6059            0    2025.4228    20.203607    20.352743    20.411909  0.017249962  -0.46839711  -0.18873478    8393.3528    804.15054    1685.1312    3586.9865    400.48377    2266.3873    -114.6888 
   67000    224.62136   -4780.1959   -4346.9947   -4780.1959            0     2233.383    20.044441    19.998218     21.04968  -0.37130901   0.13935133   0.27192181    8437.8292     2215.511    3813.1529    671.48508    1079.0975   -1547.6018   -251.14085 
   67500     223.5965   -4794.7292   -4363.5045   -4794.7292            0    2507.7619    20.128023    19.995672    20.808184   0.27675929 -0.097166786  -0.17876034    8374.7395    817.28369    4055.4771    2650.5248   -638.39792    1200.1316    1134.9911 
   68000    220.41425   -4748.8719   -4323.7845   -4748.8719            0    5723.0465    19.890935    20.375007     20.37552  -0.17085797 -0.021236887   0.27392738    8257.7489    5890.0523     4941.446     6337.641    545.45121    84.344873    177.65209 
   68500    231.87932   -4785.0318    -4337.833   -4785.0318            0    2130.6913    20.223481    20.008257    20.813193  0.067117714  -0.13653399  0.042260304    8421.7798    3004.0977    2270.3615    1117.6145   -473.72318    836.07211     517.8015 
   69000    221.63138   -4791.6013   -4364.1665   -4791.6013            0    2933.3285    19.990645    19.896907    21.093061 -0.098641491 0.0040623472 -0.024651524    8389.8074    2713.0419    3226.4735    2860.4702    181.77867   -13.720801   -1459.3842 
   69500    221.69919   -4795.8686   -4368.3031   -4795.8686            0    2979.7529    20.274023     20.21631    20.491013 -0.043921796 -0.059389418  0.096149546    8398.5684    2351.2903    3047.0972    3540.8711   -133.53817    -378.5821   -463.90127 
   70000    225.58265   -4749.2145   -4314.1594   -4749.2145            0    3082.5965    20.154875    20.091033    20.690525    0.2028201 -0.022247976  -0.14537206    8378.2607    3374.9429    2933.5396    2939.3069   -247.82777   -517.72241    1897.5727 
   70500    232.21221   -4797.0052   -4349.1644   -4797.0052            0    1727.8432    20.142122     19.96464    21.108482  -0.22587836 -0.071009446   0.34707676    8488.3588    1455.1248    2708.5863    1019.8185    390.17995    737.73192   -806.80597 
   71000    238.20642    -4778.091   -4318.6899    -4778.091            0    4318.4798    20.124072    20.227167     20.54004   0.11349654  -0.10457663  -0.14733531    8360.8846    3920.7873    3793.4632    5241.1888    744.31527    334.94782    818.85425 
   71500    223.95172   -4769.0738   -4337.1641   -4769.0738            0    4012.4792    20.067686    20.099209    20.722762 0.0085542775 -0.092338344   0.18167061    8358.4143    2597.6015    4975.4361    4464.4001    89.757187    1812.2827    79.874982 
   72000    239.43828   -4735.3334   -4273.5565   -4735.3334            0    2553.6627    20.016867    19.993027    21.135931  -0.21884951  0.040179066  -0.16664873    8458.5522    3043.5064    3944.1903    673.29145    63.478266   -504.45556    273.12226 
   72500    219.79681   -4766.3696    -4342.473   -4766.3696            0     4926.311    20.081412    20.221327    20.396271   0.26177696  -0.13714572  0.040459161     8282.371    4139.6003    6502.6516    4136.6812   -430.05704    1380.4431    801.06829 
   73000    222.64729   -4793.8221    -4364.428   -4793.8221            0    3833.1322    20.245249    19.953724    20.699168  -0.26383108  -0.13535001    0.1442624    8361.8039    3120.9194    4825.4527    3553.0244   -64.822864    -106.8239   -181.08353 
   73500    239.44424    -4791.485   -4329.6967    -4791.485            0    586.84833    20.040348    19.961339    21.084068   0.28331842       0.1572 -0.059591153    8434.3061   -333.11839    2701.3024   -607.63896    23.110523   -86.220661    979.89932 
   74000    222.50442   -4787.6298   -4358.5113   -4787.6298            0    3036.5488    20.146099    20.147299    20.585902  0.058452452  -0.27651818   0.12389337    8355.6011     2945.935    1994.8504    4168.8611    239.00063   -747.67091   -769.57596 
   74500    239.47334   -4783.8209   -4321.9764   -4783.8209            0    2059.1132    20.151683    20.257454    20.666409 -0.021859694   0.26391333  0.024619859    8436.4782    2119.1933    1801.6276    2256.5186   -311.35458   -1093.8373   -558.49229 
   75000    223.28881   -4765.7038   -4335.0725   -4765.7038            0    2995.9522    19.936904    20.221793    20.851928   0.27101836   -0.2323481  0.030299692    8406.6622    4571.0044    2600.1005    1816.7516   -688.83574    414.33698   -831.35624 
   75500    223.25921   -4796.4592   -4365.8851   -4796.4592            0     2044.022    19.966428     20.23667      20.8125  -0.26497727  0.064689654 0.0084479063     8409.374    5167.9199    -309.0831    1273.2292    811.66932   -1017.5074   -1027.1046 
   76000    231.77737   -4785.2442   -4338.2421   -4785.2442            0    1873.0693    20.146308    20.230705    20.518663   0.61239654  -0.24318808  0.077432119    8362.8735    339.68121    2325.1434    2954.3832    211.00792   -258.56626   -367.82277 
   76500    215.22489   -4810.0087   -4394.9294   -4810.0087            0    3792.3157     20.12194    20.078167    20.618393  -0.34763597   0.21823133 -0.023679761    8330.0718    5356.1208    1963.1276    4057.6988    210.21875   -442.10681   -303.05834 
   77000    228.05716   -4804.6532   -4364.8258   -4804.6532            0    1856.9403    20.040805    19.974145     20.89563   0.10619543  -0.19254239 -0.097282932    8364.4779    2446.9817    2948.9191    174.92012   -16.544799    1819.7326    220.48479 
   77500     223.4382   -4763.1346   -4332.2152   -4763.1346            0    3066.5054    20.178507    20.132334     20.72523  0.067380397  0.045235086   0.19502584    8419.4264      4191.31    1015.6955    3992.5108   -224.34512   -436.83661     415.4514 
   78000    250.45696   -4781.0917   -4298.0644   -4781.0917            0    2761.1094    20.222649    20.223124    20.512725  -0.29864127  -0.19458683 -0.022208544    8388.9893    3476.3707    1851.2769    2955.6807    394.30332    1251.8102    535.49027 
   78500    217.39386   -4788.0168   -4368.7544   -4788.0168            0    2108.1914    19.986715    20.104216    20.970268   0.24985604  0.056588941  0.093124116    8426.2153     4908.763    527.18509    888.62608   -276.18493    1221.1032   -614.12409 
   79000      233.154   -4799.4055   -4349.7484   -4799.4055            0    4957.7801    19.950389    20.096338    20.802116   -0.3429422   -0.1496476   0.10843303    8340.1873      5115.59    4137.9028    5619.8474    518.85536    1836.0554    305.01772 
   79500    237.10082   -4766.3791   -4309.1102   -4766.3791            0    2203.2235    20.307694    20.111182    20.472507   0.47697093   0.12478759 -0.039118541    8361.2121    386.66245    2732.0817    3490.9264   -144.30505   -476.86939   -203.26524 
   80000    238.31283   -4770.9177   -4311.3114   -4770.9177            0     2660.049    19.907498    20.172057    20.832732  -0.12577262  -0.13790745  0.092930599    8365.9082    1769.1601    3644.3192    2566.6678    514.99585    236.12381   -110.97444 
   80500    223.12328   -4764.7869   -4334.4749   -4764.7869            0    2117.8533    20.274036    19.893175    20.888926 -0.034760053  -0.04758073  0.022606805    8424.8161   -676.05184    5322.2867     1707.325    396.80391    876.20523   -325.84173 
   81000    230.82555   -4771.7739   -4326.6074   -4771.7739            0    2115.9178    20.114756    20.127742    20.688332   0.38269472  -0.11891323  0.062662509    8375.9737    234.98377    3019.2504    3093.5193   -267.48907    406.57694   -66.944449 
   81500    220.43364   -4772.9243   -4347.7995   -4772.9243            0     2024.173     20.14523     20.18048    20.848514  -0.24031767  0.024649685 -0.056673372    8475.7636    1045.2143    2952.8548    2074.4498    364.57921     289.1198    1288.4384 
   82000    234.46358   -4808.5944   -4356.4116   -4808.5944            0    2335.3364    20.130235    19.934934    20.796667   0.28664093  -0.18868941   0.23250138    8345.5965    2624.4418    2663.0865    1718.4809   -253.63471    1004.4662   -489.86626 
   82500    234.28807   -4749.1054   -4297.2612   -4749.1054            0    3339.2031    19.943053    20.273345    20.828104   -0.2522717   0.14284591  -0.27342624    8421.0604    6275.6618    1791.2067    1950.7409    307.87565   -1695.8452   -296.11902 
   83000     222.3053   -4747.8336   -4319.0992   -4747.8336            0    3079.1684    20.080175    20.323541    20.573056  0.077714252  -0.10028221   0.33422321    8395.8696    5021.7244    492.23427    3723.5466   -98.793827   -40.914408   -1327.7209 
   83500    224.16955   -4784.9763   -4352.6465   -4784.9763            0    2757.9977    20.061655    20.234277    20.774412  0.081434405 -0.095448422  -0.30630644    8433.0209    1254.9817    3951.4613      3067.55    20.457406   -43.666886    844.75814 
   84000    233.56135   -4748.4719   -4298.0292   -4748.4719            0    2486.6857    20.027495    20.058821    20.869367  -0.15003522   0.06115578    0.2688706    8383.8077    1313.5437    4073.6937    2072.8196    179.84785   -239.33699   -98.531268 
   84500    222.45175   -4760.7262   -4331.7093   -4760.7262            0    4033.3147    20.095382    20.144519    20.608179   0.37263249  -0.23328176  -0.11939049    8342.4341    3553.3393    2895.5336    5651.0711   -772.49794   -1079.4042    465.27187 
   85000    230.32279   -4789.8682   -4345.6714   -4789.8682            0    2697.4073    20.163153    20.058151     20.67972  -0.11683303  0.042131641  0.034094925    8363.6144    2646.7524    2479.3759    2966.0937    285.11038    541.42015    387.28225 
   85500    244.97328   -4762.4517   -4290.0001   -4762.4517            0    3775.7606    20.046917    20.007494    20.744646   0.24418257  -0.13915648  0.043460549    8320.4403    4044.8197     4712.767    2569.6952    -116.0968    1514.1495   -740.14956 
   86000    225.11427   -4780.9554   -4346.8036   -4780.9554            0    3532.7339    20.079659    20.124904    20.673994  0.014521388 -0.023463913  -0.11026408    8354.3862    5044.3617    2236.3383    3317.5017    96.042096   -397.61516    1116.6216 
   86500    229.25623   -4795.1394   -4352.9995   -4795.1394            0    2781.4239    20.151758    20.177734     20.68845 -0.049495519 -0.017472981   0.22800996    8412.2718    1577.0347    2738.8623    4028.3746   -65.295247     554.2687   -504.17912 
   87000    226.56064   -4779.6619   -4342.7207   -4779.6619            0    2585.9881    20.014288    20.108312    20.728882   0.28122913  -0.19876482   -0.2814237    8342.4117    3590.0272    2058.9057    2109.0313   -37.774599     404.4071    -50.94919 
   87500     230.9688   -4761.3103   -4315.8676   -4761.3103            0    2717.8844    19.944966    20.184001    20.804625  -0.46695098  0.043818564   0.34153497    8375.3019    3333.2525    2761.9169    2058.4837   -22.385456   -1308.4272   -212.33408 
   88000    234.62257   -4777.6856   -4325.1962   -4777.6856            0    3082.1308    19.979084     20.17166    20.674933   0.42313613  -0.15642346  -0.16276163    8332.2316    3189.2795    2815.8971    3241.2157   -410.25865   -897.37433   -589.57545 
   88500    232.62365   -4782.2439   -4333.6096   -4782.2439            0    2322.1203    20.028778    20.152234    20.793812  -0.26238012  0.035653946   0.22673191    8392.8946    1793.4927     2198.982    2973.8862    186.49643   -1226.7272    -67.93593 
   89000    217.89067   -4792.3637   -4372.1432   -4792.3637            0    3815.9111    20.189504    20.023225    20.544185   0.18955232  -0.54610918   -0.5616731    8305.1712    4589.4264    2561.1916    4297.1153   -851.49761    851.62303    1091.2221 
   89500    225.37179   -4786.0392   -4351.3907   -4786.0392            0     2499.675    20.096763    20.132288    20.803108   0.11351504   0.17693533   0.27443584    8416.8087    2076.0953    2525.1007    2897.8288   -110.23037   -959.91334   -197.82484 
   90000    221.69619   -4770.6148   -4343.0551   -4770.6148            0    1946.5267    20.175878    19.947928    20.839288  -0.20256245  -0.39966765  -0.14609489    8387.1254    1678.4504    3480.7906    680.33912   -214.11833    1194.4964   -1018.7439 
   90500    226.64356   -4785.6601   -4348.5589   -4785.6601            0    3233.2406    20.271364    20.152196    20.401546   0.37825315   0.33220127   0.14288038    8334.2864    1788.4639    3210.0926    4701.1654   -662.18316   -684.19052   -771.15803 
   91000    233.16443   -4789.3789   -4339.7017   -4789.3789            0    3031.9497    20.076604    20.064207    20.806021  -0.12625645  -0.29788763 -0.032865785     8381.105    4660.7669    1306.8442    3128.2381     85.94581    1344.2754    539.35541 
   91500    219.48814   -4777.3959   -4354.0945   -4777.3959            0    2455.7213    19.868722    20.253459    20.840648   0.11414169   0.18495582  0.089239633    8386.4923     4056.154     1255.027     2055.983   -568.90164   -1827.9888    592.99512 
   92000    242.99449   -4800.1198   -4331.4845   -4800.1198            0    4535.3266    19.944967     20.19218    20.475931  0.094991331  -0.28808493  0.024220795    8246.3197    4824.5665    3357.8881    5423.5252   -286.61753    319.30984   -1693.6759 
   92500    221.68631   -4792.3317    -4364.791   -4792.3317            0    3499.8869    19.863578    20.173108    20.839222  -0.14047607   0.15772323  -0.10298538    8350.4868    4661.4386    2765.8203    3072.4018   -271.64277    65.459629    652.51383 
   93000    234.11244   -4763.7801   -4312.2746   -4763.7801            0    2405.3341    20.254309     20.08741    20.798762    0.1885075  -0.34088251   0.13063887    8462.1137    4772.2639    432.61868    2011.1198   -192.28893     1370.327   -421.00048 
   93500    229.89656   -4791.4448   -4348.0699   -4791.4448            0    2466.6708     20.13049    20.117174    20.623851  -0.26309889   0.30583575 -0.070622568    8352.0116    1377.3527     3025.984    2996.6755    483.35769   -983.95101    1097.6931 
   94000    237.71811   -4799.8121   -4341.3528   -4799.8121            0    1970.9079    20.067574    20.015377    21.015089   0.23213025  -0.34323312  0.070711629    8440.9216    1070.6883    3627.8968    1214.1385    -485.1541    618.32719   -915.23433 
   94500    225.89089   -4811.2118   -4375.5622   -4811.2118            0    2779.3089    20.009444    20.256743    20.671788  0.037557432  0.036827068  0.026950694    8378.8164    2937.2016    1601.1937    3799.5313    682.21227    1225.7918   -831.36343 
   95000    219.14317   -4792.3544   -4369.7183   -4792.3544            0    3845.1491    20.283649     20.09392     20.45712   0.18202353  -0.23021861 -0.050858056    8337.8726    906.95682    4627.2064    6001.2842    257.04788   -70.440207     128.4293 
   95500    228.59894   -4743.4339   -4302.5616   -4743.4339            0    3115.9491    19.953339    19.999758    21.013372   0.15085715   0.13561037   0.11600918     8385.637     5213.304    2346.2589    1788.2845    223.96214   -1071.2927     -582.802 
   96000    234.74226   -4777.8126   -4325.0924   -4777.8126            0    4854.7202    20.136603    20.022584    20.697338  -0.12225622  -0.11757272  0.021684544    8344.8938    5515.9785    4029.5156    5018.6665    674.86062    542.48053    7.7767509 
   96500    238.76246   -4772.8251   -4312.3516   -4772.8251            0    2318.7918     20.41793    20.099144     20.48196   0.55289302 -0.049903152   0.20424856    8405.4462    210.64818    3625.0953     3120.632   -1322.3862     894.3682    893.86026 
   97000    233.58582      -4782.1   -4331.6101      -4782.1            0    3522.0387    20.014467    20.086288    20.971743 -0.072410614  -0.13898042 0.00041389179    8430.9831    3299.8214    4664.0992    2602.1956    644.80437    602.25935    855.03461 
   97500     232.8252   -4773.3814   -4324.3584   -4773.3814            0    3108.5854     19.92863    20.285168     20.75116 0.0072482242  -0.13344684   0.19830133    8388.7725    4811.3705    1057.9694    3456.4162   -714.40686     504.3301    113.87043 
   98000    234.62821   -4786.6596   -4334.1593   -4786.6596            0    5472.2368     19.93407    20.173205    20.541224   0.25408892   0.21500243  -0.30709101    8260.3263    5860.7032    4492.4699    6063.5373   -246.92275   -607.67296    221.70372 
   98500    238.48902    -4797.237   -4337.2909    -4797.237            0    3986.4133    19.912103     20.18116    20.770823  -0.11739923   -0.1828983   0.19925554    8346.7417     5027.568    2863.9854    4067.6866   -152.74381   -684.72999    526.57927 
   99000    235.04374   -4789.4296   -4336.1279   -4789.4296            0    2575.5313      20.0274    20.015052    20.800707    0.2082463  0.041394918  -0.15641813     8337.952    2952.2338    2341.8731    2432.4871    510.99792    488.75052    565.94354 
   99500    239.54555   -4756.1915   -4294.2078   -4756.1915            0     1707.866    20.251749    20.111209    20.713278  -0.16350913 -0.067068258   0.27794941     8436.252    1930.9677    1757.5736    1435.0566    371.66445    219.89656   -626.36103 
  100000    230.66924    -4776.242    -4331.377    -4776.242            0    3584.0201    20.290268    19.986339    20.689566  -0.27354431  0.017997104   -0.1809637    8390.2016    1480.5869    5337.1836    3934.2899    1220.7485    286.35983    655.08245 
  100500    231.74438   -4759.2383   -4312.2997   -4759.2383            0    2466.5996    20.229105    19.970006    20.799049   0.18128147 -0.072659425   0.17563026    8402.3029    68.901176    4954.8251    2376.0724   -156.53964    592.96676    611.70419 
  101000    224.81715   -4804.9709   -4371.3921   -4804.9709            0    2830.1933    20.351906    19.993754    20.613363  -0.53235512  -0.12740898  0.020789123    8387.8045     325.5776     4715.476    3449.5262    416.55409   -313.52624   -280.64092 
  101500    242.94598   -4786.9319   -4318.3901   -4786.9319            0    4600.8504    20.180068    19.928821     20.71213   0.44230322  0.071689561  0.067394369    8329.6931    2723.0151    7055.8605    4023.6754   -414.25266    490.44286    1283.5555 
  102000    226.14473   -4762.1208   -4325.9817   -4762.1208            0    2505.6357    20.156944    20.120352    20.827714  -0.23155826 -0.054052235  0.017746302    8446.9878    2081.9331    2632.4069    2802.5671    732.23937    476.10981   -422.58834 
  102500    218.05504    -4790.888   -4370.3505    -4790.888            0    1982.9921    20.230026    19.961504    20.592249   0.24370268 -0.085697428  0.063270185    8315.5981    1287.7163    2662.7628    1998.4972   -440.66531   -732.21649   -680.17941 
  103000    225.33347   -4755.0577   -4320.4832   -4755.0577            0    3304.6135    20.112564    20.104202    20.720901   0.20135417  -0.15914238   0.14148819     8378.435    1199.2585    5384.4768    3330.1052    158.49413    795.32867    82.846208 
  103500    234.53468   -4774.8513   -4322.5314   -4774.8513            0    3482.5569    20.159726     20.06289    20.734022  -0.14630835  0.090612246 -0.057549816    8386.1317     2307.672    3633.6693    4506.3292    373.50656    542.99029   -65.499308 
  104000    234.76257   -4769.0474   -4316.2881   -4769.0474            0    4065.6337    19.902744    20.286627    20.587859   0.38179643  -0.26713012   0.11398116    8312.5448    3557.0987    3993.9782    4645.8242   -147.69424    200.23467    1115.4533 
  104500     233.0276    -4785.425   -4336.0116    -4785.425            0     2517.732    19.970854    20.167133    20.789301  -0.26297503   0.13301055   -0.1676857    8372.9921    2392.9425    2582.0197    2578.2338    674.95578    502.14289    1476.1786 
  105000    238.50354    -4748.153   -4288.1788    -4748.153            0    3466.8339    19.845057    20.176077    20.877314    0.2921878 -0.095058326  0.094113429    8359.1804    4387.9145    3370.3658    2642.2214   -332.25226   -546.96306   -1901.7012 
  105500    242.74975   -4759.6728   -4291.5095   -4759.6728            0    2644.3687    20.019231    20.269387    20.693634  0.082534958 -0.081472581 -0.062372531    8397.0118    3351.3523    1400.0417    3181.7121   -1084.0739    207.49977    939.60178 
  106000    229.58738   -4799.7535    -4356.975   -4799.7535            0    2903.9399    20.023941    20.161943    20.759449   -0.1639494 -0.013528226  0.081484201    8381.0375    4483.7665    1240.3867    2987.6666    88.655379    115.98865    180.09804 
  106500    228.70847   -4764.2024   -4323.1188   -4764.2024            0    3886.5763     20.04176    20.010195    20.886082   0.34832338  -0.28039045 -0.078743717    8376.1444    3901.9701    4273.4365    3484.3222   -560.17436   -26.023086   -25.742031 
  107000    226.98437   -4769.3366   -4331.5781   -4769.3366            0     4150.075    20.006555    20.130605    20.611551  -0.44965048   0.16349757   0.12606238    8301.1795    4096.5117     4641.758    3711.9554   -20.298754   -177.89513   -1216.0397 
  107500    229.67043   -4762.1722   -4319.2334   -4762.1722            0     2789.563    20.341264    20.012088    20.721914   0.30138338  -0.28161518 -0.071667993    8435.2937     1914.816    3158.5445    3295.3285   -934.99795   -437.21889    1216.8644 
  108000    232.99755   -4756.7421   -4307.3867   -4756.7421            0     3704.072    20.117474    20.005815    20.824885  -0.26094487   0.24355337  0.062904478    8381.3181    2301.4034    5652.1764    3158.6363    635.57122   -790.91074    902.24956 
  108500    226.01042   -4760.7683   -4324.8882   -4760.7683            0     3347.381     20.15108    19.905207    20.820927  0.012928545  -0.35367488   0.11769716    8351.5118    2885.4109    3847.3334    3309.3987    308.16951    431.26698   -488.07131 
  109000    226.45945   -4771.0611    -4334.315   -4771.0611            0    2361.5037    20.146309    20.065131    20.727762   0.22549523    0.1308427 -0.0018484855    8378.9559    2091.3671    3760.8784    1232.2656   -796.80361   -163.79802     1049.105 
  109500    232.04012   -4765.5978   -4318.0889   -4765.5978            0    3284.6407    20.083027    20.092198    20.790081  -0.16898621  -0.19085416  0.099310465      8389.05    3478.6976    3478.9336     2896.291    156.19743    1334.9076    371.37146 
  110000    235.04043   -4755.5956   -4302.3004   -4755.5956            0    5359.4596    19.987895    20.269571    20.503698   0.44862238  0.070795406 -0.084416153    8306.9927    6036.3407    4438.8232    5603.2149   -810.45683   -687.32338   -182.46447 
  110500     223.7555   -4781.2986   -4349.7673   -4781.2986            0    359.39206    20.116094    20.241591    20.890154  -0.10975994 -0.050945707   0.07921155    8506.0893    887.52658   -42.997668    233.64726    121.79108   -653.69299     -88.3944 
  111000    239.17238   -4759.8982   -4298.6342   -4759.8982            0    2906.9596    19.951514    20.140057    20.783261  0.030608417   -0.1997957  -0.10576336    8351.2263    3093.5264     3842.309    1785.0434   -446.81697   -67.471096   -106.90339 
  111500     229.8427   -4765.0552   -4321.7843   -4765.0552            0    1376.5949    20.270126     20.01855    20.665165   0.21937607  0.085969291   0.25589668    8385.4805   -393.54892    3060.8942    1462.4394   -87.078151   -331.56568    301.19947 
  112000    226.41142   -4753.0698   -4316.4164   -4753.0698            0    2319.8725    20.265605    20.100627    20.671434  -0.42055383  -0.31258289  -0.29259281    8420.5368    1966.4815    2654.9579    2338.1781    105.62515    2179.2606      -48.079 
  112500    222.20269   -4771.7077   -4343.1711   -4771.7077            0    3139.5748    20.069547    20.039469    20.890565    0.3871541   0.15176895   0.21937045    8401.8317    4622.2901    2378.8482     2417.586   -547.93882   -351.64628   -1056.2364 
  113000    222.25846   -4784.5792    -4355.935   -4784.5792            0    1502.9836    20.100425    20.249013    20.748528  -0.14589923 -0.081011174 -0.092661551    8444.9363    2096.1117    396.98857    2015.8504    642.88502    5.5166201    236.43592 
  113500    224.42218   -4765.1532   -4332.3362   -4765.1532            0    2042.8724    20.027624    20.307142    20.559153   0.18158206 -0.031638774    0.1225984    8361.4857    4236.4701    3.9773966    1888.1697   -281.33035   -609.14992    52.259706 
  114000    240.88434   -4785.6971   -4321.1314   -4785.6971            0    1653.9933    20.232992    19.914433    20.940971   0.19784476  -0.15858647 -0.088965164    8437.7152    1193.0511    1871.5592    1897.3696   -499.32485   -783.71425    564.43915 
  114500    228.32616   -4748.8575   -4308.5113   -4748.8575            0    2964.9399     20.06023    20.165733     20.70072  -0.26894085   0.14312018  0.047130241    8374.0466    2171.1997     3236.304    3487.3158    197.53533    1768.5197   -496.91569 
  115000    227.79753   -4773.3395   -4334.0128   -4773.3395            0    2505.1002    20.302213     20.02222    20.661246   0.42147069  -0.23689796  0.045726587    8398.7013    576.03935    4121.9612    2817.3001   -870.13048    1191.6179   -219.20262 
  115500    227.01574   -4770.8407   -4333.0217   -4770.8407            0    2255.8724    20.080166     20.01762    20.869334  -0.56297786  0.063647176   -0.1333004    8388.5777    1087.3857    3093.0753    2587.1561    793.56395   -361.60751    1089.2661 
  116000    213.78233   -4768.5131   -4356.2159   -4768.5131            0    2657.2621    20.094522    20.123703    20.744316   0.43792156  -0.15298182   0.11740099     8388.508    4607.3051    607.48616    2756.9951   -213.84338    -196.6106    643.44159 
  116500    236.68902   -4795.8437    -4339.369   -4795.8437            0    1235.5643    20.039875    20.431836    20.525805  -0.45660102 -0.014772636  -0.11046469    8404.3203    1821.3362   -4.1711385    1889.5279    807.86118    422.43224    59.987723 
  117000    226.20566   -4793.0408   -4356.7842   -4793.0408            0    3816.7497    20.077681    19.966964    20.702996  -0.04365269  -0.11353356    0.1266007    8299.6312    1294.2528    6009.5459    4146.4502   -140.87341    1312.4743    347.25322 
  117500    233.47258   -4772.7779   -4322.5064   -4772.7779            0     2363.872    19.852048    20.244896    20.909696   0.21582125 -0.089207572   -0.0847739    8403.6625    2132.1745    2994.0866    1965.3551   -236.90068     647.4616    557.87906 
  118000    218.55788   -4769.4286   -4347.9214   -4769.4286            0    2454.2769    20.056655    20.218385    20.637064  -0.51864777 -0.036753436   0.14879225    8368.6014    3398.0937    642.30073    3322.4362    1083.9063    801.28455   -315.82454 
  118500    219.19993   -4769.4995    -4346.754   -4769.4995            0    3047.7337    20.091199    20.173927    20.707905   0.24598595  0.052676315 -0.074271393    8393.2945    2856.1988    2898.8522      3388.15   -652.25135   -373.12893    844.82034 
  119000    223.73929   -4788.5806   -4357.0806   -4788.5806            0    2480.8128    20.010348    20.081777    20.918173 -0.030019546  -0.16907659   0.17885851    8405.8285    2018.0252    1859.1425    3565.2708    497.04152    583.72605     30.36986 
  119500    232.69496   -4795.4613   -4346.6895   -4795.4613            0    1608.4794    20.348365    20.181874    20.593433 -0.059078946  0.083561208 -0.065599611    8457.0668    1976.5456    26.837317    2822.0551   -542.40681    1575.7886    49.485502 
  120000    231.85327   -4773.5031   -4326.3546   -4773.5031            0    3267.9823    20.054536    20.103723    20.743861   0.10773996 -0.034935672 -0.014953307      8363.32    4482.1724    2349.7254     2972.049    448.28892    238.47229   -315.73112 
  120500    227.61159   -4760.6763   -4321.7082   -4760.6763            0    4507.7249    20.452761    19.668138    20.812513  -0.16125594 -0.057398971  0.015402305    8372.2024    3225.4381    6153.0883    4144.6482   -283.83717    -512.4493   -451.14004 
  121000    218.33328     -4779.94   -4358.8659     -4779.94            0    3015.3669    20.031268    20.147893    20.562273 -0.021382326   0.01027716  0.038569033    8298.6834    1976.6327    3414.7325    3654.7355    172.45197    774.70927    534.80064 
  121500    235.49062   -4786.6361   -4332.4727   -4786.6361            0    2199.4057    20.136803    19.952217    20.838522   0.20224442  -0.21740208  0.054817935    8372.3736    1768.9006    2401.2781    2428.0383   -763.37274    412.42893   -626.66858 
  122000    231.73341   -4754.9541   -4308.0367   -4754.9541            0    4064.8176    20.074487    20.098573    20.670457  -0.44176327 -0.021633536  0.059369219    8339.8791    3693.8726    5263.3057    3237.2746    574.89333    -274.8233    740.34497 
  122500     249.8595   -4754.4819   -4272.6068   -4754.4819            0    1335.5569    20.107066    20.321523    20.625119   0.33315354  -0.18721464  -0.03431316    8427.5515     347.0238    1050.1617    2609.4851   -1308.8767    141.92941     346.7694 
  123000    243.54931   -4796.8743   -4327.1689   -4796.8743            0    3697.4303    19.950582    19.982193    20.865862  -0.36426194   0.10210277   0.20010852    8318.3087    2584.4788    5106.7079    3401.1043    634.58859   -178.45098   -909.62252 
  123500    232.07234   -4775.2405   -4327.6695   -4775.2405            0    2136.3766    20.048161    20.162339    20.832582   0.11336243  -0.33268823  -0.26958379    8420.9007    4703.4479    594.40653    1111.2754    50.052505   -105.55509    942.53933 
  124000    225.66255   -4762.0697   -4326.8605   -4762.0697            0    3715.9769    20.292163    20.039116    20.503062  0.038176589  0.077993788   0.24733234    8337.3037    3145.3734    3536.0113    4466.5459    687.11477   -1322.3061   -590.07058 
  124500    243.83469   -4785.0303   -4314.7746   -4785.0303            0    2448.2261    20.132799    20.081002    20.883914  -0.15020142  -0.22631898  -0.22256048    8443.0901     2081.767    2760.1575    2502.7539   -140.88911    296.89422   -365.25887 
  125000    230.92848   -4745.9811   -4300.6161   -4745.9811            0    3484.1503    20.017123    19.953814    20.973295   0.26794779  0.081323303   0.22137115    8377.1105    3413.7821     4548.478    2490.1906   -527.54465   -77.100554    1634.9759 
  125500    226.93792   -4782.3966   -4344.7278   -4782.3966            0    1896.6383    20.193847    20.182692     20.62906  -0.19941055   -0.2681283 -0.062181839    8407.7072    1659.7845    1502.7727    2527.3578    447.51641    546.64225    1476.7215 
  126000    224.49897   -4792.2507   -4359.2855   -4792.2507            0    3604.8468    20.108128    20.058072    20.577158   0.10551805  0.097153342  -0.03154294    8299.3905    2770.9903    3775.0806    4268.4696   -950.56943    474.25118    525.05189 
  126500    222.82619   -4803.9263   -4374.1873   -4803.9263            0    4517.2963    19.959416    19.989193    20.928109   0.10779873  -0.31272581  0.044567655    8349.7423     4749.032      4813.27     3989.587   -440.67801   -185.09241    444.36075 
  127000    230.03663   -4783.3507   -4339.7057   -4783.3507            0    4431.1004     20.02017    20.075044    20.716914  -0.35788459   0.35614772  0.072938334    8326.2478    4888.4052    3771.9203    4632.9756    177.88981    102.43328   -103.71335 
  127500    232.43495   -4778.9707   -4330.7004   -4778.9707            0    3015.8587    20.149998    20.112639     20.57134    0.2694782  -0.27371685  0.024431073    8336.9393    2201.6703    2867.2997    3978.6062   -190.07604    -478.1798   -814.65579 
  128000    218.93042   -4766.2608    -4344.035   -4766.2608            0    1769.1393    20.087088    20.214839    20.865317  -0.15886994   0.23285529 -0.055353242    8472.5133    2111.9885    717.94728    2477.4821   -238.87902   -1924.2987    571.54234 
  128500    220.96542   -4773.5078   -4347.3574   -4773.5078            0    4435.4757    20.186732    20.089228    20.595808   0.20905079  -0.53301165   0.12116662    8352.3386     4683.213    3561.6135    5061.6007    -206.8084    741.45502    422.12673 
  129000    243.16425     -4757.08   -4288.1173     -4757.08            0    2362.7944    19.970173     20.21052    20.717458   0.10468832   0.31615446  -0.13429423    8361.7229    2430.7815    2201.4718    2456.1299   -967.35711     849.7476    253.82482 
  129500    231.50274   -4767.8122   -4321.3397   -4767.8122            0    4728.6148    20.038774    19.931454     20.90239  -0.10172328  -0.24997161   0.19755764    8348.4543    4988.3212    4172.3611     5025.162    501.28747    681.36578   -450.67679 
  130000    225.72511   -4809.1619    -4373.832   -4809.1619            0    3146.9625    20.060663    20.401431     20.45102   0.27443344   0.10637297  -0.21158522    8369.9122    3437.7922    2922.7075    3080.3878   -696.69936   -222.85013    920.14234 
  130500    238.42241   -4757.4307    -4297.613   -4757.4307            0    4156.3322    19.989469    20.167276    20.758708 -0.071428413 -0.075895177   0.09221949    8368.5234    4376.7117    4256.5215    3835.7635    63.940869   -580.10997   -782.52843 
  131000    212.85944   -4781.9783   -4371.4609   -4781.9783            0    2261.5811     19.86915    20.052339    21.133429   0.14142054 -0.057522955 -0.093741728    8420.0426    3587.9852    1624.9984    1571.7595   -100.90182   -106.21014   -754.27322 
  131500    223.34726   -4782.1186   -4351.3747   -4782.1186            0    2571.6434    20.113834    20.253353    20.479627  -0.11088025 -0.071951137  0.051380782    8342.8385    2596.0385    1221.2364    3897.6552    415.18959   -822.31913    460.22682 
  132000    235.40793   -4747.1759   -4293.1719   -4747.1759            0    4314.4479    20.295373    19.982056    20.649001    0.0403474  -0.23045295 -0.033303459    8374.0637    3329.8726    4456.1752    5157.2958    -91.82603   -350.58105    530.19757 
  132500    228.13377   -4750.6256   -4310.6504   -4750.6256            0    4844.1484    19.936284     19.85117    21.076881  0.034459287   0.31943186   0.14514798    8341.3561    5460.5751     5681.688     3390.182    202.24835   -337.49162    -319.4672 
  133000    242.55672   -4772.1445   -4304.3534   -4772.1445            0     4128.747    19.999352    20.087912    20.699296 -0.006549121    -0.298502 0.0045041216    8315.8431    4576.6786    2913.0448    4896.5177   -329.29947   -1396.5429    674.62449 
  133500    233.00663   -4756.9305   -4307.5577   -4756.9305            0    3678.4589     20.10612    20.215974    20.480087 -0.023415254  0.078656556  0.085133195    8324.4345    3814.3514    3922.9278    3298.0975   -961.26498    41.847057    154.88514 
  134000    231.95961   -4796.5794   -4349.2258   -4796.5794            0    2398.7764     19.96632    20.072771    20.958216   0.32272534  -0.30767515 -0.076815441    8399.6205    3417.4242    2442.9819    1335.9232   -1177.2611    1517.8097    930.41069 
  134500    249.34853   -4794.9245   -4314.0348   -4794.9245            0    2894.8192    20.057933    19.819379    20.853591  -0.15196408 0.0024597213 -0.020127551    8290.0483    3534.3643    2040.4493    3109.6438    989.18498    525.97401    -546.6781 
  135000     227.2717   -4778.4763   -4340.1637   -4778.4763            0    4762.6189    20.045896     20.25269    20.544239  0.098842431 -0.081163268  0.089202591    8340.6182    3929.5288    5439.4274    4918.9005    214.36063    1390.3796   -1153.8532 
  135500    228.50622   -4771.3712   -4330.6777   -4771.3712            0    3696.9515    19.965193    19.804753    21.064599  0.080363527 -0.037168852 -0.071047759    8329.0629    4809.4475    5233.6845    1047.7227    33.990699   -859.13593     940.8958 
  136000    226.14815   -4766.5286   -4330.3829   -4766.5286            0    1969.3769    19.968181    20.278916    20.833557 -0.042054176   0.12428644  0.085662851    8436.1957    2849.5814    758.08518     2300.464   -28.310548   -1206.2057   -648.53712 
  136500    239.31862   -4779.8178   -4318.2717   -4779.8178            0    2398.4575    20.186031    20.157568      20.5694  0.063341103  -0.38835604  -0.09174324    8369.7153     2590.118    2289.1155     2316.139     141.9885    2074.4525   -435.24802 
  137000    226.05034   -4782.3853   -4346.4282   -4782.3853            0    3327.1146    19.770972    20.230472     20.87068  -0.21772205   0.50103021   0.13144286    8347.7731    5773.1289     712.6646    3495.5502    332.68253   -798.09542   -681.22787 
  137500    233.98688   -4770.2028   -4318.9394   -4770.2028            0      2648.95    20.102289    20.051622    20.903631   0.05539369  -0.18238995  0.052355676    8425.9091    2088.3517    3090.0561    2768.4421     305.4318     44.07465    279.64073 
  138000    220.10391   -4767.0731   -4342.5842   -4767.0731            0    4403.4737    20.245137    20.054549    20.501707  0.087180002  0.046825366  -0.17509553    8323.8382    4038.4935    4022.5879    5149.3398    29.204237    277.40534    871.08362 
  138500    232.43294   -4768.5084   -4320.2419   -4768.5084            0    2614.1393    20.192967    20.252826    20.649119 -0.0019030124  -0.12261413   0.29311942    8444.7596    1847.4004     3431.524    2563.4936   -194.86913    196.02818   -563.58086 
  139000    218.04746    -4796.566   -4376.0432    -4796.566            0    3702.7803    20.086315    19.889325    20.984387  0.053565943  0.030815641 -0.045905828    8383.3306    2131.1349    5479.1866    3498.0195   -185.19236   -254.42459    954.26467 
  139500    229.73695   -4798.7818   -4355.7148   -4798.7818            0    2887.9285    19.935448    20.298752    20.621229 0.00066732734 -0.079172101   0.13525063    8344.6837    4097.2101    2183.8066    2382.7688   -51.020052    107.04364    691.91471 
  140000    234.91671   -4779.2137   -4326.1571   -4779.2137            0    2665.8629    20.247742    20.154426    20.602773  0.024505654  -0.13602147 -0.067937886    8407.6133    2302.5024    2542.2154    3152.8708    -339.5698    440.29023   -865.88848 
  140500    236.77784   -4752.3724   -4295.7264   -4752.3724            0    3446.2899    19.885229    20.143057    20.966461  0.021256712  0.031206364   0.10506006    8398.1012    5383.7658    1903.5679    3051.5361   -193.16867    928.58785     306.9523 
  141000    226.39052   -4773.8792    -4337.266   -4773.8792            0    1244.7146    20.067812    20.208604    20.763516  -0.20151882  -0.10920533  0.003408428     8420.487    1538.6176    1360.4644    835.06189    552.07684   -983.20297   -343.01862 
  141500    243.26163   -4767.5784   -4298.4279   -4767.5784            0    3963.7558    20.032535    20.370577    20.467843    0.1884533 -0.059907209  0.064213392     8352.401    3186.7113    4250.6121    4453.9439   -226.36546    -1258.702    35.479407 
  142000    235.39374   -4784.5566     -4330.58   -4784.5566            0    3798.8519    20.091372    19.923916    20.971935  -0.15794309  0.037590411  -0.18728336    8395.0405    2782.6608    6061.3052    2552.5897     27.97249    120.99168    281.38537 
  142500    223.40092   -4767.7002   -4336.8527   -4767.7002            0    3014.2297    20.044913     20.08175    20.954685   0.15105956   -0.1731521   0.35519897    8435.0349    4088.3624    3053.0551    1901.2715    593.42612     178.8872   -1984.7086 
  143000    226.11433   -4770.9344   -4334.8539   -4770.9344            0    3281.7618    20.232099    20.138809    20.398387   0.17337654   0.13965966  -0.46114674    8311.3307    3330.1249    3148.6619    3366.4987    31.904268   -376.97965    1612.4444 
  143500     222.9197    -4776.083   -4346.1636    -4776.083            0    1790.1029    20.193751    20.093116    20.848463 -0.031639419 -0.057276095   0.29079451    8459.3764    2281.7986    1043.2612    2045.2491   -342.15586   -499.80958   -1027.9881 
  144000    229.08712   -4770.4795   -4328.6657   -4770.4795            0    3701.0322    20.026569    20.140761    20.742716  0.052372567  0.076149106  -0.36776103    8366.5817    4407.3263    3372.0567    3323.7135   -147.47271   -153.46389   -416.28625 
  144500    227.49632   -4789.4382   -4350.6924   -4789.4382            0    3216.7993    20.244861     20.04509    20.571501   0.21789334  -0.22226667   0.47599481    8348.1219    2397.8161    2667.7341    4584.8477   -707.18284    386.37543   -1486.5908 
  145000    232.75156   -4782.5785   -4333.6975   -4782.5785            0     3213.733     20.25512    20.054046    20.716428   -0.2735852 -0.036324472  -0.25558968    8414.9532    5115.5378    1880.5276    2645.1336    197.07223   -765.31581    1062.4364 
  145500    228.42257   -4776.8765   -4336.3444   -4776.8765            0    3228.6081     20.07269    20.079044    20.824174   0.43658611 -0.035529973   0.29059415    8392.9839    3023.4188    2956.8175    3705.5879   -810.60067   -1073.3783   -485.12494 
[...]
  467000    238.19362   -4749.0541   -4289.6776   -4749.0541            0    3636.5853    20.161675    20.313004    20.674494  -0.11360155  -0.45663132 -0.040295366    8467.1186    3822.6453    2636.7856     4450.325    -152.6097    -596.0571    663.27255 
  467500    229.35487   -4787.7595   -4345.4293   -4787.7595            0    3159.2489    20.004701    20.046578    20.855034   0.16410433  0.054030482  0.064067932    8363.4067    4295.4405    2472.7438    2709.5623   -657.65152   -344.30473    1332.3394 
  468000    245.58107   -4792.4553   -4318.8315   -4792.4553            0    2309.3052    20.099309    20.170201    20.866656  -0.24949174  -0.29780874  -0.05195323     8459.491     1973.675    2863.1817    2091.0588    14.685251   -10.216072    777.48501 
  468500    230.12826   -4797.4688   -4353.6471   -4797.4688            0    1925.3024    20.197828    20.173897    20.456192   0.20906529   0.19874246     0.145261     8335.262    2037.6785    1428.3553    2309.8733     -250.241   -699.44109    483.44108 
  469000    227.29351   -4750.7325   -4312.3779   -4750.7325            0    2521.3139    20.017053    20.135643    21.003598  0.068639918  -0.13203794 -0.099811381    8465.6312    2469.1947    3079.2761     2015.471   -336.29786    562.15434   -451.89691 
  469500    223.33077   -4769.1022   -4338.3901   -4769.1022            0     2104.118    19.969924    20.298241     20.78222 -0.042897179 -0.094149019  0.032558685    8424.1632    2641.9252     1623.953    2046.4759    148.28038      120.369    1157.7756 
  470000    227.42305   -4763.2803   -4324.6758   -4763.2803            0    2730.7488    20.235442    20.226847    20.367874   0.61214357   0.11505563  0.031386059    8336.5544    3082.0113    921.91249    4188.3228    133.64687    566.76262    223.84551 
  470500    223.61607   -4782.4162   -4351.1538   -4782.4162            0    2136.1959    19.996456    20.176006    20.852436   -0.2704847 -0.020825556   0.05540993    8412.8867    1926.8531    2553.6392    1928.0955    1140.6712     20.95978   -746.98697 
  471000    235.51343   -4760.1079   -4305.9005   -4760.1079            0    3643.3621    20.188577    19.922518    20.912634   0.21219954  -0.03753349  0.065795888    8411.2141    4153.2107    3580.0433    3196.8323    269.91931   -35.047621   -23.280967 
  471500    225.20729   -4753.6276   -4319.2964   -4753.6276            0    2689.9147    20.223864     20.22412    20.523378 -0.083269389  -0.01017318  -0.11083499    8394.2639    1726.0281     2924.156      3419.56    81.542292    279.73468   -761.85884 
  472000    233.03418   -4721.6172   -4272.1912   -4721.6172            0    4161.8871    20.095236    20.040428    20.880391   0.16469451 -0.036449212   0.33711639     8408.891     2918.981    5861.1773     3705.503   -132.55938    -413.7281    753.06057 
  472500    232.52605   -4757.4744   -4309.0283   -4757.4744            0    3461.3183    20.028481    20.080973    20.903625   0.04741767  -0.15705202  -0.23344271    8407.2576     2681.835    4488.7627    3213.3573   -74.530426   -945.82777   -77.931482 
  473000    228.26931   -4758.8893   -4318.6528   -4758.8893            0    2774.3397    20.288612    20.083127     20.58963  -0.19542667  0.099278688   0.32978313    8389.4254    2078.1651    3549.3915    2695.4625    307.67417   -989.19075   -275.03274 
  473500     227.2509   -4769.4018   -4331.1293   -4769.4018            0    3606.1808    20.130789    20.211277    20.556141   0.33926559   -0.3105311  -0.17684715    8363.6555    2833.1977    2542.2974    5443.0472    536.51664    2353.7761    394.98958 
  474000    228.93129   -4790.1399   -4348.6266   -4790.1399            0    3532.1122    19.838085    20.008659    21.001841  -0.16413171   0.15547029   0.20847797    8336.3341    4346.8913    3470.5507    2778.8947   -108.79151   -1384.2165   -889.05375 
  474500    238.70993   -4782.5428   -4322.1706   -4782.5428            0    3563.6382    20.078079    20.194291    20.727989   0.19454008   -0.2604459  -0.16021452    8404.4241    3005.3122     4509.573    3176.0293    -776.7068    1928.9084    738.99102 
  475000    235.32395   -4751.5894   -4297.7473   -4751.5894            0    3690.6216    20.267052    19.991417    20.608075  -0.23471044   0.21211371   0.52348977    8349.7136    1603.7128    5084.5327    4383.6194    480.89069   -848.88584   -862.15684 
  475500     226.7371   -4807.6276   -4370.3461   -4807.6276            0    5348.9526     19.91554    20.127873    20.639335  0.041739904  -0.15231027  -0.19379299    8273.4315     5004.072     5902.336    5140.4497     36.67533   -498.62736    1395.6819 
  476000    234.61403   -4756.2262   -4303.7533   -4756.2262            0    3631.4364    20.063229    20.086518    20.830111   0.03179384  -0.14844721   0.17025799    8394.5434    6736.0715    1956.6848    2201.5531    208.48681   -572.28963   -513.79715 
  476500     217.5135   -4796.1065   -4376.6134   -4796.1065            0    450.84494    20.281012     19.96055    20.954673  -0.44870422   0.15210884  -0.27150868    8482.8737    120.72466    186.89091    1044.9193    326.67495    1072.2997    1107.1018 
  477000    238.20977    -4766.217   -4306.8094    -4766.217            0    3434.0809     19.99537    20.143221    20.653952   0.25485125  -0.28628406   0.17091485    8318.8165    2768.6465    4462.7748    3070.8215   -73.074543    255.05315    128.02713 
  477500    235.24684   -4760.2104   -4306.5171   -4760.2104            0    1954.3838    20.285495    19.975613    20.823495  -0.32791366   0.31091719  -0.07444195     8437.997      562.942     3499.673    1800.5363    601.86524   -1705.5089   -1112.2153 
  478000    231.36829   -4790.6451   -4344.4319   -4790.6451            0    1295.8741    20.097278    20.121421    20.877003   0.20792019  -0.52498509   0.16280855    8442.3636    -90.12885    2938.6937    1039.0575    163.40861    1918.5899   -78.107284 
  478500    230.61743    -4764.101   -4319.3359    -4764.101            0   -7.3962467    20.282696    20.133171    20.800733 -0.014081714    0.2572325  0.011195945    8494.0834   -1291.7774    1503.5312   -233.94252    402.08567   -579.67617   -714.70453 
  479000    232.32521   -4794.4238   -4346.3651   -4794.4238            0    3852.9081    20.088878    20.033891    20.642294 -0.032654445  -0.29775779 -0.072007011    8307.6646    5598.4004    2584.3159    3376.0081   -599.59295    695.30041    278.10971 
  479500    218.73328   -4815.8186   -4393.9731   -4815.8186            0    2590.4902    20.073928    20.167502    20.904445   0.48010181   0.28879097   0.33227222     8462.976    3230.9692    2595.7041    1944.7974   -256.89872    14.760685   -1471.4956 
  480000    225.71066   -4788.7931   -4353.4911   -4788.7931            0    3593.5097    19.951543    20.114612    20.695583  -0.39192896  -0.25501845  -0.12205691    8305.5005    4720.5316    2827.7026    3232.2949    396.99832    799.68752    768.15001 
  480500    236.18373     -4763.72   -4308.2198     -4763.72            0    2496.9269    19.994264    20.361769    20.724126   0.21525339 -0.098474741   0.11765099    8437.1773    2903.6677    1261.1317    3325.9814   -344.55686   -921.86252    632.32087 
  481000     218.4962    -4787.998   -4366.6098    -4787.998            0    2574.5846    20.223333    19.909888    20.839522  -0.10108021  0.055097562  -0.12120033    8390.9141    2908.9336    2578.7844    2236.0359   -129.32105   -1623.8495   -71.039826 
  481500    219.39186   -4784.8964   -4361.7808   -4784.8964            0    2656.1752    20.213519    20.046497    20.773338   0.17094031  -0.15467307   0.16251023    8417.5696    1816.7558    2314.8416    3836.9283   -28.180478    1121.7553    420.30834 
  482000    223.22492   -4789.9829   -4359.4749   -4789.9829            0    4064.2165    20.344329    19.914368    20.520204   0.18833748   0.56066818  -0.23347368    8313.6468    1771.6414    5466.0923    4954.9158    -271.6098   -1104.4812   -582.72449 
  482500    241.73154   -4749.5834   -4283.3838   -4749.5834            0    3043.1866    20.057716    20.101003     20.73364  -0.19806136  -0.28042436  0.024045223    8359.3935    2271.6695    2663.2348    4194.6555    33.259463   -2006.3862   -1374.2545 
  483000     226.2131    -4791.955    -4355.684    -4791.955            0     2288.156    20.012851    20.189757    20.893413   0.25269767   0.16549761     0.238352    8442.0793    2580.1207    2580.3361     1704.011   -597.63489    740.17213   -492.15929 
  483500    228.43032   -4787.2407   -4346.6936   -4787.2407            0    3678.7154     20.14397    20.066712    20.680895  -0.27795887  -0.43145443  -0.23171723    8359.6988    2634.2655    4229.2884    4172.5922    421.94897    861.29718    937.75053 
  484000    230.02501   -4783.1252   -4339.5026   -4783.1252            0    3037.2667    20.230877    20.069959    20.693776   0.21249469   0.33186312    0.3444896    8402.3535    2734.4645    2860.0707     3517.265    123.12535   -762.11692   -739.82181 
  484500     232.6848   -4758.7615   -4310.0093   -4758.7615            0    3707.9554     19.97978    20.052995    20.709378 0.0065766976  -0.35744282  -0.19451095    8297.3042    3812.7883    4001.9928     3309.085      295.054    2193.7172    1547.4216 
  485000     227.8531   -4767.1152   -4327.6814   -4767.1152            0    4269.2247    20.012326    20.116291    20.674217 -0.089490924   0.11424222    0.2345396    8322.8973    6090.9805     3274.259    3442.4347    88.726475   -636.73264    99.620818 
  485500    229.13121   -4754.3997   -4312.5009   -4754.3997            0    2610.5883    20.047895    20.277636    20.738448    0.4077973   -0.3694172  -0.35358689    8430.6747    3270.8274    2091.8788    2469.0587   -1387.2175    849.16579    428.55361 
  486000    231.14984    -4790.115   -4344.3231    -4790.115            0    2482.2134    19.983402    20.187385    20.772576 -0.099353581  0.019174641   0.21182607    8379.9198    3251.2153    1716.9606    2478.4643    416.92452   -1220.0923     -637.486 
  486500    225.52955   -4774.5107    -4339.558   -4774.5107            0    1943.5352     20.21625    20.245436    20.797758    0.0698802  0.022346763  -0.23356463    8512.2478    1143.2554     2675.752    2011.5983    273.87228    -684.6029   -762.56859 
  487000    229.97552   -4778.3583   -4334.8311   -4778.3583            0    4507.2656    20.120868    20.048087    20.721476  0.047370708  -0.26574226   0.33086842    8358.7306    6554.8189    2418.4017    4548.5762     51.15138    843.12453   -140.11547 
  487500    235.07952   -4798.2022   -4344.8316   -4798.2022            0    3358.5975    20.202392    20.017736    20.797538 -0.0095177156  0.084018563  -0.23410234    8410.6522    3880.1966    2466.0344    3729.5616    477.31958    411.56667    870.98739 
  488000    236.23399   -4761.1435   -4305.5464   -4761.1435            0      3703.67    20.033448    20.053856    20.678493   0.22746529  -0.34417787   0.30803749    8307.5405    4005.6677      4986.36    2118.9823   -688.94128   -143.25905   -1588.9141 
  488500    230.34729   -4768.2087   -4323.9645   -4768.2087            0    843.53117    20.118718    20.262252    20.797776  -0.22850054  0.072816833   -0.0145183    8478.2243    156.56615    2026.9216    347.10572    52.653277    93.362384   -256.79032 
  489000    225.90863   -4765.4827   -4329.7989   -4765.4827            0    3929.0912    19.908464    20.223866    20.670225   0.28183422  -0.11375534 -0.070868515    8322.3724    4670.8745    2325.2707    4791.1283    110.32871    323.45927    1070.1802 
  489500    233.44583   -4767.3243   -4317.1044   -4767.3243            0     4902.307    20.038882    20.153782    20.495547  -0.24149157  -0.11152715  0.028899227    8277.3162    5298.5496    3762.4798    5645.8915   -96.013728    509.54925   -1390.3537 
  490000    234.20445    -4770.127    -4318.444    -4770.127            0    1380.8475    20.075591    20.248947     20.73411    0.0314377  0.084167109  0.021913645    8428.6143    1737.7083    594.01317    1810.8211    619.31056     -471.329    337.19194 
  490500     234.8569   -4783.4247   -4330.4834   -4783.4247            0    4339.7856    20.120705    19.914136    20.785354   0.29117957  -0.37694166 9.250224e-05    8328.4099    4331.4749    6132.3521    2555.5298    603.26766   -767.01979   -1468.5687 
  491000    217.48247   -4755.3156   -4335.8824   -4755.3156            0     3431.171    20.206055    20.025653    20.694692  -0.33232599   0.10437719  0.068184915    8373.8892    2278.4723    5297.6511    2717.3896     528.6953   -1629.1955   -78.450665 
  491500    228.84337   -4768.0318   -4326.6881   -4768.0318            0    2605.4485    20.219612    20.010408    20.595139   0.57347843  -0.28300344 -0.056991219    8332.8481    3056.5411    2479.2931    2280.5113    -727.7326    419.49634   -509.76099 
  492000    229.90015   -4792.8894   -4349.5076   -4792.8894            0    2952.8612    19.956908    20.120632    20.845739  -0.33270188   0.33696949   0.12672614    8370.5149    4976.9208    2109.8167    1771.8459   -204.66302   -253.46892    471.37643 
  492500     229.9186    -4787.487   -4344.0697    -4787.487            0    1284.1861    20.168409    20.164387    20.684148   0.24810754  -0.30562667  -0.12807388    8411.9038    1688.1437    697.96166     1466.453   -169.85105    159.15971     399.4372 
  493000    225.85454   -4773.7682   -4338.1888   -4773.7682            0    4551.9042    19.934834    20.149037     20.63366   0.17916009   0.13041365   0.11379033     8287.875    5479.3609    3557.1214    4619.2303   -737.86389    793.25496   -311.24842 
  493500    232.04021   -4789.1579   -4341.6488   -4789.1579            0    3157.6917    19.935779     20.13125    20.813176  -0.22979811  -0.27338133 0.0061182339    8352.9969    4287.1348    4112.3254    1073.6148    -862.6947    294.34607   -121.55657 
  494000    222.41089   -4793.9376   -4364.9995   -4793.9376            0    2326.8703    20.182522    20.043284    20.752447   0.46462968   0.18582967 -0.092148582    8394.8633    3167.1408    2068.7609    1744.7091   -1428.7344   -514.34397   -1149.0086 
  494500    233.34071   -4786.4474   -4336.4302   -4786.4474            0    2501.7169    20.173752    20.163366    20.601313  -0.31658389  -0.14256243  0.074181949     8380.011    1374.4454    2593.9599    3536.7455    554.78611    173.97844   -859.27709 
  495000    228.89444    -4778.244   -4336.8018    -4778.244            0    2588.8864     20.10915    20.033447    20.936269   0.16321421   0.16523449  -0.15050283    8434.2929    1733.3839    4922.7021    1110.5731   -606.86853   -1078.8114    1298.2965 
  495500    225.16019   -4791.2267   -4356.9863   -4791.2267            0    4629.8905    20.059614    19.964256    20.704132  0.090914305  -0.16991521   0.12239815    8291.4925    4392.7431    5441.9968    4054.9316   -223.38303   -462.51468    -136.1515 
  496000     227.8914   -4740.0785   -4300.5707   -4740.0785            0     3671.528    20.329224    20.050804    20.541823  -0.33146662 -0.073092324  -0.11747771     8373.202    3707.3017    3687.6549    3619.6272    50.307816    -19.70659   -247.75895 
  496500    234.03223   -4775.4554   -4324.1046   -4775.4554            0    1376.3426     20.06736     20.02275     20.87249   0.33469118 -0.036445371    0.1389138    8386.6446   -603.40585     3348.107    1384.3268   -337.56383    733.57025    833.55566 
  497000    225.88443    -4779.713   -4344.0759    -4779.713            0    1332.4968    20.179405    20.166959    20.802867  -0.29044532  -0.21596295 -0.081302912    8465.8775    2149.7012    683.68676    1164.1025   -43.213019    893.49636   -953.90145 
  497500    225.98124   -4783.8055   -4347.9817   -4783.8055            0     3282.023    20.053009    20.300597    20.480334   0.26192645   0.30981104  0.090620665    8337.2994    3870.1593    1965.4006    4010.5091   -313.17306   -2034.5872    214.87515 
  498000    219.32162   -4761.4594   -4338.4792   -4761.4594            0    3365.8102    20.124156    20.026406    20.887454   0.13307375  -0.22710132  0.034687493    8417.9476     3628.347     3165.023    3304.0605   -5.9464603    -146.9609   -1078.1848 
  498500    234.44836   -4751.5871   -4299.4337   -4751.5871            0     3584.483    20.200942    19.904149    20.813322  -0.25115686  0.030399994   0.17391699    8368.6739    2252.9766    5658.5636    2841.9087   -109.03676   -810.06658   -228.88835 
  499000    228.60331   -4771.8024   -4330.9217   -4771.8024            0    3044.1699    20.230375    20.070854    20.689216   0.66647715  -0.15378772  -0.29496843    8400.6682    3476.8059    2480.7452    3174.9587   -1230.6094    1903.4766    1081.6591 
  499500    232.35851   -4779.9509   -4331.8279   -4779.9509            0    717.44678    20.062322    20.104944    20.848919   -0.2735291  -0.05970796   0.21645541    8409.4504   -992.42171    2697.9819    446.78012    217.82934    187.11287   -656.94012 
  500000    211.23248   -4789.6031   -4382.2235   -4789.6031            0    3243.7983    20.021867     20.22529    20.633752   0.32058864  -0.14949668  -0.11556412     8355.598    4488.0416    1972.5199    3270.8334   -523.68431    1169.3832    100.37755 
Loop time of 2538.09 on 32 procs for 500000 steps with 972 atoms

Performance: 34.041 ns/day, 0.705 hours/ns, 196.999 timesteps/s
3186.4% CPU use with 1 MPI tasks x 32 OpenMP threads

MPI task timing breakdown:
Section |  min time  |  avg time  |  max time  |%varavg| %total
---------------------------------------------------------------
Pair    | 167.67     | 167.67     | 167.67     |   0.0 |  6.61
Bond    | 23.504     | 23.504     | 23.504     |   0.0 |  0.93
Kspace  | 981.56     | 981.56     | 981.56     |   0.0 | 38.67
Neigh   | 9.4471     | 9.4471     | 9.4471     |   0.0 |  0.37
Comm    | 92.498     | 92.498     | 92.498     |   0.0 |  3.64
Output  | 2.4011     | 2.4011     | 2.4011     |   0.0 |  0.09
Modify  | 1258       | 1258       | 1258       |   0.0 | 49.56
Other   |            | 3.05       |            |       |  0.12

Nlocal:        972.000 ave         972 max         972 min
Histogram: 1 0 0 0 0 0 0 0 0 0
Nghost:        7416.00 ave        7416 max        7416 min
Histogram: 1 0 0 0 0 0 0 0 0 0
Neighs:        301644.0 ave      301644 max      301644 min
Histogram: 1 0 0 0 0 0 0 0 0 0

Total # of neighbors = 301644
Ave neighs/atom = 310.33333
Ave special neighs/atom = 2.0000000
Neighbor list builds = 14879
Dangerous builds = 0

unfix		3
unfix		2
unfix		1

write_data	data.final.${pid}
write_data	data.final.0
System init for write_data ...
PPPM initialization ...
  extracting TIP4P info from pair style
  using 12-bit tables for long-range coulomb (../kspace.cpp:340)
  G vector (1/distance) = 0.37439266
  grid = 25 25 25
  stencil order = 5
  estimated absolute RMS force accuracy = 0.0030526261
  estimated relative force accuracy = 9.1928929e-06
  using double precision FFTW3
  3d grid and FFT values/proc = 32768 15625
Last active /omp style is kspace_style pppm/tip4p/omp
WARNING: Not all mixed pair coeffs generated from mixing. Use write_data with 'pair ij' option to store all pair coeffs. (../write_data.cpp:312)

write_restart   restart.lmp.${pid}
write_restart   restart.lmp.0
System init for write_restart ...
PPPM initialization ...
  extracting TIP4P info from pair style
  using 12-bit tables for long-range coulomb (../kspace.cpp:340)
  G vector (1/distance) = 0.37439266
  grid = 25 25 25
  stencil order = 5
  estimated absolute RMS force accuracy = 0.0030526261
  estimated relative force accuracy = 9.1928929e-06
  using double precision FFTW3
  3d grid and FFT values/proc = 32768 15625
Last active /omp style is kspace_style pppm/tip4p/omp
Total wall time: 0:42:18
