LAMMPS data file via write_data, version 30 Jul 2021, timestep = 1500000

864 atoms
2 atom types
576 bonds
1 bond types
288 angles
1 angle types

0.45142028494191244 17.756152115057695 xlo xhi
1.6232447379721275 22.005933062023246 ylo yhi
0.5507316932332493 21.66246410676527 zlo zhi

Masses

1 1.00794
2 15.9994

Pair Coeffs # lj/cut/tip4p/long/omp

1 0 0
2 0.21084 3.1668

Bond Coeffs # harmonic/omp

1 450 0.9572

Angle Coeffs # harmonic/omp

1 55 104.52

Atoms # full

151 1 2 -1.1794 1.3470311404704918 6.021393915398869 2.2686338334520113 3 0 1
294 1 1 0.5897 3.010172626262446 3.8015072642323853 4.745486373398354 -2 1 3
292 1 2 -1.1794 3.1108396126331463 3.074632024756979 4.130860684463558 -2 1 3
293 1 1 0.5897 3.1722973814780313 3.4931582473454705 3.2721632770123303 -2 1 3
837 1 1 0.5897 3.6091676307965512 4.063978964902795 1.0249427512155813 -1 2 -1
745 1 2 -1.1794 3.471199866025196 5.430274419429619 5.605955418128298 4 3 -6
835 1 2 -1.1794 4.160232281824198 3.9550830992406794 1.7999918617586972 -1 2 -1
153 1 1 0.5897 1.5439906907113083 6.444271683880552 3.104465332460762 3 0 1
747 1 1 0.5897 2.926913926846218 6.154343557611906 5.296557836858563 4 3 -6
152 1 1 0.5897 2.108897605213539 6.207845598154547 1.7199029541165929 3 0 0
702 1 1 0.5897 0.619364462029511 4.363535408863752 1.9549260699234134 4 1 1
584 1 1 0.5897 3.7744967741702067 1.8126475165545557 6.8883306218231395 1 -3 1
558 1 1 0.5897 3.843838687791586 3.7229188398241995 8.270908942279974 2 1 1
252 1 1 0.5897 2.832221453142461 4.554385169783785 9.976287240594077 4 -3 2
556 1 2 -1.1794 3.9285298732157896 4.673512808052672 8.344928845594183 2 1 1
746 1 1 0.5897 3.4452904372054456 5.50130146574195 6.560162513301932 4 3 -6
459 1 1 0.5897 0.8963358000061321 2.760232832195589 7.737806065713593 0 0 -1
508 1 2 -1.1794 1.2741113630089245 6.2378417450973185 8.163880065483038 4 -2 3
509 1 1 0.5897 1.3674796282608288 5.288494555370709 8.08484286928848 4 -2 3
458 1 1 0.5897 0.5216494944983808 3.267255963971139 9.11420576347003 0 0 -1
533 1 1 0.5897 1.9161739673301466 2.359269855116364 10.616677456751031 -7 -1 -1
251 1 1 0.5897 1.812851171302221 4.859226806592584 11.05330570973199 4 -3 2
250 1 2 -1.1794 2.388468254875423 4.165994572690487 10.73029280284222 4 -3 2
457 1 2 -1.1794 0.4848584779112586 3.499065778870453 8.186228695665326 0 0 -1
583 1 2 -1.1794 3.8889077392919535 2.054625767150164 7.807344275702196 1 -3 1
510 1 1 0.5897 2.1690391717387927 6.572591322201027 8.106689235676287 4 -2 3
608 1 1 0.5897 3.917003609036768 3.41047216822811 14.658180294680896 6 4 2
838 1 2 -1.1794 2.9169897946110894 6.3465789613717405 14.213383042578807 -3 -3 -3
607 1 2 -1.1794 3.1143193885373663 3.0138554769323496 14.99675901190015 6 4 2
609 1 1 0.5897 2.4082516150226794 3.5076753258149598 14.579803256871617 6 4 2
160 1 2 -1.1794 1.1401378380438185 4.243081267200703 13.826510722741773 2 7 1
161 1 1 0.5897 1.6206534238430406 5.054127437495616 13.992432875284294 2 7 1
477 1 1 0.5897 2.335153944098649 6.00433069724561 16.073474295965603 5 -3 -1
654 1 1 0.5897 4.000684080906004 3.1619549789620462 11.565439200542999 -1 0 0
534 1 1 0.5897 0.6384970192028045 1.777289644171026 11.183074399100093 -7 -1 -1
839 1 1 0.5897 3.8205730542647984 6.660244147373954 14.250483344223685 -3 -3 -3
162 1 1 0.5897 0.5043801911689059 4.190510786257105 14.540161556347234 2 7 1
760 1 2 -1.1794 0.7980099062483454 6.425956841493844 11.185391229674702 0 -3 -1
758 1 1 0.5897 2.3384541552983875 2.6935606915970123 16.631070922371613 1 2 1
619 1 2 -1.1794 2.776607425545321 4.331708742611583 20.49869591827092 1 -1 3
621 1 1 0.5897 2.695511783621592 5.285253118765223 20.51889215896713 1 -1 3
7 1 2 -1.1794 4.439240017630916 4.013979653461618 18.216521667443672 4 -1 -1
123 1 1 0.5897 1.671412974370039 2.8309361912193998 20.644475583537787 2 -2 0
620 1 1 0.5897 3.501169152999489 4.165189468225893 19.8957688228889 1 -1 3
8 1 1 0.5897 4.7518402009471155 4.85893066151247 17.893161787915854 4 -1 -1
9 1 1 0.5897 3.591047277099641 3.8926136228611106 17.78980584220606 4 -1 -1
475 1 2 -1.1794 1.7513263865130446 6.0445870163380295 16.830952070355227 5 -3 -1
757 1 2 -1.1794 1.9462861837072611 2.696973005131384 17.50424768329912 1 2 1
759 1 1 0.5897 2.452667604852642 2.051414238953419 17.997270552181877 1 2 1
777 1 1 0.5897 2.3228082704664486 6.355368127395935 18.626315439530728 4 -4 1
476 1 1 0.5897 0.8710297076479039 6.0551599046144196 16.45516225945274 5 -3 -1
121 1 2 -1.1794 0.9658425943292428 2.2163884697773217 20.846282343333193 2 -2 0
122 1 1 0.5897 0.8676865413894097 1.693896624207803 20.05029294171986 2 -2 0
211 1 2 -1.1794 3.6097482266376 7.192115554657518 1.1129277726005453 3 1 3
801 1 1 0.5897 3.6407786261531268 9.63480699687691 2.7508571229161256 -1 -1 2
832 1 2 -1.1794 1.8563803281938256 7.492542621929639 4.6206431905831575 3 -2 0
563 1 1 0.5897 4.684550377869201 8.04120839046802 2.3112040351437537 3 1 4
213 1 1 0.5897 3.0740589755412255 7.815101545228929 0.621856785249902 3 1 3
799 1 2 -1.1794 2.8889221351690226 10.21890448987564 2.651948390723066 -1 -1 2
800 1 1 0.5897 3.259050303688033 11.099375459184497 2.715358462802471 -1 -1 2
834 1 1 0.5897 2.2040186959999977 8.269796613888456 5.0579718830568785 3 -2 0
260 1 1 0.5897 1.091764050593699 10.727707915861705 3.186603861422668 1 -2 7
503 1 1 0.5897 2.134778771093988 9.56949971190707 1.0655933312226222 -4 1 4
19 1 2 -1.1794 3.987810085655257 11.790177175885342 5.607872620317565 -4 -4 2
833 1 1 0.5897 1.054045890932168 7.286078662035386 5.10009386821084 3 -2 0
350 1 1 0.5897 1.26043546045114 9.701369797609463 8.911251288630751 -9 1 -3
157 1 2 -1.1794 3.4835752150226806 7.816704880161595 7.501264150376822 2 2 -3
351 1 1 0.5897 1.4746698895087058 10.96017022384905 9.7245176734874 -9 1 -3
349 1 2 -1.1794 1.9467027889608448 10.278484200671718 9.246238662082966 -9 1 -3
158 1 1 0.5897 4.25195055888829 7.870448998458652 6.932983595966528 2 2 -3
159 1 1 0.5897 2.9141569170783694 8.525795948067262 7.2026414660871225 2 2 -3
33 1 1 0.5897 1.2270261754201481 10.279931422081715 6.563516072551432 6 6 1
500 1 1 0.5897 3.3326051723461254 9.025939699495986 10.193202490622111 -1 -1 -3
31 1 2 -1.1794 1.9764792237414042 9.84807263567449 6.153538189036082 6 6 1
101 1 1 0.5897 3.919141224552966 11.064554858793649 8.562468731724922 6 -5 -2
32 1 1 0.5897 2.661830147810118 10.516222891957334 6.142186087659395 6 6 1
499 1 2 -1.1794 3.8319303109272385 8.919429025215663 11.00286454275989 -1 -1 -3
762 1 1 0.5897 1.0142530897407656 6.8112692769823955 10.336275318195824 0 -3 -1
384 1 1 0.5897 1.2225221929279324 11.520717119221517 12.114751457209525 -9 -1 -2
754 1 2 -1.1794 2.9447376784168275 11.435983118837633 12.696427498560405 -4 -1 -4
605 1 1 0.5897 1.1855250584313675 7.861434323838552 12.18480282998093 -6 0 0
604 1 2 -1.1794 1.5456599943105727 8.401957803656837 12.887941001393138 -6 0 0
501 1 1 0.5897 3.168568146705223 8.89543405679698 11.69252013752331 -1 -1 -3
606 1 1 0.5897 0.7777723280163551 8.727802741468697 13.357477184446056 -6 0 0
144 1 1 0.5897 4.2539955547159245 8.802317176648753 15.0166246623195 0 3 3
142 1 2 -1.1794 3.771065968702381 9.628120824795813 15.04908352042387 0 3 3
756 1 1 0.5897 3.004547623064779 10.696049616437293 13.300734144932811 -4 -1 -4
143 1 1 0.5897 2.928733076192179 9.398273196032072 15.441344318532277 0 3 3
755 1 1 0.5897 3.7566763348146894 11.3991379247523 12.190836259291567 -4 -1 -4
840 1 1 0.5897 2.4524490291728673 7.012441495023128 13.706349072213445 -3 -3 -3
70 1 2 -1.1794 0.7107714018143185 11.446174442451788 15.31278346586707 5 2 -6
71 1 1 0.5897 0.8530095079447206 11.680555745967697 16.229873974578112 5 2 -6
453 1 1 0.5897 3.5998869303768126 11.22665444522634 16.281764730747923 -1 0 5
193 1 2 -1.1794 1.969955732779815 8.786303456526806 17.090386062971913 2 -4 0
195 1 1 0.5897 1.2588002696472507 9.3770254004838 17.338446706377187 2 -4 0
732 1 1 0.5897 3.3050726143101947 11.110409038327973 18.842428671641034 2 1 -5
731 1 1 0.5897 4.1528414125001305 10.917188918405039 20.081725758936937 2 1 -5
730 1 2 -1.1794 3.418934607659992 10.536056363600874 19.599699199409937 2 1 -5
775 1 2 -1.1794 2.4167944783758184 6.854420475813675 19.437694056366983 4 -4 1
776 1 1 0.5897 2.583925323463406 7.751775296249789 19.149516365282548 4 -4 1
451 1 2 -1.1794 3.613116124236364 11.664573557516428 17.13281383099124 -1 0 5
669 1 1 0.5897 4.379589143287078 9.314907591636294 17.896722071500694 -6 -2 0
504 1 1 0.5897 2.369036485984253 9.64257642350207 20.683449082866062 -4 1 3
194 1 1 0.5897 1.579872869384562 7.912918189705226 17.125874134819547 2 -4 0
502 1 2 -1.1794 1.8654741775935342 9.173325288636857 21.34862273472818 -4 1 3
333 1 1 0.5897 0.6784051414910113 7.074429426552458 20.3048521941387 0 -1 -4
212 1 1 0.5897 4.1491237765466895 6.763413964861202 21.560197940702434 3 1 2
844 1 2 -1.1794 1.1740332634601238 13.878977996013854 3.6872425564513738 0 0 4
21 1 1 0.5897 3.8006330012734364 11.869897350370154 4.672547522924769 -4 -4 2
241 1 2 -1.1794 3.7400600151458825 15.291046452962304 1.4265187791133607 0 -3 2
846 1 1 0.5897 1.86661346539764 14.53960580894472 3.698887700513623 0 0 4
242 1 1 0.5897 2.7980754603134073 15.3475831964356 1.2662382728618338 0 -3 2
792 1 1 0.5897 3.486496187462373 15.744232629067946 3.112882441887655 2 4 -1
554 1 1 0.5897 3.8470954300094804 13.496944907378673 2.4024209535038143 -4 -6 3
790 1 2 -1.1794 3.1586355176123555 15.613948943915 4.002703130815804 2 4 -1
853 1 2 -1.1794 1.0856354784421316 15.677464157377502 1.1581795896257825 -2 0 2
791 1 1 0.5897 3.912812184083112 15.282621506218266 4.4902173848080995 2 4 -1
854 1 1 0.5897 1.2038010428506838 16.60679047442712 1.3547517231699036 -2 0 2
553 1 2 -1.1794 4.192696581516033 12.662854513515914 2.7203619339007434 -4 -6 3
261 1 1 0.5897 0.7214964477557007 12.195583719218483 3.197138639484808 1 -2 7
618 1 1 0.5897 1.9688539762680808 16.549020613995822 5.176245619782526 -1 2 0
845 1 1 0.5897 0.7365031327208627 13.97502514554987 4.533179527606986 0 0 4
616 1 2 -1.1794 1.3201040875690353 16.84195955026592 5.816208445606018 -1 2 0
243 1 1 0.5897 4.075645457675634 14.763858889519618 0.7014826047706393 0 -3 2
183 1 1 0.5897 1.8503799159899743 13.325823236931452 8.89309888125806 -3 2 -2
68 1 1 0.5897 3.3106915658513905 12.795086222341684 6.844778854226826 4 -2 -4
182 1 1 0.5897 1.4099906691753143 14.305046182998783 9.960360126680325 -2 2 -2
181 1 2 -1.1794 1.1928083326680188 13.455511239622567 9.576485457301544 -3 2 -2
69 1 1 0.5897 3.7886708146434955 13.661445859486339 7.990583881621979 4 -2 -4
67 1 2 -1.1794 3.0226548017233923 13.185310184508523 7.6699973831247235 4 -2 -4
244 1 2 -1.1794 1.9834319611906424 15.655047648972197 10.823510555546353 -4 2 -2
290 1 1 0.5897 4.708648093542309 16.340721723628683 7.1944445964202615 -7 -4 -6
74 1 1 0.5897 2.774944285849942 14.072161554685646 15.17338216797687 1 -1 2
256 1 2 -1.1794 2.8795144471163288 14.30779656497186 13.38819967774323 -1 -2 0
258 1 1 0.5897 3.8076486079194938 14.5353370811524 13.333189007898046 -1 -2 0
257 1 1 0.5897 2.860281119167009 13.354999132721877 13.298501671717352 -1 -2 0
569 1 1 0.5897 1.3417987621279008 15.00529030345204 14.155351371081306 2 -1 -1
75 1 1 0.5897 2.6061916678698034 15.084548670293831 16.28624931130875 1 -1 2
246 1 1 0.5897 2.5028698149402318 15.205030342221367 11.489771084000848 -4 2 -2
245 1 1 0.5897 1.2298152973267547 16.002233411038727 11.300760925868074 -4 2 -2
568 1 2 -1.1794 0.5562040907891301 15.522606074392472 14.332689777762228 2 -1 -1
73 1 2 -1.1794 2.501009156112518 14.154277205238362 16.086861752584078 1 -1 2
169 1 2 -1.1794 2.7530780869220437 16.598501807928915 17.244191420909466 -3 3 -2
27 1 1 0.5897 2.389527181513793 14.53895387081103 19.616818473521242 -1 5 5
452 1 1 0.5897 2.9640883671921414 12.36359727914933 17.053126905757757 -1 0 5
82 1 2 -1.1794 4.220868491871793 14.018525680239543 20.294918606873697 -2 -2 -7
83 1 1 0.5897 4.405104488589995 13.093437841875833 20.457705846361666 -2 -2 -7
26 1 1 0.5897 0.8899527177935089 14.611231331663591 19.421983894682494 -1 5 5
25 1 2 -1.1794 1.6878953570886375 15.135895464186632 19.3568127811849 -1 5 5
170 1 1 0.5897 2.504907923440047 16.173308628679564 18.065079480637134 -3 3 -2
43 1 2 -1.1794 0.9487721093805389 12.23102538875762 17.934577106824868 1 6 -1
855 1 1 0.5897 1.3420075055134344 15.591909161715414 21.35165259004278 -2 0 1
171 1 1 0.5897 3.6482451867076766 16.301354872208158 17.08106539630899 -3 3 -2
309 1 1 0.5897 1.5414996105856489 19.115745188174003 1.5798784815492313 0 4 -1
307 1 2 -1.1794 1.7946068125975294 18.20266530283174 1.7158214755234946 0 4 -1
274 1 2 -1.1794 1.1526281517307742 20.859766658692237 1.9107051723931603 -1 2 -2
308 1 1 0.5897 2.711184887302443 18.245727099683428 1.9883121033633457 0 4 -1
494 1 1 0.5897 4.672484218048466 19.21298340362516 2.2406113978610955 -1 -2 0
276 1 1 0.5897 0.8351097578913051 21.166962412462375 2.7598478211712516 -1 2 -2
535 1 2 -1.1794 3.2465276131770446 21.016218956154155 5.448102689608041 5 6 4
275 1 1 0.5897 1.0071862643014118 21.597821979515878 1.3187775722834298 -1 2 -2
612 1 1 0.5897 3.0077624517791417 20.947624082269826 2.2366153771631168 3 3 -1
590 1 1 0.5897 0.6834386740601203 18.171939831244224 3.3962969929265587 3 5 2
610 1 2 -1.1794 3.931805094928586 21.08230263931737 2.026252973312661 3 3 -1
578 1 1 0.5897 4.481540895374104 19.550371752555563 5.696743148238843 1 1 -2
493 1 2 -1.1794 4.592147258303226 18.281194858422808 2.4444769882835247 -1 -2 0
680 1 1 0.5897 0.7268440415919566 21.74959164504711 5.69524990815374 -6 -5 0
611 1 1 0.5897 4.30601163873137 21.462145467125715 2.8211924194166498 3 3 -1
536 1 1 0.5897 3.194699551157461 21.759927363944733 4.847732757452125 5 6 4
651 1 1 0.5897 2.352326999341021 20.820127181848093 9.811332954983532 2 -2 0
650 1 1 0.5897 3.455111620316168 19.793259345206465 9.665425205260478 2 -2 0
649 1 2 -1.1794 2.795330567678788 20.271954746132174 9.163660907359843 2 -2 0
585 1 1 0.5897 3.5776495871144203 21.675732233313568 8.29659506142699 1 -4 1
639 1 1 0.5897 2.2413815881989843 18.590247663142215 8.816851598872079 -6 0 3
637 1 2 -1.1794 2.302420889545636 17.669882588301327 8.561068626025662 -6 0 3
679 1 2 -1.1794 0.9553308888917862 21.70756973851448 6.623832572929166 -6 -5 0
291 1 1 0.5897 3.7811545287353843 17.36908672746517 7.806075770361731 -7 -4 -6
617 1 1 0.5897 1.8349360204715093 17.08591643875237 6.5854011148158635 -1 2 0
685 1 2 -1.1794 4.714640689446256 19.074524227996804 10.544446016492502 8 -7 -4
289 1 2 -1.1794 4.700159362900913 17.212932759196413 7.588655513955291 -7 -4 -6
681 1 1 0.5897 0.5715660402153488 20.885272458484685 6.92843546326044 -6 -5 0
638 1 1 0.5897 2.2846295008586504 17.18913270035973 9.38858828420242 -6 0 3
537 1 1 0.5897 2.424943441856676 21.04585465034618 5.93835062112058 5 6 4
532 1 2 -1.1794 1.3893891552577782 21.9428518525176 10.630576573306517 -7 -2 -1
693 1 1 0.5897 3.39422651231604 20.053331204552016 15.005428256062256 1 0 3
401 1 1 0.5897 3.3052169378915783 21.90757949749903 13.855632616170082 -1 -3 2
400 1 2 -1.1794 3.2996655947746336 21.15764404455343 13.260806695358548 -1 -3 2
109 1 2 -1.1794 0.9714254135776005 19.63977540622625 12.837114675626399 0 -1 -7
402 1 1 0.5897 3.9035682025788185 21.402881650132137 12.559814577797594 -1 -3 2
692 1 1 0.5897 3.0986487567521435 18.568658349519374 15.021384235459573 1 0 3
111 1 1 0.5897 1.6732052695592212 20.280887770133404 12.94981720143836 0 -1 -7
857 1 1 0.5897 1.8182668981546881 18.287583489950975 13.450738884122394 0 0 -3
856 1 2 -1.1794 2.338324219632396 17.59358015127347 13.855872001434646 0 0 -3
691 1 2 -1.1794 3.4607139322461453 19.27417799648098 15.557459593368632 1 0 3
753 1 1 0.5897 0.5155199627778038 19.04384696281246 16.033989917567474 3 1 -1
687 1 1 0.5897 4.255973005055168 18.67172281667594 11.28173568771899 8 -7 -4
858 1 1 0.5897 1.6911573641287398 16.99969467636506 14.236272728366831 0 0 -3
752 1 1 0.5897 1.8678142891482203 19.67692710260939 16.283933264151432 3 1 -1
751 1 2 -1.1794 0.9287216624178511 19.833700241519225 16.38280657336501 3 1 -1
247 1 2 -1.1794 3.2767707934876533 21.362528533586733 19.173838672212245 -2 1 -4
156 1 1 0.5897 4.4764903502761895 17.622748602924744 20.071028235261675 5 3 -5
571 1 2 -1.1794 3.1458637080221767 18.658133761886837 19.128653643946837 3 -3 -4
573 1 1 0.5897 2.286919505537953 18.5882415540409 19.54524943257334 3 -3 -4
249 1 1 0.5897 4.000604605680652 21.40553579940257 19.79870516447868 -2 1 -4
248 1 1 0.5897 3.122136553627999 20.426078295185768 19.049792778831733 -2 1 -4
572 1 1 0.5897 3.0494828394683777 18.18907712086903 18.299839336809473 3 -3 -4
531 1 1 0.5897 0.6036014406747299 21.205485109071162 17.997509250583438 -3 -1 -6
600 1 1 0.5897 6.049812689645789 4.98623208254962 4.253832133485419 0 -3 -4
354 1 1 0.5897 5.584691347622274 2.829392375751487 5.311229342745767 5 3 -1
352 1 2 -1.1794 5.696698142046377 3.675205629022667 5.745141118955163 5 3 -1
40 1 2 -1.1794 8.388397500102748 3.4985254386185525 5.340229340162879 -1 0 4
227 1 1 0.5897 7.3183454889028745 5.950233422563059 2.3408637037448017 2 -2 1
63 1 1 0.5897 8.939331407152622 2.739030673063278 1.9717125909516964 -2 0 4
42 1 1 0.5897 7.488463279197019 3.602912609947794 5.649285440752453 -1 0 4
41 1 1 0.5897 8.302144011843057 3.334787055045408 4.401088539739645 -1 0 4
353 1 1 0.5897 4.8280855403014415 4.076369211641767 5.716777125832572 5 3 -1
226 1 2 -1.1794 8.125980970664283 6.199024073721818 1.8913104671023515 2 -2 1
598 1 2 -1.1794 6.024165142060179 5.379897623121316 3.3817128677919133 0 -3 -4
91 1 2 -1.1794 8.188751464956127 6.66800474502336 5.639676714400828 1 -5 1
92 1 1 0.5897 8.157629450829942 5.7974086783774 5.243020369341923 1 -5 1
228 1 1 0.5897 8.808748583343423 5.685180617205025 2.3226178168422607 2 -2 1
848 1 1 0.5897 4.908678788993001 6.642662925899519 5.35502177267923 5 -1 4
146 1 1 0.5897 6.656275082048012 1.924294408993321 3.5084697755782353 0 1 -4
599 1 1 0.5897 5.376311064995265 4.8622062051029555 2.9036854595799064 0 -3 -4
487 1 2 -1.1794 6.507944909478348 3.620571548811459 0.5633020042802642 1 -5 3
61 1 2 -1.1794 8.475940337597216 2.2538735549084414 2.654459644636745 -2 0 4
836 1 1 0.5897 5.016079895921466 3.7039743331809087 1.4525861688266213 -1 2 -1
125 1 1 0.5897 5.708767299116745 2.633734165732454 10.012908793378788 1 1 3
682 1 2 -1.1794 6.411772613974954 5.731526106736398 8.65669996044244 5 0 -5
622 1 2 -1.1794 8.661759048064756 3.942234261271944 9.223114791653595 5 -1 2
624 1 1 0.5897 7.886790593021753 3.4075724316225102 9.395716269532473 5 -1 2
126 1 1 0.5897 5.589952141736518 2.3011054238368045 8.540764045084952 1 1 3
623 1 1 0.5897 8.83882040717052 4.383422578218424 10.053913674383773 5 -1 2
395 1 1 0.5897 5.73241956827677 6.220465202058253 10.163575183791453 1 1 5
124 1 2 -1.1794 6.232848327000998 2.4831063492611407 9.226202587061298 1 1 3
93 1 1 0.5897 8.890001667964576 6.611088974891343 6.288716486227116 1 -5 1
684 1 1 0.5897 7.233995359761616 5.241810866045001 8.675472519635598 5 0 -5
394 1 2 -1.1794 5.629283740881397 6.686029375756686 10.993537455959059 1 1 5
683 1 1 0.5897 6.657975819999693 6.601973204267015 8.343744582782758 5 0 -5
557 1 1 0.5897 4.871155712990562 4.825924930791794 8.412410741699635 2 1 1
438 1 1 0.5897 6.433883063346305 4.240618500407325 13.276293988593578 -2 5 1
436 1 2 -1.1794 6.613948137542265 4.401631247844744 12.350076763036444 -2 5 1
437 1 1 0.5897 6.1248729547045855 5.198625752913333 12.145532833943546 -2 5 1
206 1 1 0.5897 6.035488681441269 3.7161831772787495 16.111843109770973 -5 4 -4
660 1 1 0.5897 8.296951216273985 5.263424583102616 11.767601538898285 1 -1 3
207 1 1 0.5897 6.159116517782331 2.7477586095179865 14.954765324226361 -5 4 -4
653 1 1 0.5897 5.457079476981268 3.107737040372271 11.97515140986786 -1 0 0
205 1 2 -1.1794 5.9990968309669395 3.669693020160966 15.156459157841132 -5 4 -4
303 1 1 0.5897 8.252561692650533 6.1134032354553955 13.642582356943082 -3 1 7
184 1 2 -1.1794 9.071504527672317 4.083368658531979 14.242117974513079 0 5 3
658 1 2 -1.1794 9.07223860560689 5.603813848600955 11.321185525760031 1 -1 3
186 1 1 0.5897 9.072650943867172 3.3824480813617877 13.590231025911658 0 5 3
652 1 2 -1.1794 4.779806356208615 2.607804803953666 11.519499572583692 -1 0 0
140 1 1 0.5897 5.6788849503327965 5.2186370520223555 21.156234929374538 -2 -1 -1
489 1 1 0.5897 6.220173063305203 2.778495603202893 21.322446804661134 1 -5 2
113 1 1 0.5897 6.403714195890726 5.915273713766965 17.759184668938147 -3 -2 1
769 1 2 -1.1794 5.8738033202215565 1.7242884712555653 17.60906155425293 3 0 0
387 1 1 0.5897 8.536654435674128 6.016547335590489 19.42140120799905 -4 1 0
139 1 2 -1.1794 5.410803328636589 5.960663513650644 20.614234092491042 -2 -1 -1
360 1 1 0.5897 7.929807878555777 3.9356579803490033 18.997977279460475 3 0 -4
141 1 1 0.5897 5.136080569564657 5.566337654796477 19.78640670640889 -2 -1 -1
771 1 1 0.5897 6.5709657641203325 2.2090104544863856 18.050910070494915 3 0 0
358 1 2 -1.1794 7.953616917243189 2.9789070506528756 18.981026201612693 3 0 -4
112 1 2 -1.1794 5.6013603738129945 6.266918783901719 17.373420537571075 -3 -2 1
385 1 2 -1.1794 7.969740457981923 5.72966991249927 18.70548035450857 -4 1 0
359 1 1 0.5897 8.586721578889932 2.766712555281308 18.295186863512264 3 0 -4
770 1 1 0.5897 5.0650243865096 2.1349011421094 17.914831211499525 3 0 0
107 1 1 0.5897 9.05060675616649 3.2534873927194745 20.50374209525016 -1 1 3
386 1 1 0.5897 8.338971838480017 6.14464607889516 17.925928815426026 -4 1 0
488 1 1 0.5897 7.462784482804986 3.5926087122867605 21.614015759724257 1 -5 2
46 1 2 -1.1794 6.950439810580634 10.120939637647174 1.6331099468493033 3 -2 0
47 1 1 0.5897 7.814499729187594 9.80450646449959 1.8967372593440297 3 -2 0
48 1 1 0.5897 6.3394626957341735 9.652136130392394 2.2015799522019934 3 -2 0
567 1 1 0.5897 8.919752844051313 7.841719364049124 2.5226048608314198 -1 6 -6
564 1 1 0.5897 5.231631559770968 8.189831076990494 3.714944736978765 3 1 4
849 1 1 0.5897 6.31384673665873 7.1487019839538375 5.602646155123998 5 -1 4
847 1 2 -1.1794 5.411377435093843 7.446356925031783 5.4878243652563325 5 -1 4
562 1 2 -1.1794 5.151470777567969 8.652525922268953 2.880852009931512 3 1 4
575 1 1 0.5897 7.230233469900776 11.216909678162168 5.7286760797414695 3 -1 1
674 1 1 0.5897 6.365069779617402 11.628753671844152 8.61980343095169 -3 -2 -3
95 1 1 0.5897 7.1056197290571586 8.909968075175323 7.38129290882055 -3 1 -1
102 1 1 0.5897 4.808050422771287 9.855303779452395 8.363897804430025 6 -5 -2
96 1 1 0.5897 7.101265416719911 8.814550531117952 8.892170939146421 -4 1 -1
675 1 1 0.5897 7.760341193075232 11.48994918214188 9.190651312447358 -3 -2 -3
94 1 2 -1.1794 6.805449807680792 8.358879913970576 8.104079425126931 -4 1 -1
312 1 1 0.5897 8.958442869006753 9.856603967877136 6.543306655716231 -1 3 3
657 1 1 0.5897 5.160868232793596 11.26992406363332 10.403894340720804 0 2 -2
860 1 1 0.5897 8.57865101377837 9.108416640907357 10.130159922723196 -3 -1 0
396 1 1 0.5897 4.9111039082388945 7.299198952712663 10.837108395327306 1 1 4
859 1 2 -1.1794 7.88587937264545 9.75496075861875 10.265423570398971 -3 -1 0
310 1 2 -1.1794 8.157161806287387 9.6785471754165 6.050881280462358 -1 3 3
100 1 2 -1.1794 4.811160235380173 10.748895849547589 8.706985955077073 6 -5 -2
311 1 1 0.5897 8.2076455951564 8.746394543611869 5.839261574765197 -1 3 3
134 1 1 0.5897 7.55110254453924 11.09720369342374 15.251461846295573 0 -5 -2
301 1 2 -1.1794 8.103477907027905 6.930639046682842 14.11810626891877 -3 1 7
135 1 1 0.5897 6.868255036272703 10.622721934263183 13.98633916722419 0 -5 -2
423 1 1 0.5897 5.7137916238696995 6.874747486864912 15.579968083059251 -4 2 4
724 1 2 -1.1794 6.302503973357069 9.078103427483244 12.546793867975406 1 -4 3
133 1 2 -1.1794 7.15306892568102 11.415357882308847 14.441159508572017 0 -5 -2
725 1 1 0.5897 6.484484178335634 8.225495716687 12.151612615209839 1 -4 3
422 1 1 0.5897 6.057498198134411 7.498372097604774 14.243994442012255 -4 2 4
302 1 1 0.5897 8.533913667974453 7.5998504237461155 13.58602598575282 -3 1 7
56 1 1 0.5897 8.820580498929063 7.377930861743706 15.632195894632702 -2 -1 1
726 1 1 0.5897 5.4979235847186265 9.37337166156798 12.120533167000033 1 -4 3
421 1 2 -1.1794 5.333854180857259 7.376085446413916 14.858491734587128 -4 2 4
200 1 1 0.5897 8.297876249640478 11.696817891418966 13.335965329979462 2 -2 0
201 1 1 0.5897 9.06816083735517 10.816446325562458 12.374989402075041 2 -2 0
199 1 2 -1.1794 8.924182575853749 11.73233703014422 12.61297975652661 2 -2 0
861 1 1 0.5897 7.533125437941388 9.551093838377913 11.131583346395917 -3 -1 0
655 1 2 -1.1794 5.244396284104769 11.652363963042992 11.277391817446603 -1 2 -2
266 1 1 0.5897 6.705318554182512 9.226107958362707 21.30999993393372 -3 1 -2
267 1 1 0.5897 6.335238088694713 7.907981610767858 20.66382809181779 -3 1 -2
485 1 1 0.5897 7.533574057361273 10.934258049708792 18.364214584791252 0 2 -1
114 1 1 0.5897 5.598472147217453 7.190278214772006 17.62569628723243 -3 -2 1
372 1 1 0.5897 6.53021982401685 9.353210621587799 16.864457279537387 3 6 -2
371 1 1 0.5897 7.998793287716122 9.02389545572327 16.700849492059564 3 6 -2
265 1 2 -1.1794 6.48827727316326 8.8317503242185 20.465191627439584 -3 1 -2
667 1 2 -1.1794 5.16538232371138 8.77671536790491 17.99211983258264 -6 -2 0
370 1 2 -1.1794 7.38962644248231 9.760247393566905 16.75499936804363 3 6 -2
863 1 1 0.5897 8.264230769743142 9.087298506345018 19.966863669136966 -1 -1 2
668 1 1 0.5897 5.4658782659186835 8.946869511759303 18.8848594249529 -6 -2 -1
55 1 2 -1.1794 9.080079686332711 7.446914227683365 16.550981213029363 -2 -1 1
484 1 2 -1.1794 7.6593085577774715 11.694523217921105 18.932056884208546 0 2 -1
813 1 1 0.5897 6.332394484121617 11.776039505069448 20.002158437035952 -5 5 -4
811 1 2 -1.1794 5.626634388640127 11.730829516083821 20.647201332368923 -5 5 -4
812 1 1 0.5897 5.96474273643775 11.154863315596955 21.332888422122917 -5 5 -4
390 1 1 0.5897 7.364032546987428 15.69391068239038 3.7094152260677316 3 5 5
646 1 2 -1.1794 6.805240453297507 12.703531343696598 2.585978930748865 -6 -1 0
469 1 2 -1.1794 8.432821573916627 13.914131385960012 0.6654580170494553 2 -4 3
648 1 1 0.5897 7.411803699245358 13.254935677488277 2.0917464888326123 -6 -1 0
471 1 1 0.5897 8.724314674442441 14.574383362437015 1.2942085363977616 2 -4 3
587 1 1 0.5897 5.961667071416055 14.440851829047268 5.22450674197148 -1 1 5
389 1 1 0.5897 7.951821581981747 15.701313911516493 5.104556908191798 3 5 4
555 1 1 0.5897 5.1360078737481425 12.720404868392473 2.568453621686699 -4 -6 3
388 1 2 -1.1794 8.03087093403471 15.273129248069017 4.2521084486847585 3 5 5
576 1 1 0.5897 7.082502443399143 12.201002346729254 4.5877866080282255 3 -1 1
574 1 2 -1.1794 6.727007641582328 11.981638121452276 5.449021022636541 3 -1 1
647 1 1 0.5897 6.819934559017479 11.862051596463315 2.1299801492147137 -6 -1 0
20 1 1 0.5897 4.941545937681512 11.845701547611709 5.667343181177091 -4 -4 1
586 1 2 -1.1794 5.174994056837164 14.852523684336907 5.582206446149291 -1 1 5
393 1 1 0.5897 7.955456664512309 16.739758157173124 7.317452858367819 3 -3 0
263 1 1 0.5897 5.681230618206083 14.719278060006186 9.09051616787811 3 -3 5
673 1 2 -1.1794 7.247450050269869 11.994907486521305 8.559635529917301 -3 -2 -3
391 1 2 -1.1794 8.326323249850818 15.971995866053422 6.88244405977596 3 -3 0
285 1 1 0.5897 6.1846837494349955 16.729936485510876 10.51110881680531 6 -1 -2
262 1 2 -1.1794 5.505834040176957 14.152381563722141 8.339454758501804 3 -3 5
588 1 1 0.5897 5.184284623959876 14.62128833857398 6.51101026906004 -1 1 5
283 1 2 -1.1794 5.495687274146305 16.142035775680412 10.201460303224199 6 -1 -2
264 1 1 0.5897 6.245041290108723 13.544591358838783 8.31972729898926 3 -3 5
284 1 1 0.5897 5.026554349302459 16.64980689186021 9.539414380910937 6 -1 -2
380 1 1 0.5897 8.802055358547932 14.9864927724986 8.572279137859217 7 3 0
540 1 1 0.5897 8.672194432830338 12.314954061176758 7.382069255697198 -2 -3 0
635 1 1 0.5897 7.753674552902683 14.050142712538271 10.755277586733339 -7 1 1
322 1 2 -1.1794 6.526308798269068 14.061923081950042 14.862976901657007 6 -3 -2
324 1 1 0.5897 6.429366495165366 13.155221590200652 14.571917561252535 6 -3 -2
129 1 1 0.5897 5.383088569844831 15.42955607922977 12.041911639010689 -1 1 -5
127 1 2 -1.1794 5.16498318268037 15.466656036794985 12.973188782916763 -1 1 -5
636 1 1 0.5897 7.9264178561394365 12.98844338278874 11.820643575704372 -7 1 1
323 1 1 0.5897 6.079584027686517 14.578362053241968 14.192192906540743 6 -3 -2
804 1 1 0.5897 8.343666918412609 14.692953573499654 12.60766650495055 5 3 -1
634 1 2 -1.1794 7.353359866897712 13.707472924960857 11.554392832050018 -7 1 1
329 1 1 0.5897 8.492700542104888 13.950093242406796 15.551391399187523 3 5 -1
128 1 1 0.5897 5.314402968989924 16.379758090199275 13.218473567124226 -1 1 -5
411 1 1 0.5897 7.716830243648329 15.95162975735943 14.55208409732096 4 2 -5
409 1 2 -1.1794 7.449208348233791 16.71665954984979 15.061331299824456 4 2 -5
656 1 1 0.5897 5.966152263606045 12.276105300198457 11.198274176577476 -1 2 -2
802 1 2 -1.1794 8.952691805336693 15.177537602774985 13.164882956093095 5 3 -1
38 1 1 0.5897 6.298567295316563 13.315950977983267 16.453441775702757 0 2 -3
37 1 2 -1.1794 6.052418308190967 13.198629738285433 17.37097680461782 0 2 -3
603 1 1 0.5897 5.557448115917597 15.14250126122938 17.1698961677117 3 4 -2
486 1 1 0.5897 7.153924527833686 12.392046371813661 18.514598260279833 0 2 -1
601 1 2 -1.1794 5.456991194820912 16.08643913668338 17.046864827711744 3 4 -2
662 1 1 0.5897 6.420153560462564 15.86347659707229 19.9713420957912 -3 -4 0
663 1 1 0.5897 7.589697900914421 15.20019568318726 19.27551781998643 -3 -4 0
39 1 1 0.5897 5.204089699017494 12.756552440367837 17.337226972226205 0 2 -3
661 1 2 -1.1794 6.83107047055003 15.010962147029915 19.827725911999828 -3 -4 0
470 1 1 0.5897 7.755725896218809 14.354400653238377 21.26343834218245 2 -4 2
84 1 1 0.5897 5.065261262170039 14.390079221004097 20.039633308121832 -2 -2 -7
602 1 1 0.5897 6.121967978829091 16.315964989600594 16.3977304993082 3 4 -3
345 1 1 0.5897 7.764086363508413 18.017908592539946 2.417264237886683 -2 0 -1