LAMMPS data file via write_data, version 30 Jul 2021, timestep = 9750000

864 atoms
2 atom types
576 bonds
1 bond types
288 angles
1 angle types

0.36049042961601785 17.847081970377438 xlo xhi
1.5161413792722485 22.113036420728797 ylo yhi
0.4397974821238577 21.77339831788258 zlo zhi

Masses

1 1.00794
2 15.9994

Pair Coeffs # lj/cut/tip4p/long/omp

1 0 0
2 0.21084 3.1668

Bond Coeffs # harmonic/omp

1 450 0.9572

Angle Coeffs # harmonic/omp

1 55 104.52

Atoms # full

653 1 1 0.5897 3.978083344911896 3.3820145113800657 3.8698648985888635 -1 1 -1
652 1 2 -1.1794 3.368055539069507 2.6734990529060356 3.6645556925213727 -1 1 -1
36 1 1 0.5897 3.1800099012820113 2.134537051349732 5.490076785861159 -2 2 0
679 1 2 -1.1794 0.9596630913070132 4.108162929055975 3.083140690056217 -5 -6 2
279 1 1 0.5897 4.2308497019147095 6.471317908141104 4.853296080376726 0 0 2
654 1 1 0.5897 2.628553727184821 3.108864246119397 3.240442561021326 -1 1 -1
680 1 1 0.5897 1.108769133680326 5.026536023649046 3.308174013741243 -5 -6 2
258 1 1 0.5897 0.39588616404883764 2.606733177852163 4.038434510686827 0 -3 0
20 1 1 0.5897 3.73200244834617 4.812313747606241 0.8635386348196896 -3 -3 2
19 1 2 -1.1794 4.587624334159186 4.773810243579996 1.2909836667583554 -3 -3 3
240 1 1 0.5897 3.9300390457922174 4.520656289692223 7.8160099691803335 -5 -4 0
743 1 1 0.5897 0.7430129188822738 6.41303333001963 9.328026802869077 -1 1 1
238 1 2 -1.1794 3.213289323791856 4.591408371434082 7.185507500932619 -5 -4 0
239 1 1 0.5897 3.0980478289502695 3.7014871612191635 6.852297334685166 -5 -4 0
459 1 1 0.5897 1.4411470014938625 4.953137625844366 7.574090891940685 1 -1 -1
278 1 1 0.5897 3.3437297261997574 6.052835962051216 6.006499221252313 0 0 2
34 1 2 -1.1794 3.439586914276768 1.8006063468332265 6.348796611430565 -2 2 0
634 1 2 -1.1794 2.8767290788520365 1.749517706216727 10.697296540879568 -7 -1 0
415 1 2 -1.1794 3.567422094155862 6.5843252494561195 10.887359539053135 -2 -2 1
457 1 2 -1.1794 0.619301393605309 5.2132356291786826 7.990254736895217 1 -1 -1
636 1 1 0.5897 3.7378302758553463 1.651985795559253 11.10382586566348 -7 -1 0
553 1 2 -1.1794 2.1935343388837927 4.148280893899328 11.68336520462252 -6 -6 4
677 1 1 0.5897 1.8940000357087938 6.229927373853239 14.00022781698666 1 0 -3
726 1 1 0.5897 1.0980004893209374 2.645246026670052 14.81447383725097 1 -5 2
724 1 2 -1.1794 0.4394620028609946 2.012177987713307 15.10052455125963 1 -5 2
732 1 1 0.5897 3.207136443695813 3.2982530341432668 14.548470108635737 2 3 -5
626 1 1 0.5897 4.1344651308548235 5.221546316094005 15.208807647515325 -4 -2 3
731 1 1 0.5897 2.4353674061159203 4.009136455639517 13.457127815016396 2 3 -5
730 1 2 -1.1794 2.4736927974729404 3.8968449565362975 14.406981515951067 2 3 -5
554 1 1 0.5897 2.537449472060047 3.4632614453006942 11.109994366943026 -6 -6 4
283 1 2 -1.1794 4.009933695027597 1.6563415937258728 14.804051221493244 4 1 -3
555 1 1 0.5897 2.7039409084330415 4.926719049087972 11.460153148017433 -6 -6 4
635 1 1 0.5897 2.2561204002744115 1.5760617830439791 11.405145060973652 -7 -1 0
284 1 1 0.5897 4.427612474651452 1.623166800560245 15.66470053991701 4 1 -3
170 1 1 0.5897 1.160470989121397 2.808027976651845 19.048708158253902 -3 4 -3
169 1 2 -1.1794 1.0704425856397992 2.88748350413537 18.099034591904218 -3 4 -3
148 1 2 -1.1794 0.597919060717946 2.680443923043743 21.01076913196593 -3 1 0
263 1 1 0.5897 4.125686963827785 4.1331151661156555 18.70157719830173 2 -3 5
171 1 1 0.5897 1.825345080838745 3.4106146478688837 17.829317378625092 -3 4 -3
262 1 2 -1.1794 3.695058597160798 3.954904799357562 17.865463612362255 2 -3 5
264 1 1 0.5897 4.161637889087723 4.5021808085389345 17.23374637488827 2 -3 5
570 1 1 0.5897 2.9836677489967465 6.29222315848058 20.182823518505945 2 0 0
568 1 2 -1.1794 2.4718284020462753 5.981677939370568 20.929729703424925 2 0 0
342 1 1 0.5897 0.7286013701441378 5.591863510796961 21.280122037315962 2 4 3
318 1 1 0.5897 4.144997761779643 7.908404076519905 1.317267600212817 -4 -4 0
132 1 1 0.5897 2.0550346648232014 8.99703878372516 1.4729203136381464 -3 3 1
714 1 1 0.5897 1.8328549313786568 11.285040597947317 1.0688271563216354 -5 -1 4
713 1 1 0.5897 1.2301714373566357 11.054345640695116 2.4383651503148167 -5 -1 4
28 1 2 -1.1794 1.3107005150115478 9.382826561353408 5.257496512982157 -7 2 6
769 1 2 -1.1794 1.3331334706916538 6.854517402661604 3.776913350507228 4 -1 0
712 1 2 -1.1794 2.003873437086437 10.859995220177037 1.909311561929817 -5 -1 4
29 1 1 0.5897 2.0577699633378472 9.97293314184407 5.1577085905100475 -7 2 6
130 1 2 -1.1794 2.1709972618991618 8.053056614899416 1.3646654511182255 -3 3 1
131 1 1 0.5897 1.9527061986942382 7.6846974656284575 2.2208150586852478 -3 3 1
205 1 2 -1.1794 4.027039072398003 9.860703321085403 3.7456847684245815 -4 3 -2
30 1 1 0.5897 1.457049824719059 8.697897156803322 4.605012675928198 -7 2 6
207 1 1 0.5897 3.6097709248771177 10.216001378656076 2.9608720490971847 -4 3 -2
770 1 1 0.5897 2.1380309267834035 6.721053669304226 4.277508811540629 4 -1 0
771 1 1 0.5897 0.6437991241046754 6.902951318380282 4.439289982689615 4 -1 0
690 1 1 0.5897 3.826411129336204 11.185520625995618 5.144032473041408 3 -2 4
277 1 2 -1.1794 3.4027507520885583 6.6799484538004235 5.285725236916302 0 0 2
548 1 1 0.5897 0.4532555059150418 11.60713884244594 4.404859419699944 7 -1 5
551 1 1 0.5897 3.7088171649820705 8.337006978573871 6.331533649499201 -2 6 -3
744 1 1 0.5897 1.1222104660558978 7.820824417500492 9.735879446454026 -1 1 1
550 1 2 -1.1794 4.184772009026186 8.733337854141496 7.061372453973332 -2 6 -3
398 1 1 0.5897 0.6868733997923873 9.64492895257952 8.144694302837431 3 4 -6
618 1 1 0.5897 2.3252396449292467 9.891205455921765 9.8767005864312 0 2 1
742 1 2 -1.1794 0.8697300896853654 6.970519741315405 10.09576804679577 -1 1 1
616 1 2 -1.1794 2.164030432068457 9.249741702609622 9.184708244438655 0 2 1
617 1 1 0.5897 2.8528662720568283 9.413415829729296 8.540510287809106 0 2 1
7 1 2 -1.1794 2.303449020788041 11.741142059632638 10.550898349014135 3 0 1
416 1 1 0.5897 4.056876883468856 7.015261930576829 10.186639361640601 -2 -2 1
689 1 1 0.5897 4.0519548217668575 11.80602830736232 6.506419274194135 3 -2 4
417 1 1 0.5897 2.6561176871174608 6.831972403289637 10.730947598449928 -2 -2 1
552 1 1 0.5897 4.726921569904514 9.409688374665958 6.655295806866049 -2 6 -3
688 1 2 -1.1794 3.407302431926621 11.740412918272705 5.801847255825361 3 -2 4
826 1 2 -1.1794 2.450253187074537 9.300977799089408 12.21297309769514 -1 1 4
838 1 2 -1.1794 2.692600010946858 10.02967933161784 15.263536913480253 0 -2 -3
839 1 1 0.5897 1.9051576089676394 10.296131133939802 15.738120897302762 0 -2 -3
828 1 1 0.5897 1.6869725411559786 9.878158056353612 12.189779015654157 -1 1 4
656 1 1 0.5897 4.097210887006012 9.74268103107214 11.451008977287572 0 3 -1
827 1 1 0.5897 2.1972136554748127 8.59210039785333 12.804356078564393 -1 1 4
813 1 1 0.5897 3.894390622970584 11.517932608103145 15.704119583352735 -4 5 -5
710 1 1 0.5897 3.780994886000848 8.82830499282541 15.863280749400616 -4 -3 -3
709 1 2 -1.1794 4.286069773087037 8.217210057249495 16.39968928263481 -4 -3 -3
840 1 1 0.5897 2.635397900108069 10.48990338410874 14.426148525440619 0 -2 -3
811 1 2 -1.1794 4.644096865331096 11.802015286942847 16.227104365320606 -4 5 -5
678 1 1 0.5897 1.9899400341808593 7.52845779478196 14.77264161010477 1 0 -3
676 1 2 -1.1794 2.485159878329101 6.960416127411414 14.182418691798066 1 0 -3
776 1 1 0.5897 4.509804319589911 7.574800661827993 13.722959643203957 3 -3 0
773 1 1 0.5897 1.418044391056642 8.692742768914725 18.433946943049225 0 -5 5
319 1 2 -1.1794 3.8979941414194768 9.524546882028622 20.277146221950712 -1 -3 -1
772 1 2 -1.1794 1.4376860356488785 9.509642105074976 18.932518929851213 0 -5 5
79 1 2 -1.1794 3.7799071462423877 7.183269976944963 18.832853469582428 1 -1 -3
93 1 1 0.5897 4.476452044595666 10.619109900624897 21.5989764667106 1 -5 0
320 1 1 0.5897 3.1085388331650736 9.770855281662223 19.7951013111346 -1 -3 -1
321 1 1 0.5897 4.611213989592412 9.65447637469929 19.652053323928985 -1 -3 -1
67 1 2 -1.1794 1.1666941338535555 7.182341780814579 17.530887817391346 4 -3 -4
858 1 1 0.5897 0.5067341874557021 10.48170070130043 17.48326237818781 -1 -1 -3
80 1 1 0.5897 3.8118372390982986 7.997186945471816 19.33567910217006 1 -1 -3
569 1 1 0.5897 2.4346887648288065 6.731515975318019 21.523582453200373 2 0 0
774 1 1 0.5897 0.6968769525312002 9.441052083796297 19.534836630956327 0 -5 5
81 1 1 0.5897 3.8572545652454213 7.461746799656164 17.920272489251452 1 -1 -3
857 1 1 0.5897 0.5612768929834637 11.759717255668045 16.673511431305517 -1 -1 -3
68 1 1 0.5897 0.5255204028526812 6.8365865234259715 18.151895291274236 4 -3 -4
69 1 1 0.5897 2.0091057283274028 6.85960267823788 17.851032358717408 4 -3 -4
597 1 1 0.5897 3.3046192506583636 15.883331744272743 4.226222715736556 0 -4 0
248 1 1 0.5897 3.9296045599566702 13.600406269533218 2.0111505152534495 -6 3 -3
596 1 1 0.5897 3.6157466498705935 14.425546130950512 4.4909726706620985 1 -4 0
247 1 2 -1.1794 3.43258720405055 13.223595198488677 2.737287746189805 -6 3 -3
235 1 2 -1.1794 3.4130764166059375 16.456870436081907 2.5422621825653735 1 -3 -4
595 1 2 -1.1794 3.4704846251756734 15.261260062458202 4.934593786171936 0 -4 0
237 1 1 0.5897 2.989516437959525 15.854435591113095 1.9307519527622388 1 -3 -4
249 1 1 0.5897 2.9823027127628663 12.470526879171103 2.3546532948861856 -6 3 -3
517 1 2 -1.1794 1.574820343076095 15.186964131838947 0.8748230645210592 0 -2 -5
107 1 1 0.5897 4.726763713498311 12.895749092168293 0.4497636770595541 -3 -1 5
500 1 1 0.5897 2.7789897326692787 15.446943415704544 10.29823164568569 1 -1 -3
830 1 1 0.5897 1.9130542866949072 12.618853723327648 6.008736376274158 6 3 5
429 1 1 0.5897 2.8007886694936364 15.97759656420625 6.66154472153655 2 0 -5
831 1 1 0.5897 0.7875732785854781 13.631441395900588 6.010692414963682 6 3 5
829 1 2 -1.1794 0.9597953853127003 12.691001109095378 6.057537849837801 6 3 5
501 1 1 0.5897 2.3718210090697607 15.507662922142583 8.841292311573843 1 -1 -3
8 1 1 0.5897 1.54540772268268 11.960639371613976 10.009176418499491 3 0 1
383 1 1 0.5897 0.39133888574477105 15.269306020850305 10.544733164348715 -9 -3 -3
499 1 2 -1.1794 2.1669941296104542 15.068590620373923 9.666857447088168 1 -1 -3
427 1 2 -1.1794 2.902948065121733 16.553596625829428 7.4192307755457705 2 0 -5
614 1 1 0.5897 4.6163632450533365 15.686183405475369 7.8897769941395355 -4 1 3
86 1 1 0.5897 1.0850084720150566 13.785008667306405 9.02139529904373 -2 4 2
9 1 1 0.5897 3.0515977446383586 12.099475394976173 10.073255724527105 3 0 1
87 1 1 0.5897 0.6985593509088992 12.806290347776795 7.9328972289187645 -2 4 2
173 1 1 0.5897 4.652569139302139 13.559233758798307 8.79459815329434 2 2 -2
172 1 2 -1.1794 4.536666608647116 12.610493357722502 8.846929728908128 2 2 -2
85 1 2 -1.1794 0.4875148494512438 13.061813921547262 8.830932435113908 -2 4 2
105 1 1 0.5897 2.108575099450274 14.057706510055352 13.301303016870317 1 0 5
505 1 2 -1.1794 3.435654702132463 16.61064227869972 11.75523678149056 5 0 -3
103 1 2 -1.1794 2.0257850393280963 15.011180119279357 13.283788994761462 1 0 5
333 1 1 0.5897 3.735261595235718 14.95985011765192 14.421209326012086 1 -2 -2
746 1 1 0.5897 3.7253818909866614 12.898929599129044 12.977368179614556 -1 3 -8
104 1 1 0.5897 1.1776301976835497 15.185965054303335 13.691658843685182 1 0 5
507 1 1 0.5897 2.9143125056372425 16.093242275989834 12.369052754334026 5 0 -3
584 1 1 0.5897 0.8134146340013721 13.836926187940382 15.945399227702152 4 -3 2
745 1 2 -1.1794 2.9545336281965273 12.410082381567717 13.265621632189763 -1 3 -8
747 1 1 0.5897 2.6496072709788483 11.957320507138773 12.47930286671627 -1 3 -8
331 1 2 -1.1794 4.446740389664509 14.607792898476301 14.95612406012205 1 -2 -2
479 1 1 0.5897 2.8154499421853254 12.646908581709173 20.271418854767795 -3 2 -3
803 1 1 0.5897 3.6161502686199367 15.129394398904255 18.070248770267458 5 1 -1
478 1 2 -1.1794 2.11493249549952 12.457230421497245 20.89558019561374 -3 2 -3
537 1 1 0.5897 4.040911108649119 12.298813541922943 17.93445613761441 6 6 3
535 1 2 -1.1794 4.069968565361215 12.644133457121665 18.826750381518718 6 6 3
804 1 1 0.5897 3.705746665922773 14.839888857339423 16.58694622675256 5 1 -1
480 1 1 0.5897 1.318549024361349 12.440464673560784 20.36473840673705 -3 2 -3
585 1 1 0.5897 1.863308217859157 14.063837305376179 17.012291606348914 4 -3 2
514 1 2 -1.1794 3.821714526496802 15.57145348175128 19.79580941339121 -1 -5 -1
518 1 1 0.5897 1.062780117278248 15.729424418688806 21.608564809310803 0 -2 -6
515 1 1 0.5897 3.2859943882238842 16.174150655979716 20.31160589362518 -1 -5 -1
516 1 1 0.5897 4.125277044552401 14.91948449578615 20.427522975788555 -1 -5 -1
802 1 2 -1.1794 3.1841560494180063 15.312273163061029 17.235852643178863 5 1 -1
629 1 1 0.5897 0.5112087737454925 16.724112442215052 19.613849946339002 -2 -4 4
583 1 2 -1.1794 1.2349488683108618 13.415474483962875 16.6943843421015 4 -3 2
106 1 2 -1.1794 4.7138773127386955 13.845434375163437 21.66404279636975 -3 -1 4
519 1 1 0.5897 1.9186510610474945 14.481689084873103 21.66011305055427 0 -2 -6
236 1 1 0.5897 2.816492415357427 17.203544144353458 2.595554452201472 1 -3 -4
186 1 1 0.5897 4.5961419620545865 19.459470178534268 3.4522281921203932 0 3 4
241 1 2 -1.1794 0.9530751538497008 19.86799341308495 5.39286489334976 2 -1 3
533 1 1 0.5897 3.5937043705443603 21.022681376687256 1.7250689393277348 -8 -2 -1
301 1 2 -1.1794 1.5078711539752296 18.27248921137199 3.116494587655388 -2 2 6
302 1 1 0.5897 1.2968207828089118 18.851915609281228 3.848646460145461 -2 2 6
532 1 2 -1.1794 4.148782319335585 21.002721308565782 2.5046677437676252 -8 -2 -1
242 1 1 0.5897 0.964054739141772 20.798812673116384 5.169857960035944 2 -1 3
303 1 1 0.5897 0.9583613817230515 17.500997334420422 3.254916195829111 -2 2 6
633 1 1 0.5897 0.6385412624609673 18.678122774135836 1.5782851310803927 3 4 6
534 1 1 0.5897 3.9325716037466165 21.808578671165257 2.973880874057724 -8 -2 -1
632 1 1 0.5897 0.5668145207402726 19.763574483326682 0.5253643693353482 3 4 6
223 1 2 -1.1794 1.635474508078819 21.684720424967328 8.431740386742963 5 1 -7
407 1 1 0.5897 2.3976359866007018 19.406147142581062 6.198766420220711 -5 -2 3
35 1 1 0.5897 4.15367619210226 21.787622923996075 6.163297599537203 -2 1 0
444 1 1 0.5897 2.491487085624709 18.981823653025934 10.445666513144177 5 4 -3
408 1 1 0.5897 3.8043898112198353 19.021551875547715 5.79238889667658 -5 -2 3
443 1 1 0.5897 1.1158271167260416 19.086848493791074 11.068991905893052 5 4 -3
406 1 2 -1.1794 3.2319338162959284 19.101130568186623 6.555442490740785 -5 -2 3
368 1 1 0.5897 3.8752957132027657 19.03592106035939 8.461977083303545 2 5 -2
428 1 1 0.5897 2.918570721303744 17.436295032517343 7.049271579200176 2 0 -5
201 1 1 0.5897 0.8158102700025017 20.13183885995778 8.642846022806145 2 -5 -2
225 1 1 0.5897 2.1045871655864437 21.87978988089562 9.243026532063093 5 1 -7
367 1 2 -1.1794 4.324954681849253 19.333457655512657 9.252908037335805 2 5 -2
369 1 1 0.5897 4.729686556243802 20.16352379611286 9.000999190575644 2 5 -3
224 1 1 0.5897 2.3186141419769557 21.648861760200738 7.762171339540655 5 1 -7
57 1 1 0.5897 4.582434538514994 18.074565383717893 11.868617918528294 -1 0 1
781 1 2 -1.1794 2.6277567290335244 19.648400056878934 14.415113581327716 -2 -3 2
782 1 1 0.5897 2.3063441135121896 19.86047873425972 13.538752358046365 -2 -3 2
13 1 2 -1.1794 1.3167841109422245 21.54453959700441 12.69420931714031 0 -4 -5
783 1 1 0.5897 1.8991209327418024 19.8649774681638 14.996885964694725 -2 -3 2
285 1 1 0.5897 3.5481671094756426 21.418118247171467 14.729034405054339 4 0 -3
483 1 1 0.5897 4.63378565372575 19.15243221572881 14.946447080072325 1 5 -1
15 1 1 0.5897 0.48193740601051993 21.28444343587348 12.304778058402402 0 -4 -5
14 1 1 0.5897 1.1173273307737586 21.681237449771324 13.620392671123119 0 -4 -5
506 1 1 0.5897 2.846283829113553 17.308248230463814 11.46843129973466 5 0 -3
725 1 1 0.5897 0.8779712219507552 22.097137887129467 15.78015904243219 1 -6 2
442 1 2 -1.1794 1.948644556486993 18.62141964220587 11.146883298732373 5 4 -3
833 1 1 0.5897 2.8453258389410756 20.833820112855253 21.006027294427927 2 -3 -1
436 1 2 -1.1794 2.4929098224754074 17.77583395608783 21.072446831615913 -2 6 1
462 1 1 0.5897 4.141184929249583 21.175045174026913 18.830786992800956 3 3 -1
461 1 1 0.5897 2.7589191458730564 20.588640378662333 18.637159249902986 3 3 -1
182 1 1 0.5897 4.1097456258841225 19.107239272133846 18.4959083209101 -4 1 -2
526 1 2 -1.1794 1.4264756580337346 17.765179806816487 18.487974469537157 -3 -3 1
438 1 1 0.5897 1.706766815747566 18.167005755151852 21.453559917134296 -2 6 1
437 1 1 0.5897 2.4310000111597208 17.974483725089005 20.138096400511316 -2 6 1
460 1 2 -1.1794 3.5027957046635745 20.59055870038975 19.23958659915986 3 3 -1
528 1 1 0.5897 0.74891987362333 18.434373210363617 18.584766465463574 -3 -3 1
527 1 1 0.5897 1.2548000492460998 17.37182493773247 17.632360976671464 -3 -3 1
511 1 2 -1.1794 1.6458709750165559 21.12606220091476 16.987939390528336 0 1 -4
668 1 1 0.5897 4.065007511031687 18.638801760717143 21.36784751285506 -7 -4 -2
832 1 2 -1.1794 2.174003785286354 20.915671777424066 21.68345472687458 2 -3 -1
834 1 1 0.5897 1.8292512112668744 21.801899145735124 21.573842012993865 2 -3 -1
183 1 1 0.5897 3.688797551786499 17.716656620811715 18.070232554848182 -5 1 -2
513 1 1 0.5897 0.9238162491652739 20.677739827302617 17.428302870047126 0 1 -4
181 1 2 -1.1794 4.4591201304635995 18.27449016580304 18.17840726246811 -5 1 -2
512 1 1 0.5897 1.7080306134517511 21.97273359717339 17.430156561547317 0 1 -4
226 1 2 -1.1794 7.097133593568185 2.565968869708085 4.9831844691253036 3 -3 -1
222 1 1 0.5897 6.171944631691726 5.066894355916798 3.909167653177698 2 -3 4
49 1 2 -1.1794 7.976719539582801 3.7899449036926978 0.8888358230490041 6 1 0
221 1 1 0.5897 4.959225084234559 4.997556309961714 3.0055654429146266 2 -3 4
228 1 1 0.5897 7.035089984208433 2.5052525033798942 4.029897274151349 3 -3 -1
51 1 1 0.5897 7.372662371406694 3.2245753342828287 1.3702430036852102 6 1 0
50 1 1 0.5897 8.035921705665253 4.584612740161084 1.4191877271401987 6 1 0
227 1 1 0.5897 8.028803254860577 2.451588121355215 5.170794552637683 3 -3 -1
607 1 2 -1.1794 6.5655703357141455 1.893843568497303 2.2527425701427166 3 6 2
175 1 2 -1.1794 7.979689749221238 5.677083258306128 3.070540531176976 0 -3 7
176 1 1 0.5897 8.658352389977408 5.157279861245404 3.5012647441614866 0 -3 7
177 1 1 0.5897 8.034404988986658 6.536639405670329 3.4882666221531706 0 -3 7
220 1 2 -1.1794 5.218918879222359 4.979122643395847 3.9267012018715315 2 -3 4
21 1 1 0.5897 5.160123643642435 4.359711976401204 0.6451812588888443 -3 -3 3
349 1 2 -1.1794 6.750288454705731 4.515247102601217 6.953974324982758 -7 2 -2
387 1 1 0.5897 5.274217824793963 4.325190386117072 9.947914988872038 -3 0 1
357 1 1 0.5897 8.562542074593997 5.479017931410722 7.28329377237522 1 -1 2
385 1 2 -1.1794 5.123405642899387 3.9433221470870246 9.08321561049793 -3 0 1
351 1 1 0.5897 6.566792728739289 3.7664765439570345 6.3865620522006585 -7 2 -2
386 1 1 0.5897 5.758155737133482 4.379025760294166 8.514419092836476 -3 0 1
146 1 1 0.5897 5.317307052694824 2.12980021302472 8.7100107433116 0 2 -3
350 1 1 0.5897 6.355610041016927 5.261147129492709 6.502148220825806 -7 2 -2
402 1 1 0.5897 8.646960024658664 1.7482144904996613 10.653949332579312 -3 -2 2
819 1 1 0.5897 8.944933157177857 6.525805027289769 9.652672035963793 4 -2 2
818 1 1 0.5897 7.622896764801502 6.554802019652262 10.389837028046012 4 -1 2
649 1 2 -1.1794 9.09375602080092 5.16360049278616 14.70457638378313 0 -1 -1
210 1 1 0.5897 5.339733088143198 2.7882068227895833 11.95249711768415 -1 -1 0
784 1 2 -1.1794 5.286033800672686 4.625773511243985 11.590922072270626 4 5 3
164 1 1 0.5897 8.844562380275645 1.5434515176440202 13.043039211434674 -4 1 -1
208 1 2 -1.1794 5.182217478406748 1.8634963191602814 12.14322336724129 -1 -1 0
209 1 1 0.5897 5.082872997875814 1.828224748127414 13.094620694817314 -1 -1 0
785 1 1 0.5897 4.770735451438391 5.428850262810057 11.667133136267418 4 5 3
786 1 1 0.5897 6.028742252199568 4.760413966738436 12.179600425881322 4 5 3
650 1 1 0.5897 8.268524395120327 4.718945016285 14.898355479536601 0 -1 -1
165 1 1 0.5897 8.000472206907009 2.288944256493149 14.054843375509364 -4 1 -1
463 1 2 -1.1794 6.98910627808897 3.5631370264532216 15.054472376246633 4 3 -2
464 1 1 0.5897 6.223574645101014 4.113631369179243 15.219513774715384 4 3 -2
287 1 1 0.5897 8.067693268833054 5.947078563377234 13.362607517314167 2 1 2
465 1 1 0.5897 7.0731066269387695 3.026341180727334 15.842552369536598 4 3 -2
286 1 2 -1.1794 7.504799737843888 6.036261514113852 12.593536176868122 2 1 2
625 1 2 -1.1794 4.939210857064389 5.3365628107246526 15.71422677273892 -4 -2 3
627 1 1 0.5897 5.12042965236892 6.275269956194526 15.66658694906878 -4 -2 3
288 1 1 0.5897 6.771372498832276 6.573085328367721 12.89388339917186 2 1 2
25 1 2 -1.1794 7.972116936643043 4.311368492923424 19.37378944186638 0 4 7
26 1 1 0.5897 8.238333443296309 4.288433917804456 20.292965223686192 0 4 7
27 1 1 0.5897 8.649330870963768 3.813924825571649 18.915305332366813 0 4 7
664 1 2 -1.1794 5.379523047680093 3.414924374732487 20.060739208334795 2 4 1
666 1 1 0.5897 5.427342162148782 2.458895588794293 20.057768931763224 2 4 1
143 1 1 0.5897 7.438982265532443 5.906286759725969 18.49619747476903 -1 4 2
665 1 1 0.5897 6.264534098208506 3.7001883800541853 19.83346380254836 2 4 1
852 1 1 0.5897 8.689373045256305 2.1033197588513213 17.363297544020217 -5 0 -3
850 1 2 -1.1794 7.8280063192098535 1.8987965168934247 16.99926692850243 -5 0 -3
189 1 1 0.5897 6.0930144456687 1.6902131862911454 17.661073625408164 -1 4 2
188 1 1 0.5897 4.764772877525848 2.415319362103342 17.616379109448754 -1 4 2
187 1 2 -1.1794 5.157185543261373 1.547672560444847 17.519013199842743 -1 4 2
100 1 2 -1.1794 8.268450853578333 10.64717910087034 2.5247439174369943 7 -4 1
66 1 1 0.5897 6.364120297603295 7.667310677175993 4.943169779307162 4 1 -3
102 1 1 0.5897 7.524405137107878 11.163332778705309 2.834993714906035 7 -4 1
101 1 1 0.5897 8.080775238402119 10.487555080181503 1.599768988092763 7 -4 1
91 1 2 -1.1794 5.088269375737607 11.205762878419188 0.7101976636119085 1 -5 1
375 1 1 0.5897 6.246055429280438 8.125053069271203 2.621541423610419 5 6 -2
316 1 2 -1.1794 5.044777238720944 7.6204334628256145 1.1631588093316214 -4 -4 0
373 1 2 -1.1794 6.487925129426256 8.654445456680335 3.381488688496375 5 6 -2
374 1 1 0.5897 7.126752176466003 9.281984407114608 3.0433061691598327 5 6 -2
162 1 1 0.5897 5.99488523549585 11.027084395825923 5.380289239837555 2 8 4
88 1 2 -1.1794 9.024410263763302 7.583184615440719 4.776812231598179 6 -1 5
89 1 1 0.5897 8.659877877212152 8.348546923777448 5.2213521780284795 6 -1 5
317 1 1 0.5897 4.958260455417408 6.72014981487084 0.8496673079494848 -4 -4 -1
64 1 2 -1.1794 6.14696430875095 7.108854258177688 5.689676353064426 4 1 -3
206 1 1 0.5897 4.9015336437487145 9.600822599009701 3.455815943151951 -4 3 -2
92 1 1 0.5897 5.920495718640675 10.732848743548457 0.705686941642945 1 -5 1
211 1 2 -1.1794 5.407855768525691 7.698433651041719 9.262808973248136 3 1 3
354 1 1 0.5897 7.243511803767957 11.11403987752444 10.033971059200221 5 4 -3
213 1 1 0.5897 6.204058302950663 7.254554693526605 8.970712780607123 3 1 3
657 1 1 0.5897 5.145861665099705 8.918688732670244 10.734504496181733 1 3 -1
691 1 2 -1.1794 8.779144874555705 9.62338144196281 10.17549644266686 3 2 4
352 1 2 -1.1794 6.582316082846513 11.622115732109785 10.50403350686009 5 4 -3
212 1 1 0.5897 4.955131486120921 7.9363738957332535 8.453666055326867 3 1 3
353 1 1 0.5897 5.869295061413724 11.002642708975767 10.65936034737489 5 4 -3
692 1 1 0.5897 8.755316346933418 8.70877689368384 9.89403738618692 3 2 4
65 1 1 0.5897 5.350092181554921 7.494309429710946 6.053988696546348 4 1 -3
817 1 2 -1.1794 8.104301432300677 6.982724212657851 9.68168627631204 4 -1 2
160 1 2 -1.1794 6.053145721534561 10.751546322558612 6.295150579810026 2 8 4
304 1 2 -1.1794 8.70867518755505 10.091230521494644 6.276212897552602 5 -2 -6
161 1 1 0.5897 6.965349719228134 10.48412702408799 6.407622841413238 2 8 4
859 1 2 -1.1794 6.545979438069427 9.709456053336389 14.261859094273094 -2 -2 2
775 1 2 -1.1794 5.266797666117558 7.563045238725492 13.137210444738852 3 -3 0
392 1 1 0.5897 8.88144942444499 9.710469270728604 11.99998174712011 2 -4 -2
655 1 2 -1.1794 5.0441068825525885 9.639725431244017 11.3558151391592 0 3 -1
391 1 2 -1.1794 9.04407229658966 9.686940709500124 12.942995820007472 2 -4 -2
861 1 1 0.5897 6.957681021181338 9.175848368918416 14.941607544025295 -2 -2 2
860 1 1 0.5897 5.905898089339132 9.126297941284795 13.853778233531262 -2 -2 2
487 1 2 -1.1794 7.812264250449734 8.010635315964901 15.989820440571583 1 -5 3
489 1 1 0.5897 8.656805311961309 7.565220846379254 15.92172444222429 1 -5 3
777 1 1 0.5897 5.021359400427415 8.142843020475954 12.416187782811415 3 -3 0
393 1 1 0.5897 8.17252532296615 9.717249740394783 13.337658780328884 2 -4 -2
642 1 1 0.5897 6.608545120954642 11.701914793876306 14.177876072489312 4 1 -5
808 1 2 -1.1794 7.5807100089893735 10.325830772082902 21.26133932560246 2 -2 -2
111 1 1 0.5897 6.588768292642312 7.635713989569616 21.478129549658405 -1 -2 -6
801 1 1 0.5897 5.45501109100101 10.626271577458109 17.660704477841485 -2 -2 3
810 1 1 0.5897 7.609748508503788 9.454238101658607 20.866664680550596 2 -2 -2
144 1 1 0.5897 6.833350036804477 7.175923440622253 19.05589647544766 -1 4 2
809 1 1 0.5897 7.204912974774378 10.884844613057751 20.581229963693083 2 -2 -2
799 1 2 -1.1794 5.8823280483407965 9.82673046814088 17.967981773468033 -2 -2 3
142 1 2 -1.1794 7.017370932381426 6.724133458266914 18.232298724549192 -1 4 2
109 1 2 -1.1794 7.212518044437445 7.5993504114189925 20.75294843086201 -1 -2 -6
766 1 2 -1.1794 8.612967868824137 10.103079057078524 18.051987758157008 -3 -2 2
110 1 1 0.5897 8.01848965701476 7.264609289160047 21.14619731420418 -1 -2 -6
800 1 1 0.5897 6.818307412334942 10.021854119745985 17.921654428911463 -2 -2 3
711 1 1 0.5897 4.924160339273604 8.76742852505809 16.85396884061548 -4 -3 -3
488 1 1 0.5897 7.461086872090067 7.73131692077505 16.835384601138443 1 -5 3
767 1 1 0.5897 8.957876906152267 10.24527241423592 17.170434089431286 -3 -2 2
699 1 1 0.5897 5.544980204703157 15.630860016429667 5.052355729361595 -5 2 -3
588 1 1 0.5897 7.242643674345963 15.01988753951372 4.051251558964998 0 1 3
539 1 1 0.5897 5.5859873858363365 12.008184973090732 2.5663538155300816 1 -4 3
587 1 1 0.5897 6.999149065818789 15.38522735881174 2.6023738601746356 0 1 3
412 1 2 -1.1794 6.049065891657748 16.690538646103338 1.355376478782024 3 -1 2
538 1 2 -1.1794 6.155288090966598 12.05332019681928 3.334559328266982 1 -4 3
540 1 1 0.5897 6.562410014052843 12.917997078269703 3.2810939587114523 1 -4 3
414 1 1 0.5897 5.180141191960105 16.67587104173247 1.756653664997505 3 -1 2
586 1 2 -1.1794 7.382553250518119 14.70635297314833 3.157719218978942 0 1 3
697 1 2 -1.1794 6.398315446499108 15.789958199270561 5.455864664454924 -5 2 -3
662 1 1 0.5897 8.98849697983135 15.642834655410125 3.2787926896989985 -3 -4 -1
413 1 1 0.5897 6.001939545735256 16.037629855807186 0.6569764225641409 3 -1 2
420 1 1 0.5897 6.950037986387018 12.299357500023481 6.8914891882924385 -6 -2 5
174 1 1 0.5897 5.31826078803146 12.29800898666032 9.302716162784108 2 2 -2
613 1 2 -1.1794 5.406914641853502 15.148850551572455 7.940570585146397 -4 1 4
418 1 2 -1.1794 7.21155661619477 13.138276293741702 7.271100612639139 -6 -2 5
218 1 1 0.5897 8.660619210670172 13.584979563549066 8.669387985266713 5 0 -1
419 1 1 0.5897 6.392199201621832 13.62359182085729 7.3682286863699495 -6 -2 5
615 1 1 0.5897 5.962624209351374 15.599072497445697 8.576834119530668 -4 1 4
698 1 1 0.5897 6.225126448476577 15.775469929110905 6.397179802276247 -5 2 -3
276 1 1 0.5897 8.629812834493586 13.242218142170628 5.995987388996777 -2 2 -2
659 1 1 0.5897 8.027050472751665 16.27003719421147 12.222064054205909 1 0 0
42 1 1 0.5897 6.042593981760847 13.248507186487407 11.798817188928357 1 -2 5
41 1 1 0.5897 5.791049913440996 14.70585288663796 12.122640463694127 1 -2 5
640 1 2 -1.1794 6.852580496618648 12.626801979128803 14.213961335032007 4 1 -5
299 1 1 0.5897 8.54224683312211 13.020153840120699 13.177844045436434 -3 -3 1
641 1 1 0.5897 6.244949052752786 13.058929767862901 13.6136930745283 4 1 -5
812 1 1 0.5897 5.13637498174074 12.38169041579535 15.645799809149553 -4 5 -5
40 1 2 -1.1794 5.406667937542886 13.83361720902787 12.210538413907766 1 -2 5
332 1 1 0.5897 5.149125996961831 15.253196803373488 14.876154328698032 1 -2 -2
315 1 1 0.5897 6.823538256846659 16.239570459609542 14.125755097666005 -2 -1 -1
313 1 2 -1.1794 6.569542105577161 16.4814598201984 15.016407779309972 -2 -1 -1
658 1 2 -1.1794 7.078413419438988 16.33395579229531 12.332905267883058 1 0 0
581 1 1 0.5897 7.326093751330695 13.019864910429412 15.811725426162912 -2 -4 0
193 1 2 -1.1794 7.408427844835448 14.574324051481556 20.97357552421557 0 -5 1
580 1 2 -1.1794 7.65916128056191 13.204777974501045 16.689874218052935 -2 -4 0
453 1 1 0.5897 7.264976864547008 12.987823881300033 19.804421896250414 -1 -2 4
451 1 2 -1.1794 6.707192220863246 12.392213947870761 19.304021845319888 -1 -2 4
452 1 1 0.5897 6.950427774684314 12.545760927856563 18.391037344595237 -1 -2 4
194 1 1 0.5897 7.366971633861614 15.427592302770394 20.541727519377975 0 -5 1
582 1 1 0.5897 7.641891883414798 14.159490275881753 16.756989802021533 -2 -4 0
536 1 1 0.5897 4.99672355610548 12.824838094504353 18.98407895786626 6 6 3
122 1 1 0.5897 7.694460763748918 16.207783433149974 17.957112913784943 -1 -1 -2
121 1 2 -1.1794 8.09821258723095 15.918343424002316 17.138881884767393 -1 -1 -2
195 1 1 0.5897 8.315529339883033 14.499135053885922 21.269904062035035 0 -5 1
619 1 2 -1.1794 6.647592330585861 16.923530356786536 19.500835891771985 2 -3 5
108 1 1 0.5897 5.570842945389602 14.052098950015232 21.29095419366676 -3 -1 4
123 1 1 0.5897 7.4871339684975595 16.198550027694793 16.457450600666046 -1 -1 -2
522 1 1 0.5897 6.355260464574062 21.6199381123984 5.420396824022024 -3 -1 -2