LAMMPS data file via write_data, version 30 Jul 2021, timestep = 2000000

864 atoms
2 atom types
576 bonds
1 bond types
288 angles
1 angle types

0.5799607169574355 17.627611683045096 xlo xhi
1.7746483880563524 21.85452941194828 ylo yhi
0.7075507200572222 21.50564507993974 zlo zhi

Masses

1 1.00794
2 15.9994

Pair Coeffs # lj/cut/tip4p/long/omp

1 0 0
2 0.21084 3.1668

Bond Coeffs # harmonic/omp

1 450 0.9572

Angle Coeffs # harmonic/omp

1 55 104.52

Atoms # full

243 1 1 0.5897 3.2551196051339426 1.9364387149124742 3.870376639218167 -1 -1 1
65 1 1 0.5897 2.6756038821025827 5.507717921652727 5.157962446937087 2 1 -3
66 1 1 0.5897 3.0761477558492976 4.048836283719604 5.104794345334746 2 1 -3
64 1 2 -1.1794 3.4002042424082144 4.9141016367601456 5.354650663977771 2 1 -3
755 1 1 0.5897 2.1212071300879156 3.044422149142823 1.8501518579082408 -4 -2 -3
754 1 2 -1.1794 1.4756557999516908 3.2658409363213963 1.1790597722322236 -4 -2 -3
10 1 2 -1.1794 3.7536534941306283 5.9071877281696965 1.531715720756692 -3 1 6
241 1 2 -1.1794 2.5925234090019402 2.609697017169155 3.716055153974619 -1 -1 1
11 1 1 0.5897 3.1697834280635253 6.418369997557651 2.0919837719320986 -3 1 6
12 1 1 0.5897 4.494679906105885 5.686092172290629 2.0957265039401327 -3 1 6
242 1 1 0.5897 1.759599269105116 2.1396147010061233 3.753091597821678 -1 -1 1
300 1 1 0.5897 4.7532586130684225 4.981441527880714 4.1943860086234945 -4 0 1
564 1 1 0.5897 0.7120879236096584 4.7986667010373765 2.5089746129350576 3 1 3
758 1 1 0.5897 0.6221009656128018 6.775832848842972 1.6025105429629634 1 1 2
580 1 2 -1.1794 3.1864225867074913 6.764757949555601 10.901310814139688 -3 0 0
736 1 2 -1.1794 1.598082322686232 3.397077843301272 8.064178448565968 1 -1 0
853 1 2 -1.1794 3.7588817527599123 4.336478427069304 10.510344906878293 -3 1 1
71 1 1 0.5897 4.409803253922382 4.3980955408994875 8.333382368838251 5 2 -4
737 1 1 0.5897 1.7877862474606065 4.331536230188755 7.980708301538446 1 -1 0
604 1 2 -1.1794 0.8128462626365218 3.508411575517946 10.731304327836257 -5 2 0
72 1 1 0.5897 4.692170227466151 4.5855882032221675 6.858010110593425 5 2 -4
855 1 1 0.5897 3.5061041462476146 5.25587297324475 10.593892266284794 -3 1 1
738 1 1 0.5897 1.4056510351304576 3.2733763750039513 8.993581028331299 1 -1 0
558 1 1 0.5897 0.9228876236621859 6.143335892905539 8.44217354104341 3 2 1
854 1 1 0.5897 2.933593229343324 3.8725627777886937 10.36943502073249 -3 1 1
556 1 2 -1.1794 1.8772702215752521 6.216280295257948 8.441060168202767 3 2 1
386 1 1 0.5897 4.328627853207529 1.9349641245607583 7.25840878233801 -4 1 2
808 1 2 -1.1794 1.4254824763843237 2.369756566653348 14.969426856559437 4 0 -2
715 1 2 -1.1794 3.12921965969563 3.846410321890909 13.37006665631011 4 -8 -3
514 1 2 -1.1794 2.3188958507907205 6.2894480361581495 14.41346216588261 -4 -4 -1
809 1 1 0.5897 2.006267649382889 2.8883037992587406 14.412723618700785 4 0 -2
717 1 1 0.5897 2.965710189986143 4.694018587651211 13.783521904614208 4 -8 -3
810 1 1 0.5897 1.0245083328788174 3.0085855689354997 15.558705968899739 4 0 -2
716 1 1 0.5897 3.520403269656878 4.063614002322791 12.523945720142592 4 -8 -3
515 1 1 0.5897 2.2238195423952334 5.9967780532827675 15.319788454250036 -4 -4 -1
516 1 1 0.5897 1.478892385321478 6.081121026153392 14.00464088162288 -4 -4 -1
566 1 1 0.5897 4.097364442147082 6.412754731072717 13.807528258353202 0 6 -7
83 1 1 0.5897 4.07291215961715 1.977117883158072 14.25068587907528 -2 0 -7
605 1 1 0.5897 0.6094801225990256 2.709294701380144 11.217273244749565 -5 2 0
221 1 1 0.5897 1.4433101616109236 5.8598607802077485 18.790631142692213 4 -5 3
341 1 1 0.5897 3.6384239396615654 4.471708338830257 19.624544198792776 2 4 1
596 1 1 0.5897 1.968828339366244 3.545146037315881 18.684232678749282 4 -3 0
100 1 2 -1.1794 4.190493589429991 3.111857239236723 17.92264188400062 6 -4 -2
340 1 2 -1.1794 2.8119820638563735 4.745646727381221 20.02211331327004 2 4 1
342 1 1 0.5897 3.0719815468627782 5.289450625020596 20.76560942875105 2 4 1
584 1 1 0.5897 3.387382472958937 4.827609236196443 17.29436195048706 2 -4 1
583 1 2 -1.1794 2.670190998868847 5.392093112198077 17.00606758117147 2 -4 1
585 1 1 0.5897 2.918209377055751 6.266828319469448 17.305123149551996 2 -4 1
595 1 2 -1.1794 1.21431201593908 2.959858355606775 18.6189436112563 3 -3 0
597 1 1 0.5897 1.3777617746795214 2.2833944307727987 19.276096270716693 3 -3 0
220 1 2 -1.1794 0.7388403727772263 6.467710323635535 19.01502024497352 4 -5 3
102 1 1 0.5897 4.783804676757017 3.3559456456468517 17.21233720662834 6 -4 -2
101 1 1 0.5897 4.686510700889811 2.4801366072801443 18.44324613077812 6 -4 -2
294 1 1 0.5897 0.6199807749504819 4.189672980574174 17.031693020805186 -2 1 1
756 1 1 0.5897 1.9754527661153867 3.7343325756405683 21.30870018644456 -4 -2 -4
187 1 2 -1.1794 2.7692277931881093 7.5304284341525305 3.5590832730352235 -2 3 1
807 1 1 0.5897 3.156143356840088 9.356451250205328 3.728849593419177 1 -2 -2
188 1 1 0.5897 3.549912515584941 7.399400572936233 4.097142309437547 -2 3 1
805 1 2 -1.1794 3.226366516232451 10.296093852978071 3.8969428339270893 1 -2 -2
806 1 1 0.5897 3.2438745320944875 10.36852330726903 4.851175441208552 1 -2 -2
189 1 1 0.5897 2.1406005557766905 7.949918094007027 4.146435170662203 -2 3 1
757 1 2 -1.1794 0.9176523108672815 7.3768620024567255 0.9187195770091499 1 1 2
845 1 1 0.5897 4.331230619404893 11.43301959198459 2.9377544131813145 1 0 5
790 1 2 -1.1794 0.8002523704869143 8.596799849304324 5.444002449938022 3 6 -2
846 1 1 0.5897 4.034686756726234 11.739585110089594 1.4852404362799545 1 0 5
493 1 2 -1.1794 0.59588801569942 11.224692969036798 0.8740847686950433 -1 -3 1
375 1 1 0.5897 1.8648145892491017 11.563414913356645 3.8658909716436516 4 6 -1
792 1 1 0.5897 0.7529694086100704 7.644589383618246 5.528763659156745 3 6 -2
774 1 1 0.5897 1.6798794336993748 9.059031398968905 8.854733231941848 0 -3 4
773 1 1 0.5897 3.177099414074054 9.161404501605926 8.656086884713885 0 -3 4
328 1 2 -1.1794 3.169092889245196 10.640183592659227 6.523941176983166 6 5 0
133 1 2 -1.1794 4.027680213055599 10.83986134329008 9.624587838416145 2 -7 -1
329 1 1 0.5897 2.810638756040309 9.843293833702898 6.914564853179552 6 5 0
772 1 2 -1.1794 2.3815378562119855 8.816972460241255 8.250417743128242 0 -3 4
330 1 1 0.5897 2.5083757904480466 11.310620797355975 6.69736566433435 6 5 0
582 1 1 0.5897 4.030263686476994 7.202463595261325 11.012979758788495 -3 0 0
134 1 1 0.5897 3.974258904970132 11.022339066890959 10.562649719482947 2 -7 -1
135 1 1 0.5897 3.6121354807193478 11.595389996221249 9.209095690281659 2 -7 -1
557 1 1 0.5897 2.050738983046058 7.089717126713766 8.090152408027404 3 2 1
707 1 1 0.5897 4.7755800406107 11.72409542484161 6.80727224433347 -1 -1 -7
581 1 1 0.5897 2.9079722526863154 7.002446273251107 10.016958134117361 -3 0 0
248 1 1 0.5897 3.1335954494263 10.219784983269111 12.55297702402626 -3 2 -3
247 1 2 -1.1794 3.3825558244439464 11.13080511467549 12.397458997052277 -3 2 -3
535 1 2 -1.1794 2.47354747618274 8.985761953702909 15.367272590539908 7 6 4
719 1 1 0.5897 2.357571916055432 7.974229726847032 12.075497614305535 5 4 1
422 1 1 0.5897 4.382419388862501 9.136982886583741 14.571437508432362 -4 1 4
536 1 1 0.5897 2.2663061733455763 8.19192961003137 14.874331761773433 7 6 4
249 1 1 0.5897 3.809331509547143 11.40486126842153 13.209173019081446 -3 2 -3
718 1 2 -1.1794 1.942738195287449 8.758345251809747 12.434932379174358 5 4 1
689 1 1 0.5897 0.933729859745476 11.521484196911981 14.99023924176807 3 -2 4
720 1 1 0.5897 1.5565710631395442 9.194958855963066 11.67573421292433 5 4 1
200 1 1 0.5897 0.9478595715874784 9.841425624552569 13.35622851246631 3 -3 0
269 1 1 0.5897 4.217279878225999 11.406897091316523 15.606288830023288 1 5 4
537 1 1 0.5897 2.6844148961781884 8.673657903758489 16.247184500119893 7 6 4
349 1 2 -1.1794 3.4693654488161365 8.576672443066673 20.686077314055666 -9 0 -3
734 1 1 0.5897 1.527364114720015 10.27137311836119 18.121367852771137 1 0 -3
644 1 1 0.5897 3.1596443071786666 8.224800833835776 18.77676187360906 4 -3 0
643 1 2 -1.1794 3.4261524025717915 7.859737148747416 17.93306814483323 4 -3 0
424 1 2 -1.1794 3.1741009911658384 11.229451012116403 20.77792578056222 8 -5 1
495 1 1 0.5897 1.495837240297937 11.405782210685363 21.401231625194058 -1 -3 0
426 1 1 0.5897 3.171011050251497 10.273500953094805 20.730289776261863 8 -6 1
733 1 2 -1.1794 2.044991185294662 11.074896171334357 18.171595541460007 1 0 -3
666 1 1 0.5897 3.894522660043326 10.75386280219291 17.743899375982096 2 1 2
351 1 1 0.5897 2.7754164976845415 8.410498092213437 21.323991288015584 -9 0 -3
425 1 1 0.5897 2.8563038381484835 11.51345445673294 19.92092180848463 8 -5 1
735 1 1 0.5897 1.7996756847621278 11.567719527544696 17.388615940981303 1 0 -3
759 1 1 0.5897 0.6548741844085499 6.956624842086694 20.89798059996096 1 1 1
350 1 1 0.5897 4.068933036729789 7.837268835546943 20.785643577242972 -9 0 -3
645 1 1 0.5897 4.376031746243539 7.975407052288507 17.910810667970694 4 -3 0
664 1 2 -1.1794 4.735163535017715 10.912335695744753 17.314570025811427 2 1 2
373 1 2 -1.1794 1.4822936800167654 12.437683521672549 3.7921280780420026 4 6 -1
170 1 1 0.5897 3.7203972104809284 14.071443697730757 4.625143817675651 -4 4 -2
168 1 1 0.5897 2.0854385816092407 13.343817779562738 1.9092853971358474 -1 -1 3
374 1 1 0.5897 1.9985862908781251 12.97683913185689 4.391182793256581 4 6 -1
575 1 1 0.5897 2.4668440919126207 16.4459926605279 3.6204113102094992 3 -1 0
574 1 2 -1.1794 1.7127932519918339 15.863594958174856 3.5288547269317694 3 -1 0
171 1 1 0.5897 4.298058392170376 13.250057758520464 5.757954590285988 -4 4 -2
576 1 1 0.5897 1.043892801011991 16.40178737789263 3.105675356829127 3 -1 0
169 1 2 -1.1794 3.4952998797338646 13.685657541658522 5.471681554204851 -4 4 -2
167 1 1 0.5897 2.051316618436277 14.856841962142052 1.8747516966973663 -1 -1 3
166 1 2 -1.1794 2.2311782762535564 14.091161612753588 1.3293237997435412 -1 -1 3
378 1 1 0.5897 3.895246764772186 14.143811655108966 0.9606791199925273 3 3 3
844 1 2 -1.1794 4.71122834960774 11.833398439331518 2.1558170819877267 1 0 5
371 1 1 0.5897 4.658876066274558 16.816679423663278 2.157764464574118 5 6 -1
392 1 1 0.5897 3.7752973804243566 16.572651794081654 7.106062114073569 4 -4 0
642 1 1 0.5897 0.9136049461696774 13.265878416255324 6.841430304303635 4 2 -5
219 1 1 0.5897 2.5050750727776676 13.033038191425682 8.152482330085121 3 -1 -2
508 1 2 -1.1794 1.7226686300403566 15.163295481828662 10.516703174898051 3 -3 4
393 1 1 0.5897 4.005702908835616 15.388811655900524 6.191136280507268 4 -4 0
217 1 2 -1.1794 3.274949639328991 13.348021070718252 8.625966208546608 3 -1 -2
391 1 2 -1.1794 4.2409457856170825 16.30861129656727 6.312597301087019 4 -4 0
218 1 1 0.5897 2.922938645905953 13.94433136702509 9.286731285164292 3 -1 -2
640 1 2 -1.1794 0.9757440964510711 12.365496678760064 7.160115883036799 4 2 -5
509 1 1 0.5897 1.644834456677194 14.395771391255026 11.08323763734952 3 -3 4
510 1 1 0.5897 2.285639661930679 15.764950287566549 11.003726506573475 3 -3 4
34 1 2 -1.1794 3.0830999971852275 15.678508800403904 13.442467777077502 -4 2 -2
43 1 2 -1.1794 1.4011711627233367 12.678628906811884 11.644790368316212 3 4 -1
270 1 1 0.5897 3.0737237651838702 12.17203854632674 14.975071045022045 1 5 4
155 1 1 0.5897 4.833324112893202 13.643562247441576 15.132397977161911 4 3 -5
459 1 1 0.5897 4.142290933320362 14.850357146613035 12.122636058454933 0 -1 -2
35 1 1 0.5897 2.219189593924179 15.509417909138133 13.818233764948566 -4 2 -2
268 1 2 -1.1794 3.9972969995059935 11.953139609734176 14.851742496357277 1 5 4
44 1 1 0.5897 2.0757086369550977 12.055061681337717 11.913648136340322 3 4 -1
36 1 1 0.5897 2.9871185116996255 16.51479258961168 12.986896454003391 -4 2 -2
490 1 2 -1.1794 0.943425071624872 15.083098685430748 16.042397518764506 1 4 3
688 1 2 -1.1794 1.2728655386204673 12.22057136807987 15.549156383789468 3 -2 4
45 1 1 0.5897 1.1334566152849073 13.107739658666011 12.457399831653323 3 4 -1
156 1 1 0.5897 4.1767145258706275 14.877481094142773 14.551094358631204 4 3 -5
457 1 2 -1.1794 4.540264235400895 14.18483353606222 11.561529659712845 0 -1 -2
492 1 1 0.5897 1.8111784129980049 15.45740152997605 16.194297030299264 1 4 3
394 1 2 -1.1794 2.8114246362326667 14.329395777546132 18.94608364430868 4 1 5
395 1 1 0.5897 2.974924085261964 14.258921259503282 19.88651993280044 4 1 5
725 1 1 0.5897 4.361247629687087 14.306168034296107 18.148317878169962 2 -5 3
396 1 1 0.5897 1.8628331444659934 14.23533403648117 18.859736560307482 4 1 4
491 1 1 0.5897 0.7860497573410427 14.525202081731427 16.80403622047821 1 4 3
92 1 1 0.5897 0.5977064738847719 16.696546717634646 17.388082099081025 2 -5 1
496 1 2 -1.1794 3.2423534536251952 16.644375398656464 16.35937423266376 -1 0 2
546 1 1 0.5897 0.701374052821175 16.58348874748701 21.45538947735801 -3 3 4
376 1 2 -1.1794 4.775883926923968 14.26950937896624 21.4055035833903 3 3 2
106 1 2 -1.1794 3.3617556902743098 18.03448277716951 4.354414564108229 -2 0 4
783 1 1 0.5897 4.112266697252243 19.831681685766025 4.500176624286434 -3 -2 0
721 1 2 -1.1794 0.9637986652232189 18.647979087489883 5.726505963999634 0 1 -2
193 1 2 -1.1794 2.1843235035860946 19.960427581376802 2.570989311958904 3 -4 1
195 1 1 0.5897 3.0986738557976596 19.738038511449478 2.7459827343427654 3 -4 1
587 1 1 0.5897 2.9419433114865035 17.68537825542241 1.278073548673555 -1 2 6
107 1 1 0.5897 2.683720682896576 18.001771291055213 5.029180633130138 -2 0 4
194 1 1 0.5897 1.985518285863644 19.524022014841727 1.742653986642862 3 -4 1
781 1 2 -1.1794 4.588387052745056 20.661994657537377 4.499291304345279 -3 -2 0
370 1 2 -1.1794 4.6976119978089566 17.548559185995536 1.5421519866816547 5 6 -1
586 1 2 -1.1794 2.1004985558273175 17.732558585529127 0.8243572027528828 -1 2 6
108 1 1 0.5897 3.9921290682162884 17.362945403381747 4.614907836570831 -2 0 4
693 1 1 0.5897 2.6020193072279687 16.894272960467156 9.129228073459032 2 0 4
692 1 1 0.5897 3.7040104247926173 17.818239648027 8.656471572290432 2 0 4
419 1 1 0.5897 1.5920742344611452 20.135937093177194 10.351048390503331 -7 -4 7
109 1 2 -1.1794 1.218782580771431 20.867271564656715 7.295066836287084 0 -2 -8
723 1 1 0.5897 1.065091542502577 19.51017002272523 6.129603936347381 0 1 -2
486 1 1 0.5897 3.420293593094356 21.285934285374807 9.594335441523594 0 1 0
691 1 2 -1.1794 2.8596434803267834 17.451296822537277 8.394735426919876 2 0 4
387 1 1 0.5897 3.157687951681277 21.09821373408836 7.541733498609602 -4 0 2
420 1 1 0.5897 1.4383934557731117 18.797337528263206 9.661016038796346 -7 -4 7
385 1 2 -1.1794 3.9025715685315054 21.526894737643488 7.963038353437617 -4 0 2
484 1 2 -1.1794 3.220675355233426 21.209639651444213 10.527323278710947 0 1 0
418 1 2 -1.1794 1.042927117829811 19.66675180797014 9.723023981598043 -7 -4 7
111 1 1 0.5897 1.1684944944687938 20.372086665635496 8.112628310024743 0 -2 -8
485 1 1 0.5897 3.960097906749021 21.630199045287043 10.966083458550994 0 1 0
110 1 1 0.5897 1.2513594450766328 21.78322216768243 7.570900244136192 0 -2 -8
80 1 1 0.5897 4.759847439998754 19.699584969721734 11.038262658717054 2 0 -4
613 1 2 -1.1794 2.6079986974609106 17.56496858072088 11.33802705854614 -6 1 4
153 1 1 0.5897 1.6827225025278443 18.56865787603278 14.330000420780602 1 -1 0
128 1 1 0.5897 2.9278456428885034 20.340455578177767 13.182999392519914 0 0 -5
129 1 1 0.5897 1.5232472992111994 20.419796213768112 12.624067166616843 0 0 -5
614 1 1 0.5897 1.945626806553181 18.045088408645285 11.83487651835582 -6 1 3
151 1 2 -1.1794 1.4538609586943507 18.004912732192754 15.068868004049376 1 -1 0
615 1 1 0.5897 3.4122005880089303 18.069327521868406 11.460477920837915 -6 1 4
127 1 2 -1.1794 2.1689980189813154 19.800087629767816 12.963301074603814 0 0 -5
82 1 2 -1.1794 4.372917000311701 21.156433357862955 14.127854322145273 -2 -1 -7
498 1 1 0.5897 2.648862063190502 17.160157002536103 15.813587276543888 -1 0 1
660 1 1 0.5897 1.7258228052063804 21.13887409296345 16.089772723849034 1 -1 2
152 1 1 0.5897 1.4928563394027339 18.58157376013796 15.831795522327916 1 -1 -1
176 1 1 0.5897 2.791146232225665 17.471799171313474 18.341324572651708 -2 -4 5
497 1 1 0.5897 4.069656070132153 17.125122251765866 16.33492713841941 -1 0 2
158 1 1 0.5897 3.91348986426697 20.34627663146382 17.035666420764443 3 2 -3
321 1 1 0.5897 3.056869561394513 19.807295112572785 19.468597237898614 1 -3 1
658 1 2 -1.1794 1.9078382270867695 20.563822282696144 16.832991152848756 1 -1 2
320 1 1 0.5897 3.5111194520643956 20.832411045574464 20.48564712639793 1 -3 1
319 1 2 -1.1794 2.7908694100221023 20.62410910709821 19.890698232265393 1 -3 1
175 1 2 -1.1794 3.2920916324006972 18.084653706129682 18.8794859853207 -2 -4 5
588 1 1 0.5897 2.330714880102607 17.86917278433289 20.703497990264985 -1 2 5
177 1 1 0.5897 4.140821634128791 17.659107085050394 19.0008797497268 -2 -4 5
157 1 2 -1.1794 4.839013896961938 20.328584245756645 16.792308890648087 3 2 -3
659 1 1 0.5897 2.2646632243251323 21.145170016791432 17.504446370997755 1 -1 2
228 1 1 0.5897 0.8849167945001842 20.655283088218653 20.80589777147599 1 -3 -1
298 1 2 -1.1794 5.413777491747804 4.864974319954385 3.5115543340976454 -4 0 1
299 1 1 0.5897 6.122282023717084 5.458946819704018 3.7592242794684365 -4 0 1
326 1 1 0.5897 7.979473548844827 4.378962291094002 5.271001687955548 0 0 -2
619 1 2 -1.1794 8.027746341979245 2.8210115976677828 2.246415428376645 1 0 3
325 1 2 -1.1794 7.899896842299703 3.5413508631140784 4.814712550505331 0 0 -2
183 1 1 0.5897 6.02506962615777 3.1528475552556987 5.600962748465625 -2 3 -2
620 1 1 0.5897 7.908992749264901 3.105458845348598 3.1525859270570695 1 0 3
327 1 1 0.5897 8.764613396440566 3.139562440455153 4.898092971337401 0 0 -2
621 1 1 0.5897 7.141601778951867 2.792515716081956 1.8857542718194489 1 0 3
763 1 2 -1.1794 5.4092978442056046 3.1308318004920954 1.445727374734249 -5 1 -3
764 1 1 0.5897 5.279276206556802 3.797239131475113 2.1203582467204702 -5 1 -3
197 1 1 0.5897 7.770283166316928 6.356728798506223 4.827915544944014 0 -3 0
182 1 1 0.5897 5.242630762765249 1.859786616148225 5.515008566730669 -1 3 -2
444 1 1 0.5897 9.033215458102008 6.715290336491765 3.0200035333528397 6 4 0
196 1 2 -1.1794 7.581255657582448 6.636084052069032 3.9321784523821735 0 -3 0
824 1 1 0.5897 6.499428158131105 4.773646881772826 10.782959503390197 -1 2 3
823 1 2 -1.1794 6.959684031959757 4.999843945040158 9.974780002010995 -1 2 3
825 1 1 0.5897 6.288650470707239 4.948904225938 9.294155371703393 -1 2 3
181 1 2 -1.1794 5.5392333369310265 2.5251641075098368 6.1358319486754995 -2 3 -2
271 1 2 -1.1794 8.390938835980906 5.681948941479822 6.33718591599982 -3 3 3
272 1 1 0.5897 8.52282943679841 5.111960198729042 7.094704917495144 -3 3 3
32 1 1 0.5897 8.254513017757377 4.1581024311351 8.9856702903569 3 7 0
70 1 2 -1.1794 4.958127572149221 4.892892077507547 7.724587150567982 5 2 -4
33 1 1 0.5897 8.531047215098294 3.0128025334680713 8.035178346224571 3 7 0
31 1 2 -1.1794 8.831957628421511 3.8903145297304804 8.270847181029408 3 7 0
777 1 1 0.5897 5.462126017803024 6.561689236326904 7.216788226657134 4 -3 2
864 1 1 0.5897 6.0503924533612325 5.0696415146176035 12.985719804758519 -1 0 1
207 1 1 0.5897 6.471286534499556 2.9840420623055355 15.592220176779332 -5 4 -4
206 1 1 0.5897 5.725005525176835 3.8226669399160658 14.576648507656284 -5 4 -4
180 1 1 0.5897 8.44898943750914 6.310677967327521 14.294850591901808 -8 1 -1
862 1 2 -1.1794 6.462343729450388 4.227472059861979 12.792852785975684 -1 0 1
239 1 1 0.5897 5.88543237521492 2.755976290832542 11.948032833204886 -6 -4 -2
770 1 1 0.5897 8.946906282775062 2.692779678778931 15.791091918488753 3 -1 0
769 1 2 -1.1794 8.162921110554997 2.280275758810184 16.153468620497797 3 -1 0
205 1 2 -1.1794 5.718005546209103 3.5671385849398263 15.499023080429529 -5 4 -4
179 1 1 0.5897 7.500182731088334 6.785107129088435 15.374819732052948 -8 1 -1
529 1 2 -1.1794 9.017979476641594 1.9361762014621848 12.928982016819539 -4 -1 -5
863 1 1 0.5897 7.393893313530316 4.372590565758292 12.957989419537702 -1 0 1
565 1 2 -1.1794 4.898293309684009 6.45712531226488 13.285352770902339 0 6 -7
446 1 1 0.5897 9.09130651018883 3.7484937628701083 13.36464059564089 2 -1 -2
445 1 2 -1.1794 9.015114207318206 4.702566355925072 13.353999131344438 2 -1 -2
238 1 2 -1.1794 5.731880205788471 1.8674895707405952 11.626899164474287 -6 -4 -2
530 1 1 0.5897 8.64388885020765 1.818884783206041 12.055814373205502 -4 -1 -5
296 1 1 0.5897 6.661600347036734 5.264024800886201 16.195872789955114 -2 2 1
765 1 1 0.5897 5.442537280951662 3.6229927752480466 21.423581208433944 -5 1 -4
517 1 2 -1.1794 5.645609196653336 4.699228549190424 20.076693738169133 -2 -1 -5
695 1 1 0.5897 7.9297508516655455 2.8172220810927318 17.819110576997602 4 -1 -1
304 1 2 -1.1794 8.56372746160039 5.098835061590554 20.645329520099274 4 -3 -6
518 1 1 0.5897 6.146713345360219 4.695067624189264 19.261216049738422 -2 -1 -5
295 1 2 -1.1794 6.718422543331945 6.055914838779491 16.730493889323043 -2 2 1
694 1 2 -1.1794 7.776957463025606 3.1267623694650224 18.71183292290209 4 -1 -1
696 1 1 0.5897 8.58757621694429 2.923409594083416 19.178370021296544 4 -1 -1
519 1 1 0.5897 5.779011721680955 5.576378462596201 20.435826408859718 -2 -1 -5
306 1 1 0.5897 7.690839145986213 4.706221885031267 20.65094900352978 4 -3 -6
647 1 1 0.5897 8.988622539891729 5.735525926852524 18.991754460533542 -7 0 -2
297 1 1 0.5897 7.488043613260903 5.918009195321569 17.28257334958164 -2 2 1
714 1 1 0.5897 6.564505866476637 1.87379636042777 19.161941282555823 -5 -1 2
336 1 1 0.5897 5.400460615573547 9.180321427449146 4.400137360403428 6 0 3
334 1 2 -1.1794 5.477036941186685 8.254717147028696 4.631492464758988 6 0 3
802 1 2 -1.1794 6.732015831420543 10.076992001410563 1.3810342103528348 4 2 -2
481 1 2 -1.1794 6.653054694794318 10.810959555189001 4.581268749306039 1 3 0
443 1 1 0.5897 8.94209311481467 7.222195402676049 1.5964931019223225 6 4 0
198 1 1 0.5897 6.963304370885186 7.360178805490261 4.031993949406404 0 -3 0
335 1 1 0.5897 5.599876619436816 8.25398154193562 5.580715203917147 6 0 3
804 1 1 0.5897 7.0995961301675585 10.229899971733495 2.2514500574858882 4 2 -2
803 1 1 0.5897 5.855491242199041 10.459473131389524 1.4201243780907165 4 2 -2
483 1 1 0.5897 7.400847498530529 10.344291011452555 4.954399703614658 1 3 0
482 1 1 0.5897 6.39481025501223 11.433017999991671 5.261318766986764 1 3 0
849 1 1 0.5897 8.086972484100057 9.229471721743973 8.434797027667361 4 -1 5
858 1 1 0.5897 7.174029055180933 10.382040495062414 10.200348176496895 -1 0 -2
776 1 1 0.5897 6.749915830090383 7.332340959288307 7.415030360719272 4 -3 2
847 1 2 -1.1794 8.463578806587591 8.499432918469463 7.943549495187037 4 -1 5
857 1 1 0.5897 7.107807538338936 11.532778028065287 9.219003034684407 -1 0 -2
856 1 2 -1.1794 7.566934245381281 10.710933228055914 9.391907029925799 -1 0 -2
451 1 2 -1.1794 5.433319978971263 8.253207786471595 9.868982656471553 0 -1 3
453 1 1 0.5897 5.734319312538263 7.831582045862934 9.064149874495426 0 -1 3
775 1 2 -1.1794 5.827736236673418 7.445693225838052 7.1851237530939125 4 -3 2
4 1 2 -1.1794 8.508907115430937 7.3316629323036295 10.372233622570832 1 -1 0
6 1 1 0.5897 8.794651904321274 7.736783461249493 9.55346234503598 1 -1 0
452 1 1 0.5897 5.26798999732776 9.161571068567683 9.616671527472732 0 -1 3
848 1 1 0.5897 8.748867456794072 8.888309689951829 7.116809894223477 4 -1 5
74 1 1 0.5897 8.977130413789762 11.050567898162237 6.35259957271048 -1 0 2
5 1 1 0.5897 7.733748935175925 6.8245183923937605 10.131296651498332 1 -1 0
469 1 2 -1.1794 6.640588565355311 9.389310253393479 11.994523741951792 1 -3 2
421 1 2 -1.1794 5.294506727194715 9.05385133662709 14.293395755539304 -4 1 4
654 1 1 0.5897 8.440514345401736 8.985755163091966 12.33061057665024 -1 2 1
542 1 1 0.5897 6.231755637380381 11.281714416248551 12.578412387305063 -4 0 1
470 1 1 0.5897 5.930434835832702 9.150155095591458 12.590004091259445 1 -3 2
1 1 2 -1.1794 6.880355791606076 10.786450691437906 15.509917101828878 1 -7 4
3 1 1 0.5897 7.6406024159679955 10.206252470847215 15.548804750210595 1 -7 4
423 1 1 0.5897 5.786152016212862 9.582156355971811 14.922121682281658 -4 1 4
471 1 1 0.5897 6.483774462366151 8.863175818992485 11.210486606690797 1 -3 2
504 1 1 0.5897 8.965230228922573 8.5125525425814 15.767323348831479 -3 -1 3
567 1 1 0.5897 5.356493411037976 7.230527965448834 13.614046257465102 0 6 -7
502 1 2 -1.1794 9.069748736367934 9.427128166094949 16.029507233066138 -3 -1 3
657 1 1 0.5897 8.15441676962924 11.767709462654027 13.090954886161086 -1 1 -1
178 1 2 -1.1794 8.113701499999866 7.10376342686729 14.712865065440909 -8 1 -1
655 1 2 -1.1794 8.98988876393776 11.585262767594893 13.520902175957326 -2 1 -1
653 1 1 0.5897 9.099185972621166 8.221055771047599 13.45887773527114 -1 2 1
816 1 1 0.5897 6.298801667296771 9.30458916962592 17.876115411207962 -2 8 -4
234 1 1 0.5897 8.31016406567704 10.468570997965188 17.54224080105142 -3 1 -1
232 1 2 -1.1794 7.646263799779928 10.56534090455798 18.22488574735268 -3 1 -1
233 1 1 0.5897 8.12743770633081 10.455181815177527 19.044916073539184 -3 1 -1
742 1 2 -1.1794 5.9671623653652635 7.382148685490857 20.767616343456552 -1 -1 0
815 1 1 0.5897 6.368325208708367 7.8704963917580075 17.396382938281413 -2 8 -4
744 1 1 0.5897 6.059401264302939 7.595685186059767 19.839174829584444 -1 -1 0
814 1 2 -1.1794 6.000503870557932 8.42020068992821 18.088228954766258 -2 8 -4
760 1 2 -1.1794 9.090435638919626 9.647544063461492 20.6623603864129 2 -1 -1
761 1 1 0.5897 8.408333942772444 9.665197878096091 21.333584814245192 2 -1 -1
665 1 1 0.5897 5.294216719840473 11.267733105322598 18.005411895115095 2 1 2
743 1 1 0.5897 6.324601987170848 8.142886449469263 21.22548146943291 -1 -1 0
2 1 1 0.5897 6.597336711967328 10.872503756634694 16.420198566227747 1 -7 4
25 1 2 -1.1794 7.336967992788756 13.323026790315653 2.8898944339863615 -1 6 6
140 1 1 0.5897 5.9429654270751024 15.524740408691505 3.555336651915104 -2 -3 -1
141 1 1 0.5897 5.171688882557394 14.712436843873588 2.537060139411164 -2 -3 -1
818 1 1 0.5897 7.402553719259281 13.92300711119778 1.0229151828791445 3 -1 1
680 1 1 0.5897 8.27737107508433 15.266481670919374 5.197522513185631 -8 -5 0
139 1 2 -1.1794 5.0533265444690665 15.295235296414624 3.2870241339509003 -2 -3 -1
26 1 1 0.5897 6.843852711863142 12.502694405560618 2.8929766680495206 -1 6 6
679 1 2 -1.1794 7.418567234939194 14.844286281486061 5.215431648289035 -8 -5 0
27 1 1 0.5897 7.189358827960129 13.695012745883984 3.7593502346173837 -1 6 6
76 1 2 -1.1794 7.698007729928072 16.50372848756546 2.3129910156206033 -6 -5 -3
78 1 1 0.5897 8.655012300804009 16.520988612877524 2.314922977670316 -6 -5 -3
204 1 1 0.5897 6.369674299371422 14.669726227603347 8.063453906618232 -7 2 2
601 1 2 -1.1794 5.595913857098685 16.53089082922714 10.363417906877215 4 3 -1
49 1 2 -1.1794 6.079259145842233 13.222192475991701 9.111645210509051 7 2 -1
436 1 2 -1.1794 8.00536520658908 14.459431471254845 10.685507128525906 -1 4 0
507 1 1 0.5897 8.199449720666976 16.14794770441304 9.866431356832178 4 1 -4
706 1 2 -1.1794 5.525283231743462 12.264519621494767 6.558264159548417 -1 -1 -7
437 1 1 0.5897 8.7545855203916 13.883122073492405 10.836078275500643 -1 4 0
51 1 1 0.5897 6.642007552015862 13.671825498905724 9.741939294945011 7 2 -1
603 1 1 0.5897 5.372827291923012 15.719310855865906 10.81913764704214 4 3 -1
202 1 2 -1.1794 6.521733424103777 15.560079079144474 7.746801161911459 -7 2 2
708 1 1 0.5897 5.818091025297502 12.661298072546678 7.378637816601721 -1 -1 -7
602 1 1 0.5897 5.868796300513926 16.24870967609371 9.49047074848445 4 3 -2
50 1 1 0.5897 5.199256504623478 13.294949867385263 9.48100489664838 7 2 -1
118 1 2 -1.1794 8.830724428899353 12.804818376860931 7.362181911194043 3 -3 -2
203 1 1 0.5897 5.790471488201705 15.732002826652216 7.153634010802788 -7 2 2
681 1 1 0.5897 7.055220381998562 15.075644548271619 6.070175809379118 -8 -5 0
120 1 1 0.5897 8.704544760095422 13.078028824390502 6.453567683272896 3 -3 -2
838 1 2 -1.1794 7.0121499018824975 15.238776696075748 13.259966300310973 -2 -3 -2
541 1 2 -1.1794 6.42158738324644 12.199411830437871 12.773121338521355 -4 0 1
458 1 1 0.5897 5.0007870803661785 13.604312048056324 12.16735465787353 0 -1 -2
839 1 1 0.5897 6.364900381187955 14.978606111792724 13.915337408101058 -2 -3 -2
767 1 1 0.5897 8.490891901656564 12.645742495951918 15.149705525720394 -1 -3 0
840 1 1 0.5897 7.826074476221322 15.339664219099243 13.753387370928891 -2 -3 -2
438 1 1 0.5897 7.945906898420157 14.98853962872429 11.480902994220624 -1 4 0
154 1 2 -1.1794 4.986066418783728 14.572813913626469 14.961260635881567 4 3 -5
543 1 1 0.5897 6.260108459402014 12.28372227766585 13.712767615790446 -4 0 1
766 1 2 -1.1794 8.512139624145394 13.384551351802916 15.757837744873116 -1 -3 0
768 1 1 0.5897 8.838356826015326 14.116672132771813 15.234681835945276 -1 -3 0
629 1 1 0.5897 6.196561412516332 16.819597184425213 13.646638561646217 -3 -4 3
609 1 1 0.5897 5.696970017453141 12.954170253204188 18.972465258315495 5 2 2
634 1 2 -1.1794 5.639954536812363 16.63810893360651 19.422749564267548 -8 0 2
636 1 1 0.5897 5.655665672175349 16.026488735413636 18.686682750053528 -8 0 2
635 1 1 0.5897 5.373814556828948 16.105176668105848 20.171942235601954 -8 0 2
726 1 1 0.5897 5.226580120438318 14.4128358089963 16.91080854676924 2 -5 3
819 1 1 0.5897 7.013793680723046 13.254143330291333 20.519827684704318 3 -2 0
361 1 2 -1.1794 8.003597654494113 15.004838625090063 18.47889379710501 2 -3 -1
362 1 1 0.5897 7.307923556908325 14.445462497903907 18.133550548642333 2 -3 -1
363 1 1 0.5897 7.849867645052623 15.023468192199395 19.423436291128446 2 -3 -1
724 1 2 -1.1794 5.270139691373889 14.251633629776919 17.853268413302082 2 -5 3
817 1 2 -1.1794 7.711247624499613 13.766538034311921 20.928631515164696 3 -1 0
607 1 2 -1.1794 5.9924530078113465 12.238780717078289 19.535511923765625 5 2 2
608 1 1 0.5897 6.74327874846908 11.86490519819871 19.07440420947873 5 2 2
377 1 1 0.5897 4.963852999561879 13.457481020498266 20.93498596236272 3 3 2
372 1 1 0.5897 5.614609739010406 17.82279234630977 1.552769114090113 5 6 -1
829 1 2 -1.1794 6.836959105826186 19.875174971196895 3.077566485496105 5 3 4