LAMMPS data file via write_data, version 30 Jul 2021, timestep = 14500000

864 atoms
2 atom types
576 bonds
1 bond types
288 angles
1 angle types

0.5777902376709747 17.629782162316225 xlo xhi
1.772091850157354 21.857085949830548 ylo yhi
0.704902740396955 21.508293059600074 zlo zhi

Masses

1 1.00794
2 15.9994

Pair Coeffs # lj/cut/tip4p/long/omp

1 0 0
2 0.21084 3.1668

Bond Coeffs # harmonic/omp

1 450 0.9572

Angle Coeffs # harmonic/omp

1 55 104.52

Atoms # full

17 1 1 0.5897 3.8775016360665644 4.734602040483984 1.99619466292486 -4 5 1
467 1 1 0.5897 0.7761455038176279 4.144973158754994 4.580486839956034 4 -2 4
335 1 1 0.5897 4.77234258449461 4.335375860378072 3.779328375951557 10 -1 7
122 1 1 0.5897 2.180461827929027 1.9454410888473024 3.7329821475429728 1 0 3
176 1 1 0.5897 2.3950245292389276 6.0850680702152635 1.9004968619815106 5 -1 5
859 1 2 -1.1794 3.0653325482345424 6.581262839387076 5.087604808452052 -3 -3 2
860 1 1 0.5897 3.240194437294405 6.092707966582836 4.2832554132127445 -3 -3 2
16 1 2 -1.1794 3.317262140095053 4.800472548775043 2.769513827027177 -4 5 1
18 1 1 0.5897 2.8096113842672032 3.9889827232589763 2.767914962279335 -4 5 1
121 1 2 -1.1794 2.7531838041273744 2.1195476388441494 2.986041519755685 1 0 3
43 1 2 -1.1794 2.2776565146466963 3.1038339561263104 5.703173082451233 2 8 0
409 1 2 -1.1794 0.5982244075018744 3.767580292473225 1.0979750285136318 6 1 -7
576 1 1 0.5897 1.2977574145870157 6.253301403328705 5.60366320456939 1 -2 4
175 1 2 -1.1794 1.7284266485503015 6.711764315590592 1.61917121674292 5 -1 5
410 1 1 0.5897 0.7372348221588751 4.045214035544138 2.003432228491115 6 1 -7
44 1 1 0.5897 1.6613228185005369 2.3714910138513403 5.709317081922539 2 8 0
177 1 1 0.5897 1.5554820581305868 6.484271740853048 0.7056212614705331 5 -1 5
746 1 1 0.5897 3.7758710250075915 2.4378763692396483 9.654555852807718 5 4 -7
745 1 2 -1.1794 3.1606391543914376 3.150437686235491 9.481394342609375 5 4 -7
45 1 1 0.5897 2.1506303674237506 3.5315209776378165 6.550041468497612 2 8 0
630 1 1 0.5897 1.1156051989945985 5.648869644758169 8.66715157187977 -2 -2 5
586 1 2 -1.1794 3.366724614675327 5.145222969158662 7.414416595303825 -3 1 3
148 1 2 -1.1794 0.7328275258804862 3.776697132907346 8.465152835643503 0 -4 1
628 1 2 -1.1794 1.6287946040254746 6.216963645679369 9.24176381854141 -2 -2 5
588 1 1 0.5897 3.3017432615543956 5.69150125660245 6.63109932262721 -3 1 3
276 1 1 0.5897 4.268307682674084 2.914885505729704 6.538827489024737 0 7 -1
747 1 1 0.5897 3.6294581787615265 3.7321835225289974 8.883051929495805 5 4 -7
587 1 1 0.5897 2.776392791744499 5.558199929401777 8.044648767705985 -3 1 3
149 1 1 0.5897 1.4799657102480654 3.2808840154945678 8.800095863502877 0 -4 1
629 1 1 0.5897 1.7018143068145568 5.726951671860472 10.060779442037347 -2 -2 5
579 1 1 0.5897 2.4010599799519996 4.104555919013144 10.957778967396582 5 5 -3
57 1 1 0.5897 4.515985141949804 2.856578983868965 12.704787398477082 -8 -1 3
266 1 1 0.5897 3.1358974336283185 5.610527561849093 14.298165962207863 -1 1 1
55 1 2 -1.1794 3.752270438217138 2.7472811338794467 13.271396749819806 -8 -1 3
265 1 2 -1.1794 3.3644571232347547 4.953742369694194 14.955913798853365 -1 1 1
578 1 1 0.5897 1.2592195688556844 4.413369542040004 11.902619647407967 5 5 -3
56 1 1 0.5897 3.0021588593973108 2.8570974854575537 12.68699128024084 -8 -1 3
577 1 2 -1.1794 2.004649857113214 4.8175427597765434 11.458532416979379 5 5 -3
82 1 2 -1.1794 0.6374982503565132 2.0986121397782798 14.279946342534053 -5 -1 -5
267 1 1 0.5897 3.603413708948018 4.178412587098707 14.447957344913894 -1 1 1
443 1 1 0.5897 3.05289920455476 6.664156066822192 12.093960943024992 2 3 -5
696 1 1 0.5897 4.537602852577979 5.977900747675935 16.002276669113662 1 -5 3
356 1 1 0.5897 2.0907832059541294 4.663636113056954 16.08599914309466 -1 -1 7
357 1 1 0.5897 0.5956946958777287 4.4318319379414595 16.140684056089746 -1 -1 7
647 1 1 0.5897 0.8244427295099163 3.2359361678625014 17.897827528913346 -7 -3 -3
19 1 2 -1.1794 2.624105055245352 2.373771566811514 20.46267274313572 -4 -4 0
107 1 1 0.5897 3.434479471101102 4.5454959690005925 18.14297569398901 4 -4 3
20 1 1 0.5897 2.0199933509255503 2.570864833612315 21.178514654646357 -4 -4 -1
21 1 1 0.5897 2.0706912634163803 2.346944352628234 19.68212504827646 -4 -4 0
108 1 1 0.5897 2.460748544977077 5.279600138058088 19.040127415817643 4 -4 3
106 1 2 -1.1794 3.3962349289356495 5.149719076968189 18.884385660037807 4 -4 3
236 1 1 0.5897 4.325571197577834 5.180717951357623 20.41016957141528 -3 -3 -5
289 1 2 -1.1794 3.958295666928332 2.5337816046671193 17.774588610862132 -6 -2 -6
318 1 1 0.5897 4.281556673302116 2.3954233569171515 20.39492164204094 -7 -3 -1
790 1 2 -1.1794 0.7559829285355957 5.881484601889541 19.86947164569895 2 4 -3
646 1 2 -1.1794 0.7571771669546683 2.448855720132457 18.438408048236838 -7 -3 -3
355 1 2 -1.1794 1.3356637559926803 4.72807714771796 16.670723910610427 -1 -1 7
290 1 1 0.5897 4.413665124605021 2.251197219772605 18.56769173032101 -6 -2 -6
486 1 1 0.5897 0.7126911748253058 6.343337941660373 16.85049525536043 3 -1 1
291 1 1 0.5897 4.651969336125862 2.867193734995775 17.20546000948285 -6 -2 -6
235 1 2 -1.1794 4.566128529572465 5.117920581705844 21.33453968473073 -3 -3 -5
792 1 1 0.5897 0.6258096945173115 5.122955447510553 20.43862477383508 2 4 -3
427 1 2 -1.1794 2.6743231230608386 9.918228361322928 1.719873794702729 -1 -1 -1
65 1 1 0.5897 2.025314361386948 9.873762352227034 4.806354163226967 2 -2 -5
428 1 1 0.5897 1.9003952794232677 10.039433617586194 1.1698018680401037 -1 -1 -1
66 1 1 0.5897 2.4514601794504114 9.375091757023469 3.4419309142587347 2 -2 -5
861 1 1 0.5897 2.7345810651757962 7.427759594357523 4.787114216680758 -3 -3 2
117 1 1 0.5897 4.097441726941658 10.709978756485526 1.0100813532114912 -5 -5 3
429 1 1 0.5897 3.0786848469483803 9.115132706132457 1.3916079133201442 -1 -1 -1
64 1 2 -1.1794 2.02008777514543 9.095336702969693 4.249331364129462 2 -2 -5
374 1 1 0.5897 4.6956436180883285 11.456135160476059 4.231162530466545 0 6 -1
189 1 1 0.5897 2.1729669393963036 7.975714976500867 8.716737920173092 -7 4 1
187 1 2 -1.1794 2.4082787108935593 8.877842941065264 8.499829467890986 -7 4 1
60 1 1 0.5897 3.6956108281129936 8.791814693423063 7.1047140025025985 3 -2 -2
188 1 1 0.5897 2.992708658876162 9.150144960485697 9.20731525530451 -7 4 1
166 1 2 -1.1794 0.8827022505330311 9.217088503300637 11.079001366285842 0 -1 7
58 1 2 -1.1794 4.560412876680826 8.841936661467454 6.697484864898866 3 -2 -2
408 1 1 0.5897 1.1937772289937059 10.92714232812616 6.616795226307661 -2 -2 4
407 1 1 0.5897 2.4542279042227717 11.722749117052196 6.351911310815256 -2 -2 4
852 1 1 0.5897 0.7031714122969706 11.112632984673516 8.463161019599726 -9 0 -3
603 1 1 0.5897 3.936694834608181 11.580199414628677 10.88342413824826 2 3 0
406 1 2 -1.1794 1.7361526055507033 11.272080760957603 5.9075054853064275 -2 -2 4
59 1 1 0.5897 4.495144677031027 9.574621153249975 6.0849472055845615 3 -2 -2
132 1 1 0.5897 2.6445200932022317 11.07174458045692 12.901438100026116 -3 3 3
279 1 1 0.5897 4.376121546506372 8.94494862102881 15.203052212409457 -1 -1 0
50 1 1 0.5897 4.120787703995546 9.03907636627854 11.769356791450981 8 0 -2
141 1 1 0.5897 1.6711640841109694 10.509005523183193 14.62235151846547 2 0 -2
139 1 2 -1.1794 1.4991941021173303 11.426917823218467 14.41236782900451 2 0 -2
328 1 2 -1.1794 2.0764703449042035 9.06111485263543 15.610385292076637 3 3 -1
130 1 2 -1.1794 2.930458713450629 10.537605224850871 12.160378537986418 -3 3 3
278 1 1 0.5897 4.136609095246639 8.10677576212856 13.965307253063022 -1 -1 0
330 1 1 0.5897 1.675641149529671 8.20264614337263 15.746764608796301 3 3 -1
131 1 1 0.5897 2.147060263359057 10.055508970734667 11.895604165692378 -3 3 3
444 1 1 0.5897 2.1180732735825263 7.166797151622047 13.1734689779701 2 3 -5
442 1 2 -1.1794 3.0440989378448204 7.1195917262362345 12.935820798564372 2 3 -5
277 1 2 -1.1794 4.767820044331232 8.706602847199253 14.362810492230812 -1 -1 0
140 1 1 0.5897 0.6905135939798754 11.63293896016234 14.881243442502452 2 0 -2
361 1 2 -1.1794 4.000824880201463 11.811155989599431 15.778336174199687 0 -3 -4
49 1 2 -1.1794 4.752228375124247 8.74438215172485 11.113101242317065 8 0 -2
51 1 1 0.5897 4.705670677293645 7.788925890256904 11.14731160496085 8 0 -2
718 1 2 -1.1794 1.6054745921849005 9.855044289724026 18.423807602344326 5 3 0
719 1 1 0.5897 1.7976851022851956 10.781542925410504 18.568407639126242 5 3 0
799 1 2 -1.1794 3.4977765560199265 7.982630644451115 18.979552805104596 -1 -1 2
720 1 1 0.5897 2.265903428979188 9.389936211697693 18.937379120115757 5 3 0
800 1 1 0.5897 3.580060165241829 7.045617274203264 18.802158276736783 -1 -1 2
801 1 1 0.5897 4.052673511417954 8.131564238564096 19.745152096079472 -1 -1 2
363 1 1 0.5897 4.061011621328859 11.044103070775353 16.347754817726145 0 -3 -4
439 1 2 -1.1794 4.490929165473152 7.930447248539382 21.468411172666038 2 -1 -2
626 1 1 0.5897 4.1964813682346644 8.942313108998881 17.64559403893407 2 -3 3
625 1 2 -1.1794 4.749121490334993 9.59865168036763 17.22128273640051 2 -3 3
485 1 1 0.5897 0.9021645858636947 7.54303853766544 17.754252517456933 3 -1 1
329 1 1 0.5897 1.8990869664467096 9.540134141866544 16.41989885901366 3 3 -1
440 1 1 0.5897 4.426883859239822 6.9753949131319795 21.466592680206475 2 -1 -2
725 1 1 0.5897 2.259044100913375 15.76033149821192 4.063265304102476 1 -6 3
239 1 1 0.5897 1.9562410233193797 14.87388494784295 1.7715706135918945 -6 -5 2
767 1 1 0.5897 1.6369596214160524 13.204398166254398 3.3896087443007135 -1 0 -3
238 1 2 -1.1794 2.1914470761995615 15.73612128698239 2.114361756085853 -6 -5 2
103 1 2 -1.1794 1.110585269008905 13.437540193364203 0.9168589464129873 5 -2 6
631 1 2 -1.1794 3.629918259484795 13.073660882948477 3.7740299270676534 3 1 4
766 1 2 -1.1794 0.8124373819436952 12.947666701234189 3.8025011066391854 -1 0 -3
240 1 1 0.5897 1.8617796071595676 16.352440108223554 1.4603413520967354 -6 -5 2
633 1 1 0.5897 3.5919997253949636 12.948694033738523 2.8257789635728656 3 1 4
724 1 2 -1.1794 2.330622562463013 16.162884197186166 4.92875147605775 1 -6 3
632 1 1 0.5897 4.507541480896451 13.419955907051435 3.935546239048092 3 1 4
247 1 2 -1.1794 4.198745299863091 13.88135522906806 0.8524833820762966 -1 2 1
726 1 1 0.5897 1.5516049113330266 16.714236352354924 5.002166371109848 1 -6 3
768 1 1 0.5897 1.0719340589152824 12.573796394367431 4.64459679497384 -1 0 -3
511 1 2 -1.1794 1.276867347488293 12.928415591661171 9.785909409092518 -1 4 -6
513 1 1 0.5897 2.121141237834997 12.484612575338778 9.866938765238329 -1 4 -6
80 1 1 0.5897 4.141084715355975 15.69529948303975 8.715334516959295 0 0 -5
512 1 1 0.5897 0.9424232219816467 12.97335547083118 10.681656114865948 -1 4 -6
394 1 2 -1.1794 2.852381735108257 14.658756161183122 7.39942010448494 3 0 4
369 1 1 0.5897 1.2014410647613811 14.617729511748879 9.4760221725133 6 2 -2
288 1 1 0.5897 4.161688266647031 12.012471184173993 8.318430226467806 3 3 -1
286 1 2 -1.1794 4.081030625694451 12.048879472453137 7.365328319912442 3 3 -1
367 1 2 -1.1794 0.9120785989615077 15.442244763491658 9.085278317905795 6 2 -1
79 1 2 -1.1794 4.711491975469567 16.264620756213002 9.231857890891447 0 0 -5
601 1 2 -1.1794 4.283174306843128 11.922839652340928 10.059531315165039 2 3 0
396 1 1 0.5897 3.1336220149584837 13.747017118037663 7.322552120489047 3 0 3
395 1 1 0.5897 2.605606889746002 14.90964718876973 6.509236532860104 3 0 4
602 1 1 0.5897 4.816757054277661 12.674425274178484 10.31767770785466 2 3 -1
368 1 1 0.5897 1.3523461006134574 15.472832067900992 8.235888764998505 6 2 -1
287 1 1 0.5897 4.805203141442798 12.608236760998812 7.084398213077789 3 3 -1
729 1 1 0.5897 0.6925279144463053 13.359072009933213 13.528957480747911 -1 1 3
607 1 2 -1.1794 1.5719451973377518 14.042732397362217 15.540949565451774 10 3 -1
781 1 2 -1.1794 2.605436805730842 15.287820307475108 11.872774571765897 -6 -2 1
782 1 1 0.5897 1.706215223438906 15.052234082429932 12.1011310495321 -6 -2 1
690 1 1 0.5897 3.4488449295837755 14.848578938131126 16.219927807576397 6 -2 4
608 1 1 0.5897 1.0698254908567555 14.749358261848286 15.135014260366459 10 3 -1
273 1 1 0.5897 3.4789174551815063 16.685301674050145 13.266968135314292 0 1 2
804 1 1 0.5897 3.990666204211539 12.960305791838046 14.025126973660328 6 1 -6
802 1 2 -1.1794 4.395324208310371 13.236032351054234 13.202639535017813 6 1 -6
803 1 1 0.5897 3.787288831192225 13.880375111768656 12.840187902623617 6 1 -6
362 1 1 0.5897 3.066416899572347 11.896914994609366 15.589210360817612 0 -3 -4
783 1 1 0.5897 2.5224987809207398 16.108246570121395 11.386704430846576 -6 -2 1
847 1 2 -1.1794 3.4416958878302872 15.14117354617965 19.20848141000438 7 -3 6
105 1 1 0.5897 1.78999079636398 13.211683709767756 21.084932178081587 5 -2 5
609 1 1 0.5897 1.2950155797174385 14.047236141107932 16.45721145049219 10 3 -1
849 1 1 0.5897 2.626440144393282 15.635055330022944 19.120896278963457 7 -3 6
848 1 1 0.5897 3.7402467287403285 15.009293881796063 18.30864343574676 7 -3 6
717 1 1 0.5897 2.012314755507491 13.074256691555414 18.87993482224013 3 -7 -2
554 1 1 0.5897 0.7497260976142209 16.56838122542652 19.505695913016595 -5 -4 6
716 1 1 0.5897 3.3813108248047063 12.475950671806846 19.124441672211084 3 -7 -2
249 1 1 0.5897 4.046242781597713 14.023977788388835 20.72169652829772 -1 2 0
715 1 2 -1.1794 2.457282491303756 12.369314338375734 19.350349759103025 3 -7 -2
688 1 2 -1.1794 4.316360385197372 14.692818388848874 16.593275513437 6 -2 4
340 1 2 -1.1794 1.167940847917707 16.614297547278994 17.457269629520894 4 2 1
689 1 1 0.5897 4.378308720841611 13.740490985710254 16.667286181021886 6 -2 4
649 1 2 -1.1794 0.6002264389980483 13.941406981152769 18.257709838094996 0 -3 -3
116 1 1 0.5897 4.630084907116759 12.077544826317025 21.44201392150356 -5 -5 2
366 1 1 0.5897 4.095301331247285 16.03421754741719 21.251273998264207 3 5 1
269 1 1 0.5897 0.7597918602716351 20.069164245894093 2.2198935300279876 2 0 6
701 1 1 0.5897 4.139620124102768 19.898273873670554 4.264279099029226 7 0 0
123 1 1 0.5897 3.5915450933632016 21.812188582591553 3.229859804456549 1 -1 3
88 1 2 -1.1794 2.260349333332488 20.1882464117774 1.3715658858833666 6 -1 2
89 1 1 0.5897 2.439696860540754 21.02877536775049 1.7929607223232105 6 -1 2
700 1 2 -1.1794 4.657509720736853 20.69978894773984 4.339056642502593 7 0 0
365 1 1 0.5897 4.056840469704902 17.2113871918161 1.3990513628462753 3 5 2
172 1 2 -1.1794 3.894326319329575 18.031558141920215 3.096081082592516 1 0 -2
173 1 1 0.5897 2.9761155870030622 17.823488490443516 3.268928113963489 1 0 -2
215 1 1 0.5897 1.148718741703929 20.102494306394625 5.704516617226488 -2 1 4
90 1 1 0.5897 3.1157404782709235 19.88509932832939 1.0670167379268551 6 -1 2
174 1 1 0.5897 4.386296056652757 17.409893344772335 3.632543332657617 1 0 -2
214 1 2 -1.1794 0.7944541711870512 20.99088710297203 5.743326604661293 -2 1 4
581 1 1 0.5897 4.8268174063475975 17.46753632858085 5.884543172413274 -3 -1 0
412 1 2 -1.1794 3.7425407046999672 20.24652124829531 7.403750042025564 7 -2 3
580 1 2 -1.1794 4.039091322834757 17.821108540773167 6.297714263410333 -3 -1 0
713 1 1 0.5897 2.326743560337187 20.204015216805097 8.560909931580955 -6 -1 5
714 1 1 0.5897 1.754013721303973 19.354065368217604 9.67514441519624 -6 -1 5
712 1 2 -1.1794 1.6086954972703353 20.16802228539939 9.192856206175723 -6 -1 5
414 1 1 0.5897 4.104741514439114 20.866588578706157 6.77084100750425 7 -2 3
413 1 1 0.5897 3.8858647773902133 19.3873119002741 7.006931949587333 7 -2 3
515 1 1 0.5897 1.296700162822137 21.180957512411602 10.643061365195733 -2 -2 -2
243 1 1 0.5897 4.650987859153701 20.7171617644317 9.212948265297745 3 -4 3
532 1 2 -1.1794 2.009310515741163 18.090444443412053 11.064283586711888 -6 -3 -1
92 1 1 0.5897 4.117475888069706 18.28186876479127 10.678763482892709 -3 -6 5
93 1 1 0.5897 4.828869915569422 19.571693945003524 11.028330478610046 -3 -6 5
68 1 1 0.5897 0.6203455067924999 18.393595339359422 8.4554388259984 6 -2 -8
582 1 1 0.5897 3.337712482981621 17.23131750593597 6.021223214526666 -3 -1 0
534 1 1 0.5897 2.191434443046759 18.69301660867056 11.785379377425395 -6 -3 -1
514 1 2 -1.1794 1.3494404387121164 21.72999867162131 11.425385385502137 -2 -2 -2
234 1 1 0.5897 1.7327326159711773 21.395510284634803 15.719191259318253 0 -1 0
670 1 2 -1.1794 2.2738586462504626 19.7549372664312 13.372162847523263 11 2 1
671 1 1 0.5897 2.05957425361414 20.599318267765753 12.975461192418106 11 2 1
271 1 2 -1.1794 4.21124995136147 17.249632133577816 13.514939949943079 0 1 2
672 1 1 0.5897 3.1365848014699953 19.88654275640267 13.765438877738577 11 2 1
539 1 1 0.5897 3.537076097734119 17.847207762853785 15.159870415853888 -1 -4 1
533 1 1 0.5897 1.2132311658349768 17.630598558336377 11.330998404233856 -6 -3 -1
540 1 1 0.5897 3.138138617961327 19.034425013659465 16.01037512497181 -1 -4 1
538 1 2 -1.1794 3.137615717377021 18.077295875522076 15.998792042444233 -1 -4 1
762 1 1 0.5897 4.345941711351854 21.182064899067996 14.072331780262326 2 -3 -1
272 1 1 0.5897 4.348800056826655 17.812845789387744 12.753298103259915 0 1 2
41 1 1 0.5897 0.8793795462844948 19.216381693780384 14.24760769775387 -3 3 2
760 1 2 -1.1794 4.703906939905942 20.364637756476668 14.418599442556024 2 -3 -1
91 1 2 -1.1794 4.818564078052789 18.635251382319126 11.226358048578636 -3 -6 5
418 1 2 -1.1794 2.0369089982221875 19.577475418565527 19.286079370507686 -10 -3 5
648 1 1 0.5897 1.0523734154476467 21.824580887629843 17.867410536391787 -7 -4 -3
136 1 2 -1.1794 4.4734971154077945 18.63409254524094 18.29452507310515 10 -7 -2
420 1 1 0.5897 2.9400490680602176 19.289080545169902 19.15418265156969 -10 -3 5
555 1 1 0.5897 1.521000333563236 17.73453836555616 20.086346046274222 -5 -4 6
233 1 1 0.5897 2.7943952309939064 21.51337196135647 16.79197827721432 0 -1 0
138 1 1 0.5897 4.057366270740358 18.190535862041784 17.555387330553067 10 -7 -2
419 1 1 0.5897 2.0764854432958826 20.146296348690022 20.054915709982055 -10 -3 5
553 1 2 -1.1794 1.2344107932335966 16.84291628374455 20.284163048370566 -5 -4 6
341 1 1 0.5897 1.9014487667706794 16.85728196232188 16.892332217585462 4 2 1
364 1 2 -1.1794 4.445677842973861 16.915753807306366 21.379254709872654 3 5 1
232 1 2 -1.1794 2.053617078010448 20.97354084498602 16.51618741615791 0 -1 0
435 1 1 0.5897 0.639809838195248 19.46903827332909 17.935191331697837 -4 3 -5
777 1 1 0.5897 6.115118319261003 6.350518982410321 4.82127624545254 3 -5 1
334 1 2 -1.1794 5.568720480385429 4.282443717334413 4.30776100810783 10 -1 7
389 1 1 0.5897 6.054060555775537 3.0000815899514133 1.433535677435899 5 5 6
390 1 1 0.5897 6.553809343360892 3.3812882295240048 2.8107994051183742 5 5 7
617 1 1 0.5897 7.623718610869228 6.729113514698564 0.7613254254878628 -5 3 3
492 1 1 0.5897 8.142962584352045 4.706101903631333 4.5061582350211715 2 5 5
388 1 2 -1.1794 6.76540361898109 2.8364383804281967 2.0527709575301563 5 5 7
336 1 1 0.5897 5.394672881973406 3.5801043851630827 4.9343966096576075 10 -1 7
490 1 2 -1.1794 8.445834917290796 4.869920017067292 3.613038730268047 2 5 5
618 1 1 0.5897 7.575616041807147 5.820583607870449 1.9713939143784938 -5 3 3
616 1 2 -1.1794 7.191438042778249 5.946693618991567 1.1037764794124183 -5 3 3
491 1 1 0.5897 8.896246545772486 4.0638825851279154 3.360728989892429 2 5 5
770 1 1 0.5897 8.634638746302539 3.203377093685239 0.7387192325960754 3 1 2
855 1 1 0.5897 7.249370376150631 3.0120932724894853 9.237542718743804 -4 0 1
853 1 2 -1.1794 6.868513938263572 2.388149773254905 8.619581150776408 -4 0 1
723 1 1 0.5897 5.291593859295817 5.93826599350183 10.106720453363062 3 -3 1
709 1 2 -1.1794 5.837189080464504 5.585364160604517 8.10361637169748 -3 1 0
711 1 1 0.5897 6.416381063618193 5.362836134239455 7.374735742105117 -3 1 0
710 1 1 0.5897 4.955485640254239 5.425932566450214 7.766828851902626 -3 1 0
184 1 2 -1.1794 8.293046674356905 4.798090957282801 6.433301135727991 -3 9 2
186 1 1 0.5897 8.487894096476918 3.914996013297759 6.747015897859896 -3 9 2
378 1 1 0.5897 8.994557550437047 4.799073677013375 9.952896247871502 3 3 1
854 1 1 0.5897 7.616889655948511 2.050886960345813 8.127135394008075 -4 0 1
376 1 2 -1.1794 8.515877339848107 4.081399328011239 10.367682566674047 3 3 1
275 1 1 0.5897 5.584999398015963 2.695360377670454 7.253000861229496 0 7 -1
185 1 1 0.5897 8.839716383189408 5.370181395181018 6.971929208828168 -3 9 2
721 1 2 -1.1794 4.900729824405431 6.016885444877708 10.97693787040868 3 -3 1
274 1 2 -1.1794 5.131213439785365 2.5152409992054796 6.429664526189733 0 7 -1
100 1 2 -1.1794 8.484469027347268 2.0271849333455094 6.5369080247013445 6 -6 -4
219 1 1 0.5897 6.399714368475904 4.113069439853156 12.263417547853358 1 -2 -4
217 1 2 -1.1794 5.837692016509458 3.520650516324726 11.763994826928847 1 -2 -4
194 1 1 0.5897 8.320769355293528 3.0123282363052253 15.605113059824074 3 -3 0
377 1 1 0.5897 8.247917902963867 4.431170081328314 11.217449746768644 3 3 1
541 1 2 -1.1794 8.037442345485179 5.41259777540513 12.615641822615903 1 2 4
193 1 2 -1.1794 8.117081747857178 2.4967919112350234 14.824740887905346 3 -3 0
674 1 1 0.5897 6.546629810843575 3.011889286875565 15.519239666025324 -2 0 -5
218 1 1 0.5897 6.374280645769905 2.740060726446511 11.626136745136725 1 -2 -4
77 1 1 0.5897 8.527648580109222 6.675652437753024 15.464797733220822 -6 -6 -1
543 1 1 0.5897 7.797899090444926 6.241127301085719 12.200448318649153 1 2 4
673 1 2 -1.1794 5.821189274405593 3.445188538811501 15.968933568602937 -2 0 -5
542 1 1 0.5897 8.974711206326544 5.494623254521517 12.791856831344864 1 2 4
722 1 1 0.5897 5.148040103264984 5.208014227368721 11.425057217420385 3 -3 1
675 1 1 0.5897 5.862741301290399 4.353954064531779 15.671178161554042 -2 0 -5
422 1 1 0.5897 8.991392840367158 4.530099329926285 16.846185826948997 -4 1 4
423 1 1 0.5897 8.0922248341339 3.947610862859766 17.915814264630924 -4 1 4
471 1 1 0.5897 6.788619725104886 5.000931651860204 19.201122419229314 6 -3 3
421 1 2 -1.1794 8.766782280380836 3.7072788862838957 17.280642902755766 -4 1 4
469 1 2 -1.1794 7.088146341404578 4.093674239514504 19.25973800963277 6 -3 3
316 1 2 -1.1794 5.195692896860687 2.153350422240081 20.246644858130246 -7 -3 -1
563 1 1 0.5897 7.937757456085098 2.1517329742334277 19.017255084111547 3 0 4
470 1 1 0.5897 6.2878480029460375 3.584592054620658 19.38866542886619 6 -3 3
694 1 2 -1.1794 5.318449599773928 6.30393126494761 16.449803224285304 1 -5 3
237 1 1 0.5897 5.5218520550240235 5.1712704583645355 21.337968371061734 -3 -3 -5
200 1 1 0.5897 8.721605845758926 11.510097196013852 3.6187758274867643 0 0 0
375 1 1 0.5897 5.927255249907506 10.698808028509726 4.680020248669227 0 6 -1
282 1 1 0.5897 5.991151836587612 8.29585151838279 3.5005754856019626 -1 -4 1
794 1 1 0.5897 8.07564530460254 9.963773856448192 5.487300945217001 -2 2 7
793 1 2 -1.1794 7.689308179474141 10.831104049777341 5.608579909618549 -2 2 7
441 1 1 0.5897 5.163808047254281 8.124616382916567 1.3175415777848403 2 -1 -1
206 1 1 0.5897 8.117499156823428 8.324775657616875 2.2177992746154986 -7 5 -3
205 1 2 -1.1794 8.802848805821808 8.195644023619266 1.562154012656101 -7 5 -3
281 1 1 0.5897 5.947113185875295 9.555818062911836 2.662446391192182 -1 -4 1
280 1 2 -1.1794 6.203051210912854 8.634015656200738 2.6305306409843325 -1 -4 1
63 1 1 0.5897 6.454362820730775 11.46901705217963 1.4647811852838624 -1 0 4
775 1 2 -1.1794 6.350270732165019 7.167250124191576 5.261601604532444 3 -5 1
776 1 1 0.5897 5.53571442676102 7.46443731104282 5.667069137816479 3 -5 1
373 1 2 -1.1794 5.010811498597557 10.57508383709631 4.432883865282683 0 6 -1
61 1 2 -1.1794 7.182188195396329 11.717229702905975 2.0347882807963273 -1 0 4
599 1 1 0.5897 7.712776198564026 7.903807823818783 10.649912668622616 -2 -2 -4
735 1 1 0.5897 7.059412227515847 8.341879836152843 8.801910461709147 -3 -1 -5
733 1 2 -1.1794 7.589746258632055 7.54581945601137 8.766075123147642 -3 -1 -5
749 1 1 0.5897 8.460504868794708 8.076199283879038 7.368540539986236 -2 7 2
828 1 1 0.5897 7.635652886738473 10.887513701905515 8.614018452356603 6 4 1
146 1 1 0.5897 5.564381800682454 9.41003214619246 8.036192197097158 2 -1 -7
147 1 1 0.5897 5.497168162724127 9.852463556335364 9.482438927658304 2 -1 -7
748 1 2 -1.1794 8.716396615021818 8.251530005772553 6.46297593632727 -2 7 2
145 1 2 -1.1794 6.115856248206213 9.654421595140558 8.779412583525575 2 -1 -7
795 1 1 0.5897 8.031436163647598 11.130568522779743 6.450896929948483 -2 2 7
826 1 2 -1.1794 8.420197788158148 11.416078191975487 8.467907427581995 6 4 1
750 1 1 0.5897 8.125170495360386 7.7121629495894 5.937834993358387 -2 7 2
734 1 1 0.5897 6.962404494806313 6.847772331206293 8.577776953409925 -3 -1 -5
152 1 1 0.5897 8.036769318995747 10.651786120231675 12.73846648316948 2 0 -1
600 1 1 0.5897 6.555923008877474 8.263813626170156 11.557673961699683 -2 -2 -4
779 1 1 0.5897 8.003932529463626 7.765932573110348 14.048313550966233 -4 0 -4
327 1 1 0.5897 5.445664140899268 11.60047817544355 13.233623902173118 0 1 -2
325 1 2 -1.1794 6.104051399746073 10.907358231231372 13.282581601842569 0 1 -2
780 1 1 0.5897 6.527427023469476 7.868695050155637 14.366715525263796 -4 0 -4
151 1 2 -1.1794 8.949371445395638 10.379151064944606 12.64322918790113 2 0 0
778 1 2 -1.1794 7.391669823786487 7.859266505330661 14.778154242549874 -4 0 -4
501 1 1 0.5897 6.853460591354862 11.718698534254143 14.76431629846612 -3 1 -4
598 1 2 -1.1794 7.473343129163013 7.991039756673943 11.57256594507474 -2 -2 -4
326 1 1 0.5897 5.62498010637446 10.143593892367928 13.604117352310556 0 1 -2
153 1 1 0.5897 8.945922154963286 9.447815502873837 12.86423174627316 2 0 0
695 1 1 0.5897 5.7770461489475045 6.820188651521311 15.78691685854549 1 -5 3
753 1 1 0.5897 7.103591029501929 9.802862942361246 19.874546238209234 0 1 -4
751 1 2 -1.1794 6.150905348810432 9.785139610690903 19.783418455949302 0 1 -4
627 1 1 0.5897 5.2659362943050905 9.97427719393172 17.934048536360137 2 -3 3
228 1 1 0.5897 6.0600736900010235 7.810404126838299 19.2829901420236 2 -1 3
314 1 1 0.5897 8.957632848572159 10.399759651571054 20.318695229703124 2 -2 -2
752 1 1 0.5897 5.825757101002583 10.20380603355312 20.580430619087693 0 1 -4
807 1 1 0.5897 7.930554746009038 7.108898023111109 18.369967896168134 2 -2 -4
436 1 2 -1.1794 7.8603352156896635 9.970269608410646 16.898160541394567 -1 4 3
620 1 1 0.5897 5.328353763336919 11.44710019890983 19.128097550115093 2 -1 4
315 1 1 0.5897 8.738230829646625 8.997509560853192 20.84545186735567 2 -2 -2
805 1 2 -1.1794 8.884363637628901 7.177636000859984 18.327777982239027 2 -2 -4
313 1 2 -1.1794 8.860004330394958 9.49099205962176 20.034355095508168 2 -2 -2
806 1 1 0.5897 9.078124356735442 8.046847623511034 18.678773729500094 2 -2 -4
437 1 1 0.5897 7.640619422429343 10.780423898569857 16.43815708650548 -1 4 3
227 1 1 0.5897 5.632282091602186 6.816904121516699 18.22380341252461 2 -1 3
438 1 1 0.5897 7.344913551926386 9.295793671628275 16.45583382501728 -1 4 3
226 1 2 -1.1794 6.189036264855851 6.905967365972399 18.99731873632424 2 -1 3
115 1 2 -1.1794 4.8832674897968875 11.156110702546725 21.497758624202152 -5 -5 2
311 1 1 0.5897 6.460574371501166 13.246841600848471 2.987362598420084 -5 4 3
312 1 1 0.5897 6.82965444532839 13.170921389473662 4.453626981034004 -5 4 3
432 1 1 0.5897 6.810940417849134 15.880245001147687 1.5137904577760657 -9 0 -1
430 1 2 -1.1794 6.643676206534992 14.948638900581335 1.3710303590082868 -9 0 -1
488 1 1 0.5897 6.223190647475193 15.750570694473394 4.085528627330331 0 -8 1
248 1 1 0.5897 5.062929261446502 14.25949286091728 1.0150528007524868 -1 2 1
300 1 1 0.5897 8.936729213042831 13.143886757049303 5.182253280825259 -2 -2 3
431 1 1 0.5897 7.420201408943773 14.50947222955797 1.7179921669275582 -9 0 -1
310 1 2 -1.1794 6.26889882888438 13.64246858830039 3.837642012889798 -5 4 3
62 1 1 0.5897 7.892777270055429 11.940106899598367 1.4334223267210433 -1 0 4
487 1 2 -1.1794 6.080430322482791 16.66147534690851 4.342640498610108 0 -8 1
94 1 2 -1.1794 5.950920720364097 14.30277395723956 10.698123031802327 -3 3 0
298 1 2 -1.1794 8.782308527543826 13.61863179181225 5.998958610680659 -2 -2 3
1 1 2 -1.1794 8.139900506913241 14.375359895733208 8.840492875925355 3 -2 4
559 1 2 -1.1794 7.447151171079589 16.237064281310317 6.928854298009697 3 1 1
2 1 1 0.5897 7.84734190173566 14.954154313402153 8.13645475803002 3 -2 4
669 1 1 0.5897 6.018812290494339 14.568359212505518 6.553513566053446 -6 1 2
668 1 1 0.5897 6.98217595170192 13.403168152171874 6.632450987958334 -6 1 1
827 1 1 0.5897 8.207094044911276 12.270626519977952 8.842831197362967 6 4 1
667 1 2 -1.1794 6.049882702761485 13.611856646407288 6.572956656808624 -6 1 2
96 1 1 0.5897 6.774883933143598 14.329267436701828 10.211693497733078 -3 3 0
561 1 1 0.5897 7.126265961502483 16.48112426600032 6.0606980367286605 3 1 1
81 1 1 0.5897 5.157864345528926 15.672079011588664 9.836793523982456 0 0 -5
3 1 1 0.5897 8.851791206983291 14.85437472056542 9.264751072039617 3 -2 4
478 1 2 -1.1794 6.21652589394962 16.58153388094211 15.476607002217948 -2 4 -2
453 1 1 0.5897 8.15986357409425 14.69443914869669 13.19430018615617 3 -1 4
499 1 2 -1.1794 6.857440033155734 12.122527989662169 15.632156064966775 -3 1 -4
128 1 1 0.5897 7.306958303454061 15.148579549097237 15.234490764067012 -2 0 -7
451 1 2 -1.1794 8.453686855081493 14.721300159195644 12.283697562534368 3 -1 4
129 1 1 0.5897 7.63573619441316 13.67093774300255 15.215291609207174 -2 0 -7
127 1 2 -1.1794 7.958642853336243 14.52215082875726 14.919649900693267 -2 0 -7
479 1 1 0.5897 5.790612658440643 16.075931420556245 16.168850567744023 -2 4 -2
452 1 1 0.5897 8.065643737423308 15.521577656196737 11.929821422731637 3 -1 4
480 1 1 0.5897 5.5650168881756175 16.62654141340697 14.776792962287214 -2 4 -2
95 1 1 0.5897 6.215249277461163 14.302829563541204 11.618105246300141 -2 3 0
500 1 1 0.5897 5.94691400505592 12.074210070636429 15.92349128505252 -3 1 -4
99 1 1 0.5897 9.001988684525386 14.791717245883717 16.199227382376343 4 -9 5
307 1 2 -1.1794 8.950304103510737 12.028952619055861 20.84644846520255 -3 5 -5
209 1 1 0.5897 7.1853101460488285 14.837271223045711 19.03229543308432 -2 -2 2
208 1 2 -1.1794 7.418466560340034 13.917763963747978 18.904112872350517 -2 -2 2