/expanse/lustre/projects/slc103/sbore/research_storage/ice_liquid_interface/TIP4P_ICE/IceIII_Liquid/2-Bulk
exp-14-18
Tue Nov  9 12:05:04 PST 2021

Due to MODULEPATH changes, the following have been reloaded:
  1) fftw/3.3.8

/expanse/lustre/projects/slc103/sbore/research_storage/ice_liquid_interface/TIP4P_ICE/IceIII_Liquid/2-Bulk/IceIh_2500bar
/expanse/lustre/projects/slc103/sbore/research_storage/ice_liquid_interface/TIP4P_ICE/IceIII_Liquid/2-Bulk/IceIh_3000bar
/expanse/lustre/projects/slc103/sbore/research_storage/ice_liquid_interface/TIP4P_ICE/IceIII_Liquid/2-Bulk/IceIh_4000bar
/expanse/lustre/projects/slc103/sbore/research_storage/ice_liquid_interface/TIP4P_ICE/IceIII_Liquid/2-Bulk/IceIh_5000bar
LAMMPS (30 Jul 2021)
  using 32 OpenMP thread(s) per MPI task
using multi-threaded neighbor list subroutines

include		in.partitions
variable        pid world 0
include		in.temp
variable	temperature equal 230.0
variable	tempDamp equal 100.0
include		in.pressure
LAMMPS (30 Jul 2021)
  using 32 OpenMP thread(s) per MPI task
variable        pressure equal 4000
using multi-threaded neighbor list subroutines
variable        pressureDamp equal 1000.0 # This is 1 ps

include		in.seed
include		in.partitions
variable        seed world 745823
variable        pid world 0

include		in.temp
units		real
variable	temperature equal 230.0
atom_style	full
variable	tempDamp equal 100.0
include		in.box
include		in.pressure
read_data       iceIII.data
variable        pressure equal 5000
Reading data file ...
variable        pressureDamp equal 1000.0 # This is 1 ps
  triclinic box = (-0.0055270000 0.0044740000 -0.085387000) to (19.985526 19.995527 20.715385) with tilt (0.0000000 0.0000000 0.0000000)
include		in.seed
  1 by 1 by 1 MPI processor grid
variable        seed world 745823
  reading atoms ...

  972 atoms
units		real
  scanning bonds ...
atom_style	full
  2 = max bonds/atom
include		in.box
  scanning angles ...
read_data       iceIII.data
  1 = max angles/atom
Reading data file ...
  reading bonds ...
  triclinic box = (-0.0055270000 0.0044740000 -0.085387000) to (19.985526 19.995527 20.715385) with tilt (0.0000000 0.0000000 0.0000000)
  648 bonds
  1 by 1 by 1 MPI processor grid
  reading angles ...
  reading atoms ...
  324 angles
  972 atoms
Finding 1-2 1-3 1-4 neighbors ...
  scanning bonds ...
  special bond factors lj:    0        0        0       
  2 = max bonds/atom
  special bond factors coul:  0        0        0       
  scanning angles ...
  1 = max angles/atom
  reading bonds ...
  648 bonds
  reading angles ...
  324 angles
Finding 1-2 1-3 1-4 neighbors ...
  special bond factors lj:    0        0        0       
  special bond factors coul:  0        0        0       
LAMMPS (30 Jul 2021)
  using 32 OpenMP thread(s) per MPI task
using multi-threaded neighbor list subroutines

include		in.partitions
variable        pid world 0
include		in.temp
variable	temperature equal 230.0
variable	tempDamp equal 100.0
include		in.pressure
variable        pressure equal 3000
variable        pressureDamp equal 1000.0 # This is 1 ps
include		in.seed
variable        seed world 745823

units		real
atom_style	full
include		in.box
read_data       iceIII.data
Reading data file ...
  triclinic box = (-0.0055270000 0.0044740000 -0.085387000) to (19.985526 19.995527 20.715385) with tilt (0.0000000 0.0000000 0.0000000)
  1 by 1 by 1 MPI processor grid
  reading atoms ...
  972 atoms
  scanning bonds ...
  2 = max bonds/atom
  scanning angles ...
  1 = max angles/atom
  reading bonds ...
  648 bonds
  reading angles ...
  324 angles
Finding 1-2 1-3 1-4 neighbors ...
  special bond factors lj:    0        0        0       
  special bond factors coul:  0        0        0       
LAMMPS (30 Jul 2021)
  using 32 OpenMP thread(s) per MPI task
using multi-threaded neighbor list subroutines

include		in.partitions
variable        pid world 0
include		in.temp
variable	temperature equal 230.0
variable	tempDamp equal 100.0
include		in.pressure
variable        pressure equal 2500
variable        pressureDamp equal 1000.0 # This is 1 ps
include		in.seed
variable        seed world 745823

units		real
atom_style	full
include		in.box
read_data       iceIII.data
Reading data file ...
  triclinic box = (-0.0055270000 0.0044740000 -0.085387000) to (19.985526 19.995527 20.715385) with tilt (0.0000000 0.0000000 0.0000000)
  1 by 1 by 1 MPI processor grid
  reading atoms ...
  972 atoms
  scanning bonds ...
  2 = max bonds/atom
  scanning angles ...
  1 = max angles/atom
  reading bonds ...
  648 bonds
  reading angles ...
  324 angles
Finding 1-2 1-3 1-4 neighbors ...
  special bond factors lj:    0        0        0       
  special bond factors coul:  0        0        0       
     2 = max # of 1-2 neighbors
     1 = max # of 1-3 neighbors
     1 = max # of 1-4 neighbors
     2 = max # of special neighbors
  special bonds CPU = 0.000 seconds
  read_data CPU = 0.008 seconds
include 	in.setup
variable	out_freq equal 500
variable	out_freq2 equal 500

timestep	2.0

neigh_modify    delay 7 every 1

include		in.tip4p
# This is TIP4P/Ice

# create groups ###
group ox type 2
324 atoms in group ox
group hy type 1
648 atoms in group hy

# set charges - beside manually ###
set group ox charge -1.1794
Setting atom values ...
  324 settings made for charge
set group hy charge 0.5897
Setting atom values ...
  648 settings made for charge

# ### TIP3P Potential Parameters ###
pair_style lj/cut/tip4p/long 2 1 1 1 0.1577 8.5
pair_coeff 1 1*2 0.000 0.000
pair_coeff 2 2 0.21084 3.1668
bond_style  harmonic
bond_coeff  1 450 0.9572
angle_style harmonic
angle_coeff 1 55 104.52
kspace_style pppm/tip4p 1.0e-5
pair_modify tail yes

thermo          ${out_freq}
thermo          500
thermo_style 	custom step temp pe etotal epair emol press lx ly lz xy xz yz vol pxx pyy pzz pxy pxz pyz

restart 	${out_freq} restart.lmp.${pid} restart2.lmp.${pid}
restart 	500 restart.lmp.${pid} restart2.lmp.${pid}
restart 	500 restart.lmp.0 restart2.lmp.${pid}
restart 	500 restart.lmp.0 restart2.lmp.0


include         in.dump
dump            myDump all atom ${out_freq2} dump.water.${pid}
dump            myDump all atom 500 dump.water.${pid}
dump            myDump all atom 500 dump.water.0
dump            myDump2 all dcd ${out_freq2} dump.dcd
dump            myDump2 all dcd 500 dump.dcd
dump_modify     myDump append yes
dump_modify     myDump2 append yes


timer           timeout 00:55:00 every 1000
New timer settings: style=normal  mode=nosync  timeout=00:55:00

fix 		1 all shake 1e-6 200 0 b 1 a 1
Finding SHAKE clusters ...
       0 = # of size 2 clusters
       0 = # of size 3 clusters
       0 = # of size 4 clusters
     324 = # of frozen angles
  find clusters CPU = 0.000 seconds
fix             2 all nph tri ${pressure} ${pressure} ${pressureDamp}
fix             2 all nph tri 4000 ${pressure} ${pressureDamp}
fix             2 all nph tri 4000 4000 ${pressureDamp}
fix             2 all nph tri 4000 4000 1000
fix             3 all temp/csvr ${temperature} ${temperature} ${tempDamp} ${seed}
fix             3 all temp/csvr 230 ${temperature} ${tempDamp} ${seed}
fix             3 all temp/csvr 230 230 ${tempDamp} ${seed}
fix             3 all temp/csvr 230 230 100 ${seed}
fix             3 all temp/csvr 230 230 100 745823
velocity 	all create ${temperature} ${seed} dist gaussian
velocity 	all create 230 ${seed} dist gaussian
velocity 	all create 230 745823 dist gaussian

run             500000
PPPM initialization ...
  extracting TIP4P info from pair style
  using 12-bit tables for long-range coulomb (../kspace.cpp:340)
  G vector (1/distance) = 0.37651392
  grid = 25 25 27
  stencil order = 5
  estimated absolute RMS force accuracy = 0.0027243689
  estimated relative force accuracy = 8.204356e-06
  using double precision FFTW3
     2 = max # of 1-2 neighbors
     1 = max # of 1-3 neighbors
     1 = max # of 1-4 neighbors
     2 = max # of special neighbors
  special bonds CPU = 0.000 seconds
  read_data CPU = 0.009 seconds
include 	in.setup
variable	out_freq equal 500
variable	out_freq2 equal 500

timestep	2.0

neigh_modify    delay 7 every 1

include		in.tip4p
# This is TIP4P/Ice

# create groups ###
group ox type 2
324 atoms in group ox
group hy type 1
648 atoms in group hy

# set charges - beside manually ###
set group ox charge -1.1794
Setting atom values ...
  324 settings made for charge
set group hy charge 0.5897
Setting atom values ...
  648 settings made for charge

# ### TIP3P Potential Parameters ###
pair_style lj/cut/tip4p/long 2 1 1 1 0.1577 8.5
pair_coeff 1 1*2 0.000 0.000
pair_coeff 2 2 0.21084 3.1668
bond_style  harmonic
bond_coeff  1 450 0.9572
angle_style harmonic
angle_coeff 1 55 104.52
kspace_style pppm/tip4p 1.0e-5
pair_modify tail yes

thermo          ${out_freq}
thermo          500
thermo_style 	custom step temp pe etotal epair emol press lx ly lz xy xz yz vol pxx pyy pzz pxy pxz pyz

restart 	${out_freq} restart.lmp.${pid} restart2.lmp.${pid}
restart 	500 restart.lmp.${pid} restart2.lmp.${pid}
restart 	500 restart.lmp.0 restart2.lmp.${pid}
restart 	500 restart.lmp.0 restart2.lmp.0


include         in.dump
dump            myDump all atom ${out_freq2} dump.water.${pid}
dump            myDump all atom 500 dump.water.${pid}
dump            myDump all atom 500 dump.water.0
dump            myDump2 all dcd ${out_freq2} dump.dcd
dump            myDump2 all dcd 500 dump.dcd
dump_modify     myDump append yes
dump_modify     myDump2 append yes


timer           timeout 00:55:00 every 1000
New timer settings: style=normal  mode=nosync  timeout=00:55:00

fix 		1 all shake 1e-6 200 0 b 1 a 1
Finding SHAKE clusters ...
       0 = # of size 2 clusters
       0 = # of size 3 clusters
       0 = # of size 4 clusters
     324 = # of frozen angles
  find clusters CPU = 0.000 seconds
fix             2 all nph tri ${pressure} ${pressure} ${pressureDamp}
fix             2 all nph tri 3000 ${pressure} ${pressureDamp}
fix             2 all nph tri 3000 3000 ${pressureDamp}
fix             2 all nph tri 3000 3000 1000
fix             3 all temp/csvr ${temperature} ${temperature} ${tempDamp} ${seed}
     2 = max # of 1-2 neighbors
fix             3 all temp/csvr 230 ${temperature} ${tempDamp} ${seed}
     1 = max # of 1-3 neighbors
fix             3 all temp/csvr 230 230 ${tempDamp} ${seed}
     1 = max # of 1-4 neighbors
fix             3 all temp/csvr 230 230 100 ${seed}
     2 = max # of special neighbors
fix             3 all temp/csvr 230 230 100 745823
  special bonds CPU = 0.000 seconds
velocity 	all create ${temperature} ${seed} dist gaussian
  read_data CPU = 0.008 seconds
velocity 	all create 230 ${seed} dist gaussian
include 	in.setup
velocity 	all create 230 745823 dist gaussian
variable	out_freq equal 500

variable	out_freq2 equal 500
run             500000

PPPM initialization ...
timestep	2.0
  extracting TIP4P info from pair style

  using 12-bit tables for long-range coulomb (../kspace.cpp:340)
neigh_modify    delay 7 every 1
  G vector (1/distance) = 0.37651392

  grid = 25 25 27
include		in.tip4p
  stencil order = 5
# This is TIP4P/Ice
  estimated absolute RMS force accuracy = 0.0027243689

  estimated relative force accuracy = 8.204356e-06
# create groups ###
  using double precision FFTW3
group ox type 2
324 atoms in group ox
group hy type 1
648 atoms in group hy

# set charges - beside manually ###
set group ox charge -1.1794
Setting atom values ...
  324 settings made for charge
set group hy charge 0.5897
Setting atom values ...
  648 settings made for charge

# ### TIP3P Potential Parameters ###
pair_style lj/cut/tip4p/long 2 1 1 1 0.1577 8.5
pair_coeff 1 1*2 0.000 0.000
pair_coeff 2 2 0.21084 3.1668
bond_style  harmonic
bond_coeff  1 450 0.9572
angle_style harmonic
angle_coeff 1 55 104.52
kspace_style pppm/tip4p 1.0e-5
pair_modify tail yes

thermo          ${out_freq}
thermo          500
thermo_style 	custom step temp pe etotal epair emol press lx ly lz xy xz yz vol pxx pyy pzz pxy pxz pyz

restart 	${out_freq} restart.lmp.${pid} restart2.lmp.${pid}
restart 	500 restart.lmp.${pid} restart2.lmp.${pid}
restart 	500 restart.lmp.0 restart2.lmp.${pid}
restart 	500 restart.lmp.0 restart2.lmp.0


include         in.dump
dump            myDump all atom ${out_freq2} dump.water.${pid}
dump            myDump all atom 500 dump.water.${pid}
dump            myDump all atom 500 dump.water.0
dump            myDump2 all dcd ${out_freq2} dump.dcd
dump            myDump2 all dcd 500 dump.dcd
dump_modify     myDump append yes
dump_modify     myDump2 append yes


timer           timeout 00:55:00 every 1000
New timer settings: style=normal  mode=nosync  timeout=00:55:00

fix 		1 all shake 1e-6 200 0 b 1 a 1
Finding SHAKE clusters ...
       0 = # of size 2 clusters
       0 = # of size 3 clusters
       0 = # of size 4 clusters
     324 = # of frozen angles
  find clusters CPU = 0.000 seconds
fix             2 all nph tri ${pressure} ${pressure} ${pressureDamp}
fix             2 all nph tri 5000 ${pressure} ${pressureDamp}
fix             2 all nph tri 5000 5000 ${pressureDamp}
fix             2 all nph tri 5000 5000 1000
fix             3 all temp/csvr ${temperature} ${temperature} ${tempDamp} ${seed}
fix             3 all temp/csvr 230 ${temperature} ${tempDamp} ${seed}
fix             3 all temp/csvr 230 230 ${tempDamp} ${seed}
fix             3 all temp/csvr 230 230 100 ${seed}
fix             3 all temp/csvr 230 230 100 745823
velocity 	all create ${temperature} ${seed} dist gaussian
velocity 	all create 230 ${seed} dist gaussian
velocity 	all create 230 745823 dist gaussian

run             500000
PPPM initialization ...
  extracting TIP4P info from pair style
  using 12-bit tables for long-range coulomb (../kspace.cpp:340)
  G vector (1/distance) = 0.37651392
  grid = 25 25 27
  stencil order = 5
  estimated absolute RMS force accuracy = 0.0027243689
  estimated relative force accuracy = 8.204356e-06
  using double precision FFTW3
     2 = max # of 1-2 neighbors
     1 = max # of 1-3 neighbors
     1 = max # of 1-4 neighbors
     2 = max # of special neighbors
  special bonds CPU = 0.000 seconds
  read_data CPU = 0.008 seconds
include 	in.setup
variable	out_freq equal 500
variable	out_freq2 equal 500

timestep	2.0

neigh_modify    delay 7 every 1

include		in.tip4p
# This is TIP4P/Ice

# create groups ###
group ox type 2
324 atoms in group ox
group hy type 1
648 atoms in group hy

# set charges - beside manually ###
set group ox charge -1.1794
Setting atom values ...
  324 settings made for charge
set group hy charge 0.5897
Setting atom values ...
  648 settings made for charge

# ### TIP3P Potential Parameters ###
pair_style lj/cut/tip4p/long 2 1 1 1 0.1577 8.5
pair_coeff 1 1*2 0.000 0.000
pair_coeff 2 2 0.21084 3.1668
bond_style  harmonic
bond_coeff  1 450 0.9572
angle_style harmonic
angle_coeff 1 55 104.52
kspace_style pppm/tip4p 1.0e-5
pair_modify tail yes

thermo          ${out_freq}
thermo          500
thermo_style 	custom step temp pe etotal epair emol press lx ly lz xy xz yz vol pxx pyy pzz pxy pxz pyz

restart 	${out_freq} restart.lmp.${pid} restart2.lmp.${pid}
restart 	500 restart.lmp.${pid} restart2.lmp.${pid}
restart 	500 restart.lmp.0 restart2.lmp.${pid}
restart 	500 restart.lmp.0 restart2.lmp.0


include         in.dump
dump            myDump all atom ${out_freq2} dump.water.${pid}
dump            myDump all atom 500 dump.water.${pid}
dump            myDump all atom 500 dump.water.0
dump            myDump2 all dcd ${out_freq2} dump.dcd
dump            myDump2 all dcd 500 dump.dcd
dump_modify     myDump append yes
dump_modify     myDump2 append yes


timer           timeout 00:55:00 every 1000
New timer settings: style=normal  mode=nosync  timeout=00:55:00

fix 		1 all shake 1e-6 200 0 b 1 a 1
Finding SHAKE clusters ...
       0 = # of size 2 clusters
       0 = # of size 3 clusters
       0 = # of size 4 clusters
     324 = # of frozen angles
  find clusters CPU = 0.000 seconds
fix             2 all nph tri ${pressure} ${pressure} ${pressureDamp}
fix             2 all nph tri 2500 ${pressure} ${pressureDamp}
fix             2 all nph tri 2500 2500 ${pressureDamp}
fix             2 all nph tri 2500 2500 1000
fix             3 all temp/csvr ${temperature} ${temperature} ${tempDamp} ${seed}
fix             3 all temp/csvr 230 ${temperature} ${tempDamp} ${seed}
fix             3 all temp/csvr 230 230 ${tempDamp} ${seed}
fix             3 all temp/csvr 230 230 100 ${seed}
fix             3 all temp/csvr 230 230 100 745823
velocity 	all create ${temperature} ${seed} dist gaussian
velocity 	all create 230 ${seed} dist gaussian
velocity 	all create 230 745823 dist gaussian

run             500000
PPPM initialization ...
  extracting TIP4P info from pair style
  using 12-bit tables for long-range coulomb (../kspace.cpp:340)
  G vector (1/distance) = 0.37651392
  grid = 25 25 27
  stencil order = 5
  estimated absolute RMS force accuracy = 0.0027243689
  estimated relative force accuracy = 8.204356e-06
  using double precision FFTW3
  3d grid and FFT values/proc = 36864 16875
Last active /omp style is kspace_style pppm/tip4p/omp
Neighbor list info ...
  update every 1 steps, delay 7 steps, check yes
  max neighbors/atom: 2000, page size: 100000
  master list distance cutoff = 10.8154
  ghost atom cutoff = 10.8154
  binsize = 5.4077, bins = 4 4 4
  1 neighbor lists, perpetual/occasional/extra = 1 0 0
  (1) pair lj/cut/tip4p/long/omp, perpetual
      attributes: half, newton on, omp
      pair build: half/bin/newton/tri/omp
      stencil: half/bin/3d/tri
      bin: standard
Setting up Verlet run ...
  Unit style    : real
  Current step  : 0
  Time step     : 2
  Walltime left : 0:54:59.98
Per MPI rank memory allocation (min/avg/max) = 40.35 | 40.35 | 40.35 Mbytes
Step Temp PotEng TotEng E_pair E_mol Press Lx Ly Lz Xy Xz Yz Volume Pxx Pyy Pzz Pxy Pxz Pyz 
       0          230   -5023.4043     -4579.83   -5023.4043            0   -2027.4885    19.991053    19.991053    20.800772            0            0            0    8312.8663    5054.8675   -2271.6156   -8865.7176   -1874.4444   -4316.0378   -1965.7496 
     500    247.02578   -4799.3388   -4322.9288   -4799.3388            0    4803.5273    20.065169    19.949884    20.642828  0.062408894 -0.081461029 0.0051684808    8263.2788    3821.9108       5254.8     5333.871    452.23001    1177.7827   -267.24991 
    1000    234.03821   -4786.0637   -4334.7013   -4786.0637            0    5045.0532    20.154351    20.293191    20.130993  0.019685346 -0.037838679   0.16398674    8233.4975    2992.8303    5002.2887    7140.0405   -28.881303   -297.78678   -1665.6695 
    1500    229.97289   -4789.4929   -4345.9708   -4789.4929            0    3841.7315    20.071958    20.108264    20.655447 -0.046809576  0.036292408  0.040650517    8336.7909    5431.3502    3601.9034    2491.9408    141.66269   -1203.0358    819.17706 
    2000    224.75993   -4763.1436   -4329.6752   -4763.1436            0    3691.9015    19.904445    20.011425    20.884437 -0.086250616  -0.28866875  -0.21080019    8318.6119    3357.0013    3974.2945    3744.4089    691.29243     564.3679   -610.97262 
    2500    231.12625   -4764.5111   -4318.7647   -4764.5111            0    4262.1891    20.210416    20.092219    20.587528   0.22097238   0.24570698   0.20207123    8360.0206    3217.1032    4461.5628    5107.9013    172.87851   -1852.8482    134.17745 
    3000    227.58089   -4775.9449    -4337.036   -4775.9449            0    4258.1388    20.239606    20.139339    20.580748   -0.2567238  -0.28052067   -0.2347374     8388.966    4469.3525    3984.6687    4320.3951    293.87115    841.80016    1292.4907 
    3500    211.00403   -4754.9377   -4347.9987   -4754.9377            0    2792.8508    19.863666     20.09601    20.907513   0.14348178   0.28214243   0.39573049    8345.8703    4911.1485    2538.7714    928.63237     -247.014   -1219.4846   -311.82665 
    4000    222.76836   -4797.3283   -4367.7007   -4797.3283            0    2946.4193    19.954643    20.157606    20.680992  0.039490499  -0.20645799  -0.21715605    8318.6778    4394.0518    1930.8336    2514.3724    328.43524    543.57373    444.03442 
    4500    229.28488   -4787.8816   -4345.6864   -4787.8816            0    3668.3099    20.027589    20.218692    20.509599 -0.059817829  0.096778385   0.13362133    8304.9859     3185.593    3508.4232    4310.9134    176.01692    143.99071   -616.86612 
    5000    222.66622   -4761.4279   -4331.9974   -4761.4279            0    5263.9778    19.938485    20.009816    20.789074     0.345598  -0.29581108  -0.18944122     8294.122    4922.3466    5715.1958    5154.3911    340.53728    1109.7942    1109.9557 
    5500    221.88166   -4794.1043   -4366.1869   -4794.1043            0    3697.0128    20.112017    20.103373    20.771025 -0.049018714  0.047171307  0.042787337    8398.1277    4612.4182      3409.77      3068.85   -106.23609   -398.53591   -423.62143 
  3d grid and FFT values/proc = 36864 16875
Last active /omp style is kspace_style pppm/tip4p/omp
Neighbor list info ...
  update every 1 steps, delay 7 steps, check yes
  max neighbors/atom: 2000, page size: 100000
  master list distance cutoff = 10.8154
  ghost atom cutoff = 10.8154
  binsize = 5.4077, bins = 4 4 4
  1 neighbor lists, perpetual/occasional/extra = 1 0 0
  (1) pair lj/cut/tip4p/long/omp, perpetual
      attributes: half, newton on, omp
      pair build: half/bin/newton/tri/omp
      stencil: half/bin/3d/tri
      bin: standard
Setting up Verlet run ...
  Unit style    : real
  Current step  : 0
  Time step     : 2
  Walltime left : 0:54:59.98
Per MPI rank memory allocation (min/avg/max) = 40.35 | 40.35 | 40.35 Mbytes
Step Temp PotEng TotEng E_pair E_mol Press Lx Ly Lz Xy Xz Yz Volume Pxx Pyy Pzz Pxy Pxz Pyz 
       0          230   -5023.4043     -4579.83   -5023.4043            0   -2027.4885    19.991053    19.991053    20.800772            0            0            0    8312.8663    5054.8675   -2271.6156   -8865.7176   -1874.4444   -4316.0378   -1965.7496 
     500    234.89161   -4775.1633   -4322.1551   -4775.1633            0    3419.4094    20.079857    19.983129    20.768187  0.077628052  -0.12255756  0.016677125    8333.4091    2709.5356     4538.038    3010.6546    931.89086    270.99489   -583.12728 
    1000    229.17732   -4773.7371   -4331.7493   -4773.7371            0    4201.6376    20.228806    20.321485    20.234237 -0.027650172  0.022162271   0.15806346    8317.8777    1878.0893    4697.0112    6029.8122   -78.341169   -778.47643   -271.65356 
    1500    229.76177   -4782.1683   -4339.0534   -4782.1683            0    2352.2642    20.198348    20.022313    20.841099  -0.10241429 -0.046032891  0.068263594    8428.5083     1392.513    2935.6834    2728.5963    14.469392   -1141.8432    459.79379 
    2000    224.44435    -4760.887   -4328.0272    -4760.887            0    3959.8815    20.050951    19.945616     20.90964   0.22096553  -0.20936575 -0.041452586    8362.3624     2776.737    5853.3785    3249.5291   -511.13984    232.16785    1196.8394 
    2500     222.1286   -4744.3118   -4315.9181   -4744.3118            0    3436.2443     20.24415    20.234635    20.533431  -0.19483462   0.22526305  0.095465055    8411.1705    2166.6665    4423.6992    3718.3672    452.40166    1110.8368    53.360087 
    3000    229.62902   -4777.9164   -4335.0576   -4777.9164            0    1505.7469    20.025189     20.22728    20.758913   0.22568581   -0.2419177 -0.095294506     8408.504     1053.478    505.19438    2958.5683   -211.11196    344.18936    53.412644 
    3500    222.36206   -4781.8825   -4353.0386   -4781.8825            0    2001.1325    19.932897    19.958172    21.070241 -0.049564532    0.4927396   0.24368103    8382.2514    3472.1132    1959.6651    571.61935   -483.08843   -2320.6276   -699.81546 
    4000    220.75173   -4793.9623    -4368.224   -4793.9623            0    3257.3219    20.029726    20.177871    20.595095   -0.1108219  -0.30283003  -0.20622774    8323.6569    2681.2886    4588.8481     2501.829    258.05578    987.87322    315.91602 
    4500    229.95915   -4784.5986    -4341.103   -4784.5986            0    3797.2599    20.068876    20.079812    20.680545   0.13655966  0.070710847   0.14162462    8333.8305     3830.921    3534.8313    4026.0275    -173.8741    -94.66342   -509.35452 
    5000    228.65706   -4770.0431   -4329.0588   -4770.0431            0    2402.5935    20.061714    20.128675    20.906761  -0.16537501  -0.17408019 -0.029338926    8442.4789    1568.0943    2730.3384    2909.3476    304.82934   -417.44945    355.97174 
    5500    218.69115   -4776.5666   -4354.8024   -4776.5666            0    5420.2759     20.21235    19.905629     20.67267   0.42814621  0.076738025    0.1770305    8317.4323    5569.2192    4131.3735    6560.2352    -309.4994   -1122.4632    1656.8614 
  3d grid and FFT values/proc = 36864 16875
Last active /omp style is kspace_style pppm/tip4p/omp
Neighbor list info ...
  update every 1 steps, delay 7 steps, check yes
  max neighbors/atom: 2000, page size: 100000
  master list distance cutoff = 10.8154
  ghost atom cutoff = 10.8154
  binsize = 5.4077, bins = 4 4 4
  1 neighbor lists, perpetual/occasional/extra = 1 0 0
  (1) pair lj/cut/tip4p/long/omp, perpetual
      attributes: half, newton on, omp
      pair build: half/bin/newton/tri/omp
      stencil: half/bin/3d/tri
      bin: standard
Setting up Verlet run ...
  Unit style    : real
  Current step  : 0
  Time step     : 2
  Walltime left : 0:54:59.97
Per MPI rank memory allocation (min/avg/max) = 40.35 | 40.35 | 40.35 Mbytes
Step Temp PotEng TotEng E_pair E_mol Press Lx Ly Lz Xy Xz Yz Volume Pxx Pyy Pzz Pxy Pxz Pyz 
       0          230   -5023.4043     -4579.83   -5023.4043            0   -2027.4885    19.991053    19.991053    20.800772            0            0            0    8312.8663    5054.8675   -2271.6156   -8865.7176   -1874.4444   -4316.0378   -1965.7496 
     500    231.91846    -4768.468   -4321.1937    -4768.468            0    2546.2684    20.089106    20.017206    20.831969  0.080710046  -0.13336496  0.020093114    8377.1131    2156.2695    3612.7122    1869.8234    847.01129    113.91755   -580.34344 
    1000    229.10929   -4769.4619   -4327.6054   -4769.4619            0    3414.4556    20.173471    20.331349    20.293157 -0.092947086  0.074751065   0.13835214    8323.3171    3072.8813    2723.6744     4446.811   -9.3431189   -1021.3563   -627.13343 
    1500    224.37059   -4773.9232   -4341.2057   -4773.9232            0    2186.5777    20.184815    20.086425    20.847834  0.036549832  -0.20472191   0.03282442    8452.5618    3136.1056    377.87158    3045.7558    512.24112   -757.77393   -1270.6147 
    2000    232.32705    -4771.604   -4323.5417    -4771.604            0    2649.4985    20.085433    19.895077     20.99447  0.061899412    0.1637289  0.099226203    8389.4162    1994.0459    4356.7045    1597.7452   -645.10485   -465.04575    1271.4276 
    2500    228.98633   -4752.5468   -4310.9274   -4752.5468            0    2032.1445    20.203714    20.220276    20.741856   0.07179808   -0.3788735  -0.14581252    8473.5601    2168.8778    1171.3743    2756.1813    496.47336    2140.3002    1014.4551 
    3000    229.03702   -4770.1415   -4328.4243   -4770.1415            0    2153.9148     20.14055     20.16474    20.653136  0.028302314  0.057201439   0.21540063    8387.8366    2771.7889    1210.3986    2479.5571   -165.60863    42.991321   -708.05629 
    3500    234.08975   -4803.8327   -4352.3709   -4803.8327            0    1126.6887    19.925064     20.29541    20.894894 -0.043798162 -0.061290269 -0.031606119    8449.6306    2321.8831     227.7909    830.39207    890.58398   -131.80632    607.83955 
    4000    229.33071   -4801.4979   -4359.2144   -4801.4979            0    2968.2844     19.93426    20.243606    20.709735   0.32627082  -0.29876352   0.12158456    8357.2337    3780.2683    1699.6731    3424.9117   -365.20216    -498.4749   -389.22792 
    4500    227.59229     -4777.82   -4338.8891     -4777.82            0    3598.6821    20.011474    20.137612    20.764753 -0.093335454   0.13451912  -0.16299243    8367.8487     5401.777    1942.2674    3452.0019    617.62528   -130.96648    1310.1652 
    5000     218.7754    -4750.404   -4328.4772    -4750.404            0    2621.5461     19.98235    20.182975    20.864573   0.16703882  -0.32830783    0.1969382    8414.7506    3200.0375    1409.7375    3254.8631   -664.70356    890.97613   -589.00959 
    5500    223.73972   -4786.9895   -4355.4886   -4786.9895            0    2433.0683    20.197078    20.063032    20.688563  0.016406563    0.3057185  -0.24373208    8383.3085    2768.7394    728.38156    3802.0841   -307.22293    583.93796    1245.3195 
  3d grid and FFT values/proc = 36864 16875
Last active /omp style is kspace_style pppm/tip4p/omp
Neighbor list info ...
  update every 1 steps, delay 7 steps, check yes
  max neighbors/atom: 2000, page size: 100000
  master list distance cutoff = 10.8154
  ghost atom cutoff = 10.8154
  binsize = 5.4077, bins = 4 4 4
  1 neighbor lists, perpetual/occasional/extra = 1 0 0
  (1) pair lj/cut/tip4p/long/omp, perpetual
      attributes: half, newton on, omp
      pair build: half/bin/newton/tri/omp
      stencil: half/bin/3d/tri
      bin: standard
Setting up Verlet run ...
  Unit style    : real
  Current step  : 0
  Time step     : 2
  Walltime left : 0:54:59.98
Per MPI rank memory allocation (min/avg/max) = 40.35 | 40.35 | 40.35 Mbytes
Step Temp PotEng TotEng E_pair E_mol Press Lx Ly Lz Xy Xz Yz Volume Pxx Pyy Pzz Pxy Pxz Pyz 
       0          230   -5023.4043     -4579.83   -5023.4043            0   -2027.4885    19.991053    19.991053    20.800772            0            0            0    8312.8663    5054.8675   -2271.6156   -8865.7176   -1874.4444   -4316.0378   -1965.7496 
     500    245.36763   -4798.5527   -4325.3406   -4798.5527            0     5762.008    20.031492    19.932284    20.556988  0.045034346 -0.053821352 -0.021191513    8207.8579    5086.4376    6209.9188    5989.6676    260.69644    1633.4707     1195.301 
    1000     234.2511   -4787.6492   -4335.8763   -4787.6492            0    4928.6413     20.14491    20.073598    20.265328  0.043101395 -0.060178172   0.20348217      8194.91    2823.6908    5888.9901    6073.2431   -195.12576   -614.45007   -578.36907 
    1500    239.24072   -4803.0861   -4341.6902   -4803.0861            0    4927.7523      20.0267    20.237733    20.502316 -0.049126952  0.056658562  -0.14627673    8309.4862    3464.5852    5484.9859    5833.6856   -517.82952   -840.06267   -1133.9303 
    2000    233.39886   -4769.5374   -4319.4081   -4769.5374            0    6317.5277    19.799886    20.030975    20.650483  0.034806962  -0.19520396   0.13117696    8190.2091    6200.0163    5892.1876    6860.3793    137.18923   -595.34559    551.14553 
    2500     230.8205   -4755.7998    -4310.643   -4755.7998            0    5479.4631    19.805827    20.134414    20.735465  0.035335674   0.18048628 -0.040934884    8268.8621     7095.222    4817.1625    4526.0047   -726.58277   -1410.8912    481.26161 
    3000    224.02532   -4780.0201   -4347.9684   -4780.0201            0    3373.8942    20.051971    20.166634     20.37217   0.10931355   -0.2463351 -0.013787217     8238.114    4413.7912    1189.4705    4518.4207     161.4645   -858.10404    661.12422 
    3500    228.77768   -4788.4621   -4347.2451   -4788.4621            0    5187.0332     20.15354    19.826347    20.567588  -0.19176986   0.10028132  0.018361675    8218.2131    4848.4852    4767.6237    5944.9908    149.66751   -519.57679   -285.20508 
    4000    224.64487    -4800.807   -4367.5605    -4800.807            0    4996.6257    19.869631    19.997334    20.801986  0.046188158  -0.13391866 -0.028564071    8265.4539    5267.0868    5494.2264    4228.5639    -487.7862    951.93831   -336.81541 
    4500    234.15027   -4798.0905    -4346.512   -4798.0905            0    3947.3331    20.303852    19.984653    20.481759   0.20068754   0.09698724   0.13336568      8310.79    2085.6488    5311.6664    4444.6842   -649.80552     974.5988   -977.62942 
    5000    238.15638   -4789.7181   -4330.4135   -4789.7181            0    4327.7079    19.990572    20.155503    20.491228  -0.38897762  -0.23598059  -0.16925364    8256.3266    3783.2495    4444.7953    4755.0789    184.35766    37.495486    1043.3415 
    5500    228.23301   -4801.9909   -4361.8243   -4801.9909            0    3984.0573    19.929656    19.936409    20.759775   0.42901133 -0.089676711   0.17376747    8248.3939    5193.5929    2973.1429    3785.4359   -1111.2081   -1370.6777   -1573.9855 
    6000    244.29972   -4780.8477   -4309.6952   -4780.8477            0    6292.3982    20.157096    19.910093    20.465717  0.075417066  -0.14977011 -0.055653755    8213.4992    5852.4389    6875.1846     6149.571    534.80957    927.04384   -72.584351 
    6500    234.06616    -4799.753   -4348.3368    -4799.753            0    1827.5337    20.069969    20.174792    20.562608   0.14715205  -0.18773281    0.1831547     8325.953    1539.0353     1964.162    1979.4037   -881.15346    31.040349   -291.48675 
    7000    225.74695   -4765.7689    -4330.397   -4765.7689            0    3870.2708    19.945873    20.050851    20.918781  -0.30125469    0.1041133  -0.20232061     8366.084    2331.0063    6687.4361    2592.3701   -313.44847    576.24015    1817.3578 
    7500    225.12917   -4773.6655   -4339.4849   -4773.6655            0    4888.9966    19.877596    20.202645    20.561026   0.50251907   -0.2111014  0.082123737    8256.8973    5349.1754    3681.6988    5636.1156   -972.01369    164.01999    801.91954 
    8000    223.66022   -4755.6422   -4324.2947   -4755.6422            0    4608.4817    20.144734    20.197707    20.467894  -0.28726655   0.05770815  0.064918175    8327.9247    3430.8731    5409.0319    4985.5401    64.824178   -467.14762    1195.9572 
    8500    230.29651   -4773.1381   -4328.9919   -4773.1381            0    2640.0552     19.87777    20.048694    20.949692   0.50431663  -0.28890061 -0.054269783    8348.9409    4165.3972    1493.2438    2261.5245   -965.49501   -820.69508   -888.52304 
    9000    238.28032   -4764.3265   -4304.7829   -4764.3265            0    5917.5406    19.930961    20.050592    20.716656    0.2639298  0.043049538   0.14399989     8278.947    6042.0747    6423.4987    5287.0484   -777.79946   -1974.0063   -1114.9993 
    9500    232.77308   -4751.8636   -4302.9412   -4751.8636            0    3941.5677    20.203489    20.021204    20.536675  -0.21583318 -0.064588763 -0.035358498    8307.0474    3847.8601    3564.4869    4412.3562    295.92805    412.33777    364.82337 
   10000    229.10974   -4753.2536   -4311.3962   -4753.2536            0    4301.7859    19.870929    20.026863    20.781873   0.72163503  0.082582917   0.17663929    8270.1957     3774.507    5283.8163    3847.0344   -533.68999    907.12894   -1139.8811 
   10500    232.11284   -4746.2775   -4298.6283   -4746.2775            0    4260.0346     20.08171    20.028458    20.740444  -0.36036716  -0.14407487  -0.10712635    8341.9245     3898.183    5082.0887    3799.8321   -222.35701    957.68181    938.15351 
   11000    223.84683   -4767.9848   -4336.2773   -4767.9848            0    4605.3348    20.097411    20.203752    20.528165   0.20137999  -0.05497551   0.16692491    8335.3197    3733.3851    5089.3584    4993.2609   -806.89248   -15.063102    -924.2429 
   11500    224.99936    -4783.884   -4349.9538    -4783.884            0    4778.0849    19.954778    20.207237    20.469976  0.054187192  0.010622147  0.023413129    8254.1276    6948.9624    3031.3112    4353.9809    7.8562672     658.7234    513.71977 
   12000    225.63104    -4736.671   -4301.5226    -4736.671            0      3577.09    20.013359    20.160837    20.841439  -0.20668813  -0.17929285 -0.084290026    8409.2302    6963.9219    819.54522    2947.8029    239.09291    102.33012   -293.39627 
   12500    233.10925   -4772.2693   -4322.6985   -4772.2693            0    4638.7141    19.977255     20.12088    20.597768   0.47032819  0.066407266   0.28330368    8279.4778    5214.4124    4461.3648    4240.3651   -1176.1567    26.719806   -314.97082 
   13000     247.1288   -4768.6403   -4292.0316   -4768.6403            0    3935.3315    19.911013    20.259109    20.603275  -0.65546695  -0.12075843  -0.12534029    8310.9364    3331.3262    4980.5986    3494.0696   -241.10317    655.85548    1054.6901 
   13500    229.72233   -4798.7965   -4355.7576   -4798.7965            0    4609.2471    20.014265    20.096481    20.585566   0.44019155  -0.08432136 -0.00081197321    8279.8502    6517.6744     3175.807    4134.2599    -557.2076   -86.546792    986.33367 
    6000    241.55599   -4777.1777   -4311.3166   -4777.1777            0    2434.2145    20.193979    20.035662    20.774758 -0.0018194259  -0.13621073  0.088723429    8405.4613    1967.4564    3643.7742    1691.4128     335.0292    667.78768    -637.1566 
    6500    239.17307   -4802.1294    -4340.864   -4802.1294            0    1970.9684    20.030838    20.077174    20.861467  0.074200857  -0.17393109  -0.25019616    8389.7024    1543.9793    2083.3683    2285.5576    632.21479    549.38816    1730.7266 
    7000    231.87058   -4774.0282   -4326.8463   -4774.0282            0    3807.8119    20.010502    20.122766    20.713562    0.4391519   0.23641609   0.41817348    8340.6606     3990.866    4004.5425    3428.0273   -517.40583    533.57371   -1012.1499 
    7500    226.52052   -4782.3786   -4345.5147   -4782.3786            0    3035.8255    20.073472    20.222284    20.600938  -0.22922062  -0.31809603  -0.13129211    8362.5685    2431.0292     3687.492    2988.9553    -175.2486    2138.2513    52.921802 
    8000    227.22782    -4763.521    -4325.293    -4763.521            0    3248.6104    20.131071    20.040242    20.890585   0.43623021    0.2068792   0.27622424    8427.9205    2701.7209    4011.5439    3032.5665   -699.27255   -1865.9013    -168.5644 
    8500    231.30189   -4769.9567   -4323.8715   -4769.9567            0    2658.4807    20.161637    20.020211    20.821787  -0.39736625  -0.40174774  -0.26398135    8404.5109    1062.0961    3229.6985    3683.6475    224.36319    1600.5073    901.80811 
    9000    241.46571   -4771.8802   -4306.1933   -4771.8802            0    2830.4954    20.153382    20.244633     20.59169   0.17162995    0.1544333   0.24375658    8401.3647    1795.1702    2890.4443    3805.8717    -330.8452    1061.3439   -1637.4073 
    9500    240.88742   -4759.3405   -4294.7689   -4759.3405            0    5072.6309     20.09597    19.947474    20.751287   0.20638961  -0.28077005  -0.19642109    8318.4404    2420.4907    7182.7582    5614.6439   -582.06604   -39.687198    917.81664 
   10000    226.35001   -4759.0694   -4322.5344   -4759.0694            0    1710.5469    20.182392    20.071755    20.956095  -0.37334862     0.155044   0.16000613    8489.2303    2152.7052     1536.327    1442.6084    553.02697   -1137.7984     5.805171 
   10500     238.3914   -4748.5511   -4288.7932   -4748.5511            0    2902.6792    20.250427    20.061499     20.65545   0.14413545 -0.061628967 -0.032710449    8391.3576    1515.7532    3001.0844    4191.2001   -325.21796   -626.35449   -516.06084 
   11000    246.57963   -4811.6475   -4336.0979   -4811.6475            0    3561.6015    19.762233    20.312916    20.867005   0.15031729  -0.21604021   0.33593685    8376.6121    5420.9653    1991.5632    3272.2761   -280.82636    1817.5605   -191.40827 
   11500    227.75966   -4792.8741   -4353.6204   -4792.8741            0    3198.4012    20.174051    19.973753     20.84271  0.038380725 -0.059256657  -0.23831825     8398.602    2853.0145    4117.5107    2624.6784    -24.96777    -672.9632    133.01147 
   12000    242.35179   -4750.6898    -4283.294   -4750.6898            0     3748.493     20.09716    20.330611    20.395621 -0.024914731 -0.042698665   0.44216986    8333.3965    4198.5342    2306.5412    4740.4035   -291.74626   -492.09093   -1374.2723 
   12500    236.44097   -4772.7023    -4316.706   -4772.7023            0    1651.0643    20.219557    20.028569    20.896678  0.088973781 -0.014627836  -0.25151679     8462.502    1676.0146    1611.1357    1666.0426   -336.78592   -115.05303   -986.15001 
   13000    237.08354   -4751.0812   -4293.8456   -4751.0812            0     1830.927    20.234116    20.136102    20.833405 -0.083857595 -0.012767531   0.27607951    8488.2839    747.99458    2891.6858    1853.1007    102.55728   -356.89943   -380.52831 
   13500    229.85607   -4782.2874   -4338.9907   -4782.2874            0    5020.6613    20.230794    19.952431    20.449512   0.15939376  -0.15788285   -0.6611459    8254.5175    4266.0275    4507.9506     6288.006   -262.61098    215.02981     1819.501 
    6000    229.94142   -4757.6974    -4314.236   -4757.6974            0    5087.9985    20.044632    20.056994    20.461083  -0.28047658   0.06660842 0.0047474826    8226.0727    4977.2728    5341.0642    4945.6583   -465.70411   -725.10709    1388.5084 
    6500    223.24956   -4781.2083   -4350.6528   -4781.2083            0      4924.15    20.113629    19.992199    20.489183  0.015264048  -0.10334831 0.0089362491    8239.0213    5135.4031    5800.7386    3836.3082    565.42614    277.37248    1184.2588 
    7000     228.4442    -4772.362   -4331.7881    -4772.362            0     3628.877    19.953188     20.09089    20.593215   0.19426927   0.22472992   0.16925281    8255.3522    3211.2768     3631.265    4044.0891    92.647443   -1585.7712   -1136.1714 
    7500    229.08597   -4782.7112   -4340.8997   -4782.7112            0     4669.807    19.948717     20.12969    20.566649  -0.43880094   -0.5060573  -0.18337259    8258.7746    5420.5214    3602.1035     4986.796    340.54429   -282.70222    238.19797 
    8000    238.34716   -4784.1739   -4324.5014   -4784.1739            0     6052.304     19.89193    20.079069    20.671598    0.2960479   0.24662167    0.1125586    8256.4729    5487.2825     6542.345    6127.2843    57.867045   -236.16916    787.57897 
    8500    230.69833   -4779.7555   -4334.8344   -4779.7555            0     5522.281    19.992727    19.971168    20.585855  -0.15332244  -0.24645229 -0.079138244    8219.4814      5045.08    5778.1017    5743.6612    516.33747    284.88306    1606.3411 
    9000    237.25268   -4767.5209   -4309.9592   -4767.5209            0    5532.5034     19.82019    20.274337    20.593863  0.016026174 -0.022037759   0.18207652    8275.4625    6529.9526    4145.2877      5922.27    436.16881    -691.6969   -1089.2159 
    9500    244.30042   -4769.4273   -4298.2734   -4769.4273            0    6757.3585    20.014243    20.066124    20.507845   0.18790528  -0.16432486  -0.21011762    8236.1205    5560.1592    6508.2996    8203.6167    655.69641   -924.44486   -78.020449 
   10000     235.2188   -4774.0133   -4320.3741   -4774.0133            0    4099.2376    20.277178    20.086056    20.412714  -0.37853146  0.047298443   0.10473391    8313.8642     3110.959    4033.6589    5153.0949    273.61061    899.18597    -831.7966 
   10500    236.16213   -4746.4611   -4291.0025   -4746.4611            0    5689.5161    20.021728    19.930712    20.591827   0.44865792  -0.16176609  0.092011352    8217.1128    4266.6016    6341.4828    6460.4638   -527.23635    1042.4327    -881.9559 
   11000    225.51664   -4772.1469   -4337.2191   -4772.1469            0    4201.7853    20.114801    19.943267    20.721782  -0.27843628 -0.060294203  -0.10083717     8312.643    4452.3165    5281.3922    2871.6473    99.846058   -225.79264    183.56636 
   11500     225.9884    -4785.689   -4349.8513    -4785.689            0    6391.1028    19.997366    20.074598    20.469405   0.20956109   0.03961906   0.18691675    8217.2191     6902.717    6051.5771    6219.0143    689.56054    -1825.399   -27.754512 
   12000    234.39017   -4749.2699   -4297.2288   -4749.2699            0    4657.9772    20.124445    20.011113    20.556987   0.22939122  -0.29424116  -0.27154283    8278.5563    3665.2395    6392.5654    3916.1266   -661.33685    327.16082   -696.49986 
   12500    237.68168   -4772.0339   -4313.6448   -4772.0339            0    6502.2693    20.012007    19.978289    20.602026 -0.079801049   0.15721251   0.20236392    8236.8064    7322.0262    5806.7746     6378.007    471.92536    522.55428    332.21276 
   13000    230.58922   -4737.4877   -4292.7771   -4737.4877            0    4036.4879    19.987661      20.1858    20.616624    0.4360937   -0.3780577  -0.39326177    8318.1262    5720.8188    1617.0687    4771.5761    -38.10364    2095.8776    787.40582 
   13500    225.98432   -4787.2403   -4351.4106   -4787.2403            0    5877.1539    19.908368    20.044299    20.587736  -0.28084538  0.089505336   0.37684824    8215.5212    5820.9221    6196.3008    5614.2389    291.71793   -605.94875   -1227.1323 
    6000    233.26103   -4762.3464   -4312.4829   -4762.3464            0    2062.4138    20.156971    20.097722    20.821351 -0.089374179   -0.3849319  0.031873015    8434.9207    2166.8891    1834.2952    2186.0571   -5.2598745    323.41322   -590.43237 
    6500      232.043   -4788.0654    -4340.551   -4788.0654            0    1913.2498    20.083049    20.233294    20.706748   0.39834659   0.44576708  0.080375882    8414.1091    2425.6167    1317.3742    1996.7585    -779.7691   -1381.1151   -1866.0877 
    7000     232.5228   -4779.7328    -4331.293   -4779.7328            0    3169.8672    19.967424    20.199762    20.820195  -0.12382506  -0.39505739 -0.022139541    8397.5595    3608.3695    2425.3307    3475.9013    728.72464    424.49665    372.39752 
    7500    223.54926   -4771.9515    -4340.818   -4771.9515            0    2608.7964    20.118542    20.227981    20.744695  0.089611119  0.068631852  0.005085311     8442.209    3885.0492    2383.5534    1557.7866    195.73673   -69.872238   -615.12165 
    8000    235.39959   -4773.0497   -4319.0618   -4773.0497            0    4051.2951    20.176116    20.131033    20.550351 -0.093247023 -0.018255533  0.070262803     8346.855    3827.4312    3786.1085    4540.3455   -1294.1546    19.738022    -32.24605 
    8500    231.26285    -4769.404   -4323.3942    -4769.404            0    4064.0448    19.973341    20.034396    20.923807  0.043117102  -0.32081655 0.0038619198    8372.7412    4925.3295     3923.044     3343.761    379.63743   -301.82441   -760.77209 
    9000    246.20282   -4772.5071   -4297.6843   -4772.5071            0    3337.5826     19.98196    20.143346    20.901105   0.18474361   0.20565712  0.047003724    8412.7685    4190.7639    1941.2503    3880.7336   -39.046264   -1139.1425   -2.7623652 
    9500    232.65877   -4748.1734   -4299.4714   -4748.1734            0    1389.4681    20.156236    20.341999    20.498344  -0.44128673  -0.34445652   0.06573291     8404.693    2141.9514   -323.19578    2349.6487    1314.7502   -960.18858    56.892256 
   10000    234.57447   -4766.7253   -4314.3287   -4766.7253            0    1409.7616    19.937021     20.22661    20.953931    0.3569686   0.15732032 -0.012378311    8449.8476    2821.6163    824.88829    582.78024    311.24774   -42.033893    169.17307 
   10500    239.46623   -4758.8764   -4297.0456   -4758.8764            0    2624.6592     20.22092     19.99129    20.870414 0.0013960518  -0.16110702  0.094292267    8436.7035    1426.4603    3040.4297    3407.0876    128.73289    328.84921   -71.475087 
   11000      223.185   -4764.4818   -4334.0508   -4764.4818            0    3198.7188    20.035182    20.331702    20.651887  0.056816982   0.04324548 -0.036491074    8412.5327    4820.1924    1710.0379    3065.9261   -196.57324    650.66043   -89.251272 
   11500    235.99222   -4804.2798    -4349.149   -4804.2798            0    2504.1983    19.885407    20.239752    20.956395   0.26791086  -0.18885991    0.1868895    8434.4397    4010.2402    3006.9959    495.35868   -856.13577    554.03695     97.25324 
   12000    237.25917   -4749.2243     -4291.65   -4749.2243            0    2658.5191    20.179784    20.075386    20.759702  -0.16548277 -0.099419376  0.029133609    8410.1071    3970.4813    2123.9136    1881.1623    1193.5623    842.50158   -242.45604 
   12500    233.82062   -4771.6459   -4320.7032   -4771.6459            0    1977.1113    19.959717    20.277704    20.760129   0.55665964  0.020085173  -0.10392311    8402.3973    2666.9467    1612.7186    1651.6685   -592.84103   -26.882587     1062.251 
   13000    232.64548   -4738.6173    -4289.941   -4738.6173            0    1753.6548    20.171418    19.990006    20.950341  -0.40256767  -0.12463712  0.038682218    8447.7382    692.44536    4060.5443    507.97478   -352.23798    90.407861   -168.04648 
   13500    230.75122   -4799.9191   -4354.8959   -4799.9191            0    2226.4791    20.240567    20.306499    20.568786   0.30925581   0.12102336   0.13908796    8454.0807    77.284673    2620.2408    3981.9118   -640.98803   -769.77078   -539.25761 
   14000    225.44814   -4778.9094   -4344.1137   -4778.9094            0    2542.3073     19.98709    20.063601    20.829813   -0.1731253 -0.017495011 -0.059054737    8353.0261     2514.104     2345.278    2767.5399     122.3408   -490.07534   -317.67138 
   14500    220.08393   -4777.9787   -4353.5283   -4777.9787            0    3638.6761    20.197182    20.070024    20.589566  -0.20331955   0.23093438   0.11887391    8346.1439     2386.203    5060.0369    3469.7884   -285.88337    -995.1013   -1291.6743 
   15000    227.10881   -4773.0158   -4335.0174   -4773.0158            0    3701.3874    20.263318    20.015478     20.53548   0.27703481     -0.30051 -0.032329581    8328.7802    3262.6923    4606.4441    3235.0258   -805.84822    888.77559    210.34805 
   15500     231.4783   -4767.3639   -4320.9385   -4767.3639            0     4685.824    19.931272    19.995693    20.737128  -0.30513162   0.25438022   0.12446983    8264.5665    5622.3235     3553.716    4881.4326     717.7335   -699.22707    -857.7867 
   16000    230.83351   -4777.2426   -4332.0608   -4777.2426            0    3581.7626    20.039517    20.016994    20.835243   0.39685205  -0.39934239 -0.084604285    8357.6595    4002.0583    5431.0884     1312.141   -658.44486    374.75657   -914.82703 
   16500    242.01181   -4792.8796   -4326.1395   -4792.8796            0    4659.0243    20.255788    20.032027    20.408795  -0.09437015   0.17749492   0.16311278    8281.1644    3952.2976    4741.5589    5283.2163   -296.88647   -204.62353    -185.2834 
   17000    225.90257    -4770.159   -4334.4869    -4770.159            0    3922.0929    20.089131    20.119841    20.715002 -0.055580708  -0.23053345  -0.10718934    8372.7992    3305.1699     3228.467    5232.6417    253.08531   -320.91414   -432.79766 
   17500    229.20192   -4767.7389   -4325.7037   -4767.7389            0    2902.4753     20.00943    20.098018    20.732428   0.44483449   0.14202227   0.29906498    8337.5434    2750.1342    2322.7764    3634.5153   -302.27906     -228.412    368.01593 
   18000    229.58484   -4796.8408   -4354.0671   -4796.8408            0    3803.8373    20.036702    20.241988    20.458666  -0.57809011  -0.14183698  -0.10392433    8297.6809    3263.0302    2990.0068    5158.4749    1095.5414    286.17456    735.78547 
   18500     227.3354   -4779.9381   -4341.5027   -4779.9381            0    3677.6427    20.009912    20.072913    20.635509   0.41704482 0.0040070637  0.051369516     8288.401    4073.3045    3538.0798    3421.5438    -512.3005   -311.48852   -673.26051 
   19000    222.71339   -4766.8977   -4337.3762   -4766.8977            0    4722.3388     19.84283    20.163033     20.68146  -0.29399516 -0.016757281  0.041844429    8274.4792    4270.0919     5366.782    4530.1425    946.05681   -1056.5964    1274.3414 
   19500    234.74733   -4777.6417   -4324.9117   -4777.6417            0    2770.1904    20.207746    20.037833    20.665531    0.1001693  -0.23529031  -0.02489203    8367.8752    2370.5496    3374.0262    2565.9952   -576.29933    655.53119    1191.0024 
   20000    233.00122   -4792.4121   -4343.0496   -4792.4121            0    5510.2168    19.960763    20.229552    20.425981    0.1994556   0.39581547   0.22675147     8247.956    8137.9323    1936.4065    6456.3116   -874.18646   -62.000594   -95.945597 
   20500    233.96525   -4773.3821   -4322.1605   -4773.3821            0    4893.1228    20.123024    19.837433    20.759946  -0.15498048  -0.25770263    -0.124086    8287.1446    3285.1303    6733.8193    4660.4189    279.00638    386.02401   -533.01339 
   21000    222.08435   -4789.1458   -4360.8374   -4789.1458            0     3260.503      19.8026    20.332847    20.711358   0.29568321   0.23708051   0.17206279    8339.2879    3504.2748      2189.07    4088.1642    -709.0267   -627.28579    -278.7446 
   21500    228.30086   -4800.5649   -4360.2675   -4800.5649            0    3427.9296    20.072613     20.12274    20.572795 0.0060058976  -0.43459796  -0.10786072    8309.6803     3240.217    2913.9814    4129.5906   -56.273192     315.0532    1963.1964 
   14000    222.70964    -4774.921   -4345.4067    -4774.921            0    1353.2881    20.199301    20.131923    20.819737 -0.010054855  0.035034865    0.2364752    8466.3623    1293.5523    2149.5271    616.78503   -35.200283   -720.68975    1198.5959 
   14500    227.00048   -4783.6514   -4345.8619   -4783.6514            0    3677.5885    19.992904    19.827723    20.919491 -0.0012434501  -0.14042875  -0.32331744    8292.7741    3464.0879    4169.3658    3399.3117    255.05503    66.988423    -126.9174 
   15000    233.97483   -4791.1913   -4339.9512   -4791.1913            0    2578.5751    20.236027    20.152696    20.626801   0.13220893 -0.068020945   0.31317827    8411.8259    1524.7732      2916.26    3294.6921    100.59505    437.39585    1268.5592 
   15500    235.34508   -4780.2347   -4326.3519   -4780.2347            0     1278.684    20.117381    20.298507    20.596049 -0.043034317 -0.0095893827  -0.11555392     8410.454    -1340.184    2595.5194    2580.7166   -302.78709   -125.56475    1512.6976 
   16000    230.74962   -4763.3446   -4318.3246   -4763.3446            0    3031.6895    19.780197    20.106363    21.038588   0.14134473 -0.028393839   0.39993971     8367.211    5040.0379     3199.854    855.17667   -930.32258   -1054.4143    742.08715 
   16500    222.79589   -4751.8747   -4322.1941   -4751.8747            0    2541.0169    20.019731    20.131901    20.837591  0.023877014 -0.024997125  -0.16787251    8398.2836    5816.7913    1528.6859    277.57351    911.81751     279.8703    737.40891 
   17000    226.02545   -4761.9953   -4326.0862   -4761.9953            0    3284.7559    20.185045    20.257872    20.445798  -0.16015751  -0.16866616   0.26407011    8360.4108    1787.4483    3453.8583    4612.9611    324.74276    791.42484   -1091.4053 
   17500    223.94538   -4749.8632   -4317.9657   -4749.8632            0     1968.208    20.131171    20.137306    20.746212   0.37938659  0.072868993  -0.45649362    8410.2562    3152.4983    447.79259     2304.333    65.398832   -497.65525     611.6069 
   18000    220.03885   -4782.2684   -4357.9049   -4782.2684            0    2706.6183    20.104021    20.006281    20.910009  -0.18098527   -0.2276082    0.3775923    8410.1455    1724.5511     4084.165    2311.1387    368.17562    963.61075   -2687.0483 
   18500    242.35293   -4800.8363   -4333.4383   -4800.8363            0    2231.6233    20.188767    20.157965    20.535789  0.016123833   0.20087298   -0.1114688    8357.3363    2618.1637    810.41308     3266.293     425.4048   -1251.4493    232.09899 
   19000     227.7546   -4781.1389    -4341.895   -4781.1389            0    1429.3003    20.294081    20.280293    20.590602   0.26121369  -0.27607435   0.12744058    8474.4721    58.506404    1661.9765    2567.4181   -664.59792   -107.73075    492.04081 
   19500    241.24775   -4781.6157   -4316.3491   -4781.6157            0    3728.2194    20.057566    19.977231    20.884757  -0.23678549  0.017625605  0.062453898    8368.4097    3951.5321    4398.7653    2834.3608    670.44335   -2674.4049   -1011.4976 
   20000    221.30048   -4764.2571   -4337.4605   -4764.2571            0    1951.3703    20.133226    20.134762    20.808913   0.29291009 -0.023972421 -0.084463429    8435.4696    3193.2145    1623.0494    1037.8469   -738.81458   -414.36934    522.32091 
   20500    229.53008    -4765.206   -4322.5379    -4765.206            0    2693.8347     19.98382    20.256048    20.578563  -0.43494584  0.073051183   0.22446762    8330.0625    3554.1268     1216.302    3311.0751    883.43481   -61.821167   -699.49766 
   21000    224.55391   -4787.6566   -4354.5855   -4787.6566            0    3032.8731    20.080898    19.944478    20.920409   0.15455132 -0.087855742  -0.19469265    8378.6871    2037.3095    4207.1173    2854.1925    114.78646    321.34124    809.86084 
   21500    220.85958   -4793.5969   -4367.6506   -4793.5969            0    1323.8927    19.969768    20.468232    20.695556   0.06276596 -0.047052358   0.23139867    8459.2224    2804.5558   -1003.1182    2170.2404   -230.64764     652.3818    -50.34686 
   14000    222.36622   -4769.9817   -4341.1298   -4769.9817            0     2212.054     20.09323    20.129278    20.863667 -0.028115552  -0.36214773  -0.16250402    8438.5648    2318.5077    2496.8861    1820.7683   -893.36894    578.70142    646.23137 
   14500    221.48898   -4769.2241   -4342.0639   -4769.2241            0     3886.509    19.930956    20.043753    20.906217 -0.071028822    0.2129879   0.22284198    8351.8489    4098.0216    4229.3612    3332.1441    597.58631   -2603.4783    252.05566 
   15000    224.79233   -4768.1756   -4334.6447   -4768.1756            0      1561.15    20.137099    20.254359    20.716408   0.17531612  -0.31821589  -0.16666137    8449.4779    1815.6547    1536.4785    1331.3168    321.95946    284.78618    888.80255 
   15500    223.76095   -4760.6389   -4329.0971   -4760.6389            0     1164.679    20.314026    20.138672    20.742598  -0.13421095   0.29662269   0.35083132    8485.7451    2124.3204   -812.66063    2182.3773   -274.71579   -1130.5197   -254.30745 
   16000    224.29797   -4757.9314   -4325.3539   -4757.9314            0    2413.3309    20.050557    20.004125    21.078712   0.17009058  -0.44437432  -0.33855497    8454.5416    2002.8669     3139.122    2098.0039    476.27547    91.899533    42.420228 
   16500    228.70095    -4762.239     -4321.17    -4762.239            0    1417.4744    20.166516    20.248582    20.726999  0.037059425   0.16888362   0.16358581    8463.7323      1644.93    685.75559    1921.7377   -56.449196   -170.48428   -388.60261 
   17000      227.767   -4769.1659   -4329.8981   -4769.1659            0    1774.9672    20.090144    20.313636    20.744983  -0.10011571  -0.20107305   -0.1714673     8466.108    15.359642     3529.907    1779.6349    253.30584    645.54831    453.85951 
   17500    230.63162   -4764.0869   -4319.2944   -4764.0869            0    2910.9023    20.023273    20.128787    20.896443   0.15622304  0.033572743    0.2104402    8422.1902    3270.4287    2642.0565    2820.2216    564.26724   -278.80153   -327.98979 
   18000    221.83728   -4783.3393   -4355.5074   -4783.3393            0    2048.3503    20.046803     20.26978      20.7013 -0.098424906   0.06145847  -0.20634628    8411.8547    2684.6942    853.73457    2606.6222   -114.79603    71.194374     620.7928 
   18500     225.7893   -4767.9224   -4332.4687   -4767.9224            0    4038.0568     20.10089    20.133669    20.799136   0.14617759  -0.26050153   0.21960927    8417.5075    4678.4267     3379.212    4056.5315    649.77369    1418.9506   -533.76725 
   19000    217.22852   -4753.3827   -4334.4392   -4753.3827            0    3116.3588    20.008035    20.082247    20.890886  -0.08194479   0.24506811  -0.14364661    8394.0894    3786.5834    3240.3889    2322.1041    -58.55062    338.72417    1316.0139 
   19500    230.66686   -4762.5746   -4317.7141   -4762.5746            0    3008.0335     20.22521    20.072279    20.751255 -0.0044929179  -0.49858818   0.28163416    8424.3053    3181.2782    1870.0789    3972.7435    198.63483     45.64251   -86.133763 
   20000    227.53692   -4771.2709   -4332.4468   -4771.2709            0    2493.4164    20.162697    20.118762    20.682667   0.15098618   0.38366108  -0.30016746    8389.8926    2975.0363    3120.0958    1385.1172    395.00362   -1484.0946    256.43652 
   20500    223.71056   -4755.8049   -4324.3602   -4755.8049            0    1561.0931    20.189581    20.150706     20.87367   -0.1616153  -0.29027592   0.27004807    8492.1255    706.33165    1568.8157    2408.1318     250.6911    398.21142   -1648.4419 
   21000    232.80262   -4798.1062   -4349.1268   -4798.1062            0    2913.1752    19.967701     20.10277    20.906697   0.17977858   0.20414712  -0.28158173    8392.0758    5412.7512    1512.8364    1813.9379   -328.47524    436.99329    1457.4011 
   21500    223.06513   -4788.9741   -4358.7743   -4788.9741            0    3191.7482    20.125978    20.068211    20.709288 -0.032331614  -0.18198088    0.2087584    8364.3233    3910.7578    2139.9722    3524.5146    833.89619    2026.5459    548.83947 
   22000    219.31781   -4758.2327   -4335.2599   -4758.2327            0    4257.9962    19.913057    20.194126    20.751209 -0.068309145   0.15176869  0.038970114    8344.6164     5516.417    3019.4763    4238.0954    477.59846     139.4873    532.60912 
   22500    219.33333   -4768.1066   -4345.1038   -4768.1066            0    3062.5384    19.985391    20.018541    20.830728   0.32411819  -0.13187496  -0.03835373    8333.9238    2712.6405    2930.7703    3544.2043    157.90052   -788.32477    807.77956 
   23000     230.0221   -4792.9415   -4349.3246   -4792.9415            0    5394.7136     20.01031    19.983843    20.595554  -0.36765905  -0.17359431 -0.029143449    8235.8094    4934.0588    6596.5462    4653.5358    1021.2289    214.26459    1154.2401 
   23500    230.52939   -4765.6448   -4321.0495   -4765.6448            0    2891.0946     20.10797    20.152157    20.554989   0.46489367   0.34052083   0.22699191    8329.2715    4202.6952    1943.9318    2526.6568   -718.62731   -855.16985   -1221.9111 
   24000    244.49135   -4754.4909   -4282.9688   -4754.4909            0    4757.6397    19.912557    20.144416    20.663976  -0.06179621  -0.33429636  -0.12714822    8288.8752    3404.6562    7214.5316    3653.7312    661.81155   -760.64153    236.11614 
   24500    220.67143    -4769.225   -4343.6416    -4769.225            0    5193.5605    20.016096    20.124549    20.580212 -0.087322572   0.20898102   0.25902267    8290.0163    6114.6256    4257.6538    5208.4019   -131.85714   -577.68295   -1178.7625 
   25000     238.8772   -4765.7963   -4305.1015   -4765.7963            0    4989.6057    20.157001    19.965658    20.719958   0.20609129  -0.34981837  -0.20858174    8338.7009    3820.6276      6168.25    4979.9395    242.24789    915.80395    1738.5218 
   25500    230.41217   -4766.3848   -4322.0155   -4766.3848            0    4186.0615    20.006391    20.004934    20.724704  -0.15446122   0.30333522   0.22199028    8294.5764    4402.7604    4566.9894    3588.4347    236.51241   -1195.5719    695.15677 
   26000    237.90693   -4764.2621   -4305.4386   -4764.2621            0    5102.3279    20.180735    19.986044     20.51987  0.059457885  -0.13921822  -0.11168745    8276.3421    3791.6442    7383.5661    4131.7735   -43.229035   -625.82755   -648.65473 
   26500    229.32287   -4776.1929   -4333.9245   -4776.1929            0      5377.54    19.660286    20.268912    20.647354   0.20563499 -0.049258399   0.18243784    8227.8179    5941.2208    5718.6227    4472.7766   -12.757106   -1185.8544    179.48681 
   27000    245.24152   -4773.6855   -4300.7166   -4773.6855            0    4069.0682    19.990735    19.949027    20.885939  -0.16265462 -0.096919742 -0.023453734    8329.2225    4307.2948     4247.654    3652.2557    -383.2737   -367.98489   -223.33802 
   27500    225.42092   -4747.5183   -4312.7751   -4747.5183            0    4457.8413    20.124998    20.221528    20.270622   0.29931928  0.025159862   0.15945928    8249.2959    5369.9109     2666.202    5337.4111   -712.08784   -1811.0822   -2989.2577 
   28000     222.4447    -4772.318   -4343.3147    -4772.318            0    3791.4969    20.186157    19.924432    20.688025 -0.0083696924   -0.1294875  -0.12444694    8320.6764    3102.3407    3908.9624    4363.1876    494.46201    212.02566   -395.66373 
   28500    237.45103   -4767.1965   -4309.2522   -4767.1965            0    2982.8883    20.008867    19.863322    20.931069  -0.12853809  -0.21017691   0.27586009     8318.898    2351.2212     3565.428    3032.0156   -368.67701    1212.4762   -942.55745 
   29000    237.28585   -4774.3805   -4316.7548   -4774.3805            0    4632.7755    20.031489    20.051599    20.592528    0.3358966  0.077324418 -0.051193525    8271.2643    5538.6864    5039.7464    3319.8936   -49.279804     176.2115   -48.168897 
   29500    226.01945   -4774.0178   -4338.1203   -4774.0178            0    3085.9406    20.034224    20.199281     20.55298  -0.59392054   -0.2166376   0.11375795    8317.3169    2685.6332    3311.0992    3261.0895    1073.6239    693.23201   -1982.7379 
   14000    231.83464   -4795.6874   -4348.5748   -4795.6874            0    3512.6316    19.995637    20.134325    20.600806   0.36290044  -0.19145147  -0.17485752    8293.8571    2638.3311    3810.0176     4089.546   -159.03392    886.08043   -255.18002 
   14500    224.89749   -4775.5628   -4341.8291   -4775.5628            0    6032.6462    19.877625    19.984712    20.535692  -0.29310064  0.056866341  0.080063045    8157.7753    4182.1116    8387.8657    5527.9613    749.32914   -819.37419   -1510.3772 
   15000    223.93331   -4771.6176   -4339.7434   -4771.6176            0    5139.9773    20.173444    19.937003    20.567252   0.12618991  -0.08014256  0.030014447    8272.1079    5037.8099    4283.1567    6098.9654    11.403129    1557.2912    822.01841 
   15500    231.68939   -4777.3227   -4330.4902   -4777.3227            0    4066.9548    19.934912    20.033021    20.570239  0.082155816 -0.052014187 -0.025395201    8214.8587    4982.1268    3303.1301    3915.6075    324.06719   -1317.9382    1138.1451 
   16000    227.70099   -4768.5109   -4329.3704   -4768.5109            0    6422.5551    19.905327    20.048564    20.543679  -0.64576549  -0.17638976   0.16810624    8198.4325    6543.6955    7148.0236    5575.9462    668.56701    1045.5173    1154.1322 
   16500    236.53046   -4781.3742   -4325.2053   -4781.3742            0    4249.7319     19.89604    20.153157    20.559979    0.2406871  -0.13324505  -0.13110486    8243.8943    4530.8241    3912.3799    4305.9916    466.92283    971.75496    213.15593 
   17000     222.1431   -4766.6974   -4338.2758   -4766.6974            0    4257.7178    20.185441    19.944314     20.56968  -0.12040709  0.027423673   0.27796875    8281.0401    2920.7786    5996.0253    3856.3494   -66.285527    986.52518   -840.50665 
   17500    223.84864    -4754.024   -4322.3131    -4754.024            0    4321.1716    20.152703    20.032707    20.561652  0.016993907  -0.21187395  -0.50235544    8301.0103    3819.3852    4969.1474    4174.9823    104.63045   -214.44402    1543.3295 
   18000    217.94423   -4779.2056   -4358.8819   -4779.2056            0    3246.6189    20.038576     19.94457    20.743858   0.21639716  0.017380368   0.32843391    8290.5068    2515.9724     5094.898    2128.9862   -552.19827   -185.50804   -380.82056 
   18500    235.78541   -4796.7185   -4341.9865   -4796.7185            0    4706.9991    20.016555    20.100402    20.456523  -0.25683585 -0.034428641  -0.15204166    8230.4941    3337.5266    5477.9968    5305.4738    69.380237   -82.504504   -347.79786 
   19000    220.57089   -4764.1143   -4338.7248   -4764.1143            0    4693.6645    19.968868    20.105474    20.608606   0.52240289  -0.26159277 -0.0071165172    8274.0162    4893.2302    4424.7479    4763.0154   -200.41916   -165.72379   -138.39194 
   19500    236.60963   -4782.1528   -4325.8312   -4782.1528            0     4148.574    19.880435    20.107298    20.707326  0.033973887   0.11827124  0.023531251    8277.5846    3118.1663     6113.664    3213.8918    1290.6569   -177.49725     1032.045 
   20000    229.69747   -4784.6057   -4341.6148   -4784.6057            0    4082.4635    20.135906    19.981859    20.629779 -0.082440442 -0.090600769  -0.22982747      8300.45    3908.9856    5094.0907    3244.3142    129.30306    307.49282   -40.030681 
   20500    232.39854   -4775.9948   -4327.7947   -4775.9948            0    6397.7241     20.15802    19.914154    20.492517   0.35848468   0.02813209   0.40026299    8226.3096    4941.9202     8658.932      5592.32    593.20688   -572.38903   -126.43783 
   21000    233.52253   -4811.8883   -4361.5205   -4811.8883            0    2664.0582    20.167855    19.987629    20.669799  -0.27907738  -0.13547239  -0.23734967     8332.153     211.9039    5027.5102    2752.7605    659.03417    1219.5735    1601.5807 
   21500    228.29932   -4807.8977   -4367.6032   -4807.8977            0    4308.2039    20.109048    19.937523    20.589628   0.30971715  0.026488357   0.22501267    8254.8886    3432.2735    5961.2262    3531.1121   -985.95574   -1105.5861    80.479092 
   22000    227.88638   -4764.3319   -4324.8338   -4764.3319            0     3078.478    20.185249    20.031391    20.684132  -0.10693536  -0.12161843   -0.1273323     8363.393    2255.1398    3765.8808    3214.4133    228.35763    745.25278     323.0994 
   22500    228.70763   -4782.9655   -4341.8836   -4782.9655            0    1274.0208    19.957417    20.103757    21.096779   0.49433189   0.14859854   0.14713208    8464.4298    2391.5433     492.0272    938.49182   -1075.5338    757.11249    437.32013 
   23000    221.50418   -4776.2782   -4349.0888   -4776.2782            0    3763.4646    20.014599    20.137432    20.656638  -0.37357288  -0.25344751  -0.13148377    8325.5053    3896.4011    4201.2549    3192.7379     783.6575   -283.20028    191.78311 
   23500    230.01358   -4771.3349   -4327.7344   -4771.3349            0      3736.82    20.077644    20.193046    20.638825   0.30583275   0.19432403   0.10448027    8367.5736     4767.246    2790.2491    3652.9648     -156.668   -222.96747    -24.67435 
   24000    237.27087   -4736.0742   -4278.4774   -4736.0742            0    3059.5829    20.029419    20.255122     20.87865  -0.14003342   -0.3970517  -0.15151179    8470.4331    3815.4569    2408.7251    2954.5668   -299.47957    323.48452    792.37275 
   24500    240.32129   -4802.9181   -4339.4383   -4802.9181            0    2489.8013    20.121495    20.063185    20.720446 -0.016499536   0.24976196   0.35758097    8364.8708    2206.9852     2112.503    3149.9156   -28.195592   -1461.2199   -525.39539 
   25000    236.17376   -4752.6682   -4297.1872   -4752.6682            0    3467.3313    19.969662    20.138946    20.754379   0.35078659  -0.31963025  -0.11542402    8346.7459    3384.8657    4091.2323    2925.8957   -234.05616    817.50021    -227.9727 
   25500    227.76576   -4767.8623   -4328.5968   -4767.8623            0    1533.5586    20.079214    20.171964    20.921499  -0.25802573   -0.1125134   0.15506869    8473.9852     1381.862    1429.9563    1788.8575    412.23823    -213.2234    318.15308 
   26000    235.09974   -4756.2403   -4302.8307   -4756.2403            0    3483.8828    20.322406    19.982626    20.691653   0.39658229  0.071144959  0.060470553    8402.7773    4094.4312    2402.9151    3954.3021    -1328.073      68.7542   -427.46408 
   26500    220.18082   -4764.1824   -4339.5452   -4764.1824            0    4078.4731    20.078917    20.016748    20.805397  -0.18237918   -0.2419068 -0.0046454503    8361.9932    4253.5549    3989.9568    3991.9076    354.10155    1213.0629    1681.6799 
   27000    240.75692    -4760.527   -4296.2071    -4760.527            0    3288.7032    20.066129    20.069485    21.008342   0.34991157   0.31963362 -0.036343568    8460.4139    2923.5038    3637.8446    3304.7613   -1177.6842   -977.33868   -2366.3757 
   27500    229.82912   -4754.6038    -4311.359   -4754.6038            0    3023.5209    20.252626    20.117897    20.525496 -0.040531376  -0.37374696    0.1758153    8362.9129    2450.2981    2030.8477    4589.4169    362.73507    1830.7372   -365.17021 
   28000    225.04936   -4781.1289   -4347.1023   -4781.1289            0    3610.6828     20.07132    20.072604    20.704805  -0.13301315    0.1437315  -0.15935016    8341.6275    2851.1206    3766.4475    4214.4804    302.76663    77.173662   -801.15166 
   28500    226.43328   -4750.5887    -4313.893   -4750.5887            0    2214.1128     19.99782    20.207269    21.000982   0.50882471     -0.18275   0.17960905    8486.5246    3559.3064    1407.8813    1675.1507   -341.52259    557.54299   -155.97328 
   29000    230.02356    -4763.718   -4320.0982    -4763.718            0    3541.6347    20.012081    20.299963    20.565708  -0.37097484 -0.084188862 -0.039726871    8354.7055     3784.107    2798.9179    4041.8794    159.55153    561.73446   -468.65196 
   29500    223.71836    -4769.327   -4337.8674    -4769.327            0    3834.5731    19.962864    20.135191    20.803135   0.32771064  0.030788852  0.006414014    8361.9463    5959.2798    2052.6906     3491.749     -707.077   -14.766291    954.58559 
   22000    224.99387   -4763.3161   -4329.3965   -4763.3161            0    2989.5313    20.177675     20.04945    20.862449 -0.010418068   -0.0355895  -0.06630894    8439.9303    2971.8606    1704.0082    4292.7253    727.31959    1025.2222     1589.286 
   22500    236.86102   -4793.3026   -4336.4962   -4793.3026            0     3174.975    20.222842    20.087117     20.71735   0.15798962  0.044808896  0.055123235    8415.7729    3731.9573     1462.914    4330.0537   -517.62172   -707.14449   -938.11753 
   23000    228.43954   -4795.9274   -4355.3625   -4795.9274            0    1535.3542    20.065983    20.103359    20.908864  -0.14633127  -0.15383244  0.099233906    8434.5029    763.94949    1734.5642    2107.5489     279.4715   -1835.5317   -700.84879 
   23500    230.50908   -4771.2994   -4326.7432   -4771.2994            0    1861.5401    20.022197     20.25404    20.849915   0.21367735   0.17267224  -0.12829709    8455.2736    2306.5557    1378.0645         1900   -429.15648   -472.83708   -912.44044 
   24000    237.88221   -4739.1024   -4280.3266   -4739.1024            0    2210.9715    20.082179     20.12709    20.786667 -0.063380267  -0.28121223   0.17520674    8401.8841    1632.1532     2534.228    2466.5332    492.83628    1591.2598    738.71355 
   24500    223.34395   -4770.2252   -4339.4876   -4770.2252            0    2617.7268    20.160115    20.131548    20.740683  0.078154668   0.12142439  -0.17368948     8417.696    900.21215    3465.5347    3487.4337   -151.15853    380.60454    1006.5562 
   25000    240.69213   -4765.1802   -4300.9852   -4765.1802            0    2473.9497    20.125003    20.138367    20.885621   0.13383226  -0.55875921   0.52545895    8464.6225    313.51017     4311.092    2797.2469   -41.688982    620.78899   -771.35424 
   25500    236.44352   -4777.9118   -4321.9106   -4777.9118            0    2365.4467    20.130703    20.116924    20.820613   -0.1886504   0.28491907  -0.29635639    8431.6785    3995.3458     2221.183    879.81128    179.52652   -922.15768   -208.93512 
   26000    244.33742   -4773.8626   -4302.6373   -4773.8626            0    3792.5624    20.281623    20.012034    20.694575    0.2368603  -0.37052339   0.23834184    8399.4421    2400.1202    4757.7611    4219.8059    312.76674   -684.03371   -1700.5565 
   26500    248.28677    -4809.494    -4330.652    -4809.494            0    2666.6616    20.220139    20.030538    20.799942  -0.19681863   0.21397309  -0.16731783    8424.3982    3122.6474    2774.6624     2102.675    192.19535    1338.2064    881.36734 
   27000    243.45159   -4759.5311   -4290.0143   -4759.5311            0    3098.9779    19.997895    20.090057    21.044833    0.1731323  -0.45193915   0.33547623     8454.948      3342.09    2975.7443    2979.0995   -1238.7251   -361.86023    395.79018 
   27500    234.47665   -4765.0634   -4312.8554   -4765.0634            0    3392.1562    20.244478    20.141337    20.579168  0.060348642   0.16771766  -0.13300948    8391.1735     2656.048    2600.4817    4919.9389   -166.72413   -349.65951   -300.20061 
   28000    230.66237   -4790.0268    -4345.175   -4790.0268            0    1038.5121    20.036953    20.247483    20.804724 -0.036967667  -0.15424759    0.1747756    8440.4323    2155.7296    434.10592    525.70082    666.26134    369.91865    338.65831 
   28500    239.41008   -4772.9569   -4311.2345   -4772.9569            0    1806.5648    20.115909    20.096337    20.865406  0.064881421 -0.044803517 -0.049879837    8434.9673    1526.3802    1967.0129    1926.3014   -611.96135   -860.12362    534.28004 
   29000    233.46055   -4762.6358   -4312.3875   -4762.6358            0    2298.4816     20.32802     20.19825    20.582774  -0.29443743  -0.16537138   0.31587265    8451.0899    664.63194    3672.4268    2558.3859    248.35942    105.80228   -27.271043 
   29500    226.58487   -4770.3044   -4333.3164   -4770.3044            0    3452.9021    20.155317    19.958553    20.864227   0.13064127 -0.034496121   -0.1702093    8393.0728    2842.7566    4202.0948    3313.8549   -656.55224    115.03573    376.75136 
   30000    221.14339   -4738.7889   -4312.2953   -4738.7889            0    4250.9269    19.966934    19.948494    20.890875   0.49906968    0.2139876 -0.081453532    8321.0499    5879.9223    3911.4509    2961.4076   -596.77828   -279.89014    414.76769 
   30500      230.603   -4784.6797   -4339.9425   -4784.6797            0    2401.6993    20.056913    20.118403    20.667103   -0.1493817  -0.24433773  0.049907898    8339.4464    1738.2204    2832.5865    2634.2908    551.03743   -211.02386    532.61517 
   31000    235.12488   -4757.9023   -4304.4442   -4757.9023            0    3586.6928    20.221919    20.085616    20.521567 -0.016993501 -0.069100246  0.056911694    8335.2389    3716.7142    3125.5009    3917.8632   -85.154194   -518.75395   -1986.3281 
   31500    237.40677   -4787.1734   -4329.3145   -4787.1734            0    4539.9797    20.017823    20.054958    20.646014   0.31664721 -0.0082653006 -0.079423152    8288.4788    4527.3814    4997.7896    4094.7683    167.28878    439.21814     456.8298 
   32000    231.35077   -4766.6766   -4320.4971   -4766.6766            0    2344.2878    20.048977     20.12549    20.750093  -0.35472576  -0.16623333  0.056664395     8372.569    2647.1312    1905.5958    2480.1363    879.40963    1039.4682    1036.1124 
   32500    231.92235   -4790.1783   -4342.8966   -4790.1783            0    3501.0266    20.105911    20.085509    20.575464   0.25060995   0.13210384  -0.18974424    8309.1428    2320.5531    4885.3085    3297.2183    15.366424   -219.97094    648.29469 
   33000    232.40215   -4777.7984   -4329.5913   -4777.7984            0    2779.2296    20.017849     20.18306    20.852036  -0.30404557  -0.20496635   0.45574034    8424.6696    3675.7938    1840.0222    2821.8729   -222.55336   -950.75994   -1705.3205 
   33500    230.60144   -4775.4403    -4330.706   -4775.4403            0    5658.8214     20.00915    20.037266    20.654508 -0.085467985  0.040537082  -0.15679706     8280.984    5662.6956    5889.1334    5424.6351   -347.59475    304.44452    1087.0031 
[...]
  460500    229.84182   -4002.3144   -3608.3733   -4002.3144            0    2004.3276     17.37205     20.46198    21.193861    7533.7084    2051.8299    2478.3715    1482.7813   -734.64095     445.9877   -100.38914 
  461000    234.52187   -4003.2862   -3601.3237   -4003.2862            0    3971.0987    17.290964    20.366472    21.094936    7428.7071    4171.5783    2548.8807    5192.8371   -1280.6385    841.54996   -1809.4455 
  461500    228.13801    -4000.692   -3609.6712    -4000.692            0    5704.8369     17.26807    20.339506    21.067005    7399.2382    4997.1467    4811.6493    7305.7146   -68.335322   -95.947594   -14.916656 
  462000    242.68021   -3992.4344   -3576.4888   -3992.4344            0    2786.9383    17.348352    20.434067    21.164949    7502.9192    1238.8442    3333.2649    3788.7056   -118.36472   -1260.8344    281.53326 
  462500    243.35233   -4000.1556   -3583.0581   -4000.1556            0    6118.8613    17.327989    20.410082    21.140106    7476.5298    5677.6752    6400.7847    6278.1239    463.36784    528.80447   -185.47215 
  463000     222.4589   -4007.3411   -3626.0542   -4007.3411            0    3864.3315    17.350997    20.437182    21.168175    7506.3508    3386.2191    3701.9674    4504.8081    767.66737    996.83807    1245.7833 
  463500    220.85747   -3973.7882   -3595.2461   -3973.7882            0    3399.8083    17.314953    20.394728    21.124203    7459.6693    1468.6754    4539.4662    4191.2835     410.9269    247.65404   -785.57864 
  464000    227.12011   -3979.3824   -3590.1063   -3979.3824            0    6236.4549    17.239672    20.306056    21.032359    7362.7927    5573.2656    5412.7301     7723.369    101.76196   -1201.1999   -940.76966 
  464500    205.52935   -3998.6228   -3646.3526   -3998.6228            0    4912.4606    17.284184    20.358485    21.086664     7419.971    5405.3035    6063.1253    3268.9529   -693.20096     495.2919    797.70467 
  465000    221.24691   -3992.1607   -3612.9511   -3992.1607            0    2636.0874    17.351264    20.437497    21.168502    7506.6981    1966.7159    2528.6213    3412.9251    481.32668   -502.39887   -8.9382278 
  465500    228.48244   -3993.4518   -3601.8407   -3993.4518            0    3572.5586    17.337302    20.421052    21.151468    7488.5917    2862.8776    4697.6108    3157.1875   -1554.3912   -1470.3988   -1488.2967 
  466000     240.2599   -4006.6345   -3594.8372   -4006.6345            0    5188.2557    17.242214     20.30905     21.03546    7366.0499     6334.481    5249.7933    3980.4929   -1053.9828   -976.49514     161.2024 
  466500    228.06852   -4029.0236   -3638.1219   -4029.0236            0    3056.8549     17.31406    20.393675    21.123112    7458.5142    3551.8844    4196.5473    1422.1329     170.3325   -283.75949    497.37566 
  467000    224.26592   -3981.6977   -3597.3136   -3981.6977            0     3683.543    17.307504    20.385954    21.115115    7450.0455    4082.3682    4558.2761    2409.9848   -187.54672    175.10844    1513.1891 
  467500    233.00469   -4033.9304   -3634.5683   -4033.9304            0    3907.8923    17.252303    20.320935     21.04777    7378.9889    4340.5035    4399.3291    2983.8442   -487.44345   -2665.0175   -387.07421 
  468000    229.61495   -4030.3462    -3636.794   -4030.3462            0    4252.2114    17.271733     20.34382    21.071474    7403.9476    5315.5418    4927.6372    2513.4552   -789.70674    116.39685   -1330.6154 
  468500     230.7858   -4001.2392   -3605.6802   -4001.2392            0    4925.0267    17.179632    20.235337    20.959111    7286.1338    4157.7502    4633.5018    5983.8281   -366.00169   -479.27058   -247.62889 
  469000    230.84728   -4000.5835   -3604.9191   -4000.5835            0     5162.362    17.290836    20.366321    21.094779    7428.5416      4941.42    5997.0378    4548.6283   -114.35944   -882.79028   -1124.4109 
  469500    225.58039   -3992.7989   -3606.1618   -3992.7989            0    3978.0539    17.248915    20.316943    21.043635    7374.6412     4714.497    3340.6163    3879.0485    257.41584   -406.72413    31.467305 
  470000    241.92199   -4004.7448   -3590.0988   -4004.7448            0    4021.3353    17.273549    20.345959    21.073689     7406.283     5526.696    3209.1297    3328.1803    88.918341     -842.296   -1115.8896 
  470500     225.2163   -4003.5629   -3617.5498   -4003.5629            0    3058.0724    17.312277    20.391576    21.120938    7456.2108    3695.6465     3213.806    2264.7646    814.90614    -545.0631    267.16548 
  471000    237.07786   -3963.3869   -3557.0435   -3963.3869            0    3724.2204     17.31889    20.399365    21.129005    7464.7583    3717.4905    4144.8169    3310.3536   -1354.7848   -716.94628   -151.92934 
  471500    227.27624   -3970.7469   -3581.2032   -3970.7469            0    3096.9551    17.349128    20.434981    21.165895    7503.9254    2162.0855    3725.8942    3402.8856   -505.07543    -1230.627     239.5439 
  472000    243.29256   -3968.8655   -3551.8704   -3968.8655            0     5963.097    17.259129    20.328974    21.056097    7387.7498    5151.9561    6677.6361    6059.6989    244.95443    -621.2585    851.13677 
  472500    231.87999   -3978.5539   -3581.1195   -3978.5539            0    4908.8364    17.259687    20.329632    21.056778     7388.467    5474.7958    5836.7514    3414.9619   -1764.4102    140.75106   -318.71458 
  473000    228.59631    -3991.244   -3599.4377    -3991.244            0    4291.3804    17.308013    20.386553    21.115735    7450.7022    3087.8177     4507.548    5278.7756    100.50905    596.09808    575.18239 
  473500    230.58065   -4009.6464    -3614.439   -4009.6464            0    3159.7546    17.288506    20.363577    21.091937    7425.5391    1569.9082    3484.4565    4424.8991    590.39042    802.37653    75.070458 
  474000    222.41892   -4015.1565   -3633.9381   -4015.1565            0    4136.4873    17.256125    20.325436    21.052433    7383.8939    3766.3793    5940.0736     2703.009   -554.77784    56.101962   -290.18734 
  474500    234.00346   -4000.4781   -3599.4042   -4000.4781            0    3372.1165    17.336836    20.420502    21.150899    7487.9871    3878.1069     3271.597    2966.6454   -2087.8163    1003.3406   -607.18387 
  475000    230.32185    -4008.338   -3613.5743    -4008.338            0      2620.55    17.340133    20.424386    21.154921      7492.26    2787.2565    3456.6658    1617.7277    847.17184    -521.3868    1538.1673 
  475500    214.45953   -4028.2337   -3660.6575   -4028.2337            0     5664.741    17.216778     20.27909    21.004428    7333.4983    5313.2613     3705.087    7975.8748    231.82277    486.45675    1159.8062 
  476000    235.77553   -3994.4221   -3590.3109   -3994.4221            0    2584.5098    17.330943    20.413562    21.143711    7480.3549    2796.3596    3093.8634    1863.3063    753.99595   -398.79906     1304.187 
  476500    222.67128   -4019.8827   -3638.2317   -4019.8827            0    5597.7182    17.212896    20.274518    20.999693    7328.5399    6116.2132    6014.6936    4662.2477    379.50935   -1035.2748   -277.95059 
  477000    237.22793   -4007.3108   -3600.7102   -4007.3108            0    3752.2511    17.281447    20.355262    21.083325    7416.4474    2645.7891    4451.9083    4159.0561     607.1246    812.07607    324.57866 
  477500    229.47979   -3988.0047   -3594.6842   -3988.0047            0    2927.3558    17.313271    20.392746     21.12215    7457.4948    1703.5739    4024.7381    3053.7554   -243.42055   -1572.7043   -373.17069 
  478000    226.67064   -4008.2986   -3619.7929   -4008.2986            0    2415.4479    17.286209    20.360871    21.089134    7422.5794    3607.5886     1699.929    1938.8261    189.77777    987.13997   -591.90657 
  478500    236.21259   -4004.8944   -3600.0341   -4004.8944            0     2811.722    17.301631    20.379036     21.10795    7442.4642    2837.6257    3426.5661    2170.9742    44.479256   -533.65477   -398.76507 
  479000    243.09062   -4028.4176   -3611.7686   -4028.4176            0    3523.9184     17.29447    20.370601    21.099213     7433.226    2605.4606    4009.8138    3956.4808   -1349.2363   -611.13672    1573.1724 
  479500    212.76691   -4041.3571   -3676.6819   -4041.3571            0    3548.7915    17.244989     20.31232    21.038847    7369.6079    3025.2846    3264.6849    4356.4051    5.4060191   -1158.8667   -15.066058 
  480000    224.21231   -4003.6534   -3619.3611   -4003.6534            0    5142.4879    17.283659    20.357867    21.086023    7419.2952    3636.8472    6662.5337    5128.0829   -262.36882   -855.29717   -362.24402 
  480500    226.66259   -4000.9045   -3612.4126   -4000.9045            0    3175.4891    17.326167    20.407936    21.137883    7474.1718    3721.0128    2949.4666    2855.9878   -376.45193   -348.03682   -164.83669 
  481000    222.46597   -4030.6808   -3649.3818   -4030.6808            0    3911.6241    17.289598    20.364862    21.093269    7426.9458    4760.3079    4524.5481    2450.0162   -94.660528   -1591.6209   -230.33247 
  481500     219.2402     -4007.49   -3631.7198     -4007.49            0    4424.8166    17.269837    20.341586     21.06916    7401.5091    5169.4024    3495.3117    4609.7356   -187.64866    275.26145    1274.6373 
  482000    217.38074   -4038.4663   -3665.8832   -4038.4663            0     4424.652    17.258853    20.328649    21.055761    7387.3962    5186.3457    3079.0324     5008.578    1932.4502    551.55584   -325.03588 
  482500    229.81451    -4005.787   -3611.8928    -4005.787            0    4021.3525    17.246173    20.313713     21.04029    7371.1249     3545.461     3942.536    4576.0606     55.04686    84.023366   -887.62279 
  483000     223.6928    -4038.923   -3655.5212    -4038.923            0    6705.8459    17.200791    20.260259    20.984924    7313.0883    6554.0604    5518.4628    8045.0145     -125.135   -887.08212   -1670.6871 
  483500    234.17462   -4012.8749   -3611.5076   -4012.8749            0     4821.608    17.239927    20.306357     21.03267    7363.1194    5416.5719    4080.4385    4967.8135   -1012.7559    748.18982    1402.6533 
  484000    226.66965   -4015.3857   -3626.8817   -4015.3857            0    4010.5213    17.301649    20.379058    21.107972    7442.4874    6161.3384    3585.4352    2284.7905    678.00051   -1164.1159   -515.77682 
  484500    231.24533   -4002.9622   -3606.6156   -4002.9622            0    4822.2205    17.276037     20.34889    21.076725    7409.4843    2697.1219    5446.1712    6323.3683   -999.37211   -1853.4488    1506.8958 
  485000    233.97534   -3995.8258      -3594.8   -3995.8258            0    5027.4304    17.257688    20.327276    21.054338    7385.8995    6424.6643    5203.4426    3454.1842    1052.6131   -68.784745   -1071.3394 
  485500    218.37169   -3990.9441   -3616.6625   -3990.9441            0    3542.2978    17.340976    20.425379     21.15595    7493.3528     3841.687    2871.1599    3914.0465    339.87957    26.230957   -372.68351 
  486000    232.00961   -4021.5917   -3623.9351   -4021.5917            0    5486.3084    17.279738    20.353249    21.081241    7414.2475    5755.5981    4245.5202    6457.8069   -459.29701   -677.25495    -29.65279 
  486500    232.59937   -4034.6713    -3636.004   -4034.6713            0    2298.2822     17.36422    20.452757    21.184308     7523.526     2972.062    2469.3112    1453.4733    559.71751   -971.63504   -426.97041 
  487000    234.06381   -3997.0517   -3595.8744   -3997.0517            0    5061.1177    17.352798    20.439304    21.170373    7508.6891    5145.9844    4954.5341    5082.8347    464.13084   -963.77599    262.46022 
  487500    231.38572   -4032.9368   -3636.3496   -4032.9368            0      3911.79    17.337647    20.421458    21.151889    7489.0388    3882.1794    3651.5696    4201.6209    883.98635    43.610966   -1319.9088 
  488000    244.04751   -4012.9868   -3594.6977   -4012.9868            0    4936.1716     17.28817    20.363181    21.091527    7425.1063    5023.9968    6063.5459     3720.972    110.88855   -248.91408   -1174.3176 
  488500    231.25181   -3991.1768   -3594.8192   -3991.1768            0    3440.5577     17.36581    20.454631    21.186248    7525.5935     3994.368    3753.8232    2573.4818     -500.647   -802.18403    553.90413 
  489000    222.82628   -4027.8796    -3645.963   -4027.8796            0     6359.728    17.247147    20.314861    21.041479    7372.3748     6968.039     7641.022     4470.123   -733.38542   -2509.5042    626.42502 
  489500    232.17794   -4011.4132   -3613.4681   -4011.4132            0    3422.7091    17.362632    20.450887    21.182371    7521.4625    2904.1832    4134.9484    3228.9956    -142.5014   -2048.8364   -251.54591 
  490000    236.20524   -4016.5568   -3611.7091   -4016.5568            0    3394.4635    17.298841     20.37575    21.104546    7438.8644    3597.4343    3137.4197    3448.5367    332.49621   -2954.7558   -99.486132 
  490500    219.24979   -3995.0282   -3619.2415   -3995.0282            0    4776.5708    17.314203    20.393844    21.123288    7458.6998    4764.8194    3183.1035    6381.7896   -1052.7958   -1526.9672   -854.75765 
  491000    232.26229   -4011.0985   -3613.0089   -4011.0985            0    4537.6169    17.284667    20.359054    21.087253    7420.5928    4752.6801    3324.2162    5535.9544     83.10926    371.44288   -52.229855 
  491500    236.00781   -4016.5244    -3612.015   -4016.5244            0    4412.9932    17.316415     20.39645    21.125986    7461.5584    4583.2264    3090.7159    5565.0374    -419.5397   -505.23106    49.692123 
  492000    249.37695   -3997.2216    -3569.798   -3997.2216            0    3860.8814     17.30642    20.384677    21.113792    7448.6454     5099.937    2730.9543     3751.753   -437.18843    518.74836    394.28485 
  492500    211.97428   -3988.1307   -3624.8141   -3988.1307            0    4982.5636    17.320026    20.400703    21.130392    7466.2276    4216.2887    4604.2629    6127.1393   -1180.4235   -476.57673    720.65977 
  493000    219.91536   -4012.8896   -3635.9622   -4012.8896            0    3295.3686    17.390046    20.483177    21.215815    7557.1451    3447.8697    4138.0234    2300.2126    539.93776   -1194.4968   -264.56779 
  493500    231.06804   -4025.5935   -3629.5507   -4025.5935            0    3584.2624    17.397136    20.491529    21.224466    7566.3929    2774.3082    4848.2128    3130.2662    241.27369    107.11607  -0.93547049 
  494000    233.22851   -3985.2125   -3585.4668   -3985.2125            0    5024.4606    17.331534    20.414258    21.144431    7481.1197    5491.5789    4984.0369    4597.7662   -2209.9536   -259.17919    -652.7663 
  494500     245.2275   -3996.1395    -3575.828   -3996.1395            0    4227.7073    17.369678    20.459186    21.190966    7530.6224    5343.9652    2799.9993    4539.1573    284.77837    787.30221     368.0794 
  495000     233.5314   -3994.9232   -3594.6584   -3994.9232            0    3698.8025    17.361438    20.449481    21.180914    7519.9105    4877.1099    3859.2068    2360.0906     -548.468   -288.30181    1252.7831 
  495500    224.38567   -4022.4279   -3637.8385   -4022.4279            0    3882.1675    17.359545    20.447251    21.178605    7517.4511    2851.3297    4951.6316    3843.5411   -641.85972   -117.50806    186.52834 
  496000    225.01868   -3960.6076   -3574.9333   -3960.6076            0    3489.6697    17.379704    20.470996    21.203198    7543.6707    3610.8639    5122.5389    1735.6064    478.34883   -486.99538   -405.09428 
  496500    233.98212   -3967.5473     -3566.51   -3967.5473            0    3111.4141    17.351572     20.43786    21.168877    7507.0979    3198.5121    2272.6411    3863.0891    510.00959   -2168.4418   -1079.5268 
  497000    223.60008    -3979.627   -3596.3841    -3979.627            0    3941.8397    17.324323    20.405764    21.135634    7471.7858    3389.1184    4455.7416     3980.659   -211.40733      18.8379   -67.190852 
  497500    231.36026   -3984.0822   -3587.5386   -3984.0822            0    4213.7705    17.305358    20.383426    21.112496    7447.2744    4824.6749    4359.8489    3456.7877   -301.38292   -842.93735   -68.292426 
  498000       238.05   -3987.4713   -3579.4617   -3987.4713            0    4769.6294    17.313862    20.393443    21.122872    7458.2592    5906.7204    3893.6375    4508.5302    552.12419   -975.26189    541.73128 
  498500    226.65979   -3958.6755   -3570.1884   -3958.6755            0    2985.8973    17.367296     20.45638     21.18806    7527.5244    2887.8349    2872.6403    3197.2167   -1313.1147   -540.41928   -956.44497 
  499000    221.60903   -3981.1448   -3601.3145   -3981.1448            0    4662.6593    17.303685    20.381455    21.110455    7445.1146    3610.6333    5218.8277    5158.5168     938.0875    506.75474   -51.641476 
  499500    219.68983   -3964.9395   -3588.3987   -3964.9395            0    3426.5356      17.4024    20.497728    21.230887    7573.2626     4024.673    2201.5597     4053.374    208.65541   -1054.0524   -744.42396 
  500000    236.98419   -3972.4078    -3566.225   -3972.4078            0    6233.3748    17.262368     20.33279    21.060049    7391.9109    4495.6335    5736.5767    8467.9141    194.87308   -1562.2672   -251.78833 
Loop time of 2076.07 on 32 procs for 500000 steps with 864 atoms

Performance: 41.617 ns/day, 0.577 hours/ns, 240.839 timesteps/s
3181.0% CPU use with 1 MPI tasks x 32 OpenMP threads

MPI task timing breakdown:
Section |  min time  |  avg time  |  max time  |%varavg| %total
---------------------------------------------------------------
Pair    | 209.3      | 209.3      | 209.3      |   0.0 | 10.08
Bond    | 39.791     | 39.791     | 39.791     |   0.0 |  1.92
Kspace  | 1275       | 1275       | 1275       |   0.0 | 61.41
Neigh   | 11.888     | 11.888     | 11.888     |   0.0 |  0.57
Comm    | 150.47     | 150.47     | 150.47     |   0.0 |  7.25
Output  | 3.2776     | 3.2776     | 3.2776     |   0.0 |  0.16
Modify  | 381.38     | 381.38     | 381.38     |   0.0 | 18.37
Other   |            | 4.955      |            |       |  0.24

Nlocal:        864.000 ave         864 max         864 min
Histogram: 1 0 0 0 0 0 0 0 0 0
Nghost:        7247.00 ave        7247 max        7247 min
Histogram: 1 0 0 0 0 0 0 0 0 0
Neighs:        267462.0 ave      267462 max      267462 min
Histogram: 1 0 0 0 0 0 0 0 0 0

Total # of neighbors = 267462
Ave neighs/atom = 309.56250
Ave special neighs/atom = 2.0000000
Neighbor list builds = 20558
Dangerous builds = 0

unfix		3
unfix		2
unfix		1

write_data	data.final.${pid}
write_data	data.final.0
System init for write_data ...
PPPM initialization ...
  extracting TIP4P info from pair style
  using 12-bit tables for long-range coulomb (../kspace.cpp:340)
  G vector (1/distance) = 0.37443867
  grid = 24 24 25
  stencil order = 5
  estimated absolute RMS force accuracy = 0.003052305
  estimated relative force accuracy = 9.191926e-06
  using double precision FFTW3
  3d grid and FFT values/proc = 32736 14400
Last active /omp style is kspace_style pppm/tip4p/omp
WARNING: Not all mixed pair coeffs generated from mixing. Use write_data with 'pair ij' option to store all pair coeffs. (../write_data.cpp:312)

write_restart   restart.lmp.${pid}
write_restart   restart.lmp.0
System init for write_restart ...
PPPM initialization ...
  extracting TIP4P info from pair style
  using 12-bit tables for long-range coulomb (../kspace.cpp:340)
  G vector (1/distance) = 0.37443867
  grid = 24 24 25
  stencil order = 5
  estimated absolute RMS force accuracy = 0.003052305
  estimated relative force accuracy = 9.191926e-06
  using double precision FFTW3
  3d grid and FFT values/proc = 32736 14400
Last active /omp style is kspace_style pppm/tip4p/omp
Total wall time: 0:34:36
Tue Nov  9 13:22:00 PST 2021
