LAMMPS data file via write_data, version 30 Jul 2021, timestep = 26250000

1296 atoms
2 atom types
864 bonds
1 bond types
432 angles
1 angle types

-10.700856664305116 12.680856664305116 xlo xhi
-9.137679548083907 12.127677548083907 ylo yhi
0.035510576174623054 21.824488423837188 zlo zhi
-9.370764123387229 2.196838558680935 2.5482915936935635 xy xz yz

Masses

1 1.008
2 15.999

Pair Coeffs # lj/cut/tip4p/long/omp

1 0 0
2 0.21084 3.1668

Bond Coeffs # harmonic/omp

1 450 0.9572

Angle Coeffs # harmonic/omp

1 55 104.52

Atoms # full

299 100 1 0.5897 -6.2677037222159955 -8.01135314516736 4.3053258277006785 1 1 0
270 90 1 0.5897 -8.44637697086954 -7.2467562316915455 1.9366299787397736 1 1 0
269 90 1 0.5897 -9.005076194271567 -5.941437620427191 2.4618333708847655 1 1 0
268 90 2 -1.1794 -9.034083994543128 -6.88792612760764 2.601538489836669 1 1 0
324 108 1 0.5897 -7.150303861226526 -4.384706925075898 3.7154220355380363 1 1 0
315 105 1 0.5897 -8.495409081225816 -5.524718126703049 5.134307612440362 1 1 0
163 55 2 -1.1794 -7.188230220207114 -7.962674970740608 0.9314508480966026 1 1 0
73 25 2 -1.1794 -8.373284070707893 -3.746703906723985 4.76968797499515 1 0 0
164 55 1 0.5897 -6.371447099917686 -8.349152999133835 1.2474072115406254 1 1 0
261 87 1 0.5897 -6.626530921352591 -4.967905430945617 1.222857686607192 1 1 0
280 94 2 -1.1794 -9.746393175882003 -4.5115882289653335 1.565322490144595 1 1 0
314 105 1 0.5897 -8.663566334999373 -6.760689636714372 4.276475686541043 1 1 0
323 108 1 0.5897 -6.3714430133428746 -5.673700040796719 3.561232339277002 1 1 0
281 94 1 0.5897 -9.169746819470042 -3.7483305787910908 1.5992168868884569 1 1 0
298 100 2 -1.1794 -5.694823570245589 -7.245289009753523 4.339557232690099 1 1 0
275 92 1 0.5897 -10.43299823763738 -8.290915152038046 3.3063262479774624 1 1 0
282 94 1 0.5897 -10.624740718028203 -4.144584583254009 1.4646534840971663 1 1 0
259 87 2 -1.1794 -6.699481115842735 -5.325937763580475 0.3381369927109427 1 1 0
165 55 1 0.5897 -7.395977469171616 -8.455978749003583 0.1379025482572814 1 1 0
260 87 1 0.5897 -6.931903343409035 -6.245113056640603 0.46967306675417547 1 1 0
322 108 2 -1.1794 -6.554666619054669 -4.8429138568999495 3.1225282881774765 1 1 0
75 25 1 0.5897 -9.240061785876305 -3.3705474535573074 4.616277006222604 1 0 0
313 105 2 -1.1794 -8.602164109127465 -6.474419363026021 5.187801569531521 1 1 0
1226 409 1 0.5897 -10.187386737604626 -5.607307731737244 0.15631611225373898 0 0 1
419 140 1 0.5897 -8.853974322467348 -5.297934431467944 8.625926552095956 1 0 0
418 140 2 -1.1794 -9.583432051557509 -5.468160951994143 9.221921534228196 1 0 0
428 143 1 0.5897 -6.552457239407236 -7.155047384356714 10.032933950020167 1 0 0
727 243 2 -1.1794 -8.283835553506838 -7.347316450809629 10.86687989737894 1 0 0
618 206 1 0.5897 -7.608487589866876 -7.472585148772202 6.378252218388756 1 1 0
420 140 1 0.5897 -9.314500522956564 -6.243198998261374 9.71512216818943 1 0 0
414 138 1 0.5897 -6.498590095699678 -4.840904106826491 7.461283221530614 1 0 0
413 138 1 0.5897 -7.400175770775377 -3.7282445813304754 7.952242717882059 1 0 0
412 138 2 -1.1794 -7.273831572203324 -4.675938860495288 7.998025720140297 1 0 0
429 143 1 0.5897 -6.483265709565114 -7.090201004673927 8.521980278700935 1 0 0
350 117 1 0.5897 -7.408646029317398 -4.304910856305535 9.931536204686406 0 0 0
427 143 2 -1.1794 -5.949183170957942 -6.985234426942738 9.309391378821047 1 0 0
627 209 1 0.5897 -10.114054934223589 -6.6635567171175 6.199367211339426 1 1 0
349 117 2 -1.1794 -7.285729110204563 -4.013055064201088 10.83483988982489 0 0 0
616 206 2 -1.1794 -7.194320483360714 -7.964199291970451 7.087528453746857 1 1 0
351 117 1 0.5897 -7.170045989643963 -3.065305662105529 10.767152710671233 0 0 0
633 211 1 0.5897 -5.517350205275582 -5.822156019766572 5.72526609991291 1 1 0
626 209 1 0.5897 -10.540105366645331 -6.2049426043677895 7.577802564690112 1 1 0
661 221 2 -1.1794 -9.510388500197584 -4.503896438394531 12.525301620241407 0 0 0
682 228 2 -1.1794 -7.76239161257731 -6.84966159801411 13.536953890159086 0 0 0
780 260 1 0.5897 -7.5822040478772506 -4.3046016973310035 15.218759450788529 0 0 0
779 260 1 0.5897 -7.234493054042421 -3.267685546732663 14.171941977866265 0 0 0
778 260 2 -1.1794 -7.975768155116244 -3.733297624036613 14.559215467932905 0 0 0
740 247 1 0.5897 -10.697650236584922 -3.4289879002610526 12.165204385715393 1 0 0
662 221 1 0.5897 -9.012214768638456 -4.344598846441537 13.327006538023108 0 0 0
652 218 2 -1.1794 -5.614388178399909 -5.429964739565901 12.596825258774592 0 0 0
654 218 1 0.5897 -6.001873857881885 -4.83001604583895 11.959491042647342 0 0 0
653 218 1 0.5897 -6.357173429885899 -5.92440400757704 12.943368734969667 0 0 0
768 256 1 0.5897 -9.388172181553474 -2.9259947675675226 15.138803091933026 0 0 0
766 256 2 -1.1794 -10.237751524813802 -2.489716175403186 15.203531094611265 0 0 0
684 228 1 0.5897 -8.449197269250604 -6.60760959563107 14.158239068613897 0 0 0
729 243 1 0.5897 -8.069451703035128 -7.06155392891143 11.75492947041292 1 0 0
663 221 1 0.5897 -8.892182774983702 -4.319773547489247 11.818051637566962 0 0 0
757 253 2 -1.1794 -9.474856873254364 -6.079186431139895 15.579667980813202 0 0 0
788 263 1 0.5897 -4.754540225208612 -4.677932812963304 15.465388755313747 0 0 0
758 253 1 0.5897 -9.283351498423599 -5.567324538276802 16.365512757138642 0 0 0
767 256 1 0.5897 -10.877178036073381 -3.1856768776270856 15.051816769153332 0 0 0
739 247 2 -1.1794 -11.442232183973307 -2.9529672759295087 11.797347280613772 1 0 0
1097 366 1 0.5897 -8.914374209763228 -5.958465102346058 18.65340383134275 0 0 0
1089 363 1 0.5897 -6.28440481303964 -4.473501676876067 17.167715900047654 0 0 0
1227 409 1 0.5897 -9.09835689903964 -3.1640171709426017 20.918730113047186 0 0 0
1219 407 2 -1.1794 -10.296990731463417 -2.0994934948591712 20.202659830411704 0 0 0
1141 381 2 -1.1794 -8.338208379356391 -6.372450550690617 21.741398586468875 0 0 0
1225 409 2 -1.1794 -8.341792375403461 -3.6358683964539544 21.26698669168292 0 0 0
1152 384 1 0.5897 -6.778117273836054 -4.5954680395230305 19.834287820497654 0 0 0
1121 374 1 0.5897 -4.760109375756823 -3.6162963078981196 18.762116692069732 0 0 0
1151 384 1 0.5897 -5.87763626680574 -5.71124838048315 19.348401622304678 0 0 0
1150 384 2 -1.1794 -6.188924855010503 -4.835600533924218 19.1191218562616 0 0 0
1109 370 1 0.5897 -8.659650239909812 -3.725519835664386 17.796330786396783 0 0 0
1108 370 2 -1.1794 -9.245373770799342 -4.482523563995466 17.78556462784234 0 0 0
1088 363 1 0.5897 -6.399123952915185 -5.905930432567425 16.691511500571107 0 0 0
1131 377 1 0.5897 -7.065608375960968 -1.971658313026154 17.242693668211366 0 0 0
1130 377 1 0.5897 -7.2137582800915885 -1.7820899103093577 18.737378827817807 0 0 0
1143 381 1 0.5897 -8.354087674608472 -5.417620459276705 21.80650300007469 0 0 0
1129 377 2 -1.1794 -7.713109868528861 -1.989400192559902 17.947474019434562 0 0 0
1110 370 1 0.5897 -10.122892744698124 -4.106132781402632 17.717602640486387 0 0 0
1096 366 2 -1.1794 -8.761177296560165 -6.832987371652112 19.011131550556442 0 0 0
1248 416 1 0.5897 -5.8970553084395485 -1.952992976509929 20.861788991172908 0 0 0
1221 407 1 0.5897 -10.635594144850968 -2.2121885411763094 19.3144451802456 0 0 0
1142 381 1 0.5897 -8.260662060644009 -6.547766896803598 20.803579479551665 0 0 0
1087 363 2 -1.1794 -6.238035264961793 -5.0153010105624 16.37998297080708 0 0 0
69 23 1 0.5897 -11.190345232915602 -2.622098507847743 2.9825926566357954 1 0 0
67 23 2 -1.1794 -10.659586897978379 -2.3674895860832788 3.737409522385115 1 0 0
272 91 1 0.5897 -9.491545535184706 -0.9997107359571338 1.521639541134752 1 1 0
271 91 2 -1.1794 -10.208963595269278 -0.6313510480238094 1.0059430817911452 1 1 0
59 20 1 0.5897 -13.531425775425046 -0.8842091904626077 3.125206766566504 1 0 0
83 28 1 0.5897 -9.491293737787677 -0.9361079360679803 3.8473636623257614 1 0 0
107 36 1 0.5897 -9.32762322882975 1.5713627387825753 3.1776036383603463 1 0 0
68 23 1 0.5897 -11.238341414326108 -2.4899033136718502 4.4899707126666435 1 0 0
98 33 1 0.5897 -11.952624916593354 0.1854588543258444 4.352966014957877 1 0 0
54 18 1 0.5897 -11.434312637191784 -0.23970657888575708 2.051203421939214 1 0 0
53 18 1 0.5897 -12.251096987176567 1.0165964647743788 2.2667902936736692 1 0 0
52 18 2 -1.1794 -12.203083373941531 0.09320663034953292 2.5142977059484286 1 0 0
258 86 1 0.5897 -12.766548643633044 -2.9878642926538905 1.097272782796567 1 1 0
256 86 2 -1.1794 -12.375376944778514 -3.520279709157559 1.7899540550844 1 1 0
82 28 2 -1.1794 -8.848360953716742 -0.24057932116098613 3.7090451897202437 1 0 0
273 91 1 0.5897 -10.425694422694132 -1.3158827904824335 0.37298787376585063 1 1 0
1010 337 1 0.5897 -13.179240142534894 1.2327628303993148 0.25112058659426195 0 -1 1
44 15 1 0.5897 -10.003858201488141 1.002184131257705 0.15864857989186754 1 0 0
301 101 2 -1.1794 -8.03611685396642 -2.3961779114403052 1.6363162354391245 1 1 0
417 139 1 0.5897 -8.776323417798773 0.7544227474280056 5.418243308243581 1 0 0
97 33 2 -1.1794 -11.759538322532531 0.6672338089843333 5.1572267587817 1 0 0
99 33 1 0.5897 -11.636374308665195 1.572305144215866 4.8710652784192385 1 0 0
302 101 1 0.5897 -7.592452882495541 -2.194184402277844 2.4601121080081163 1 1 0
74 25 1 0.5897 -7.962401900434357 -3.154082056836768 5.399112142057695 1 0 0
426 142 1 0.5897 -8.955509852692977 -1.696116181523231 7.079009303578376 1 0 0
415 139 2 -1.1794 -8.603765141831014 1.4038211316626867 6.099945084908129 1 0 0
528 176 1 0.5897 -12.384497113364269 0.48389309934510116 9.929510910313967 1 0 0
402 134 1 0.5897 -11.054823886264426 -0.18867505979651966 6.494834109338099 1 0 0
401 134 1 0.5897 -11.293189176132952 -1.1461055053789133 7.643067777212827 1 0 0
400 134 2 -1.1794 -10.61583838410638 -0.6058348044412281 7.2361487964045965 1 0 0
527 176 1 0.5897 -11.970405338204303 1.6028502837318062 8.997632148345401 1 0 0
526 176 2 -1.1794 -12.735984589975555 1.1153686859354526 9.3018383404807 1 0 0
424 142 2 -1.1794 -8.088917072819996 -2.07558062575212 6.932918990814807 1 0 0
537 179 1 0.5897 -9.789097419819575 0.0898134288194754 8.794481860413875 1 0 0
536 179 1 0.5897 -9.937431117428911 0.1528253950224272 10.299805981141436 1 0 0
535 179 2 -1.1794 -9.285709837162791 0.20421915380443245 9.600586057162182 1 0 0
410 137 1 0.5897 -13.467503829395621 0.6625089493074068 7.7048532223645845 1 0 0
522 174 1 0.5897 -9.896152524843888 2.063799362153377 7.491060180352255 1 0 0
435 145 1 0.5897 -7.62587617674881 -0.8663054330350217 9.771604313899653 0 0 0
411 137 1 0.5897 -13.227108299498266 0.5959957339796649 6.211612954956473 1 0 0
425 142 1 0.5897 -7.478007349287038 -1.391247698350191 7.206275569375185 1 0 0
443 148 1 0.5897 -8.02717227332704 1.404365358912317 9.820064498504667 0 0 0
433 145 2 -1.1794 -6.86352976853739 -1.3042888308601341 10.150184912445372 0 0 0
760 254 2 -1.1794 -8.641008779730896 1.663029682260806 12.441889017300033 0 0 0
790 264 2 -1.1794 -10.761115989974973 0.1037192091519259 13.948716728777804 0 0 0
791 264 1 0.5897 -10.660409491443751 -0.8013556822030505 14.243525948056222 0 0 0
792 264 1 0.5897 -11.445254753578757 0.4649892838775749 14.512380373986618 0 0 0
762 254 1 0.5897 -9.074895475260053 2.218806588301687 11.79447896490377 0 0 0
761 254 1 0.5897 -9.315746826857946 1.041583618863557 12.715373758477286 0 0 0
837 279 1 0.5897 -11.31869754443847 0.0285734689931747 12.176013247851637 1 0 0
897 299 1 0.5897 -7.82628293107644 2.3301998800345043 14.182581575180016 0 0 0
865 289 2 -1.1794 -12.6345515900147 1.2614484577988776 15.498898820089362 0 0 0
769 257 2 -1.1794 -12.615279757430066 2.7659836956954305 12.355993553504835 0 0 0
771 257 1 0.5897 -11.835937864008407 2.747329333413534 11.800503656003107 0 0 0
770 257 1 0.5897 -12.276677426448696 2.909681870668475 13.239721858719673 0 0 0
836 279 1 0.5897 -11.256644221812094 -1.1296952130619324 11.203192620359554 1 0 0
835 279 2 -1.1794 -11.34464501849835 -0.1773491926173154 11.241576385915346 1 0 0
896 299 1 0.5897 -7.867524461473796 2.2824136817223213 15.69519339571876 0 0 0
866 289 1 0.5897 -12.531102186060703 1.8132712626223633 16.27414007703976 0 0 0
888 296 1 0.5897 -10.607880931388241 3.097362057415479 15.389020329755963 0 0 0
1100 367 1 0.5897 -9.113922885380461 -1.0573250468335988 17.429844746395535 0 0 0
1099 367 2 -1.1794 -9.91463523868281 -0.5692038673100583 17.237729698446977 0 0 0
1235 412 1 0.5897 -9.204822595704888 -0.5583536876797659 20.46465963035014 0 0 0
1259 420 1 0.5897 -8.883187235119214 1.6818207149722912 19.854971615281098 0 0 0
1258 420 2 -1.1794 -9.164215265340125 2.513882454478333 19.474262049804516 0 0 0
1236 412 1 0.5897 -7.708114360089881 -0.3861878670050327 20.614267778062768 0 0 0
1217 406 1 0.5897 -11.887060756770346 3.2880633343217216 17.80967969774875 0 0 0
1196 399 1 0.5897 -9.707784292628414 1.2744135052527277 16.563216480241714 0 0 0
1234 412 2 -1.1794 -8.536829421102109 0.08475241852300819 20.70227459851452 0 0 0
1246 416 2 -1.1794 -6.308370994855139 -1.3810644841681334 20.213710343869373 0 0 0
1216 406 2 -1.1794 -12.57829561673714 2.6290385758305117 17.874076166129534 0 0 0
1206 402 1 0.5897 -11.339548438889896 -0.1327915223391294 18.49213042824527 0 0 0
1229 410 1 0.5897 -7.708515394331783 3.1028481939051744 18.568288175052306 0 0 0
1260 420 1 0.5897 -9.915850513596986 2.778737198874758 20.00453195617556 0 0 0
1197 399 1 0.5897 -9.427794376562513 2.3842439586567234 17.554029111514883 0 0 0
1009 337 2 -1.1794 -11.166317052240707 3.316250789682689 21.22378449270446 0 -1 0
1101 367 1 0.5897 -10.262537311798763 -0.980556881517062 16.446530182570516 0 0 0
1250 417 1 0.5897 -11.44521347239612 0.37581417963880703 20.870119568223252 0 0 0
1011 337 1 0.5897 -11.89898113166959 3.7942852577284842 20.835197545724828 0 -1 0
1195 399 2 -1.1794 -9.487455250864386 2.204407569827863 16.615755913792263 0 0 0
1249 417 2 -1.1794 -11.546399719427072 0.6728977224452581 21.77441263809665 0 0 0
1247 416 1 0.5897 -5.5765703977694505 -1.0210048736195425 19.71258771393576 0 0 0
1251 417 1 0.5897 -11.39783711534161 1.61763630576527 21.734644530312014 0 0 0
1205 402 1 0.5897 -12.22562479478215 1.0595219791261457 18.78400335646176 0 0 0
57 19 1 0.5897 -13.567079982979983 5.580346889548538 0.25943837338367504 1 0 0
66 22 1 0.5897 -13.70768876595503 3.0623908107303386 1.720175283384006 1 0 0
191 64 1 0.5897 -12.747452540205634 6.082192745568884 3.9125452966547374 1 0 0
56 19 1 0.5897 -12.546700852632403 5.76823438041459 1.361967559834162 1 0 0
65 22 1 0.5897 -12.265651974722736 3.3563060706783805 1.3648538888824013 1 0 0
64 22 2 -1.1794 -12.878314986382208 2.634692010545626 1.5068344720998723 1 0 0
177 59 1 0.5897 -14.395672344249618 4.566469438825335 3.145619671618251 1 0 0
190 64 2 -1.1794 -12.221050677037598 6.881599392918586 3.903488865276407 1 0 0
40 14 2 -1.1794 -15.5323914488519 3.7596150194842206 1.9256475837743134 1 0 0
183 61 1 0.5897 -12.275560230167809 3.5784945607095064 4.1772254267737425 1 0 0
55 19 2 -1.1794 -13.409647346196644 6.063044971677565 1.0708861788691828 1 0 0
162 54 1 0.5897 -14.675044342978438 6.63777246897833 2.5700295658203594 1 0 0
42 14 1 0.5897 -15.933300855690387 4.338857507781032 1.2775504679478216 1 0 0
175 59 2 -1.1794 -13.916318836106132 4.7862162241672355 3.9444996621181283 1 0 0
176 59 1 0.5897 -14.588155557053264 4.821446125262092 4.625442916132977 1 0 0
181 61 2 -1.1794 -11.457182721227728 3.227110835194349 4.528113089720003 1 0 0
192 64 1 0.5897 -11.321092090714181 6.575158771128217 3.7916899195445115 1 0 0
108 36 1 0.5897 -10.06652589488442 2.867480233075117 3.43447582940419 1 0 0
85 29 2 -1.1794 -11.110592886789753 4.812235142714183 1.3314256068446 1 0 0
167 56 1 0.5897 -16.98256690803087 6.521681088165929 3.277139725375036 1 0 0
45 15 1 0.5897 -9.818650053695375 2.338387208417796 0.8457046659907629 1 0 0
182 61 1 0.5897 -11.117739208849885 3.9242429226432236 5.089362707216666 1 0 0
508 170 2 -1.1794 -13.383227546252161 6.289313285634778 7.5328730171116876 1 0 0
458 153 1 0.5897 -10.38135410506859 2.7428565536933593 9.914637931790857 0 0 0
510 170 1 0.5897 -13.615964932318935 7.034968177255861 6.979623866455391 1 0 0
509 170 1 0.5897 -14.221474786143972 5.961171721082199 7.858408274225038 1 0 0
644 215 1 0.5897 -12.383401745262411 6.747447741292927 10.342139170963952 1 0 0
643 215 2 -1.1794 -11.819747466260381 7.2577534569552515 9.76062881906751 1 0 0
636 212 1 0.5897 -15.128328328201482 7.707514551901641 10.162210715564088 1 0 0
521 174 1 0.5897 -10.517180873845335 3.4144292875327498 7.777325834942063 1 0 0
534 178 1 0.5897 -11.986187565616762 4.940950169618331 7.134402508913998 1 0 0
532 178 2 -1.1794 -11.124727928632893 4.805131777312875 6.739753564247085 1 0 0
645 215 1 0.5897 -12.235340185687384 7.187602642106119 8.901190838765963 1 0 0
533 178 1 0.5897 -10.74111009323518 5.68086939441355 6.6935725025081565 1 0 0
543 181 1 0.5897 -10.300780410841408 6.230736877262704 9.894371178043333 0 0 0
459 153 1 0.5897 -10.063691213464477 4.0193401272875455 10.663946817740884 0 0 0
518 173 1 0.5897 -16.654977071285252 7.6569610873726415 7.990286436344889 1 0 0
457 153 2 -1.1794 -10.30454397300731 3.1027415620183056 10.798271182876697 0 0 0
520 174 2 -1.1794 -10.451560894794108 2.5233840784019623 8.120770336560446 1 0 0
519 173 1 0.5897 -16.420469211922402 7.294033772271812 6.539342659203164 1 0 0
900 300 1 0.5897 -14.603439719835468 7.664595202799861 14.686187761381465 0 0 0
898 300 2 -1.1794 -13.829510769986548 7.385540760446068 14.19684102388095 0 0 0
894 298 1 0.5897 -10.46132424879518 7.8798399166711 12.794330421829953 0 0 0
887 296 1 0.5897 -10.179813657830628 4.217979784158764 14.465486822322983 0 0 0
899 300 1 0.5897 -13.645521972079178 6.5039543966781554 14.521142241923048 0 0 0
945 315 1 0.5897 -13.920104586823237 7.031146551033762 12.196456845994248 1 0 0
874 292 2 -1.1794 -13.467493523870413 4.966094301071342 15.164100300592912 0 0 0
876 292 1 0.5897 -12.628326726282195 4.573553555721505 14.923221224983607 0 0 0
875 292 1 0.5897 -14.105234974879624 4.262704850274202 15.04258508898364 0 0 0
944 315 1 0.5897 -14.46071156413846 5.849855156108214 11.41919478242837 1 0 0
848 283 1 0.5897 -14.050115052550229 3.793555293495407 11.783823343190948 1 0 0
886 296 2 -1.1794 -10.951694267779942 3.7392986889727187 14.767742022103674 0 0 0
943 315 2 -1.1794 -14.028382094445963 6.696355863023825 11.306268956187676 1 0 0
965 322 1 0.5897 -16.434439852001685 8.238143632175815 12.392256060117658 1 0 0
1043 348 1 0.5897 -12.02977064660696 8.44434169026871 19.757232284121972 0 -1 0
1208 403 1 0.5897 -12.068504409985323 5.968930526244728 17.77699737158333 0 0 0
1003 335 2 -1.1794 -13.651702510208894 4.8309781680082615 20.362196989777306 0 -1 0
1207 403 2 -1.1794 -12.922240620396284 6.2931023654783225 17.48997245862219 0 0 0
1018 340 2 -1.1794 -11.683858559896088 6.8527184418667755 20.770935519781236 0 -1 0
1019 340 1 0.5897 -12.266903760245098 6.09636128028469 20.835891778473215 0 -1 0
1020 340 1 0.5897 -10.82320750762116 6.477135771049037 20.585132438435824 0 -1 0
1030 344 2 -1.1794 -9.406189284838797 5.919115511438589 20.211930634168617 0 -1 0
1237 413 2 -1.1794 -10.63979994625226 4.691882326184661 17.916734279189257 0 0 0
988 330 2 -1.1794 -14.901073336747764 7.348496922940134 18.886580591391663 0 -1 0
1239 413 1 0.5897 -9.992011986684192 4.880535849550366 17.237708770995546 0 0 0
1238 413 1 0.5897 -10.153653573367587 4.762139416270598 18.738322849607204 0 0 0
990 330 1 0.5897 -14.239378706418508 6.964779804709549 18.31109002036616 0 -1 0
1032 344 1 0.5897 -9.009878368813215 5.286848223481627 20.811476790719777 0 -1 0
1209 403 1 0.5897 -13.222149126380446 5.646433264980557 16.85115560808007 0 0 0
980 327 1 0.5897 -12.623977607818443 8.09195491588306 16.702352199876113 0 -1 0
1035 345 1 0.5897 -14.61671872823381 8.773565482319126 21.718258608021728 0 -1 0
1034 345 1 0.5897 -14.694194402600012 7.625335974935764 20.73470315226985 0 -1 0
989 330 1 0.5897 -14.982799570707739 8.254196519410462 18.587866317414605 0 -1 0
43 15 2 -1.1794 -7.70230215312033 4.485100620955405 21.76953102248275 1 0 -1
1033 345 2 -1.1794 -14.808044861373926 7.837443065351094 21.661146605974956 0 -1 0
1031 344 1 0.5897 -8.664568823066402 6.3055858986696105 19.746168150230975 0 -1 0
174 58 1 0.5897 -16.763072356945244 9.901801670088767 1.5508529043082575 1 0 0
173 58 1 0.5897 -15.343466313528317 10.424874893439435 1.6075696239879136 1 0 0
172 58 2 -1.1794 -15.851295774071545 9.613597929047943 1.5948809076923156 1 0 0
161 54 1 0.5897 -15.24903672670153 8.030393506810737 2.4183701219973943 1 0 0
289 97 2 -1.1794 -14.428419376061841 10.345689380075337 4.907216065998757 1 0 0
285 95 1 0.5897 -16.972254708644044 11.221637355153428 3.200801193852732 1 0 0
148 50 2 -1.1794 -18.535612886588616 10.615465986767736 1.7009988078691285 1 0 0
215 72 1 0.5897 -12.803881157953278 8.285608577658321 3.064669447997757 1 0 0
283 95 2 -1.1794 -16.81495398949626 11.497963903565532 4.103660085349912 1 0 0
291 97 1 0.5897 -15.226910983975346 10.83979630275021 4.721242268962344 1 0 0
153 51 1 0.5897 -13.166370383936972 9.197451093063291 0.9177852790439871 1 0 0
284 95 1 0.5897 -17.661693686756678 11.393179589747314 4.537678630238647 1 0 0
150 50 1 0.5897 -18.975447895941258 11.285471380139539 1.177629676405729 1 0 0
193 65 2 -1.1794 -14.220577629783062 11.889399850834314 1.6576325674465797 1 0 0
216 72 1 0.5897 -13.313792165996286 9.657909781162607 3.4501519116960284 1 0 0
151 51 2 -1.1794 -13.08458145876715 8.638807582837005 0.1448394694957381 1 0 0
152 51 1 0.5897 -13.340243962022345 7.768270455281177 0.44982713096837224 1 0 0
214 72 2 -1.1794 -12.897845478643156 9.17874228358175 2.7334723141305926 1 0 0
525 175 1 0.5897 -11.668619482449003 7.996337921918398 5.275453195750904 1 0 0
206 69 1 0.5897 -15.016543507701133 7.450076043232704 4.627144236590011 1 0 0
160 54 2 -1.1794 -15.32028930374166 7.235772368205835 2.9472570627739656 1 0 0
1118 373 1 0.5897 -15.903307840074884 8.489513818217707 0.1496034021747392 0 -1 1
207 69 1 0.5897 -14.818127058492399 8.725622297997534 5.417972595400684 1 0 0
205 69 2 -1.1794 -15.041941612086895 7.800322014568556 5.517606497774371 1 0 0
640 214 2 -1.1794 -14.103270126673815 12.077467916133513 7.284626636104297 1 0 0
566 189 1 0.5897 -13.475948441504727 9.705519994146693 10.03975588624211 0 0 0
630 210 1 0.5897 -12.941680239431518 9.268068098588943 7.4800729034174465 1 0 0
629 210 1 0.5897 -13.793390124593044 10.41166412850628 7.988664850996596 1 0 0
628 210 2 -1.1794 -13.500736971828275 9.528148483690233 8.212236542314024 1 0 0
635 212 1 0.5897 -14.766267490495988 8.429577757643342 8.881768066104497 1 0 0
642 214 1 0.5897 -14.92450713269198 12.521631907196644 7.073420497225502 1 0 0
290 97 1 0.5897 -13.99892627507482 10.838018816421874 5.606780107820906 1 0 0
325 109 2 -1.1794 -13.090130721115813 12.621594526721013 10.110310676702605 0 -1 0
641 214 1 0.5897 -13.433502775218962 12.75525348736929 7.193692760713451 1 0 0
617 206 1 0.5897 -17.281012103218835 12.806899893409353 7.486838047097719 1 0 0
327 109 1 0.5897 -13.896445429741606 12.957961689273427 9.719117595521888 0 -1 0
624 208 1 0.5897 -17.163138793421513 9.026355728403336 9.572013983129068 1 0 0
634 212 2 -1.1794 -15.513919151388109 8.18289829147522 9.426261208989393 1 0 0
567 189 1 0.5897 -13.310828198505735 10.931134100558333 10.912918879296967 0 0 0
565 189 2 -1.1794 -13.369593156250561 9.976548377722784 10.951609822447681 0 0 0
683 228 1 0.5897 -16.684487735928812 13.678170993870276 13.950499182077072 0 -1 0
877 293 2 -1.1794 -15.548570155716323 9.77622806929219 12.75868471633953 0 0 0
658 220 2 -1.1794 -16.05238312829683 12.171522943052972 14.939916249764606 0 -1 0
672 224 1 0.5897 -13.554823455944597 9.887210633031993 15.481398642502368 0 -1 0
671 224 1 0.5897 -13.187249763984196 10.942278081609663 14.459792952623 0 -1 0
670 224 2 -1.1794 -13.929775534387641 10.440437229521889 14.796098508917014 0 -1 0
660 220 1 0.5897 -15.279533286128949 11.607992991958747 14.901994769751402 0 -1 0
879 293 1 0.5897 -14.884610135955601 9.93691507829501 12.088142504811058 0 0 0
878 293 1 0.5897 -15.051943013560347 9.690920573265105 13.572555955199617 0 0 0
956 319 1 0.5897 -16.986966764393195 11.046070457927511 12.203440431711424 1 0 0
870 290 1 0.5897 -12.211448497236905 9.294049120136448 12.276207033386937 0 0 0
868 290 2 -1.1794 -11.831000578395251 8.77447353747173 12.984435616330101 0 0 0
680 227 1 0.5897 -11.088289042102259 9.512996589710434 15.778175801196033 0 -1 0
659 220 1 0.5897 -16.768233468095538 11.581638143324648 15.176279263219781 0 -1 0
955 319 2 -1.1794 -17.789007336479585 11.373417527696008 11.796135230352652 1 0 0
869 290 1 0.5897 -12.585865292028153 8.415259049641636 13.450736164638164 0 0 0
728 243 1 0.5897 -17.731729944642453 12.966278224902611 10.933125444637428 1 -1 0
1022 341 1 0.5897 -12.95206859111467 11.927074535709233 18.63934459346732 0 -1 0
991 331 2 -1.1794 -15.696874549673003 13.653040302042468 17.355244972333384 0 -1 0
992 331 1 0.5897 -14.784134450633239 13.516600321207664 17.6094735923868 0 -1 0
981 327 1 0.5897 -12.614198571637319 9.266861959113543 17.65695731291212 0 -1 0
1119 373 1 0.5897 -14.699554970252647 11.138981410384682 20.800315910902 0 -1 0
1044 348 1 0.5897 -12.879188939409053 9.627987077192829 20.16880304820757 0 -1 0
1117 373 2 -1.1794 -14.094114732775104 10.531167793836767 21.224933503360603 0 -1 0
1126 376 2 -1.1794 -14.71609409509899 14.148234702326421 20.44298042761153 0 -1 0
1127 376 1 0.5897 -15.371506226393722 13.454707695333598 20.3674203433586 0 -1 0
993 331 1 0.5897 -15.750323570473803 13.314250510064936 16.46160501333661 0 -1 0
1000 334 2 -1.1794 -15.471045046033138 9.864717436948728 17.80340884450533 0 -1 0
1138 380 2 -1.1794 -12.227522387167133 12.95482757855005 20.06133397523947 0 -1 0
1042 348 2 -1.1794 -12.247971764524364 9.342459357743477 19.508264416816854 0 -1 0
1023 341 1 0.5897 -12.97174707577016 12.111954460722911 17.13687495114871 0 -1 0
1001 334 1 0.5897 -14.779417301528245 10.507000796190235 17.644071377346034 0 -1 0
1021 341 2 -1.1794 -13.49512874636877 11.77777102792036 17.865345193458147 0 -1 0
1128 376 1 0.5897 -13.905677636358103 13.748046180768364 20.127737012700745 0 -1 0
1013 338 1 0.5897 -10.826019531436184 10.212400023324689 18.673182575249292 0 -1 0
1140 380 1 0.5897 -11.652334222465264 12.328578873847098 20.50094854164526 0 -1 0
1111 371 2 -1.1794 -16.500968340358703 12.03602347901302 20.38798788873531 0 -1 0
1002 334 1 0.5897 -16.219328204797137 10.385223355434741 18.09570097126498 0 -1 0
979 327 2 -1.1794 -12.506288677318928 9.041368583749469 16.732969726340787 0 -1 0
1098 366 1 0.5897 -17.516146221287894 14.027669532598415 18.400181252285023 0 -1 0
650 217 1 0.5897 -15.797702983245916 8.743245499881263 16.48751191979711 0 -1 0
241 81 2 -1.1794 -1.0690681647035305 -6.641238312309987 5.3686935646164775 0 1 0
311 104 1 0.5897 -2.676470666824155 -8.225608742880254 3.324946011952625 1 1 0
305 102 1 0.5897 -1.3884283033786282 -6.104121562534173 2.3502320375648607 1 1 0
304 102 2 -1.1794 -1.5064864897950603 -7.040182391141116 2.5116546452093846 1 1 0
316 106 2 -1.1794 -1.877747740508795 -4.407041068794543 1.31026715769087 1 1 0
242 81 1 0.5897 -1.192306552513534 -6.9388533952747 4.46731231347159 0 1 0
306 102 1 0.5897 -0.8127826433645282 -7.460677996672575 2.003482911087551 1 1 0
293 98 1 0.5897 -5.175246328558474 -3.8567798456750344 2.41514101542512 1 1 0
318 106 1 0.5897 -2.7917415381778135 -4.1440077979542425 1.4186749896510704 1 1 0
310 104 2 -1.1794 -3.3102600892886924 -8.491006878052685 3.9913949122129213 1 1 0
243 81 1 0.5897 -0.8129930653448252 -5.722727671735484 5.28522511071285 0 1 0
300 100 1 0.5897 -4.813484845838708 -7.608361443123076 4.427606480704903 1 1 0
199 67 2 -1.1794 0.4253032821488798 -8.01441320725932 0.7021406267507152 1 1 0
1 1 2 -1.1794 -0.654592581153727 -4.073876442940198 4.774125927086863 0 0 0
3 1 1 0.5897 -1.4321326390440206 -3.7284444429109467 4.335459934499319 0 0 0
348 116 1 0.5897 -1.405790583670088 -6.883989268481572 10.26339643589267 0 0 0
347 116 1 0.5897 -0.9358140007190254 -5.94674527197977 9.171311931076461 0 0 0
346 116 2 -1.1794 -1.6808177925683978 -6.485565601180101 9.437623548715333 0 0 0
336 112 1 0.5897 -3.2936102684197825 -5.369836968899802 9.684896426802196 0 0 0
546 182 1 0.5897 0.292080992685932 -7.3117285882169325 6.432489843061953 0 1 0
334 112 2 -1.1794 -4.018463568351004 -4.744671471291184 9.679141011719276 0 0 0
631 211 2 -1.1794 -5.178724587141681 -5.296297776883781 6.449864318734305 1 1 0
359 120 1 0.5897 -4.420601146211534 -3.0285216668162462 8.920191213686241 0 0 0
554 185 1 0.5897 -2.5512756802554915 -6.81783986020206 7.961209854770683 0 1 0
555 185 1 0.5897 -2.417923291319566 -6.96664334328524 6.460540286788006 0 1 0
553 185 2 -1.1794 -3.0332919473560427 -7.095737088496502 7.182297007303346 0 1 0
632 211 1 0.5897 -4.616085000738965 -5.896307738590125 6.939476687224839 1 1 0
356 119 1 0.5897 1.3296431884609525 -7.2493598181965195 10.08638433526071 0 0 0
335 112 1 0.5897 -4.795970859572387 -5.280008941848933 9.520492774844191 0 0 0
544 182 2 -1.1794 0.6109188249492803 -7.862196154772844 7.147754387031132 0 1 0
404 135 1 0.5897 -5.240175156690684 -3.700450815498228 5.873653017766507 1 0 0
341 114 1 0.5897 -0.2540796786915873 -3.8523964759541904 7.979783478478183 0 0 0
340 114 2 -1.1794 0.06399006746724822 -4.7178605655037416 8.236667306383794 0 0 0
787 263 2 -1.1794 -4.07024881271732 -4.539566705896037 14.810483913519814 0 0 0
676 226 2 -1.1794 -3.007554241796271 -7.050307580119518 12.219586320773715 0 0 0
793 265 2 -1.1794 -1.7403080385195207 -6.0016932232992115 15.662497592012903 0 0 0
795 265 1 0.5897 -2.519531984212108 -5.607026741374668 15.270903073669912 0 0 0
657 219 1 0.5897 -0.042163801528495526 -7.426016927012302 12.154457795296382 0 0 0
699 233 1 0.5897 -0.6824244572695815 -4.428182134936 11.692155201927642 0 0 0
667 223 2 -1.1794 -3.6815847599072082 -3.1673084042053743 11.906878815133968 0 0 0
697 233 2 -1.1794 -1.3023110613607969 -4.532499525175709 12.414058389324328 0 0 0