LAMMPS data file via write_data, version 30 Jul 2021, timestep = 25000000

1296 atoms
2 atom types
864 bonds
1 bond types
432 angles
1 angle types

-10.594928926036296 12.574928926036296 xlo xhi
-9.059306965362673 12.049304965362673 ylo yhi
0.13979171427840065 21.720207285717528 zlo zhi
-8.997232023701777 1.8565247475002549 2.6738755947062263 xy xz yz

Masses

1 1.008
2 15.999

Pair Coeffs # lj/cut/tip4p/long/omp

1 0 0
2 0.21084 3.1668

Bond Coeffs # harmonic/omp

1 450 0.9572

Angle Coeffs # harmonic/omp

1 55 104.52

Atoms # full

259 87 2 -1.1794 -6.466127155150596 -5.254079877344452 0.303758827960504 1 1 0
298 100 2 -1.1794 -5.953339662415173 -7.183663510931251 4.2904380606543295 1 1 0
280 94 2 -1.1794 -9.373782079105885 -4.517327238518805 1.47365332191564 1 1 0
299 100 1 0.5897 -6.475120989832493 -7.981280696281593 4.202938370733179 1 1 0
270 90 1 0.5897 -8.393508300403614 -7.394021494377714 2.0322829160759115 1 1 0
163 55 2 -1.1794 -7.16590003102578 -7.829712461990401 0.8875968571977795 1 1 0
164 55 1 0.5897 -6.320546108286014 -8.159690040517727 1.1921873403078396 1 1 0
269 90 1 0.5897 -9.08096237659453 -6.093593207109562 2.3899869806933953 1 1 0
268 90 2 -1.1794 -9.025377574284947 -7.014913869096734 2.6432332910451963 1 1 0
282 94 1 0.5897 -10.26810075662512 -4.217417104208763 1.63669428134003 1 1 0
324 108 1 0.5897 -6.890805837250042 -4.361323906726856 3.627787425556432 1 1 0
73 25 2 -1.1794 -8.293971456672843 -3.8444996535383273 4.678668219885175 1 0 0
314 105 1 0.5897 -8.890748236743011 -6.79472992439624 4.485698594778885 1 1 0
300 100 1 0.5897 -5.050287351267305 -7.493776215262854 4.358531185585148 1 1 0
323 108 1 0.5897 -5.952637703719996 -5.540375884503631 3.481298628491874 1 1 0
281 94 1 0.5897 -8.841038116793516 -3.723942794976425 1.5269352571302204 1 1 0
275 92 1 0.5897 -10.39583276863072 -7.843641399142925 3.2621608283401926 1 1 0
75 25 1 0.5897 -9.09783154307109 -3.4071745323169953 4.397917330593128 1 0 0
315 105 1 0.5897 -8.576311447347186 -5.467071811235285 5.141372879083943 1 1 0
313 105 2 -1.1794 -8.756546434924257 -6.385706371783869 5.340550724735848 1 1 0
74 25 1 0.5897 -7.977888392126824 -3.3176686994871574 5.412582043784548 1 0 0
261 87 1 0.5897 -6.453122549240264 -4.972304991147441 1.2183802249961968 1 1 0
260 87 1 0.5897 -6.777939404875015 -6.158411878949323 0.33570681167115085 1 1 0
322 108 2 -1.1794 -6.25559487811814 -4.753380656999438 3.0285881582365914 1 1 0
165 55 1 0.5897 -7.399229848016429 -8.404281594207536 0.15855220018683697 1 1 0
429 143 1 0.5897 -6.331123785577316 -7.333357823042786 8.586999061744953 1 0 0
428 143 1 0.5897 -6.469473018200947 -7.096501622208985 10.075739526648356 1 0 0
427 143 2 -1.1794 -5.863933666866274 -6.979480038691749 9.343716940994211 1 0 0
419 140 1 0.5897 -8.947945024348648 -5.221176380481442 9.077826959258235 1 0 0
418 140 2 -1.1794 -9.659979424494974 -5.759953001149565 9.42269043924412 1 0 0
413 138 1 0.5897 -7.746089781021777 -3.634171599189962 7.714660868166551 1 0 0
616 206 2 -1.1794 -7.434667578563273 -8.02819179120288 7.219196348332692 1 1 0
420 140 1 0.5897 -9.231504441410811 -6.364635158227596 10.02840806415998 1 0 0
618 206 1 0.5897 -7.832401615092477 -7.452601415575861 6.566036989125482 1 1 0
350 117 1 0.5897 -7.074885983413942 -4.296170179064209 9.794264989922347 0 0 0
414 138 1 0.5897 -6.997447808666777 -4.94226377993513 7.5728556095925805 1 0 0
412 138 2 -1.1794 -7.667821906925759 -4.5069886393789025 8.099530841620165 1 0 0
627 209 1 0.5897 -10.332306835151165 -6.681616360030216 6.201002500017988 1 1 0
349 117 2 -1.1794 -6.906184950512655 -4.182073707818088 10.729477428445247 0 0 0
351 117 1 0.5897 -6.878172607787214 -3.233559840400522 10.854289894531707 0 0 0
631 211 2 -1.1794 -5.690781449657486 -5.529428202410724 6.53405713965101 1 1 0
633 211 1 0.5897 -6.183664130093424 -6.133341196128047 5.978660177043355 1 1 0
626 209 1 0.5897 -10.685080360908765 -6.318520746591302 7.6276642482683545 1 1 0
684 228 1 0.5897 -8.615039773697081 -6.4456296401513 14.491350816540084 0 0 0
740 247 1 0.5897 -10.769485536073832 -3.3909399778404232 11.914268288249971 1 0 0
652 218 2 -1.1794 -5.664791967279477 -5.604692907303395 12.779425473937959 0 0 0
682 228 2 -1.1794 -7.887549023381853 -6.792292772064684 13.974765719385552 0 0 0
780 260 1 0.5897 -7.39605802592895 -4.096611915955806 15.19442655626872 0 0 0
779 260 1 0.5897 -6.985378994379031 -3.0467472519021914 14.184136911364963 0 0 0
778 260 2 -1.1794 -7.754561576206465 -3.4651489792622288 14.57085664622268 0 0 0
768 256 1 0.5897 -9.335000879782953 -2.509388664598144 14.766248383403111 0 0 0
654 218 1 0.5897 -6.045369500609392 -5.085056993253918 12.071433020534254 0 0 0
653 218 1 0.5897 -6.419635792796576 -5.945805721158303 13.259128371557102 0 0 0
661 221 2 -1.1794 -9.27155274607735 -4.3640998787230325 12.281643212787857 0 0 0
766 256 2 -1.1794 -10.212526493230735 -2.134364595084941 14.841242403277606 0 0 0
662 221 1 0.5897 -8.805988200859103 -4.148017033957579 13.08953097202946 0 0 0
663 221 1 0.5897 -8.604479359860317 -4.3064329922269655 11.597581958170597 0 0 0
788 263 1 0.5897 -4.7250259117444 -4.735744687976588 15.518499314228226 0 0 0
729 243 1 0.5897 -8.010235654743123 -6.847616581433168 11.976310542190001 1 0 0
757 253 2 -1.1794 -9.774011982075919 -5.7781635402840426 15.598779643076742 0 0 0
767 256 1 0.5897 -10.799480598921043 -2.890017774293228 14.81659116993332 0 0 0
727 243 2 -1.1794 -7.973910648053664 -7.214557275953467 11.09305978262244 1 0 0
1219 407 2 -1.1794 -10.290866908852735 -2.031160439450515 20.056722784732862 0 0 0
1121 374 1 0.5897 -4.928792083710247 -3.416974712454035 18.566822611305582 0 0 0
1097 366 1 0.5897 -8.93535393896398 -5.707900667908606 18.595314381700376 0 0 0
1248 416 1 0.5897 -5.732767287679168 -1.7290285644615278 20.713984360226853 0 0 0
1152 384 1 0.5897 -6.9814208812006395 -3.987408584007916 19.88706816483272 0 0 0
1225 409 2 -1.1794 -8.313765468826361 -3.5413383599562653 21.071485778719897 0 0 0
1227 409 1 0.5897 -9.047591584995498 -3.0937615972474006 20.650294426257553 0 0 0
1109 370 1 0.5897 -8.716401679143274 -3.4300111589754643 17.62190955111575 0 0 0
1108 370 2 -1.1794 -9.332291983754004 -4.1610486741656185 17.671038227919134 0 0 0
1089 363 1 0.5897 -6.473466719240759 -4.9385207104090565 17.32445232607153 0 0 0
1087 363 2 -1.1794 -6.405813367716805 -5.23026358302818 16.4153783692199 0 0 0
1129 377 2 -1.1794 -7.624486024767841 -1.8256128070093443 17.781441861290602 0 0 0
1096 366 2 -1.1794 -8.90318015726353 -6.622529386614244 18.875418331223557 0 0 0
1151 384 1 0.5897 -6.316101384413573 -5.313040706223922 19.58425847466821 0 0 0
1150 384 2 -1.1794 -6.472898250641811 -4.443420738815343 19.216503747248673 0 0 0
1130 377 1 0.5897 -7.146670610686 -1.78642818634348 18.609870275764393 0 0 0
1088 363 1 0.5897 -6.784083200338437 -6.109460583268664 16.416766636783052 0 0 0
1110 370 1 0.5897 -10.17998490718126 -3.7498949217069057 17.840394269389293 0 0 0
1142 381 1 0.5897 -8.622561873386072 -6.48067182451269 20.708771286318168 0 0 0
1143 381 1 0.5897 -8.40127724153854 -5.251543924509277 21.564189333164755 0 0 0
1141 381 2 -1.1794 -8.568316917832211 -6.192316515467644 21.61981450268714 0 0 0
1221 407 1 0.5897 -10.801767921898715 -2.135128955322921 19.254036658751772 0 0 0
1226 409 1 0.5897 -7.9592735583169905 -2.8969842541247735 21.68404233106815 0 0 0
758 253 1 0.5897 -9.529409074431534 -5.216325909855904 16.3340221604317 0 0 0
1249 417 2 -1.1794 -13.104764829685484 -1.8719342503171772 0.23769900850584197 0 0 1
69 23 1 0.5897 -10.975859267847465 -2.711764414065871 3.364410953220103 1 0 0
272 91 1 0.5897 -9.356926051098565 -1.2577823784679563 1.116789524049275 1 1 0
271 91 2 -1.1794 -10.150485480001471 -0.9075655068258701 0.711998358492267 1 1 0
82 28 2 -1.1794 -8.891146059589767 -0.19898125250462684 4.191396218342217 1 0 0
107 36 1 0.5897 -8.95996375297728 1.3569277921611 3.2661607647782427 1 0 0
258 86 1 0.5897 -12.15388020456982 -2.820902805121886 1.4669437387958133 1 1 0
83 28 1 0.5897 -9.571017132684206 -0.8520752001839185 4.357013078026772 1 0 0
67 23 2 -1.1794 -10.53608402727974 -2.3763098134988807 4.145554648976308 1 0 0
256 86 2 -1.1794 -11.851009710368986 -3.460588624196724 2.1112838487962615 1 1 0
68 23 1 0.5897 -11.178459312639431 -2.483258911877736 4.847094718527039 1 0 0
52 18 2 -1.1794 -12.042009077839225 0.13299039557250225 2.603173223294236 1 0 0
98 33 1 0.5897 -11.728058296707278 0.46365681782629764 4.517287104625479 1 0 0
53 18 1 0.5897 -12.160509804504857 1.0170728076221671 2.256159981427193 1 0 0
54 18 1 0.5897 -11.363253965688411 -0.25313315998445773 2.049590829411841 1 0 0
301 101 2 -1.1794 -7.857360879407013 -2.3040140216327964 1.554000872503592 1 1 0
44 15 1 0.5897 -9.804712149038428 0.8049032583974398 0.2538078485466121 1 0 0
99 33 1 0.5897 -11.474449933452636 1.706260317038339 5.3437763368569815 1 0 0
84 28 1 0.5897 -8.068925290704119 -0.6628081702841175 4.349816511842643 1 0 0
97 33 2 -1.1794 -11.758924449666779 0.7951543931506375 5.414649052960768 1 0 0
59 20 1 0.5897 -13.402176776336265 -0.808091831977757 3.468357354353738 1 0 0
1251 417 1 0.5897 -13.062010882894398 -0.9199508413025583 0.14857949156749237 0 0 1
273 91 1 0.5897 -10.461539504369682 -1.6125701080389554 0.14429538619842727 1 1 0
527 176 1 0.5897 -11.797941341961447 1.5968379638207022 8.952045019547391 1 0 0
526 176 2 -1.1794 -12.46868179164445 1.0325591895605015 9.336625758632238 1 0 0
426 142 1 0.5897 -8.710868047657826 -1.7951030236265186 6.9634896020698305 1 0 0
417 139 1 0.5897 -8.783798735117422 1.1403101725065152 5.636403340844433 1 0 0
424 142 2 -1.1794 -7.830103408795348 -2.1250006751424637 6.785302111002892 1 0 0
402 134 1 0.5897 -10.765388745021978 -0.0938284135403542 6.7866101333616875 1 0 0
401 134 1 0.5897 -11.021733482525459 -1.3492282469322614 7.592683249234214 1 0 0
400 134 2 -1.1794 -10.316584887238252 -0.8178648730669273 7.223039033066326 1 0 0
537 179 1 0.5897 -9.10647619300407 -0.23830536068774144 8.480190155015944 1 0 0
536 179 1 0.5897 -9.368223534780457 -0.30406695682707685 9.969747819684052 1 0 0
535 179 2 -1.1794 -8.667763059507479 -0.18150533784264233 9.328973107169672 1 0 0
528 176 1 0.5897 -11.976809847969438 0.3858710691855549 9.84258564301416 1 0 0
435 145 1 0.5897 -7.3235300704914446 -1.1099285623002215 9.921714170361374 0 0 0
411 137 1 0.5897 -13.255211492322992 0.4643934834922021 6.385904150643702 1 0 0
522 174 1 0.5897 -9.760965617056511 2.281965699903676 7.465116010048346 1 0 0
410 137 1 0.5897 -13.438034703500874 0.5381105423778045 7.886822999085784 1 0 0
425 142 1 0.5897 -7.264381695195535 -1.357753187260239 6.8713823840768296 1 0 0
415 139 2 -1.1794 -8.538409457715758 1.6884167645935175 6.381685491376887 1 0 0
433 145 2 -1.1794 -6.601331764242802 -1.5381290974514767 10.38137656071126 0 0 0
790 264 2 -1.1794 -10.811160084139804 0.29356156743173933 13.612303922998157 0 0 0
769 257 2 -1.1794 -12.23442044867925 2.721546751003972 12.262768974198364 0 0 0
762 254 1 0.5897 -8.9870177505201 2.1111411427240405 11.885037128528559 0 0 0
761 254 1 0.5897 -9.335840334739807 1.1602526133500106 13.010072531655517 0 0 0
760 254 2 -1.1794 -8.603221161562635 1.6414844248253324 12.62547265388467 0 0 0
896 299 1 0.5897 -8.041550728645836 2.6994051015480043 15.390689156732556 0 0 0
792 264 1 0.5897 -11.4569884853793 0.7467997088836107 14.154268722119628 0 0 0
866 289 1 0.5897 -12.461311686205697 1.5588391034918114 16.2233261688559 0 0 0
837 279 1 0.5897 -10.887378789221517 -0.1980391062679736 11.941783445060087 1 0 0
791 264 1 0.5897 -10.712549107970565 -0.564876615298374 14.023915710317759 0 0 0
888 296 1 0.5897 -10.427737618152856 3.0884608854127062 15.100665693731447 0 0 0
835 279 2 -1.1794 -10.955384801171785 -0.5083852587849993 11.038923556534979 1 0 0
771 257 1 0.5897 -11.54178611153006 2.6012766233657576 11.613116068194595 0 0 0
836 279 1 0.5897 -11.028171229828962 -1.459515439202968 11.116972422492974 1 0 0
865 289 2 -1.1794 -12.746708485535489 1.10884161456522 15.428252971700003 0 0 0
1101 367 1 0.5897 -10.171041062609245 -1.126427317041201 16.28565650736106 0 0 0
1009 337 2 -1.1794 -11.067410410814391 3.4453346173903867 20.840726719994443 0 -1 0
1260 420 1 0.5897 -9.576695750790227 2.971860098488756 19.718753692340357 0 0 0
1246 416 2 -1.1794 -6.217533754285483 -1.2713963989385473 20.027168644550535 0 0 0
1259 420 1 0.5897 -8.747733911321156 1.7413095664076046 19.41825525270741 0 0 0
1258 420 2 -1.1794 -9.002338754593636 2.589551506117001 19.055294393457018 0 0 0
1205 402 1 0.5897 -12.157267366920575 1.1101900531112268 18.378006991303224 0 0 0
1195 399 2 -1.1794 -9.5487940368917 2.0960928790018976 16.450779642301434 0 0 0
1218 406 1 0.5897 -12.993775438576467 3.2389585868912434 17.61395986499746 0 0 0
1236 412 1 0.5897 -7.7101400293330595 -0.2153227573039338 19.932614360118492 0 0 0
1216 406 2 -1.1794 -12.224229369277472 2.6697057169187275 17.610834109109895 0 0 0
1235 412 1 0.5897 -9.145879037924896 -0.6940054568223104 19.972500638819675 0 0 0
1234 412 2 -1.1794 -8.611399076448686 0.09940422564557494 20.003350850016623 0 0 0
1099 367 2 -1.1794 -9.896215274144886 -0.5179787186272513 16.971469556757633 0 0 0
1100 367 1 0.5897 -9.08277791079603 -0.8909101904378165 17.3113346759421 0 0 0
1206 402 1 0.5897 -11.207119382408676 -0.06773391221057423 18.416772988130163 0 0 0
1131 377 1 0.5897 -6.966981343039059 -1.6244065587814713 17.1155232839904 0 0 0
1197 399 1 0.5897 -9.309290440127988 2.3040520940892915 17.353821591341465 0 0 0
1011 337 1 0.5897 -11.783139511064222 3.9328439579468846 20.43294041940993 0 -1 0
1250 417 1 0.5897 -11.370242805722649 0.48248633787644835 20.92415903680252 0 0 0
1010 337 1 0.5897 -10.752779446543228 4.019802541872721 21.538631662031904 0 -1 0
1196 399 1 0.5897 -9.570007466292196 1.1396493032833153 16.422337268926313 0 0 0
1204 402 2 -1.1794 -11.930679482975474 0.3372502269476172 18.89502367835147 0 0 0
1217 406 1 0.5897 -11.481262200524599 3.270610133213676 17.554976703456397 0 0 0
40 14 2 -1.1794 -14.862355498797445 3.822067505110665 1.8896381984086026 1 0 0
177 59 1 0.5897 -13.700764121776391 4.434556821955056 3.0646478104012727 1 0 0
42 14 1 0.5897 -15.378242874007402 4.341550570798496 1.2730789147437904 1 0 0
190 64 2 -1.1794 -11.797272757282954 7.028419407659413 3.907081165629719 1 0 0
175 59 2 -1.1794 -13.306769898669941 4.813982876711943 3.8500842384202607 1 0 0
55 19 2 -1.1794 -13.04504982739801 6.315930798774634 0.8458774502777616 1 0 0
56 19 1 0.5897 -12.294930827610466 5.830883314886654 1.18980736768192 1 0 0
66 22 1 0.5897 -13.403308253106069 3.0013546788597854 1.3629857668572496 1 0 0
65 22 1 0.5897 -11.913016378525487 3.2585548947064034 1.433598483648577 1 0 0
64 22 2 -1.1794 -12.55652338807058 2.5552403687315675 1.3476322616109058 1 0 0
85 29 2 -1.1794 -10.859108743156582 4.761671384209862 1.5157638447790533 1 0 0
45 15 1 0.5897 -9.416554624806759 1.992539623712359 1.1084021613715298 1 0 0
191 64 1 0.5897 -12.366664606673494 6.262856541644151 3.983441085091907 1 0 0
108 36 1 0.5897 -9.840873710841167 2.54552751560904 3.5870816501710547 1 0 0
183 61 1 0.5897 -11.830612227901875 3.8715753474209507 4.364365843666729 1 0 0
181 61 2 -1.1794 -11.012905827990284 3.4597009523950035 4.643627051899538 1 0 0
176 59 1 0.5897 -13.995144458242219 4.761429710788814 4.513140150794636 1 0 0
162 54 1 0.5897 -14.241703548674241 6.798126567179063 2.113426875791577 1 0 0
43 15 2 -1.1794 -9.557948154770486 1.7280556705635792 0.19947462468681212 1 0 0
167 56 1 0.5897 -16.21788290873846 5.96541169459584 3.336638871229402 1 0 0
41 14 1 0.5897 -15.509199246829318 3.2966949168313295 2.360575933344911 1 0 0
57 19 1 0.5897 -13.401933173272777 5.751485845579561 0.16022264411992082 1 0 0
182 61 1 0.5897 -10.811658491394601 3.8713043805808134 5.483962987634655 1 0 0
86 29 1 0.5897 -10.596623357170207 4.947170020989542 2.417314737357122 1 0 0
1033 345 2 -1.1794 -16.423850938197166 5.3488226379941 0.177188756259083 0 -1 1
1035 345 1 0.5897 -16.205718539087044 6.280513317650362 0.1977317849070583 0 -1 1
508 170 2 -1.1794 -13.47360083716563 6.31263918853832 7.331616605331169 1 0 0
645 215 1 0.5897 -12.38442459376906 7.1159939685555145 8.721164810334248 1 0 0
644 215 1 0.5897 -12.647374402430726 6.9376079911935555 10.201254686172902 1 0 0
643 215 2 -1.1794 -11.957491064145277 7.161505088679668 9.576607017217338 1 0 0
509 170 1 0.5897 -14.169905654115308 5.7426055903901165 7.657850081378078 1 0 0
518 173 1 0.5897 -16.428422371563144 7.351645120925607 7.848032322198109 1 0 0
532 178 2 -1.1794 -11.026285911000599 5.090032378303315 7.038064642362444 1 0 0
457 153 2 -1.1794 -10.020873593784227 3.108255957291135 10.628362882188844 0 0 0
510 170 1 0.5897 -13.91163607867467 6.895680404382512 6.711685818241047 1 0 0
534 178 1 0.5897 -11.816398906113523 5.625554168412812 7.110275403631981 1 0 0
521 174 1 0.5897 -10.641690463654948 3.4881766982613183 7.712389599886795 1 0 0
543 181 1 0.5897 -10.439628195400877 6.0666961097129946 9.820527023475986 0 0 0
533 178 1 0.5897 -10.307383427731 5.721966509716774 7.034615492117987 1 0 0
519 173 1 0.5897 -16.17384611589153 7.399925437976954 6.356559793885074 1 0 0
458 153 1 0.5897 -10.077445083525692 2.897197064659659 9.696510966054158 0 0 0
636 212 1 0.5897 -15.06020206759743 7.391460610941884 9.818575763707312 1 0 0
459 153 1 0.5897 -9.798832696277737 4.038985900496655 10.65053771295694 0 0 0
475 159 2 -1.1794 -15.353933119021299 4.216969133271347 5.635257636959547 1 0 0
477 159 1 0.5897 -15.444659827333219 4.583638089542671 6.514705908615413 1 0 0
520 174 2 -1.1794 -10.506002395191334 2.581199941782941 7.9863266267067 1 0 0
887 296 1 0.5897 -10.169475670604662 4.19724161504034 14.102951706190522 0 0 0
874 292 2 -1.1794 -13.386825176072914 4.870119021348504 15.091189895500046 0 0 0
876 292 1 0.5897 -12.532685210567937 4.458166640656918 14.960652209612325 0 0 0
848 283 1 0.5897 -13.87274599795903 3.3366589165830156 11.943679250396555 1 0 0
945 315 1 0.5897 -14.096325752996755 6.861888646624918 11.87001954456551 1 0 0
943 315 2 -1.1794 -14.224680412688109 6.463735859743155 11.009154412591691 1 0 0
900 300 1 0.5897 -14.697575182414456 7.636393446039179 14.306336417958285 0 0 0
899 300 1 0.5897 -13.671997432679216 6.535314318209691 14.139989322880123 0 0 0
898 300 2 -1.1794 -13.971200546697835 7.356286684392558 13.749381764461688 0 0 0
869 290 1 0.5897 -12.561812415534195 8.181967396365643 13.16897023620577 0 0 0
944 315 1 0.5897 -14.28192073795224 5.524709263303551 11.185219147164775 1 0 0
886 296 2 -1.1794 -10.874617768575614 3.7434445885959367 14.564553886544656 0 0 0
875 292 1 0.5897 -13.989946668137375 4.137634016744409 15.216969611536584 0 0 0
965 322 1 0.5897 -16.144163945938466 8.125361464523063 12.517441608073868 1 0 0
770 257 1 0.5897 -11.789120755506806 3.099571238220099 13.020999316837191 0 0 0
1018 340 2 -1.1794 -11.587224263098088 7.3451138761631505 20.314004932769635 0 -1 0
1019 340 1 0.5897 -12.185380743353752 6.601660001167652 20.239019496429968 0 -1 0
1020 340 1 0.5897 -10.713855901962525 6.954032794228205 20.289584489356578 0 -1 0
1043 348 1 0.5897 -12.020197214844515 8.927245207391277 19.55546826528473 0 -1 0
1237 413 2 -1.1794 -10.72648345632064 5.107529924172848 17.772433883696927 0 0 0
1005 335 1 0.5897 -13.530474814173878 4.852410035731195 19.183524455851803 0 -1 0
1030 344 2 -1.1794 -9.032979658554153 6.047182070442378 19.92415039183816 0 -1 0
1032 344 1 0.5897 -8.628406635996479 5.460707455593877 20.563272056397828 0 -1 0
1003 335 2 -1.1794 -13.146163516405277 5.0928833986467055 20.026486764790356 0 -1 0
1207 403 2 -1.1794 -13.018761677571973 6.452138409471303 17.24527101390234 0 0 0
1208 403 1 0.5897 -12.244774626293363 6.026950417419693 17.61459670415706 0 0 0
1239 413 1 0.5897 -10.124278542759098 5.161199230873489 17.030341002487305 0 0 0
1238 413 1 0.5897 -10.246527856162183 5.503110692942265 18.49994916031614 0 0 0
990 330 1 0.5897 -14.15496157679036 7.137049960269735 18.507753696842684 0 -1 0
980 327 1 0.5897 -12.71766385030232 8.199428907396303 16.64531591053006 0 -1 0
989 330 1 0.5897 -15.01292323624044 8.374171495644095 18.666414350988063 0 -1 0
1034 345 1 0.5897 -14.647081602101615 7.8153970169773 20.82660438479354 0 -1 0
1209 403 1 0.5897 -13.277170070097192 5.88861186254789 16.516068568894987 0 0 0
988 330 2 -1.1794 -14.851517431595374 7.511092844665189 19.04735013772165 0 -1 0
291 97 1 0.5897 -15.114405734768786 10.534735042061353 4.356197230974086 1 0 0
174 58 1 0.5897 -16.387628446235023 10.127337389326875 1.6065975355207474 1 0 0
173 58 1 0.5897 -14.936839512549597 10.527110769699192 1.4407524300702437 1 0 0
172 58 2 -1.1794 -15.495927914798893 9.785416379323678 1.6719529764934804 1 0 0
283 95 2 -1.1794 -16.60955257676258 11.752719611585828 4.320697180061523 1 0 0
161 54 1 0.5897 -15.059589561570228 8.045165766346198 2.373585145620519 1 0 0
193 65 2 -1.1794 -13.758804716881158 12.0476293118118 1.4114724016539315 1 0 0
215 72 1 0.5897 -12.17368494215266 8.634900264641576 3.240982055631911 1 0 0
285 95 1 0.5897 -16.946444573545747 11.603102868133693 3.4373925658484574 1 0 0
148 50 2 -1.1794 -18.089942637883006 10.796664337157829 2.0496806567293797 1 0 0
289 97 2 -1.1794 -14.261752398523626 10.392520453158372 4.767336717537895 1 0 0
150 50 1 0.5897 -18.60139097964604 11.225742077384758 1.3637798127325642 1 0 0
284 95 1 0.5897 -17.350539266079423 11.561453211627455 4.895694391545264 1 0 0
160 54 2 -1.1794 -14.916406044427951 7.153911047411697 2.6917470925555227 1 0 0
216 72 1 0.5897 -13.060742379785927 9.850229748220436 3.40791279484181 1 0 0
151 51 2 -1.1794 -12.72493879418709 8.961778541393162 0.21506955025178198 1 0 0
153 51 1 0.5897 -12.653782856740925 9.278120384609277 1.1156019559864572 1 0 0
205 69 2 -1.1794 -14.671437333912369 7.782367130099416 5.382811370395491 1 0 0
152 51 1 0.5897 -12.797535933159342 8.011194535975285 0.29970280306574115 1 0 0
207 69 1 0.5897 -14.512912077270133 8.716170603808699 5.245219495499687 1 0 0
1118 373 1 0.5897 -15.668423213749016 8.59765882176361 0.22487070593427122 0 -1 1
214 72 2 -1.1794 -12.373238532987969 9.485659127622398 2.8505169870966993 1 0 0
206 69 1 0.5897 -14.807798373148515 7.4300027320937225 4.503415244207736 1 0 0
525 175 1 0.5897 -11.70329563872211 8.159497264381613 5.411844825289585 1 0 0
290 97 1 0.5897 -14.246195340628692 11.002567546943215 5.504681893853987 1 0 0
640 214 2 -1.1794 -13.990662730941445 11.990974183465077 7.026588966039413 1 0 0
630 210 1 0.5897 -12.880451440000236 9.216355338644188 7.467429894312509 1 0 0
629 210 1 0.5897 -13.651962348381554 10.437132630266955 7.921514593227175 1 0 0
628 210 2 -1.1794 -13.423372316058167 9.545477357255123 8.18375519940157 1 0 0
566 189 1 0.5897 -13.220238741672937 9.85817844155521 10.00123097007749 0 0 0
635 212 1 0.5897 -14.713627112108247 8.451875117410026 8.79536576311388 1 0 0
617 206 1 0.5897 -17.16949629252732 12.60334836067345 7.599451210614839 1 0 0
565 189 2 -1.1794 -13.029702196099322 10.119182200390124 10.902157770732465 0 0 0
642 214 1 0.5897 -14.86826117236927 12.337052021037206 7.188985478747005 1 0 0
634 212 2 -1.1794 -15.454153674296558 8.060158765509655 9.258430070917292 1 0 0
567 189 1 0.5897 -12.960476109542777 11.073092145431758 10.86607881725718 0 0 0
327 109 1 0.5897 -13.497479849970752 13.151709978698076 9.8636309515911 0 -1 0
641 214 1 0.5897 -13.43215976903171 12.766665923023602 6.97650918319845 1 0 0
325 109 2 -1.1794 -12.708620744374997 12.680553779020382 10.131909499662312 0 -1 0
658 220 2 -1.1794 -16.322836469827664 11.777521247528444 14.973396462194325 0 -1 0
870 290 1 0.5897 -12.177992458498329 9.144137177323394 12.065117591758431 0 0 0
680 227 1 0.5897 -10.966724213987806 9.195632530042282 15.652361636791836 0 -1 0
671 224 1 0.5897 -13.283586880445672 10.966177287657985 14.362528172188737 0 -1 0
670 224 2 -1.1794 -13.917976191690656 10.398337990127906 14.799896227990638 0 -1 0
672 224 1 0.5897 -13.397050915542723 9.89218260439921 15.423268975582602 0 -1 0
956 319 1 0.5897 -16.75521275333849 10.888861163502892 11.922681667524836 1 0 0
660 220 1 0.5897 -15.461967038689135 11.362199624875977 15.025528394612314 0 -1 0
879 293 1 0.5897 -14.562080884041059 9.909273947686795 11.907861417588485 0 0 0
878 293 1 0.5897 -14.961962824271966 9.906151762844729 13.367914306433386 0 0 0
877 293 2 -1.1794 -15.320591458677436 9.819173991305107 12.48477507211408 0 0 0
683 228 1 0.5897 -16.845265415321364 13.388940210018202 14.2081309203329 0 -1 0
728 243 1 0.5897 -17.33399228163102 13.013084151413363 11.184122679862512 1 -1 0
868 290 2 -1.1794 -11.803308564086645 8.554232017383566 12.719135962300331 0 0 0
681 227 1 0.5897 -10.856827495680443 8.986906847213337 14.157050571925646 0 -1 0
659 220 1 0.5897 -16.93792480536397 11.047367677192014 14.905043960853604 0 -1 0
664 222 2 -1.1794 -11.991588681946483 11.843882513141793 13.4735269812643 0 -1 0
955 319 2 -1.1794 -17.591064205513426 11.27638747620096 11.662956572273524 1 0 0
650 217 1 0.5897 -15.624989312940299 8.773679639725998 16.2347553979062 0 -1 0
1140 380 1 0.5897 -11.835913789442628 12.812325459155527 20.676097118306863 0 -1 0
1138 380 2 -1.1794 -12.257240594002088 13.346905580657495 20.003167941485138 0 -1 0
1128 376 1 0.5897 -13.85852483568533 13.904396946758421 20.169083765694054 0 -1 0
1127 376 1 0.5897 -15.310144707257496 13.521323933130578 20.364451825516937 0 -1 0
1022 341 1 0.5897 -13.130338505784525 12.263701554158658 18.689358949152655 0 -1 0
1119 373 1 0.5897 -14.868510546377665 11.048510956371086 20.744337209838676 0 -1 0
1117 373 2 -1.1794 -14.042758647863941 10.696001267320302 21.0762158770058 0 -1 0
1044 348 1 0.5897 -12.757736636875599 10.223871299875025 19.813269217748598 0 -1 0
1042 348 2 -1.1794 -12.061500360291095 9.842453065371775 19.278445072372868 0 -1 0
1111 371 2 -1.1794 -16.29605678565813 12.043278178920158 20.419504006503757 0 -1 0
993 331 1 0.5897 -16.3383774783779 12.819750760244052 16.343832784391623 0 -1 0
1126 376 2 -1.1794 -14.724105528635683 14.27755245608311 20.33595715421211 0 -1 0
991 331 2 -1.1794 -16.091801818389015 13.398261896835677 17.065361926487014 0 -1 0
992 331 1 0.5897 -15.229420896559704 13.08602663337151 17.339372406407534 0 -1 0
981 327 1 0.5897 -12.31567488109737 9.327109399624941 17.571693551850096 0 -1 0
1023 341 1 0.5897 -13.13329186190848 12.26855323817463 17.175572631152548 0 -1 0
1021 341 2 -1.1794 -13.66750482689719 12.028823666862092 17.932768291958638 0 -1 0
1001 334 1 0.5897 -14.751152130575903 10.591034285290888 17.75957203489631 0 -1 0
1000 334 2 -1.1794 -15.363565302700643 9.859765057723362 17.679974008741524 0 -1 0
1002 334 1 0.5897 -16.21832839167441 10.23904446619354 17.884521163452447 0 -1 0
1013 338 1 0.5897 -10.738526126675652 10.689185019532054 18.42668026547951 0 -1 0
1098 366 1 0.5897 -17.267719799481796 14.076523679485472 18.28534039310052 0 -1 0
979 327 2 -1.1794 -12.378012232036157 9.094239680184497 16.64542773020083 0 -1 0
1113 371 1 0.5897 -16.72216222089876 11.89843465115904 19.574770779010052 0 -1 0
305 102 1 0.5897 -1.3585033994032774 -6.16125843938987 2.3369002929769453 1 1 0
311 104 1 0.5897 -2.5787146666167526 -7.685802344658119 3.3404531883002377 1 1 0
201 67 1 0.5897 0.5996232687865639 -8.481107999755965 0.21531556557400228 1 1 0
310 104 2 -1.1794 -3.37582306459183 -8.077991046712128 3.696926117083117 1 1 0
318 106 1 0.5897 -2.5203061788674805 -4.134522746129975 1.6591300483951117 1 1 0
304 102 2 -1.1794 -1.2101320682174066 -7.073428816302591 2.5858815814385436 1 1 0
316 106 2 -1.1794 -1.6190059412855806 -4.456831965016459 1.6688827497737642 1 1 0
242 81 1 0.5897 -0.8211724956811786 -6.700728935132425 4.7275428500357535 0 1 0
306 102 1 0.5897 -0.5781827770374637 -7.397618093077128 1.9441762980185215 1 1 0
243 81 1 0.5897 -1.0619231899189838 -5.425989793328039 5.507668824746363 0 1 0
293 98 1 0.5897 -4.919895865697686 -3.9775774499560796 2.34440565363377 1 1 0
195 65 1 0.5897 -4.134216154740572 -8.930893790683855 0.7003199476544127 1 1 0
3 1 1 0.5897 -1.2371296076382325 -3.580169239170079 4.492680794230029 0 0 0
356 119 1 0.5897 1.118031615502991 -7.14438760657557 10.145418067917818 0 0 0
555 185 1 0.5897 -2.590700208258548 -7.091434604300803 6.382549699594558 0 1 0
554 185 1 0.5897 -2.883842344431647 -6.78385888508678 7.835508089883334 0 1 0
553 185 2 -1.1794 -3.3057286485148456 -7.045948775941804 7.017327592283509 0 1 0
546 182 1 0.5897 -0.08182111194350306 -7.536250912673093 6.6208026120067105 0 1 0
359 120 1 0.5897 -4.668151278633466 -3.0700889402254514 8.627336555953613 0 0 0
632 211 1 0.5897 -4.927726978234749 -6.032810927482018 6.817962593324898 1 1 0
348 116 1 0.5897 -1.4629565411638215 -6.562460937501461 10.04901982004391 0 0 0
347 116 1 0.5897 -1.1862837138615454 -5.680854260893497 8.84995016974247 0 0 0
346 116 2 -1.1794 -1.8999782835051153 -6.0814162045919264 9.346352860250313 0 0 0
336 112 1 0.5897 -3.443440417554233 -5.116409290361984 9.32527591883495 0 0 0
334 112 2 -1.1794 -4.298967121672692 -4.693498561094911 9.251049958233379 0 0 0
357 119 1 0.5897 1.1586686587630783 -7.2629607458877175 8.636817185777126 0 0 0
544 182 2 -1.1794 0.3614000347828803 -8.108475416181555 7.247084786814978 0 1 0
335 112 1 0.5897 -4.9286762856637285 -5.394159057984222 9.420480973093223 0 0 0
404 135 1 0.5897 -4.967784711900163 -3.8224862928144026 5.616832812783938 1 0 0
669 223 1 0.5897 -4.08336534461161 -3.717447290537856 10.75978293368156 0 0 0
241 81 2 -1.1794 -1.1077909726340245 -6.379076924204805 5.582256596779387 0 1 0
802 268 2 -1.1794 -2.5717319218795005 -2.277545704150672 14.877184014383788 0 0 0
793 265 2 -1.1794 -1.9101981298110289 -5.893266334806519 15.567810116684097 0 0 0
795 265 1 0.5897 -2.7108482989025156 -5.49165149805936 15.230292382279282 0 0 0
803 268 1 0.5897 -3.1344735261791747 -3.0512576317145914 14.905812825301032 0 0 0
794 265 1 0.5897 -1.5524917362081467 -5.243667055107099 16.172913663602984 0 0 0
787 263 2 -1.1794 -4.096455646378388 -4.531823522807681 14.826006138477824 0 0 0
718 240 2 -1.1794 -0.08693505314814942 -6.936539046324782 13.804437706478792 0 0 0