LAMMPS data file via write_data, version 30 Jul 2021, timestep = 9500000

972 atoms
2 atom types
648 bonds
1 bond types
324 angles
1 angle types

-0.15763235988434943 20.157633359876698 xlo xhi
0.08541467121066582 19.91458632879063 ylo yhi
0.0802109081355109 20.61978709186524 zlo zhi

Masses

1 1.008
2 15.999

Pair Coeffs # lj/cut/tip4p/long/omp

1 0 0
2 0.21084 3.1668

Bond Coeffs # harmonic/omp

1 450 0.9572

Angle Coeffs # harmonic/omp

1 55 104.52

Atoms # full

4 2 2 -1.1794 4.262517555151215 1.283153225157399 3.6031623517860094 0 0 0
31 11 2 -1.1794 1.2802876503860132 1.716020112660587 2.0394283868116037 0 0 0
12 4 1 0.5897 2.023711910943828 4.019942703238374 3.6649518429060755 0 0 0
10 4 2 -1.1794 1.0870364233944527 3.8246200202964724 3.6876106247942855 0 0 0
16 6 2 -1.1794 3.8046271166352907 3.923483540141551 3.6999149524884 0 0 0
11 4 1 0.5897 1.0177435287714938 2.9393666335116793 3.330060841536423 0 0 0
33 11 1 0.5897 1.9839212896251497 2.019784012900918 1.466064239426961 0 0 0
23 8 1 0.5897 2.660358394727907 0.8677377406678873 4.279776076660358 0 0 0
17 6 1 0.5897 4.297695719622358 4.304008065119809 2.973084045538277 0 0 0
18 6 1 0.5897 3.768005521933145 2.987796155875884 3.501324280663188 0 0 0
32 11 1 0.5897 0.4765480219047824 1.9985329567827783 1.6031954562490798 0 0 0
22 8 2 -1.1794 1.8849925438272228 0.5768418508252638 4.75967431000584 0 0 0
5 2 1 0.5897 4.476312400531095 0.8951579975800373 2.7546520484717587 0 0 0
3 1 1 0.5897 3.745541084484399 2.626987544928795 0.35286424689001705 0 0 0
81 27 1 0.5897 -0.048394352745590744 4.4320508804178305 4.952071159627246 1 0 0
102 34 1 0.5897 0.010939062893084661 0.955262851892965 5.161553328171428 1 0 0
20 7 1 0.5897 0.859097858874029 5.00799957331184 2.23721674199531 0 0 0
356 119 1 0.5897 1.253032347804294 2.0247306026357452 8.241539794947762 0 0 0
330 110 1 0.5897 4.3524567917909325 0.4034886623001332 9.828514744438378 0 0 0
355 119 2 -1.1794 0.7328658475364844 1.9929381933023893 9.044402793889814 0 0 0
325 109 2 -1.1794 2.2276804890341197 2.384682668316253 6.738372897152119 0 0 0
326 109 1 0.5897 2.262309828676222 1.8419610817873495 5.950642165838746 0 0 0
327 109 1 0.5897 3.1422828659675774 2.482078064438175 7.003118168319773 0 0 0
27 9 1 0.5897 2.195462359757861 4.36643616537245 6.372284096313731 0 0 0
357 119 1 0.5897 -0.1278743207906168 2.322060025100599 8.78577458436109 0 0 0
328 110 2 -1.1794 4.312542216836336 1.2515005765415803 10.270729357708328 0 0 0
335 112 1 0.5897 0.866845899348575 3.45547979031016 10.000068149144603 0 0 0
342 114 1 0.5897 4.179730255845813 4.471956806193979 9.889589123086314 0 0 0
341 114 1 0.5897 3.9237194575080707 3.039447906222011 10.307262284221693 0 0 0
336 112 1 0.5897 1.7628281658193898 4.5548953864867325 10.529538147063962 0 0 0
347 116 1 0.5897 0.8707475526617736 1.1797665501004326 11.86086347625396 0 0 0
650 217 1 0.5897 2.3703933074928645 2.207110493528203 13.363837084220693 0 0 0
348 116 1 0.5897 2.240555193484711 1.1814137336411454 11.216620599941603 0 0 0
683 228 1 0.5897 4.35310949379171 2.508768944624876 14.69646218851874 0 0 0
346 116 2 -1.1794 1.8028068971873974 1.1027953845406424 12.064195641872312 0 0 0
651 217 1 0.5897 1.788455872527784 2.347281352900982 14.754358274070489 0 0 0
649 217 2 -1.1794 2.4958067730567066 2.666589880818196 14.194139297409034 0 0 0
332 111 1 0.5897 4.877896256647583 4.422098323437112 11.743343443883294 0 0 0
350 117 1 0.5897 2.491169685693711 4.56718355880022 13.838334039127952 0 0 0
334 112 2 -1.1794 0.8451975170361945 4.342297119739624 10.359781845724434 0 0 0
340 114 2 -1.1794 3.7753999714317557 3.945239869116199 10.57901682993805 0 0 0
680 227 1 0.5897 -0.09459835779204084 2.154154673470973 15.356895443995278 0 0 0
652 218 2 -1.1794 4.061155450866624 1.6172854080725991 16.822988502527643 0 0 0
653 218 1 0.5897 3.2247354374337416 1.3340383505589142 17.192094548404597 0 0 0
671 224 1 0.5897 1.2318692113654863 1.004633734203357 18.693058506047954 0 0 0
665 222 1 0.5897 2.8303802250290953 4.12266921282497 17.80568974287447 0 0 0
679 227 2 -1.1794 0.5543822404079218 1.7512564403232587 15.93360762302219 0 0 0
666 222 1 0.5897 3.939634399498665 3.1859945770876132 17.37678980996521 0 0 0
664 222 2 -1.1794 3.7818593764963997 4.020060296155707 17.819200064902184 0 0 0
681 227 1 0.5897 0.878719939484951 2.473537460225146 16.471518973154282 0 0 0
659 220 1 0.5897 0.30467237145179427 3.9714471889938143 17.83008451215713 0 0 0
672 224 1 0.5897 2.4998922077317536 1.676302548896966 19.175322650787116 0 0 0
670 224 2 -1.1794 2.185734124590303 0.9338702917547481 18.659204493568133 0 0 0
658 220 2 -1.1794 1.128250882001827 4.158390724418234 17.37966670230488 0 0 0
2 1 1 0.5897 2.7094201860944405 3.5915372832631483 20.355940373331734 0 0 -1
654 218 1 0.5897 4.398376137312121 0.843636778989674 16.371297899457147 0 0 0
660 220 1 0.5897 0.9170867729609982 4.874559722833068 16.78067453248204 0 0 0
1 1 2 -1.1794 2.841359510308805 2.670696007529763 20.58162581489492 0 0 -1
114 38 1 0.5897 3.0805500455065307 7.987536857986934 3.9268706444140307 0 0 0
14 5 1 0.5897 3.698741344572562 5.887624517963721 0.9219941494075222 0 0 0
139 47 2 -1.1794 0.3009874914650348 8.663878940739401 2.4609956819977965 0 0 0
13 5 2 -1.1794 4.232464895792858 5.865708627458937 1.716239330271277 0 0 0
15 5 1 0.5897 4.015721196958484 6.6782029250731 2.173559687071038 0 0 0
142 48 2 -1.1794 4.840606380302146 8.829552768586053 0.2005430555639138 0 0 0
674 225 1 0.5897 1.9203584356520835 5.569046543567546 0.31308242818778154 0 0 1
112 38 2 -1.1794 3.8102426487463767 8.26672432766829 3.3739613661086185 0 0 0
19 7 2 -1.1794 0.6807677867609231 5.793230081787977 1.7196184647042128 0 0 0
140 47 1 0.5897 0.7977593041657933 9.241465949953206 3.040483055411818 0 0 0
141 47 1 0.5897 0.7346436238019939 7.814151524850444 2.5395927549243837 0 0 0
109 37 2 -1.1794 2.0332879423328083 8.839676019787394 0.23192641763790314 0 0 0
110 37 1 0.5897 1.630350218151106 9.010167152319212 1.0832631658445615 0 0 0
132 44 1 0.5897 0.8618240354111584 7.480909806005098 5.094109365018124 0 0 0
113 38 1 0.5897 4.5923675915089746 8.047332751265944 3.88016804715432 0 0 0
111 37 1 0.5897 2.9747101841919115 8.878390027503364 0.40000986337203076 0 0 0
130 44 2 -1.1794 1.8093497819357225 7.349262859117593 5.123137234811108 0 0 0
344 115 1 0.5897 0.8810776800802835 5.738372004358557 8.937427598230572 0 0 0
337 113 2 -1.1794 4.676799678825568 5.6683121847721205 8.38281845187024 0 0 0
463 155 2 -1.1794 0.1907695155719875 8.823685942955093 8.823797713037953 0 0 0
435 145 1 0.5897 2.494695066122362 8.526756389958278 6.619593197711409 0 0 0
345 115 1 0.5897 0.6989571208313005 7.050739757755881 8.204894664390215 0 0 0
437 146 1 0.5897 4.2364185509752765 7.0267042812166345 9.449081225839667 0 0 0
343 115 2 -1.1794 0.49107760051979044 6.11795287647541 8.150004774366995 0 0 0
25 9 2 -1.1794 2.576011714667301 5.226957351380283 6.54825846663577 0 0 0
464 155 1 0.5897 0.8645009464656761 8.983247934661678 8.162908505471664 0 0 0
26 9 1 0.5897 1.945413723270104 5.654391221364365 7.127740910707182 0 0 0
433 145 2 -1.1794 2.567513971002178 9.034734348847413 7.427630267052158 0 0 0
131 44 1 0.5897 1.9178429316108399 6.45819068252164 5.4555029226435785 0 0 0
339 113 1 0.5897 4.240923577291337 5.18020991354738 7.684294087066108 0 0 0
438 146 1 0.5897 3.8512423112559118 8.264513737550779 10.231047802608424 0 0 0
468 156 1 0.5897 4.382825444958026 9.108233411314341 7.583977014325579 0 0 0
436 146 2 -1.1794 3.782309465301277 7.3098347947271085 10.24267447625009 0 0 0
434 145 1 0.5897 2.6625474306838113 9.940800998187509 7.133805274741931 0 0 0
443 148 1 0.5897 0.6247510808953427 9.999097979658753 9.815007410025371 0 0 0
668 223 1 0.5897 0.8328217449033724 5.718872296228406 15.058310878896494 0 0 0
792 264 1 0.5897 4.620274070293727 9.023596354940402 14.229444697872434 0 0 0
454 152 2 -1.1794 1.7621614542423139 7.302373651100653 12.126179368613995 0 0 0
455 152 1 0.5897 2.334012989822209 6.906088661602124 11.468819818672616 0 0 0
456 152 1 0.5897 1.7541831943312107 6.673484940158233 12.847778453745049 0 0 0
349 117 2 -1.1794 2.378735364690563 5.48360648834098 14.090920655589116 0 0 0
759 253 1 0.5897 2.5291145969239106 8.534205181662314 13.329649923035294 0 0 0
757 253 2 -1.1794 2.676039509160185 9.15023542593339 14.047418108361816 0 0 0
351 117 1 0.5897 3.1508977540521332 5.683171101270172 14.62011147152979 0 0 0
533 178 1 0.5897 -0.1392940733206069 7.504529633071005 12.175888727368905 1 0 0
789 263 1 0.5897 1.4746239823037277 8.850433400821483 15.39805751794389 0 0 0
762 254 1 0.5897 4.778853556672893 7.920812708502083 17.62035870698336 0 0 0
780 260 1 0.5897 2.5857652303247973 7.664430740574027 17.859964197506017 0 0 0
778 260 2 -1.1794 1.9691512929893489 7.26271747865399 18.471983160358562 0 0 0
761 254 1 0.5897 4.0180279712172835 9.120648902768988 17.097399083011744 0 0 0
779 260 1 0.5897 2.0520639040516317 7.782115048977328 19.271736750735236 0 0 0
675 225 1 0.5897 2.3694229554820065 5.909579889783283 19.447571837605786 0 0 0
788 263 1 0.5897 0.5465930259751184 9.371158610202093 16.47480346860467 0 0 0
663 221 1 0.5897 4.316324797877405 6.766909456839713 16.05458304694524 0 0 0
669 223 1 0.5897 0.2744554910996472 6.908365438828121 15.810140889589764 0 0 0
760 254 2 -1.1794 4.056969425005973 8.165821024637056 17.04156876181981 0 0 0
667 223 2 -1.1794 0.1290666126056868 5.975155880377121 15.654241953493646 0 0 0
787 263 2 -1.1794 0.6987067408860671 8.615730020537464 15.90694124855224 0 0 0
858 286 1 0.5897 0.1816414563422593 7.0944728096089165 18.396331106416127 1 0 0
661 221 2 -1.1794 4.514838059339642 6.007497682561592 15.506698311358521 0 0 0
662 221 1 0.5897 4.49198701346313 5.264151811369907 16.10936717966733 0 0 0
673 225 2 -1.1794 2.5837133520620057 5.3539916440088495 20.197013020699018 0 0 0
127 43 2 -1.1794 0.5844905963132825 12.312838558069224 1.957458037203079 0 0 0
240 80 1 0.5897 2.5838895635978396 14.296952116647361 4.590769972493429 0 0 0
118 40 2 -1.1794 1.3762031888900983 10.648117106019892 4.00877945614646 0 0 0
220 74 2 -1.1794 3.885378345540331 14.407414720916314 3.431089966916338 0 0 0
783 261 1 0.5897 1.8540302487977334 11.830820812731114 0.541516244122825 0 0 1
120 40 1 0.5897 2.304614186758849 10.872828434949191 4.068848373580579 0 0 0
123 41 1 0.5897 4.139348445040905 12.088737678760683 0.6777196743226581 0 0 0
119 40 1 0.5897 1.0047839811056083 11.315109072083159 3.4313688864976823 0 0 0
129 43 1 0.5897 0.6750013246852692 13.263735388067872 2.0198529720308227 0 0 0
222 74 1 0.5897 4.065598104435138 13.920802028293451 2.6267459370883306 0 0 0
124 42 2 -1.1794 4.0470476985973 11.043378564982795 3.681804498210223 0 0 0
126 42 1 0.5897 4.083404286093544 10.096704858954856 3.544644494720324 0 0 0
122 41 1 0.5897 4.458064267979951 11.797257327535997 2.128666966484392 0 0 0
125 42 1 0.5897 4.575187283025075 11.1927228689715 4.465995297215012 0 0 0
121 41 2 -1.1794 4.653830346960503 12.408711563577032 1.4187193471303732 0 0 0
188 63 1 0.5897 -0.11985697862401068 10.977737117149227 4.82231655395938 1 0 0
238 80 2 -1.1794 1.9005881280235486 13.930089164912795 5.151710557082943 0 0 0
133 45 2 -1.1794 2.4850546105929086 11.935411592648276 6.822373677280461 0 0 0
134 45 1 0.5897 1.6983443084529748 12.21027026584617 7.2931821231963525 0 0 0
135 45 1 0.5897 3.2099907028800816 12.250269460648724 7.362259435648247 0 0 0
453 151 1 0.5897 0.8492261020193566 12.220923324673366 9.377759708326597 0 0 0
445 149 2 -1.1794 4.503810221955162 12.289117139157968 8.816382284713058 0 0 0
451 151 2 -1.1794 0.5959953236738267 12.792942767037918 8.653245910272753 0 0 0
450 150 1 0.5897 4.139429598762435 10.558969498005297 9.654390947105139 0 0 0
573 191 1 0.5897 0.8085897516162273 14.646756279709528 8.71924897132287 0 0 0
446 149 1 0.5897 4.328538980869556 13.003907437807282 9.42846189383294 0 0 0
239 80 1 0.5897 2.2929495972012743 13.139543482209563 5.522294333978448 0 0 0
317 106 1 0.5897 0.09914712743402432 13.906450814623287 5.391468654391275 1 0 0
564 188 1 0.5897 2.197278305889762 13.152320672589886 12.168367030574808 0 0 0
449 150 1 0.5897 4.497856399979063 10.492648019466431 11.12374038563528 0 0 0
546 182 1 0.5897 3.5070172977167857 14.335536032553485 11.073617607698012 0 0 0
444 148 1 0.5897 1.8747980337701105 10.394621411190144 10.571656227632996 0 0 0
457 153 2 -1.1794 2.4862404396595204 11.812795329060249 13.330041987735065 0 0 0
458 153 1 0.5897 1.7343895341464217 12.080941932713465 13.858173644526982 0 0 0
459 153 1 0.5897 3.227572853971355 12.282334985260865 13.71228903671332 0 0 0
769 257 2 -1.1794 4.296791514385865 12.875587696285672 15.157064754085555 0 0 0
562 188 2 -1.1794 1.9322494321709889 14.046465456868681 11.952623997400282 0 0 0
758 253 1 0.5897 2.7054444323692626 10.008623007606552 13.62479012095434 0 0 0
544 182 2 -1.1794 4.29849613715713 14.301761991931402 10.536470195715875 0 0 0
448 150 2 -1.1794 3.8510717130504943 10.186955792433478 10.487826311457624 0 0 0
642 214 1 0.5897 0.001626683376697885 14.111987910586778 11.670981947736536 1 0 0
563 188 1 0.5897 2.193688624154808 14.564600576010868 12.713829963599602 0 0 0
775 259 2 -1.1794 0.618911800740488 12.691078464623711 15.170359908369608 0 0 0
512 171 1 0.5897 -0.09390202222807176 11.154850918714317 11.898925063588573 1 0 0
777 259 1 0.5897 0.6660976018713137 13.613897367083867 15.420345850788841 0 0 0
442 148 2 -1.1794 0.9936873167814737 10.698666627888489 10.354212607482014 0 0 0
774 258 1 0.5897 3.8165678876437696 11.510844717237445 16.31361213953587 0 0 0
870 290 1 0.5897 4.634957953652885 14.477622361241872 17.72745455778326 0 0 0
767 256 1 0.5897 0.15150386669046206 11.015290657032173 17.990160369499165 0 0 0
768 256 1 0.5897 0.6624100504745953 11.565536149452628 16.675611062094696 0 0 0
766 256 2 -1.1794 0.8832813704675082 10.952130913460664 17.37646826548645 0 0 0
869 290 1 0.5897 3.1298216141880277 14.448787300505963 17.88609170551041 0 0 0
888 296 1 0.5897 2.065786980589943 12.848276764513244 19.306244592298533 0 0 0
772 258 2 -1.1794 3.656171392560445 10.892402997010755 17.02640365867635 0 0 0
773 258 1 0.5897 2.7500374121417015 11.056624115358204 17.287212621868036 0 0 0
886 296 2 -1.1794 1.8738244081015694 13.719301110106459 18.958719885113737 0 0 0
887 296 1 0.5897 2.008277020554562 14.308790992146648 19.700791673912526 0 0 0
782 261 1 0.5897 2.2111900650227962 10.554368383772855 20.349623795417635 0 0 0
868 290 2 -1.1794 3.8203627348972327 14.629552301294874 17.248441719814174 0 0 0
965 322 1 0.5897 -0.0062521666354391214 13.937942580068741 18.941758259341093 1 0 0
771 257 1 0.5897 4.037611497660484 13.513790517658242 15.821736659652753 0 0 0
764 255 1 0.5897 4.877400696524706 11.064406703533162 18.65719509343466 0 0 0
781 261 2 -1.1794 2.484754937569452 11.464847452081349 20.46107426349232 0 0 0
890 297 1 0.5897 1.4726705730331382 18.878319342986792 0.5791438311001953 0 0 1
234 78 1 0.5897 3.1265526010282207 17.407814074764808 3.872806463412194 0 0 0
230 77 1 0.5897 3.958074978349397 19.09937349161371 0.7248005299323104 0 0 0
228 76 1 0.5897 0.823562809002611 17.21661721266547 4.8940221193860465 0 0 0
226 76 2 -1.1794 1.3443014213646607 16.95063493808624 4.1362118832716845 0 0 0
227 76 1 0.5897 1.1643816843829098 17.61888770105994 3.47489044204803 0 0 0
248 83 1 0.5897 0.9765207163881984 15.641287163009633 2.9425442147407512 0 0 0
232 78 2 -1.1794 4.040986262889381 17.29538442292334 3.6135169537813 0 0 0
247 83 2 -1.1794 0.8490653450191787 15.112302784855347 2.1550690994415773 0 0 0
229 77 2 -1.1794 4.4586643306601355 19.252702894619055 1.5261039560100538 0 0 0
235 79 2 -1.1794 0.5165682061849122 19.02671342786303 2.3220652260187564 0 0 0
249 83 1 0.5897 1.6119052490640822 15.305301764671878 1.6101670512055426 0 0 0
221 74 1 0.5897 3.9055809968505777 15.32673935307579 3.1651096170234503 0 0 0
219 73 1 0.5897 3.4860714191532844 15.921407513420924 0.1686795825789435 0 0 0
233 78 1 0.5897 4.176782368575065 17.94587205328009 2.9245353223570296 0 0 0
236 79 1 0.5897 0.9980664526849774 19.761224195115346 2.70271646620493 0 0 0
217 73 2 -1.1794 2.538820994195535 15.78472199266988 0.17707591208361873 0 0 0
241 81 2 -1.1794 2.801237805512411 18.55257513778009 6.756062805424483 0 0 0
541 181 2 -1.1794 2.588924520181148 15.821461319523882 6.875837152843457 0 0 0
243 81 1 0.5897 2.297834055672084 18.767201719373226 7.541372458079323 0 0 0
553 185 2 -1.1794 4.406352365290204 18.70725551206656 8.953156198160306 0 0 0
555 185 1 0.5897 3.908334822466296 18.628332606909723 8.13955936443866 0 0 0
559 187 2 -1.1794 0.9118469552203428 19.030914637417716 8.699566090603948 0 0 0
542 181 1 0.5897 1.8092433883371126 15.612190757216533 7.39003747132257 0 0 0
242 81 1 0.5897 2.6163475395960933 17.62675600474897 6.598008903922637 0 0 0
576 192 1 0.5897 4.348100341380594 15.877636672091779 7.385768900627463 0 0 0
24 8 1 0.5897 2.2131644891320716 19.74243070713412 5.366478161518475 0 -1 0
571 191 2 -1.1794 0.5291695639389112 15.56060336514125 8.663442539992586 0 0 0
543 181 1 0.5897 2.6325913788792175 15.13097751013372 6.214327530600071 0 0 0
572 191 1 0.5897 0.6795513011976796 15.911600789329508 9.541176237402283 0 0 0
551 184 1 0.5897 0.8882853897692968 17.876377673193616 10.240757353767474 0 0 0
560 187 1 0.5897 -0.017116159130132896 18.98828819189336 8.473126917128818 0 0 0
561 187 1 0.5897 1.0337761902173388 19.91433085635972 9.047454733987255 0 0 0
550 184 2 -1.1794 1.0183865351816936 17.150731648281187 10.85129491234503 0 0 0
885 295 1 0.5897 1.4790671246356768 18.624475282820868 15.260623141359833 0 0 0
867 289 1 0.5897 2.265612516296651 15.631204022593964 14.961936020861556 0 0 0
565 189 2 -1.1794 2.6474100205093536 18.762497623841064 13.499381929304928 0 0 0
566 189 1 0.5897 2.751792960028885 18.054073745401084 12.864144485646717 0 0 0
865 289 2 -1.1794 2.828776100130419 15.62162439736859 14.188026934495252 0 0 0
866 289 1 0.5897 3.7102887313709916 15.767907619216638 14.530985319910064 0 0 0
567 189 1 0.5897 2.3784335742080027 19.517051454799024 12.97539001526223 0 0 0
556 186 2 -1.1794 3.8417561017169 16.988410123368354 11.144392357601504 0 0 0
552 184 1 0.5897 1.9586430898720044 16.974996560327384 10.81833545571242 0 0 0
879 293 1 0.5897 4.044302731147737 19.04206581484933 14.449086192429212 0 0 0
557 186 1 0.5897 4.085664894452291 16.103528227961917 10.872759404888782 0 0 0
877 293 2 -1.1794 4.670398537447963 19.125892567553727 15.168185238217132 0 0 0
558 186 1 0.5897 4.160139077990553 17.552243354136152 10.439428030710298 0 0 0
874 292 2 -1.1794 0.9844233059520404 17.437103024830556 17.967900139907286 0 0 0
897 299 1 0.5897 0.8177207152219733 15.8138526696025 16.967519737828304 0 0 0
891 297 1 0.5897 2.0701557853175725 19.210709972958348 19.768037874576052 0 0 0
875 292 1 0.5897 0.8610921656316683 18.037031090055386 17.232270530038768 0 0 0
880 294 2 -1.1794 3.7260834956638442 17.401045739987865 17.06131365261578 0 0 0
881 294 1 0.5897 2.8769316728812107 17.460097562829176 17.49897950430693 0 0 0
889 297 2 -1.1794 2.0686087056287623 18.539657551111105 20.450645902768926 0 0 0
882 294 1 0.5897 3.895828986664341 16.461495158409768 16.992596217642635 0 0 0
876 292 1 0.5897 0.39183533861529396 17.762968772596984 18.64527065054059 0 0 0
878 293 1 0.5897 4.314009374303354 18.57180784353342 15.862576523013647 0 0 0
895 299 2 -1.1794 0.8628201472246013 15.353345374888251 16.129569276556722 0 0 0
884 295 1 0.5897 0.8806202040643041 19.737703913902095 16.09396869688272 0 0 0
873 291 1 0.5897 4.722873725457632 17.816168792668414 18.579571270247598 0 0 0
218 73 1 0.5897 2.1690880894117153 16.65975772219896 20.598850213844862 0 0 -1
883 295 2 -1.1794 0.6927953619850127 18.86397188393537 15.751033865574621 0 0 0
896 299 1 0.5897 0.09483968173569446 15.658291884422898 15.646511733669694 0 0 0
68 23 1 0.5897 8.3330196020757 1.8735775398938581 1.7555449812103558 0 0 0
48 16 1 0.5897 7.561048568488519 4.04330680936566 4.882727403179891 0 0 0
67 23 2 -1.1794 7.607864023460692 1.6796360605835003 2.349391177567093 0 0 0
69 23 1 0.5897 6.825602930664405 1.7430622633757267 1.8015648967559872 0 0 0
47 16 1 0.5897 7.737254625369488 3.013627310976661 3.786949435353743 0 0 0
46 16 2 -1.1794 8.1062564564996 3.829344048605218 4.125658064124707 0 0 0
36 12 1 0.5897 5.654394304862999 3.061337841313249 0.31625442962458034 0 0 0
37 13 2 -1.1794 9.322729883802554 2.661622012522141 0.22974462224919096 0 0 0
53 18 1 0.5897 9.938581047597806 3.9594580951574416 3.9210854628481258 0 0 0
34 12 2 -1.1794 5.44295375397468 2.2026467334113398 0.6825202491900815 0 0 0
29 10 1 0.5897 7.225481707815527 0.6266399131138971 5.190333695094114 0 0 0
6 2 1 0.5897 5.011335529422155 1.0702448129159843 4.159981534433509 0 0 0
9 3 1 0.5897 5.104842779681018 4.4316360329877975 4.811673797763751 0 0 0
58 20 2 -1.1794 9.00788181836062 0.7124844075492747 5.127488126020585 0 0 0
391 131 2 -1.1794 7.271091804603068 2.283360568519265 8.87985821859521 0 0 0
358 120 2 -1.1794 5.13792480882464 2.2037535901722776 7.222484917376886 0 0 0
393 131 1 0.5897 6.954466636140855 1.385230381411646 8.97680589329895 0 0 0
392 131 1 0.5897 8.055127783460225 2.204071796037397 8.336709061196723 0 0 0
359 120 1 0.5897 5.777808094058814 2.135128329701626 7.930936037791865 0 0 0
362 121 1 0.5897 9.411446016745435 3.332121362110479 7.168328870447842 0 0 0
7 3 2 -1.1794 5.720397333065509 4.5137619893204395 5.5400377024013165 0 0 0
361 121 2 -1.1794 9.599600807429704 2.435019384096452 7.444133390557688 0 0 0
59 20 1 0.5897 8.786350243600863 1.3295585038967745 5.824919708215063 0 0 0
8 3 1 0.5897 5.52540856480984 3.76572898615179 6.104585432745524 0 0 0
360 120 1 0.5897 5.479304656490296 1.6324278034763342 6.534521658977364 0 0 0
61 21 2 -1.1794 9.293897221297122 5.011527059136946 6.7215609607309945 0 0 0
371 124 1 0.5897 7.481335364310878 3.477912995189249 10.317631051507325 0 0 0
28 10 2 -1.1794 6.284824865773442 0.5851002554007213 5.36204049175857 0 0 0
382 128 2 -1.1794 8.304134281496616 0.8858389772442611 11.771099141832535 0 0 0
354 118 1 0.5897 5.7074706852834405 1.5909810814542715 13.231773267612443 0 0 0
372 124 1 0.5897 6.928182791039771 4.2367172894736935 11.505108282259027 0 0 0
684 228 1 0.5897 5.24751534239118 3.4617676069494268 13.932500789355306 0 0 0
682 228 2 -1.1794 5.271137068731376 2.6842092845309127 14.49029001545922 0 0 0
685 229 2 -1.1794 9.420659692957418 2.645210842692097 13.547798845808064 0 0 0
353 118 1 0.5897 6.706683303008199 1.0337670894980642 12.240412159476445 0 0 0
686 229 1 0.5897 8.88458965170525 2.464865150116122 14.319988850363874 0 0 0
377 126 1 0.5897 9.673562528011082 3.985085865663677 11.008134566007136 0 0 0
383 128 1 0.5897 8.57594457625141 1.4497322114464735 12.49524511981331 0 0 0
370 124 2 -1.1794 7.635707019630273 4.250943608919917 10.860632950384643 0 0 0
352 118 2 -1.1794 5.792994891324293 0.9611753497309699 12.516018474438372 0 0 0
384 128 1 0.5897 9.009847919015689 0.9627116206789622 11.129068757712664 0 0 0
386 129 1 0.5897 9.148994893345696 4.5370591005221 13.366043790090746 0 0 0
331 111 2 -1.1794 5.4813091788707755 4.708874584499884 12.428767431634364 0 0 0
717 239 1 0.5897 6.810231096279615 2.206589977491532 15.246251629469722 0 0 0
329 110 1 0.5897 4.933380468081072 1.173857752577127 10.995081032736003 0 0 0
708 236 1 0.5897 8.054452539647405 1.0716412168860185 18.524770693397414 0 0 0
696 232 1 0.5897 7.603110813330155 4.599224016882492 17.065011360829843 0 0 0
676 226 2 -1.1794 6.125235044051114 1.0211490996688704 18.840658985880722 0 0 0
707 236 1 0.5897 9.046442233717253 0.35444607205070006 19.415469467967505 0 0 0
716 239 1 0.5897 7.46413649833806 0.8920540663488686 15.615446747621688 0 0 0
694 232 2 -1.1794 7.883596551597432 3.903174789949896 17.65917186165708 0 0 0
678 226 1 0.5897 5.750065265806426 0.1583273495290354 19.016902805864625 0 0 0
38 13 1 0.5897 9.230473670850806 2.1680402858366548 19.954381789837562 0 0 -1
702 234 1 0.5897 9.785104153424026 4.202286815956326 17.28378129369643 0 0 0
695 232 1 0.5897 7.842608845968952 3.1058122236995 17.131121264276395 0 0 0
655 219 2 -1.1794 5.908386899004627 4.454427589004525 19.529193725724127 0 0 0
657 219 1 0.5897 6.638856169469802 4.35761432586666 18.918335497295814 0 0 0
706 236 2 -1.1794 8.983828395487308 1.0410764843370897 18.751465201021666 0 0 0
715 239 2 -1.1794 7.584436845814137 1.8399475781289034 15.673178657257187 0 0 0
656 219 1 0.5897 5.132064598354291 4.245417379297856 19.009842089163868 0 0 0
677 226 1 0.5897 5.502970762427448 1.4360348486449352 18.24331567957286 0 0 0
35 12 1 0.5897 5.548497786032107 1.5963680100965991 20.48891154111572 0 0 -1
710 237 1 0.5897 8.784534883280088 4.45238775744606 20.43641720571747 0 0 0
175 59 2 -1.1794 7.127177198237585 8.84342245501881 2.264662206011694 0 0 0
143 48 1 0.5897 5.519906360501456 8.85673828850805 0.8743057552411035 0 0 0
711 237 1 0.5897 8.167335497269276 5.481937148542705 0.8192985840205953 0 0 1
177 59 1 0.5897 7.606646624718602 9.118219722938449 1.4831244152359684 0 0 0
56 19 1 0.5897 6.296500435638597 5.708340311898003 1.9479027756175342 0 0 0
176 59 1 0.5897 7.10680841867061 7.887945347157448 2.2101718181283725 0 0 0
147 49 1 0.5897 9.924911558729406 9.27027799467679 0.3446716959357663 0 0 0
55 19 2 -1.1794 7.192458768983694 6.004741079139242 2.107556293359432 0 0 0
57 19 1 0.5897 7.382228336515489 5.7238052137601 3.0026907723235414 0 0 0
709 237 2 -1.1794 8.833296385236777 5.376955838817716 0.13990882327538365 0 0 1
166 56 2 -1.1794 8.636997238623792 7.074291963281258 5.032877580872892 0 0 0
138 46 1 0.5897 6.624677574073237 7.271594490181328 5.008494861428248 0 0 0
145 49 2 -1.1794 8.985616642098272 9.451251539671231 0.37692322635106107 0 0 0
149 50 1 0.5897 9.825960572256507 7.618407799125623 3.7770994240498257 0 0 0
136 46 2 -1.1794 5.741929023962341 7.155673482189632 5.359768552083715 0 0 0
469 157 2 -1.1794 8.839807578936544 8.891799105171902 6.941666294477722 0 0 0
471 157 1 0.5897 9.791423549903623 8.916260673106102 7.041062728567781 0 0 0
379 127 2 -1.1794 7.425962217804924 5.9334121424195745 8.427542964128078 0 0 0
499 167 2 -1.1794 7.442088893983712 8.466988619766157 9.394669816229657 0 0 0
501 167 1 0.5897 6.635629464527166 8.727406997102662 8.94985939448462 0 0 0
466 156 2 -1.1794 5.329614510349607 8.983344250260153 7.647619842432763 0 0 0
381 127 1 0.5897 7.426522247122284 5.439296615980877 9.24736949274695 0 0 0
168 56 1 0.5897 8.775149441167567 7.722727272304247 5.723331764212083 0 0 0
380 127 1 0.5897 7.529029670589705 6.846067898979211 8.697277629087997 0 0 0
470 157 1 0.5897 8.505926707178789 8.851299643092826 7.837817441115438 0 0 0
338 113 1 0.5897 5.609077945823976 5.498428820516118 8.248474169792432 0 0 0
500 167 1 0.5897 7.556464904599402 9.119476584976743 10.08565560856126 0 0 0
62 21 1 0.5897 8.539760924912144 5.243550122955974 7.263388955410906 0 0 0
467 156 1 0.5897 5.510465239382471 8.229265318555719 7.086419751386144 0 0 0
137 46 1 0.5897 5.674738582454247 6.217039466141914 5.535103089526705 0 0 0
167 56 1 0.5897 8.862258219980989 6.237972541883776 5.440441733148736 0 0 0
461 154 1 0.5897 5.597648902139928 8.242234111093145 12.655908817254293 0 0 0
491 164 1 0.5897 9.087693082444348 7.779511371049848 11.24672289543775 0 0 0
791 264 1 0.5897 6.02818544103211 9.10573847938819 14.779464516202074 0 0 0
794 265 1 0.5897 9.182917709326476 8.487399976896924 13.594835656247172 0 0 0
333 111 1 0.5897 5.46908348269123 5.664522439213415 12.37491855338468 0 0 0
824 275 1 0.5897 7.999628370160178 8.508587990327856 15.23673507388503 0 0 0
490 164 2 -1.1794 8.648258327569625 7.5022524280967025 12.050610905223648 0 0 0
460 154 2 -1.1794 5.8141120660432755 7.584578146959 11.994946482243556 0 0 0
492 164 1 0.5897 7.718086253451605 7.494835419685549 11.825241157006857 0 0 0
705 235 1 0.5897 7.754031985177717 5.645683037792469 14.963069981909536 0 0 0
793 265 2 -1.1794 9.560626207145521 9.17168501434717 14.147415815702303 0 0 0
385 129 2 -1.1794 8.877840285670464 5.406069727787128 13.661991607462063 0 0 0
387 129 1 0.5897 8.858418043259562 5.93582349526236 12.864967470239478 0 0 0
795 265 1 0.5897 9.16049449499147 9.982375736431582 13.832873724338157 0 0 0
462 154 1 0.5897 5.05885359926597 7.5774909778452395 11.407021845819479 0 0 0
790 264 2 -1.1794 5.502700203220237 9.321704693130972 14.009143720048641 0 0 0
704 235 1 0.5897 6.282150277679557 5.717953070759253 15.309224204774525 0 0 0
785 262 1 0.5897 5.810596873361379 6.18732610743946 19.102746876816227 0 0 0
703 235 2 -1.1794 7.1489205920264265 5.625197836944006 15.704399236878235 0 0 0
816 272 1 0.5897 8.91937615246728 8.201296609740087 19.428734574573177 0 0 0
797 266 1 0.5897 9.942867554913882 7.8719361311867395 17.635491665374246 0 0 0
784 262 2 -1.1794 5.870804628874886 7.111507440506452 18.860697380740703 0 0 0
786 262 1 0.5897 6.8090510189546025 7.273345136150921 18.762958413790983 0 0 0
814 272 2 -1.1794 8.634668701182227 7.490772738210869 18.853967719016637 0 0 0
815 272 1 0.5897 8.679670683235505 6.706680843454526 19.40120362337378 0 0 0
825 275 1 0.5897 7.252407647964875 7.377298823073859 15.910351952177152 0 0 0
804 268 1 0.5897 7.561147128259242 9.915842613513323 16.94034397984757 0 0 0
823 275 2 -1.1794 7.383062995785634 8.324935411706187 15.945454692540226 0 0 0
144 48 1 0.5897 5.094189143008673 8.10144832268193 20.172817611416242 0 0 -1
164 55 1 0.5897 7.706489412867586 11.869586474072252 2.5554336665977333 0 0 0
819 273 1 0.5897 8.578329991282967 12.342067040275229 0.4059669954416327 0 0 1
284 95 1 0.5897 7.994930837647992 14.536937561504375 1.773382398612712 0 0 0
165 55 1 0.5897 6.6713192795126 12.580440455600282 1.7100674940980412 0 0 0
154 52 2 -1.1794 8.095784034096388 10.795004732910346 3.9758123427440895 0 0 0
163 55 2 -1.1794 7.616056949041593 12.498730080282433 1.839748297392272 0 0 0
275 92 1 0.5897 9.304754738018257 14.207835121066353 4.432009591136116 0 0 0
156 52 1 0.5897 9.051792595570227 10.837733232944657 3.960566322739793 0 0 0
246 82 1 0.5897 5.219151422792647 13.969575683225452 4.526383758951639 0 0 0