LAMMPS data file via write_data, version 30 Jul 2021, timestep = 17500000

864 atoms
2 atom types
576 bonds
1 bond types
288 angles
1 angle types

-0.1840272756725323 18.39159967567057 xlo xhi
0.8747714474695893 22.75440635251738 ylo yhi
-0.22451284646783343 22.43770864645823 zlo zhi

Masses

1 1.00794
2 15.9994

Pair Coeffs # lj/cut/tip4p/long/omp

1 0 0
2 0.21084 3.1668

Bond Coeffs # harmonic/omp

1 450 0.9572

Angle Coeffs # harmonic/omp

1 55 104.52

Atoms # full

294 1 1 0.5897 3.4398225309452144 2.8269134680164942 3.940049632167306 0 -3 0
292 1 2 -1.1794 2.7629412407053904 2.1919961209476684 3.7057564191212613 0 -3 0
144 1 1 0.5897 0.42802751465019684 4.693134458038133 4.308651290424933 4 0 4
718 1 2 -1.1794 3.332641136575944 2.6772881155421593 1.000695821203491 5 6 2
719 1 1 0.5897 3.1457937227014354 2.6041697347187664 1.9365997319095776 5 6 2
293 1 1 0.5897 1.959122435527806 2.5471705304039096 4.085109200639802 0 -3 0
720 1 1 0.5897 3.074161924112605 3.5704366728818893 0.7734365127550294 5 6 2
408 1 1 0.5897 4.268344395601781 5.505727820041507 4.842197538400296 -9 -2 3
142 1 2 -1.1794 0.6793955023814979 3.7994851848446216 4.541855043413053 4 0 4
229 1 2 -1.1794 2.87127815539914 5.359769918287944 0.0027065759788060806 -1 4 6
743 1 1 0.5897 2.6677245105416 1.4212229130848621 -0.08841354319908715 -1 0 7
545 1 1 0.5897 1.1167156152901125 4.247732778817088 8.718460888963051 0 5 4
546 1 1 0.5897 2.47126805565365 4.874795589290179 8.971026060506446 0 5 4
544 1 2 -1.1794 1.7681606434224282 4.391479155661923 9.404878069670291 0 5 4
468 1 1 0.5897 0.2068485434678572 3.0199551604783696 7.425860588649609 3 -4 5
466 1 2 -1.1794 0.10586581990680105 3.9700610734186688 7.368658820490763 3 -4 5
178 1 2 -1.1794 3.712192253176395 1.978378895593573 8.00340425327506 -8 3 -1
824 1 1 0.5897 2.5694226188316613 3.590333058970105 10.991508021465911 -3 5 0
179 1 1 0.5897 2.7943021967836157 2.052606248807834 8.264457838022073 -8 3 -1
459 1 1 0.5897 0.7445124601078704 5.705385439509798 10.278731282692156 1 1 -6
180 1 1 0.5897 4.179189926360913 1.793086973750392 8.818135600286697 -8 3 -1
465 1 1 0.5897 3.78390145921872 6.101489156940621 6.904116638622782 4 4 -2
463 1 2 -1.1794 3.5620606480914025 6.174242046342575 7.832382060526685 4 4 -2
143 1 1 0.5897 0.7744198664098569 3.8176836882697223 5.494123224583819 4 0 4
550 1 2 -1.1794 0.6826054569637039 1.2471852196520097 7.966866570042789 0 6 -2
801 1 1 0.5897 2.3937612453088466 2.131025371734558 14.923895152643446 0 4 -3
510 1 1 0.5897 0.6403435971461996 5.230539673912303 14.247500073020749 3 -4 2
825 1 1 0.5897 2.253823249965281 2.308833525368014 11.733072226468625 -3 5 0
823 1 2 -1.1794 2.95605889217625 2.940645137934608 11.578559496983372 -3 5 0
799 1 2 -1.1794 1.460195837507273 2.2133115683222115 15.118474260994313 0 4 -3
724 1 2 -1.1794 3.6216918038189814 5.299624000332931 13.167515509365835 2 -1 1
800 1 1 0.5897 1.2758414343075786 3.1473310256302485 15.019485114119767 0 4 -3
725 1 1 0.5897 3.2698747078525776 4.560918497479216 12.670771602227807 2 -1 1
508 1 2 -1.1794 0.2041493656815468 4.663256772601825 14.883198385258884 3 -4 2
639 1 1 0.5897 1.0519589106452651 1.4401939005361162 13.431778109540446 -6 -3 9
726 1 1 0.5897 4.393299875349952 5.575643851117458 12.672931606007351 2 -1 1
637 1 2 -1.1794 1.1340166508925704 1.0777620223546573 12.549682006110771 -6 -3 9
477 1 1 0.5897 2.1540191450875605 6.309745712951613 13.225473453785087 5 -1 -4
603 1 1 0.5897 4.2894595824090525 5.694125550922189 16.31626030639771 1 3 -3
602 1 1 0.5897 4.3431618386879265 5.961199782641327 14.827118465259545 1 3 -4
691 1 2 -1.1794 4.1356331261508625 1.6672579132919765 14.704067213212955 4 0 0
769 1 2 -1.1794 1.1903095871289366 4.810465954092988 20.331486292203103 5 2 0
771 1 1 0.5897 0.2994038538562617 4.565515813439926 20.581434548812723 5 2 0
425 1 1 0.5897 1.5881634592895706 5.644409161282189 18.931616657110403 7 -4 -1
231 1 1 0.5897 2.4018869700836487 5.22700098600414 21.841389284885224 -1 4 5
770 1 1 0.5897 1.6259204704619696 3.977882176846584 20.149187307961043 5 2 0
289 1 2 -1.1794 1.0386107110050529 1.1764792610242942 17.605185881969696 -7 -4 -8
116 1 1 0.5897 2.996007409067542 4.822578287265751 18.016855172106524 -3 -8 -1
115 1 2 -1.1794 3.7787259174357963 4.395182366927399 17.66917790925266 -3 -8 -1
712 1 2 -1.1794 2.4419189577067217 2.2461542829507124 19.763128349066108 -9 3 2
714 1 1 0.5897 2.202688465198779 1.5421016739615498 20.36583363332325 -9 3 2
291 1 1 0.5897 1.5893528407152842 1.5400134481713814 18.298559495519946 -7 -4 -8
713 1 1 0.5897 3.3976290409936936 2.212666432550237 19.72223996906221 -9 3 2
117 1 1 0.5897 3.720767212423395 3.4938328763626196 17.98611381350142 -3 -8 -1
426 1 1 0.5897 0.9861421104091166 6.332074972195098 17.724771673245392 7 -5 -1
424 1 2 -1.1794 1.823942163335568 6.130453540597606 18.141458407031926 7 -4 -1
230 1 1 0.5897 3.7649840610298715 5.576593656015518 22.399506376136195 -1 4 5
290 1 1 0.5897 1.2186206714659245 1.7262825210375699 16.842629417284925 -7 -4 -8
240 1 1 0.5897 1.8983134387761038 6.907584896853507 0.00031938697086680845 -3 -7 0
238 1 2 -1.1794 1.2902322768591263 7.642494266397485 0.07981922552648163 -3 -7 0
239 1 1 0.5897 1.757889239513169 8.284173851507447 0.614346777265299 -3 -7 0
128 1 1 0.5897 2.5391834149139574 9.448070618527991 2.670996737511179 -3 -4 -4
705 1 1 0.5897 1.227172121732894 8.596674965069855 5.222763079410601 3 -6 0
373 1 2 -1.1794 2.892730817597957 8.768973131210016 4.402515970661602 5 5 0
129 1 1 0.5897 1.9293395393295558 10.310587731067045 1.5866034824261959 -3 -4 -4
127 1 2 -1.1794 2.53977042415194 9.586203788099334 1.7238436147844276 -3 -4 -4
374 1 1 0.5897 3.383796903843149 8.018006226190689 4.735797297717309 5 5 0
375 1 1 0.5897 3.4428828997237004 9.525177796700993 4.60661910246165 5 5 0
837 1 1 0.5897 -0.10498759711551096 7.140557675553619 4.72648294314774 5 1 3
448 1 2 -1.1794 0.6451367182395823 11.54174424314726 1.1200836448328007 4 -1 -7
47 1 1 0.5897 4.308552836693602 9.97908339110636 0.7108936661454177 5 -3 -2
406 1 2 -1.1794 4.252153221904121 6.379050276022431 5.233656119112644 -9 -2 3
788 1 1 0.5897 -0.14187250136996526 7.3553494205666485 1.2347891845226868 5 -2 5
63 1 1 0.5897 1.9934857892908595 10.947265209355066 8.726104879084382 2 0 5
62 1 1 0.5897 2.8603825641986176 9.934494800778792 9.443429392742777 2 0 5
643 1 2 -1.1794 1.4360091616700965 7.736633908060315 8.186682818091972 10 0 -3
644 1 1 0.5897 1.6183846680356175 8.64880138142431 8.412273303379518 10 0 -3
61 1 2 -1.1794 1.946691706009727 10.162155682635037 9.27162780565384 2 0 5
645 1 1 0.5897 0.9304464585474526 7.402638044147604 8.927663094116665 10 0 -3
704 1 1 0.5897 0.6878626747273975 8.281309656121797 6.601699925860846 3 -6 0
464 1 1 0.5897 2.8595720589413993 6.823765899634558 7.861025573673633 4 4 -2
806 1 1 0.5897 0.773868456128789 10.205011740127546 10.825614913873943 6 0 -5
457 1 2 -1.1794 0.3376573660148109 6.536592217630518 10.523204855004563 1 1 -6
703 1 2 -1.1794 0.41377167260499936 8.551382726151466 5.72527552065973 3 -6 0
844 1 2 -1.1794 3.476147026261991 10.035124498964187 14.471181588272746 1 0 2
710 1 1 0.5897 0.9712400200783213 8.295055991288777 13.512369182815092 -4 0 -2
711 1 1 0.5897 1.9218755531012 9.301603306800676 14.12467947092525 -4 0 -2
846 1 1 0.5897 3.4097836389910703 10.979788543827382 14.331975828329982 1 0 2
709 1 2 -1.1794 1.0422667795105751 9.21780313859432 13.756644911443484 -4 0 -2
845 1 1 0.5897 3.97679691737666 9.716469962990148 13.720187473857829 1 0 2
807 1 1 0.5897 0.3127735817399071 9.918500626782365 12.23878390447432 6 0 -5
826 1 2 -1.1794 0.23783903304476295 10.376547657082622 16.03231929389976 1 2 3
308 1 1 0.5897 1.949337400738131 11.235985289834963 16.767526839621233 1 4 0
828 1 1 0.5897 0.6831607434675291 9.830147513862274 15.384748956373086 1 2 3
805 1 2 -1.1794 -0.001091561203451774 9.970202543713794 11.336006980772277 6 0 -5
475 1 2 -1.1794 1.2527550731334176 6.599082203673263 13.083395628722977 5 -1 -4
476 1 1 0.5897 1.1650117895009322 6.652372617211855 12.131738858112394 5 -1 -4
309 1 1 0.5897 2.5691985086969993 10.393385086402635 17.86185407567568 1 4 0
280 1 2 -1.1794 2.158478524741698 8.843901727249435 18.57914460359862 -5 -1 -2
282 1 1 0.5897 2.199793830309034 7.952317792156951 18.2333915595393 -5 -1 -2
281 1 1 0.5897 1.470118656375801 8.812017309717547 19.243461757511476 -5 -1 -2
100 1 2 -1.1794 4.138987881666428 8.606201960381778 20.492172750146317 4 -5 -2
573 1 1 0.5897 0.4118497878962193 10.105541576639418 20.990430552633796 5 -1 -5
102 1 1 0.5897 3.4018805769467804 8.688904713124384 19.887185862597846 4 -5 -2
572 1 1 0.5897 0.7452732925515173 8.668451534306975 21.330075847391768 5 -1 -5
571 1 2 -1.1794 0.3506492502291497 9.213339447059612 20.649238149050326 5 -1 -5
307 1 2 -1.1794 2.594628955891442 11.267978212192286 17.47375409646868 1 4 0
541 1 2 -1.1794 -0.11876143336167772 11.724792191308008 18.584036595047152 -8 1 0
543 1 1 0.5897 0.05052825469488195 11.04944554883677 17.92719240434738 -8 1 0
101 1 1 0.5897 4.456962521375995 7.712768707536157 20.362304094232968 4 -5 -2
812 1 1 0.5897 1.505343010083442 13.218711894629191 3.752465917616983 -4 7 -4
588 1 1 0.5897 0.8105093534437627 16.284480986345894 1.428177709746134 -3 -1 5
125 1 1 0.5897 3.6516202887819746 13.424278431284371 2.9728042062526048 0 4 4
587 1 1 0.5897 0.9720216404433213 16.45107298287872 2.9241597083569735 -3 -1 5
586 1 2 -1.1794 0.6779324559115462 15.828494327990194 2.2592510183503984 -3 -1 5
811 1 2 -1.1794 1.758580877770769 13.411665859336054 2.84979630693978 -4 7 -4
813 1 1 0.5897 1.4884856195521945 14.31979469431945 2.713674498539339 -4 7 -4
449 1 1 0.5897 0.9276603882646215 12.20107658385355 1.753833229013512 4 -1 -7
261 1 1 0.5897 0.24345366291233445 12.322564236788914 5.168371891125721 0 -2 5
450 1 1 0.5897 0.8407036372276269 11.92946222250404 0.2670874944817378 4 -1 -7
854 1 1 0.5897 1.5203358462478582 17.119959529478905 5.0946975502075285 -2 -2 -2
259 1 2 -1.1794 0.8735983838396071 13.018786924485426 5.353758992300894 0 -2 5
9 1 1 0.5897 3.815258436427076 12.61552939264244 7.386629012491607 1 1 -3
58 1 2 -1.1794 2.0045339644405926 12.4798834681396 7.636233744790044 0 -3 -5
649 1 2 -1.1794 1.0424350432849456 14.034824403178629 9.86113144706164 1 -2 2
109 1 2 -1.1794 2.7644087556127928 15.95807208789811 10.473251301289652 4 -2 -8
855 1 1 0.5897 0.5341744528245347 16.44323895460059 6.022748684450441 -2 -2 -2
59 1 1 0.5897 1.7134087545638885 13.167140049373883 8.2354987720657 0 -3 -5
501 1 1 0.5897 2.9343864531471695 16.78846217284775 8.973088471898267 -1 -2 -1
853 1 2 -1.1794 1.399331955624876 16.852364996519533 6.005698041187187 -2 -2 -2
650 1 1 0.5897 1.7187882837130883 14.68177874359712 10.061556069450459 1 -2 2
651 1 1 0.5897 0.9295162905955756 13.545403424278627 10.675925983857695 1 -2 2
60 1 1 0.5897 1.6398093264407085 12.731064153605177 6.787671429110399 0 -3 -5
110 1 1 0.5897 3.6004881312262045 15.637284485237346 10.811246606862225 4 -2 -8
500 1 1 0.5897 2.2930546393811206 17.05172212029133 7.627306048089537 -1 -2 -1
260 1 1 0.5897 0.3357838350196466 13.764934316824876 5.6186938802013975 0 -2 5
504 1 1 0.5897 2.9845789295358647 15.93287897010513 15.614128056177014 -3 -2 3
200 1 1 0.5897 2.8060905067067683 13.788951214567286 14.490726710864902 -2 -1 -2
502 1 2 -1.1794 2.977992008861543 15.73721591954122 14.677158055534813 -3 -2 3
199 1 2 -1.1794 2.908145009254788 12.912712391096845 14.119269220773008 -2 -1 -2
503 1 1 0.5897 3.6733714826952863 16.284814023391604 14.312774660135288 -3 -2 3
201 1 1 0.5897 2.24993759212999 12.867881062967012 13.425775256960694 -2 -1 -2
55 1 2 -1.1794 1.2151627959740934 16.279290845244912 12.555411403129645 -1 2 1
57 1 1 0.5897 1.6202921046272836 16.035156138645952 13.387542392719963 -1 2 1
418 1 2 -1.1794 0.3941469785460029 12.636621172735028 12.358852884727314 -5 0 5
420 1 1 0.5897 0.07984576820987344 11.86253469546688 11.891723975345704 -5 0 5
56 1 1 0.5897 0.8932189334117058 17.16946098908145 12.697281304805793 -1 2 1
111 1 1 0.5897 2.2870741039125018 16.248789366441496 11.250309451374319 4 -2 -8
419 1 1 0.5897 -0.0741593226971919 12.6198331183981 13.19346865443516 -5 0 5
212 1 1 0.5897 3.2666547064728038 16.754089344936453 17.997677614411344 6 2 1
268 1 2 -1.1794 3.0663715404110103 13.738071390815804 18.96414427626179 6 8 6
213 1 1 0.5897 2.9323317043781354 15.279753665552443 17.918231968108238 6 2 1
233 1 1 0.5897 0.7219662776784304 16.099239438964048 21.764045101346873 -2 -1 0
270 1 1 0.5897 3.9154090703917444 13.670417070761259 19.40088524683963 6 8 6
657 1 1 0.5897 0.3869308747904776 15.254305600714702 19.908932694130755 0 -6 3
727 1 2 -1.1794 3.5746454824329676 12.976877985146404 21.99537084721411 4 4 -1
211 1 2 -1.1794 2.8085026407418616 16.10985258099406 17.458019189590757 6 2 1
269 1 1 0.5897 2.970347624848886 12.9085257791716 18.49634326602304 6 8 6
656 1 1 0.5897 0.9289045706737129 14.099506205615123 20.724112955395405 -1 -6 3
145 1 2 -1.1794 0.029967560271971228 16.184324682330107 18.105493334274854 -2 3 -6
655 1 2 -1.1794 0.3068557627630613 14.826058689051655 20.76121979022438 -1 -6 3
147 1 1 0.5897 0.9199924577262593 16.317440265570767 17.779429049586753 -2 3 -6
729 1 1 0.5897 4.115010031283165 13.643245505117083 22.419828836167902 4 4 -1
783 1 1 0.5897 2.1469123136732122 12.009971980402355 20.99221346820991 0 -1 -2
728 1 1 0.5897 3.961762571290448 12.144864433402574 22.267566036446098 4 4 -1
782 1 1 0.5897 0.936688945280334 11.959006264609673 20.08418422549685 0 -1 -2
781 1 2 -1.1794 1.189841772401587 12.011674779817639 21.005772661614955 0 -1 -2
232 1 2 -1.1794 0.889825175837816 16.88982800542346 22.27684589333062 -2 -1 0
219 1 1 0.5897 2.770327145091021 20.753457439459652 3.1018469791079712 3 -3 -2
150 1 1 0.5897 3.2218603057459707 17.453862376211802 3.3583547100961 -7 0 7
218 1 1 0.5897 1.3523390773721529 20.453428433416356 2.6645527703909755 3 -3 -2
533 1 1 0.5897 3.176583325776528 20.49049211401386 1.144475381840905 -6 -3 -2
217 1 2 -1.1794 2.26177761741094 20.19661486210414 2.512322888240921 3 -3 -2
149 1 1 0.5897 2.1572215397639325 18.502215575224227 3.11488931746839 -7 0 7
472 1 2 -1.1794 3.5443364589011592 21.569857547344135 4.519501925330181 1 -1 -3
473 1 1 0.5897 3.2085182814073256 21.5566558737504 5.415733918774684 1 -1 -3
532 1 2 -1.1794 3.664704730683358 20.49334374650141 0.3211177432417792 -6 -3 -2
148 1 2 -1.1794 2.3159084075379797 17.676571270139334 3.572418095595323 -7 0 7
474 1 1 0.5897 3.4807052030296486 22.486938477992744 4.252869303143267 1 -1 -3
216 1 1 0.5897 0.45052253795354313 21.808425492218667 -0.14141528371489187 2 2 0
22 1 2 -1.1794 0.1611299289919071 19.216284935906508 6.636725143475026 -4 2 2
460 1 2 -1.1794 2.2688736841000057 21.227723116082892 6.865189891339174 2 2 1
715 1 2 -1.1794 4.1724323991600745 19.907576131133204 8.467979815874548 4 -5 -5
461 1 1 0.5897 2.877704219708505 20.668691461206834 7.347875822782691 2 2 1
462 1 1 0.5897 1.5636690806778635 20.638809544025996 6.596768442711334 2 2 1
23 1 1 0.5897 0.7528677294169618 18.485247028841925 6.458908069883119 -4 2 2
552 1 1 0.5897 1.2807880911810972 22.50596445094523 7.551043667874523 0 5 -2
717 1 1 0.5897 3.966423942086821 18.97390215492654 8.42342703233224 4 -5 -5
263 1 1 0.5897 4.368606728962286 20.59689554935518 10.114006398626183 2 -4 5
499 1 2 -1.1794 3.049186247110814 17.28782562553826 8.164611116401803 -1 -2 -1
551 1 1 0.5897 0.43722738140641737 22.70787905601786 8.791764038552447 0 5 -2
638 1 1 0.5897 1.7479190488327416 22.229291772454857 12.645550008212815 -6 -4 9
245 1 1 0.5897 3.210746378018106 20.61651056076584 13.605333520038373 -3 3 1
371 1 1 0.5897 1.3850442337446789 19.704913493664286 12.726518793089792 5 7 0
246 1 1 0.5897 3.425442189159291 20.911256745743472 12.136021714256838 -3 3 1
244 1 2 -1.1794 2.7516321548307796 20.90297164129702 12.81580990149812 -3 3 1
329 1 1 0.5897 4.253347497892499 20.618596966585628 16.064251356271697 -1 5 -4
372 1 1 0.5897 0.2608659956155048 19.18933515462561 13.599532050037645 5 7 0
330 1 1 0.5897 2.783877448208428 20.964141959061358 15.950198767550399 -1 5 -4
328 1 2 -1.1794 3.6205655904206284 21.055639937878624 15.494375050932415 -1 5 -4
370 1 2 -1.1794 0.7008803194572301 19.036523055857806 12.763339712453819 5 7 0
692 1 1 0.5897 4.036900609469468 22.627461202634642 14.951254469882977 4 -1 0
377 1 1 0.5897 0.011557967045676826 19.66538515913627 15.887715680526282 4 3 2
633 1 1 0.5897 -0.04889270002635143 22.655929037898545 11.14571645648267 2 5 5
158 1 1 0.5897 4.14707846707649 20.724057051733247 19.833175742632584 1 0 -5
322 1 2 -1.1794 2.27936377161673 19.942530253724726 19.585485870014253 1 2 -1
164 1 1 0.5897 3.390967170047617 18.815287954520812 22.285790084770298 -2 2 -6
163 1 2 -1.1794 3.3744461687528604 17.997230707148297 21.789090293677326 -2 2 -6
324 1 1 0.5897 1.4890679316034545 19.70390765067051 20.069927504118553 1 2 -1
302 1 1 0.5897 1.6274205083971467 20.16076084932738 17.827139985471156 2 5 4
331 1 2 -1.1794 4.07331924228725 17.760875125574707 19.161051530924276 -1 -1 -2
323 1 1 0.5897 2.8512212517138797 19.179456458583793 19.66837380119094 1 2 -1
303 1 1 0.5897 1.1823616254793328 21.458264423859866 17.18670181858368 2 5 4
744 1 1 0.5897 2.9539533921660834 21.878936252177212 22.140240957936 -1 -1 6
301 1 2 -1.1794 1.18002522606779 20.510006491231543 17.05637278423832 2 5 4
332 1 1 0.5897 3.871729245640875 17.804868176290306 20.095717738501484 -1 -1 -2
234 1 1 0.5897 0.512161261863412 17.598461473990163 21.755900381212314 -2 -1 0
165 1 1 0.5897 2.5139944850581104 17.621205963853164 21.974561249488403 -2 2 -6
742 1 2 -1.1794 2.38503131363009 22.626385091140307 21.956270124014694 -1 -1 6
664 1 2 -1.1794 -0.10681991910634991 19.18419156047934 20.869233862673745 5 -2 3
310 1 2 -1.1794 8.294849758422366 5.689348705515011 3.64920470636211 2 -3 4
130 1 2 -1.1794 5.788537849379577 1.9115044213693866 0.041478315078645134 -4 -2 -3
312 1 1 0.5897 7.934691969575722 4.921911175245331 3.2047602996149065 2 -3 4
396 1 1 0.5897 6.5429415462267215 2.7079385235113014 1.724883030661432 2 1 5
858 1 1 0.5897 5.640930594431681 3.6509818402388547 3.5911551415270093 1 2 -6
266 1 1 0.5897 7.074183674742068 6.33143479750554 4.861283132853284 -1 -3 1
394 1 2 -1.1794 7.02165411445133 3.0314769806074353 2.4879890194077454 2 1 6
395 1 1 0.5897 7.858598137788402 2.5678576359309613 2.4605282492444402 2 1 6
856 1 2 -1.1794 4.94635203058519 3.8488515033625887 4.21932375413507 1 2 -6
132 1 1 0.5897 4.978759328266272 2.3939113170200708 0.2079659213795133 -4 -2 -3
857 1 1 0.5897 5.251238768703903 3.4670270697732843 5.042382932747761 1 2 -6
577 1 2 -1.1794 8.849746871654652 1.0363442920599397 1.9055320539469172 2 2 0
311 1 1 0.5897 8.870737169801284 5.328144399221322 4.323054472465637 2 -3 4
740 1 1 0.5897 7.9050879108771355 3.063316878692075 9.369105043364803 0 1 2
341 1 1 0.5897 6.626197395081539 3.1974628552302224 7.376748687208326 1 3 3
741 1 1 0.5897 7.353507168254758 4.421005403769195 8.989389430263087 0 1 2
359 1 1 0.5897 5.792477095257793 2.3980764944966797 10.158415374129941 0 -2 -2
340 1 2 -1.1794 6.008247832830323 2.9307618325399916 6.696172421304096 1 3 3
739 1 2 -1.1794 7.1015743810764125 3.5032649128747013 9.091637871804519 0 1 2
342 1 1 0.5897 5.201128939183076 2.730284095856579 7.170067475363298 1 3 3
775 1 2 -1.1794 8.046504371359328 6.299464192569909 8.114011752293981 5 -3 -2
358 1 2 -1.1794 5.247155026111833 1.6898953824750058 10.500887216944928 0 -2 -2
393 1 1 0.5897 6.823932658621035 1.389119614950502 6.564819358397093 8 -2 2
392 1 1 0.5897 8.226083125295615 1.0309486093223414 6.120473091102514 8 -2 2
360 1 1 0.5897 4.536356278882123 2.135692468503093 10.96157367978804 0 -2 -2
15 1 1 0.5897 7.359356979755941 3.2269232405938135 13.33620700992822 -1 -5 -7
13 1 2 -1.1794 7.648636020467158 4.097407534490208 13.60971850842647 -1 -5 -7
810 1 1 0.5897 6.251896866944663 5.208789276011013 15.938469069844212 5 -2 -3
511 1 2 -1.1794 6.5074361913686225 1.5752084139588245 13.069372740169365 4 1 -8
273 1 1 0.5897 6.777331548690572 5.5343152706453385 12.463478107656881 -2 3 4
671 1 1 0.5897 6.487433244638717 2.900085926967047 16.353749338173415 3 0 -3
513 1 1 0.5897 5.706320639555661 1.3550427151355193 13.544689965449392 4 1 -8
808 1 2 -1.1794 6.944760255634009 4.5725363800305665 16.11547796317722 5 -2 -3
693 1 1 0.5897 4.644187067932035 2.0540907597244393 15.41675959303085 4 0 0
14 1 1 0.5897 7.4073381086460826 4.150932351862412 14.534437055159556 -1 -5 -7
512 1 1 0.5897 6.212501619668036 1.7725500460033707 12.180415930110087 4 1 -8
809 1 1 0.5897 7.72776554097282 5.1040807465638 16.258796008898322 5 -2 -3
271 1 2 -1.1794 6.158193666095825 6.197768483489418 12.158961246893128 -2 3 4
601 1 2 -1.1794 4.654176001533358 6.296512422754812 15.667962987256937 1 3 -3
670 1 2 -1.1794 6.302274800533359 1.962477885050072 16.40657280950463 3 0 -3
696 1 1 0.5897 7.5851440427472845 3.379745410912332 21.056562641686114 4 -1 -2
695 1 1 0.5897 7.961931387464546 1.9858572625939168 20.601753836536155 4 -1 -2
355 1 2 -1.1794 9.051841927780309 1.0765382247826252 17.412418503339858 0 -5 3
672 1 1 0.5897 5.919198169330577 1.8421068258389468 17.27545393124754 3 0 -3
694 1 2 -1.1794 7.281980802663723 2.653493415557208 20.511744063604333 4 -1 -2
138 1 1 0.5897 8.487131598413988 5.402975075633649 21.627240988739956 9 -6 2
767 1 1 0.5897 5.925167501708957 2.3471353997779527 19.413352145110643 0 2 4
592 1 2 -1.1794 5.189836680076449 6.1420614296748095 19.508673249234008 1 -3 -1
766 1 2 -1.1794 5.1247460511906455 2.038750514743935 18.988594903466506 0 2 4
357 1 1 0.5897 8.152284240637961 1.2514653554072472 17.13593336608097 0 -5 3
594 1 1 0.5897 4.7762574093096655 5.622204138230034 18.819558758272713 1 -3 -1
432 1 1 0.5897 5.512980058162886 5.766154438724021 21.292962230878217 -7 -4 -2
768 1 1 0.5897 5.101677719573711 1.0997941395902626 19.172996027572715 0 2 4
430 1 2 -1.1794 5.520932719368411 5.879896647362392 22.243317869773726 -7 -4 -2
137 1 1 0.5897 7.203044124504786 5.09712418252479 22.368423126503693 9 -6 2
136 1 2 -1.1794 8.01199713276712 4.69153703389939 22.056516497337704 9 -6 2
131 1 1 0.5897 6.007831318022868 2.1171385896046075 21.79491853066405 -4 -2 -4
862 1 2 -1.1794 6.995964959734226 8.43247516668001 -0.0036843048023947333 1 2 4
176 1 1 0.5897 8.703450642253957 9.122330413963196 5.189537505496243 0 -2 8
864 1 1 0.5897 7.5155294220279965 8.47092705982034 0.7992785500527655 1 2 4
106 1 2 -1.1794 8.882320741136885 7.95011526588112 2.4515271206198945 -5 2 4
108 1 1 0.5897 8.631050522886838 7.12749945491777 2.8714737966231763 -5 2 4
274 1 2 -1.1794 4.574216109325922 11.16132438547158 5.101982530800868 0 2 -7
863 1 1 0.5897 6.302067529072823 9.07843102618186 0.12830870631725305 1 2 4
275 1 1 0.5897 4.7897820948241625 11.806974512600448 4.429043557254996 0 2 -7
236 1 1 0.5897 6.058590704708265 10.097664347704958 5.324913368529079 4 -1 -6
46 1 2 -1.1794 4.843122229584116 10.275867307413568 -0.025557148745008584 5 -3 -2
413 1 1 0.5897 4.945670109038948 6.549340311492798 9.157051191071274 0 -4 1
265 1 2 -1.1794 6.814671092109559 6.882251435328183 5.599825163361371 -1 -3 1
237 1 1 0.5897 6.701004831501751 8.786145091923927 5.723655432142118 4 -1 -6
202 1 2 -1.1794 6.439667206657595 10.84713233300423 8.280983606267016 -5 -2 1
204 1 1 0.5897 5.880544776864289 11.531909975378095 7.914054616067039 -5 -2 1
203 1 1 0.5897 6.746013748069838 10.354035088103554 7.519936668205915 -5 -2 1
412 1 2 -1.1794 5.732575826491399 6.976308536705005 9.495655732256015 0 -4 1
267 1 1 0.5897 7.211630007153722 6.462806519011981 6.363155274595701 -1 -3 1
336 1 1 0.5897 4.801221988126782 8.533989917610993 9.541208169956818 -1 1 5
335 1 1 0.5897 5.1748241320656945 9.971466387594209 9.248196787496287 -1 1 5
235 1 2 -1.1794 6.838222038059247 9.733223945432151 5.743878477686784 4 -1 -6
276 1 1 0.5897 4.561212027368723 11.660808746333386 5.91839296313934 0 2 -7
414 1 1 0.5897 5.832168717885553 6.628088702860226 10.381660408854426 0 -4 1
777 1 1 0.5897 7.390392869381086 6.785102187845267 8.61386559419753 5 -3 -2
776 1 1 0.5897 8.841269654024629 6.828290145218386 8.183897268845014 5 -3 -2
334 1 2 -1.1794 4.534154210116913 9.43628995583481 9.716492774515322 -1 1 5
407 1 1 0.5897 5.155448328722366 6.535303702112702 5.509117837694912 -9 -2 3
381 1 1 0.5897 5.648815477754854 7.6341790448442035 16.129949077211812 7 2 -1
35 1 1 0.5897 6.872846222286354 8.407938157713652 14.545031118827488 -6 2 -2
832 1 2 -1.1794 5.211462355901148 10.00866903018442 12.30566339433517 1 -2 1
34 1 2 -1.1794 7.140695446804977 8.40175468850919 13.626116719727841 -6 2 -2
272 1 1 0.5897 6.356057558194131 6.97105622040237 12.687226334649354 -2 3 4
36 1 1 0.5897 6.490555688777428 8.946849990692792 13.182979557556022 -6 2 -2
755 1 1 0.5897 5.518389317544 10.056850389264236 16.61565065323439 -6 -3 -5
833 1 1 0.5897 5.277927830308585 10.959475048614715 12.393563697011501 1 -2 1
834 1 1 0.5897 5.117953621792248 9.860614989682764 11.364648887531837 1 -2 1
379 1 2 -1.1794 6.285838158902175 8.30573189885381 16.37379893959075 7 2 -1
575 1 1 0.5897 8.739742580219808 9.343066805040399 12.837993084790872 6 0 2
754 1 2 -1.1794 5.470154615998709 11.007840826996757 16.713034288830407 -6 -3 -5
756 1 1 0.5897 4.534324604209239 11.205588334283744 16.676986684670723 -6 -3 -5
68 1 1 0.5897 8.006685454746544 7.900629323661794 19.024042950090013 2 -3 -2
69 1 1 0.5897 8.341151867250828 6.744909256361641 18.105182895412412 2 -3 -2
820 1 2 -1.1794 6.656689018459413 11.661683163673889 19.126216364447963 3 3 3
67 1 2 -1.1794 7.617947764137663 7.140058786576177 18.592036291898374 2 -3 -2
48 1 1 0.5897 4.54872552069844 9.744529878471157 21.896946424090224 5 -3 -3
452 1 1 0.5897 7.750921362679612 9.032173878272504 21.003511614898557 -3 -1 4
593 1 1 0.5897 6.0487536384074145 6.371110469351062 19.153731093618156 1 -3 -1
821 1 1 0.5897 6.967888381280205 10.886144296514427 19.592993650470895 3 3 3
451 1 2 -1.1794 8.090854692584744 9.294509752092003 20.148059870116974 -3 -1 4
431 1 1 0.5897 5.848918689863331 6.769331585342755 22.37583027924309 -7 -4 -2
822 1 1 0.5897 6.1387930115907565 11.31328892173342 18.4005518181889 3 3 3
453 1 1 0.5897 9.030960909810945 9.407837425561096 20.287866274416793 -3 -1 4
380 1 1 0.5897 6.637918093443569 8.00909617278124 17.212976397815403 7 2 -1
277 1 2 -1.1794 6.337678896421994 15.219950020375341 4.53697502517045 0 -1 -1
209 1 1 0.5897 5.690095278763115 15.36480194044002 0.6618634768486374 4 -4 0
126 1 1 0.5897 5.050420907367048 13.55253030613459 2.40827702021792 0 4 4
87 1 1 0.5897 5.38937309205869 16.65581257510086 3.487296301702783 -1 5 2
279 1 1 0.5897 5.63905283799988 14.574736199075213 4.4283617167867755 0 -1 -1
41 1 1 0.5897 7.833697214670412 14.541990093773865 3.7436269750362965 0 1 4
208 1 2 -1.1794 5.682374323973569 14.407708799695618 0.6710582234745137 4 -4 0
40 1 2 -1.1794 8.370417344354445 13.928046776560084 3.2424283014808837 0 1 4
42 1 1 0.5897 8.011968613324873 13.964493976569674 2.3556559036632967 0 1 4
124 1 2 -1.1794 4.571022664921841 13.478580167160079 3.2334436943884537 0 4 4
210 1 1 0.5897 6.100480322491771 14.156424909426123 -0.15248124793735338 4 -4 0
8 1 1 0.5897 4.723241396662907 13.756911275257869 6.980931968353651 1 1 -3
803 1 1 0.5897 5.61910237224247 15.561825279001143 7.946477518359817 1 1 -7
436 1 2 -1.1794 8.078721423987677 12.799066028637004 9.414542917502958 -3 1 3
802 1 2 -1.1794 5.276947957133847 15.943121511346652 7.137945594848343 1 1 -7
774 1 1 0.5897 7.191481802955278 14.280319019095792 9.247928270744916 6 -2 3
773 1 1 0.5897 6.291070997363729 15.148815081405054 10.100419998535571 6 -2 3
772 1 2 -1.1794 6.713589267232819 15.109634856900058 9.242443281297552 6 -2 3
438 1 1 0.5897 7.588406303447315 12.055461642028279 9.06406895320108 -3 1 3
804 1 1 0.5897 4.5364834108926955 16.47990889973869 7.420338188076251 1 1 -7
506 1 1 0.5897 8.098212549990382 16.223128075938874 9.884908143651256 5 -1 -5
437 1 1 0.5897 8.198899705669763 12.591941413574142 10.341276622100958 -3 1 3
7 1 2 -1.1794 4.734035601942494 12.8323454751006 7.228479611420743 1 1 -3
505 1 2 -1.1794 8.817249039332376 16.680362626924925 10.320930349707709 5 -1 -5
278 1 1 0.5897 6.304128759221231 15.45625711800296 5.4639209214400495 0 -1 -1
562 1 2 -1.1794 8.89965683279096 12.004640044966761 12.296497704803812 2 2 1
254 1 1 0.5897 5.426794790624552 15.97779653519201 12.282774685539467 0 6 -5
253 1 2 -1.1794 5.273885164739217 15.329641098349793 11.595243918356049 0 6 -5
255 1 1 0.5897 5.467095113911656 14.489166744949921 12.01053224389135 0 6 -5
258 1 1 0.5897 6.030670820300081 13.15190302863264 13.53494877249242 -2 -2 3
613 1 2 -1.1794 7.7234494752825436 16.41101665692708 15.15321452453955 -4 0 6
256 1 2 -1.1794 5.359598545517593 12.905174497356072 12.898565417258833 -2 -2 3
257 1 1 0.5897 4.553592374884267 12.84415389299415 13.411215310737958 -2 -2 3
615 1 1 0.5897 8.306229836492136 16.450142344979966 14.394893803975943 -4 0 6
77 1 1 0.5897 7.792742631505201 12.692410475048773 15.723352155510568 -7 -3 -6
539 1 1 0.5897 6.232708862203672 16.74781324909472 14.313045168510433 0 0 1
76 1 2 -1.1794 7.137113951526828 12.596295439414833 15.032627732101828 -7 -3 -6
563 1 1 0.5897 8.351158455966187 12.20700372468457 13.054382224268835 2 2 1
538 1 2 -1.1794 5.500262491106373 17.10788363270285 13.812996321439496 0 0 1
78 1 1 0.5897 6.569545663659345 11.888329992882266 15.337308098148688 -7 -3 -6
819 1 1 0.5897 6.941809209932986 13.507819091636154 20.206277552679367 -2 -1 -1
817 1 2 -1.1794 6.947494222902092 14.25793596279144 20.800838969059676 -2 0 -1
654 1 1 0.5897 7.877356619789515 15.808357778774546 18.32199693883414 -2 0 -3
652 1 2 -1.1794 8.338686873245683 15.354157911031251 17.616968897422318 -2 0 -3
830 1 1 0.5897 6.47764557594242 15.985686747328945 19.93781956303078 6 1 2
818 1 1 0.5897 7.819433715538667 14.244735761256784 21.19547168261755 -2 0 -1
829 1 2 -1.1794 6.502738494416139 16.70159193647131 19.30297083693563 6 1 2
26 1 1 0.5897 8.515556810478161 13.400647333063112 17.592526959887643 -4 4 5