LAMMPS (30 Jul 2021)
  using 1 OpenMP thread(s) per MPI task
package omp 0
using multi-threaded neighbor list subroutines
echo both

include		in.partitions
variable        pid world 0
include		in.temp
variable        temperature equal 259.01
variable	tempDamp equal 100.0
include		in.pressure
variable        pressure equal 8875.0
variable        pressureDamp equal 1000.0 # This is 1 ps
include		in.seed
variable        seed world 745823

units		real
atom_style	full
read_restart	restart.lmp.${pid}
read_restart	restart.lmp.0
Reading restart file ...
  restart file = 30 Jul 2021, LAMMPS = 30 Jul 2021
  restoring atom style full from restart
  orthogonal box = (0.61049590 1.8106148 0.74480357) to (17.597077 21.818563 21.468392)
  4 by 4 by 4 MPI processor grid
  restoring pair style lj/cut/tip4p/long/omp from restart
  restoring bond style harmonic/omp from restart
  restoring angle style harmonic/omp from restart
  864 atoms
  576 bonds
  288 angles
Finding 1-2 1-3 1-4 neighbors ...
  special bond factors lj:    0        0        0       
  special bond factors coul:  0        0        0       
     2 = max # of 1-2 neighbors
     1 = max # of 1-3 neighbors
     1 = max # of 1-4 neighbors
     2 = max # of special neighbors
  special bonds CPU = 0.879 seconds
  read_restart CPU = 1.164 seconds
include 	in.setup
variable	out_freq equal 1000
variable	out_freq2 equal 10000
variable	out_freq3 equal 1000

timestep	2.0

neigh_modify    delay 7 every 1

include		in.tip4p
# This is TIP4P/Ice

# create groups ###
group ox type 2
288 atoms in group ox
group hy type 1
576 atoms in group hy

# set charges - beside manually ###
set group ox charge -1.1794
Setting atom values ...
  288 settings made for charge
set group hy charge 0.5897
Setting atom values ...
  576 settings made for charge

# ### TIP3P Potential Parameters ###
pair_style lj/cut/tip4p/long/omp 2 1 1 1 0.1577 8.5
pair_coeff 1 1*2 0.000 0.000
pair_coeff 2 2 0.21084 3.1668
bond_style  harmonic
bond_coeff  1 450 0.9572
angle_style harmonic
angle_coeff 1 55 104.52
kspace_style pppm/tip4p/omp 1.0e-5
pair_modify tail yes

thermo          ${out_freq}
thermo          1000
thermo_style    custom step temp pe etotal epair emol press lx ly lz vol pxx pyy pzz pxy pxz pyz enthalpy

restart 	${out_freq3} restart.lmp.${pid} restart2.lmp.${pid}
restart 	1000 restart.lmp.${pid} restart2.lmp.${pid}
restart 	1000 restart.lmp.0 restart2.lmp.${pid}
restart 	1000 restart.lmp.0 restart2.lmp.0


include         in.dump
dump            myDump all atom ${out_freq2} dump.water.${pid}
dump            myDump all atom 10000 dump.water.${pid}
dump            myDump all atom 10000 dump.water.0
dump            myDump2 all dcd ${out_freq2} dump.dcd
dump            myDump2 all dcd 10000 dump.dcd
dump_modify     myDump append yes
dump_modify     myDump2 append yes


variable natoms 	equal  "count(all)"                        # NUMBER ATOMS
variable H      	equal  "enthalpy/v_natoms"                 # ENTHALPY-per-atom
variable Vol      	equal  "vol/v_natoms"                 # volume-per-atom
fix AVG all 		ave/time ${out_freq} 1 ${out_freq} v_Vol v_H file vol_enthalpy.dat
fix AVG all 		ave/time 1000 1 ${out_freq} v_Vol v_H file vol_enthalpy.dat
fix AVG all 		ave/time 1000 1 1000 v_Vol v_H file vol_enthalpy.dat


timer           timeout 23:50:00 every 1000
New timer settings: style=normal  mode=nosync  timeout=23:50:00

fix 		1 all shake 1e-6 200 0 b 1 a 1
       0 = # of size 2 clusters
       0 = # of size 3 clusters
       0 = # of size 4 clusters
     288 = # of frozen angles
  find clusters CPU = 0.003 seconds
fix             2 all nph iso ${pressure} ${pressure} ${pressureDamp}
fix             2 all nph iso 8875 ${pressure} ${pressureDamp}
fix             2 all nph iso 8875 8875 ${pressureDamp}
fix             2 all nph iso 8875 8875 1000
fix             3 all temp/csvr ${temperature} ${temperature} ${tempDamp} ${seed}
fix             3 all temp/csvr 259.01 ${temperature} ${tempDamp} ${seed}
fix             3 all temp/csvr 259.01 259.01 ${tempDamp} ${seed}
fix             3 all temp/csvr 259.01 259.01 100 ${seed}
fix             3 all temp/csvr 259.01 259.01 100 745823

run             250000
PPPM initialization ...
  extracting TIP4P info from pair style
  using 12-bit tables for long-range coulomb (../kspace.cpp:340)
  G vector (1/distance) = 0.37420527
  grid = 24 24 24
  stencil order = 5
  estimated absolute RMS force accuracy = 0.0031674362
  estimated relative force accuracy = 9.53864e-06
  using double precision FFTW3
  3d grid and FFT values/proc = 2535 216
Last active /omp style is kspace_style pppm/tip4p/omp
Neighbor list info ...
  update every 1 steps, delay 7 steps, check yes
  max neighbors/atom: 2000, page size: 100000
  master list distance cutoff = 10.8154
  ghost atom cutoff = 10.8154
  binsize = 5.4077, bins = 4 4 4
  1 neighbor lists, perpetual/occasional/extra = 1 0 0
  (1) pair lj/cut/tip4p/long/omp, perpetual
      attributes: half, newton on, omp
      pair build: half/bin/newton/omp
      stencil: half/bin/3d
      bin: standard
Per MPI rank memory allocation (min/avg/max) = 9.236 | 9.239 | 9.243 Mbytes
Step Temp PotEng TotEng E_pair E_mol Press Lx Ly Lz Volume Pxx Pyy Pzz Pxy Pxz Pyz Enthalpy 
19750000    272.55835   -3838.4257     -3371.27   -3838.4257            0     7211.024    16.986581    20.007948    20.723589    7043.2561    6755.3648    6287.9889    8589.7182   -1181.7503   -191.32218   -493.33023   -2630.5633 
19751000    265.84155   -3875.9848   -3420.3415   -3875.9848            0    6622.9125    16.990433    20.012486    20.728288     7048.049    3910.1839    7660.9515    8297.6019    2009.3706   -361.97118   -2312.9503   -2739.5818 
19752000    269.56352    -3873.243   -3411.2203    -3873.243            0    8406.7095    16.970288    19.988757    20.703711    7023.0086      7100.99    9023.8388    9095.2996    112.01459     461.0631   -1362.9263   -2550.1768 
19753000    252.76013   -3852.3089   -3419.0867   -3852.3089            0    9644.7306     16.93954     19.95254    20.666199    6984.9035    10358.724    8645.4356    9930.0324   -167.59063   -979.69804    1648.2242   -2436.6006 
19754000    230.12035   -3878.2568   -3483.8384   -3878.2568            0    8145.9018    16.995649    20.018629    20.734652    7054.5421    6780.8424    9462.0911    8194.7721    302.64721    756.67912   -698.90677   -2645.7615 
19755000    254.39817    -3850.297   -3414.2672    -3850.297            0    9217.2309    16.988518    20.010231    20.725953     7045.667    9430.0643    11461.492    6760.1367   -307.22494   -1560.8775    -298.7274   -2467.1615 
19756000    274.75459   -3859.7663   -3388.8463   -3859.7663            0    10310.416    16.918194    19.927398    20.640157    6958.5315     11003.75    10748.772    9178.7246    1596.6657    303.12423    335.93035    -2342.514 
19757000    259.60426   -3830.3652   -3385.4124   -3830.3652            0    8595.3083    16.954544    19.970213    20.684504    7003.4806    8207.0545    9211.9993    8366.8711   -764.64685    421.32769    128.77117   -2507.4998 
19758000     270.5548   -3858.3098   -3394.5881   -3858.3098            0    8422.5198    16.986025    20.007294    20.722911    7042.5652    6745.1975    10067.997    8454.3652     199.8774    238.43706   -995.33736    -2529.523 
19759000    272.80978   -3848.5759   -3380.9893   -3848.5759            0    9604.9467    16.881739    19.884459    20.595682    6913.6462    11022.375    9676.2091    8116.2558   -227.48068   -199.09351   -1383.7575   -2412.5375 
19760000    263.78651   -3861.0693   -3408.9483   -3861.0693            0    8481.0583    16.923032    19.933096    20.646059    6964.5024    6157.3473    8225.5571     11060.27   -1009.7214    1208.8263    856.61023   -2547.5262 
19761000    255.30934   -3848.0633   -3410.4718   -3848.0633            0    7970.6364    16.950267    19.965175    20.679286    6998.1815    9655.8242     7655.203    6600.8821   -1224.6648   -910.55749    1110.0885   -2596.9783 
19762000    268.40922   -3817.1491   -3357.1049   -3817.1491            0     8197.756    16.952772    19.968127    20.682343    7001.2855    8633.5949      5568.09    10391.583   -654.32957    -1006.383    1364.6999   -2520.0602 
19763000    273.91809   -3861.2747   -3391.7885   -3861.2747            0    9792.8163    16.899509    19.905389    20.617361    6935.5006    10959.054    10039.184    8380.2117    1603.8373   -1334.6282    525.06112   -2401.2729 
19764000    248.45373    -3845.408   -3419.5668    -3845.408            0    9715.1348    16.944277     19.95812    20.671978    6990.7646    9131.4081    10973.704    9040.2923      -870.69    118.97754   -1704.3278   -2429.0784 
19765000    270.71014   -3884.3331   -3420.3452   -3884.3331            0    8447.0204    16.966618    19.984434    20.699234    7018.4531    9704.8653    7723.7895    7912.4064    132.88341   -1489.7386   -1158.3663    -2555.734 
19766000     260.5627   -3878.7424   -3432.1468   -3878.7424            0    8451.5263     16.99737    20.020656    20.736751    7056.6853    8258.3279    8772.1406    8324.1103    319.96033    -210.8573   -420.52779   -2562.3621 
19767000    257.08321   -3819.9182   -3379.2864   -3819.9182            0    11734.829    16.854891    19.852835    20.562927    6880.7124     13332.88    11674.659    10196.949    990.56476   -493.97802   -1879.8774   -2201.7182 
19768000    241.87153   -3863.4548   -3448.8953   -3863.4548            0    7445.4854    16.958395    19.974749    20.689202    7008.2541    7825.1547    9189.4025    5321.8991   -976.20219    225.75038    523.05424   -2687.9056 
19769000    252.25802   -3840.0133   -3407.6516   -3840.0133            0    9362.3071    16.907066     19.91429    20.626581    6944.8092    8369.8678    10517.076    9199.9772   -933.53581   -730.19639    1772.3592   -2459.4098 
19770000     261.9615   -3898.2685   -3449.2755   -3898.2685            0    8129.9651    16.965885    19.983571     20.69834    7017.5439    6772.4643    11309.519    6307.9126    1000.7363   -947.75924    974.48454   -2617.2249 
19771000    259.48021    -3904.626   -3459.8858    -3904.626            0    8011.4333    16.953634    19.969141    20.683394    7002.3528    7740.2761    8942.7853    7351.2386     713.7362    -422.1799    280.16923   -2641.7412 
19772000    263.50792   -3883.3281   -3431.6845   -3883.3281            0    9230.8387    16.984951    20.006029      20.7216    7041.2291    9195.6953    7975.7889    10521.032    636.58403     101.4118   -258.90213    -2483.778 
19773000    249.37098    -3884.548   -3457.1346    -3884.548            0    10994.886    16.824443    19.816972    20.525781    6843.4906    12261.813    9037.8893    11684.955    1216.2251   -1016.4676    2034.5369   -2359.7869 
19774000    271.44934   -3860.8696   -3395.6148   -3860.8696            0    9155.8177    16.928478    19.939511    20.652704    6971.2292    12103.353    5645.6405    9718.4597   -197.54095   -1895.7524    239.87779    -2464.759 
19775000    261.59123   -3878.4867   -3430.1283   -3878.4867            0    9556.4884    16.944449    19.958322    20.672188    6990.9777    8628.6317    9073.3654    10967.468    -266.6419   -2264.5148   -230.77598   -2455.7847 
19776000     268.9202   -3866.8863   -3405.9663   -3866.8863            0     8051.106    16.927486    19.938343    20.651494    6970.0037    6583.2702    9250.8063    8319.2417   -673.31172    532.52691    399.28039   -2587.5685 
19777000    258.72386   -3866.4545   -3423.0106   -3866.4545            0    9351.1695    16.958296    19.974633    20.689082    7008.1316    9270.0581     10036.74    8746.7108    1875.7936   -520.39142    120.36145   -2467.2611 
19778000    237.60791   -3862.1285   -3454.8767   -3862.1285            0    8179.4759    16.975917    19.995387    20.710579    7029.9994    6421.3613    8222.5046    9894.5619   -203.75152    265.01407    1355.7142   -2616.2732 
19779000    251.35819   -3875.2784   -3444.4591   -3875.2784            0    8886.1902    16.957721    19.973955    20.688379    7007.4178    9202.5419    9404.3986    8051.6299   -1328.0568    327.36932    191.09726    -2536.326 
19780000    270.70653   -3872.1936   -3408.2118   -3872.1936            0    10469.022     16.97822    19.998101    20.713389    7032.8618    11781.364    9289.3282    10336.374    1001.5119   -2177.4731   -1415.7317   -2334.4349 
19781000    279.76731   -3894.6804   -3415.1688   -3894.6804            0    8266.7207    16.975284    19.994642    20.709806    7029.2129    7695.9757    8335.0736    8769.1128   -1001.0396    575.74732   -259.43781   -2567.7153 
19782000    261.29218   -3880.2054   -3432.3595   -3880.2054            0    9752.7355    16.939262    19.952213     20.66586    6984.5593    9998.6515    9639.2736    9620.2815   -1511.9798    -874.5456     646.6375   -2438.9202 
19783000    265.41374   -3889.3511    -3434.441   -3889.3511            0    10426.442    16.919798    19.929287    20.642114     6960.511    10066.045    11506.557    9706.7257    33.475977     720.7922    518.92951   -2376.0329 
19784000    252.27594   -3882.8389   -3450.4466   -3882.8389            0    11272.583    16.910433    19.918257    20.630689    6948.9598    11177.455    11676.625     10963.67    207.12951    386.53416    1283.5875   -2308.0441 
19785000    245.06222   -3883.4531   -3463.4249   -3883.4531            0     8876.739    16.937982    19.950706    20.664299    6982.9767    7216.0746     8701.053    10713.089    1802.6876   -154.55328   -903.42761   -2559.4217 
19786000    254.91629   -3898.6304   -3461.7126   -3898.6304            0    10438.749    16.906894    19.914087    20.626371    6944.5969     11956.84    10860.184    8499.2213    1588.2503   -436.01691    -75.71739    -2404.478 
19787000    261.70522   -3863.3181   -3414.7643   -3863.3181            0    9940.0864    16.930687    19.942112    20.655398    6973.9576     9771.165    10138.218     9910.876    1880.1375    746.66825    819.09555   -2403.7778 
19788000    260.90501   -3851.6921   -3404.5098   -3851.6921            0    8991.0232    16.927996    19.938943    20.652116    6970.6334    9685.7252     8047.552    9239.7923   -825.53606   -1591.2388    1590.5772   -2490.4865 
19789000    259.03691   -3870.8219   -3426.8415   -3870.8219            0    7324.7791    16.969827    19.988214    20.703149    7022.4363    6719.6209    7946.7183    7307.9983   -1892.5869    -1012.218    850.37347    -2676.674 
19790000    256.13383   -3883.9238   -3444.9192   -3883.9238            0    8364.7762     16.96629    19.984049    20.698834    7018.0467    5820.8171    8269.0369    11004.475   -60.081895   -332.43099    1745.6921   -2588.7759 
19791000     252.5843    -3858.745   -3425.8242    -3858.745            0    7049.8403    17.005265    20.029957    20.746384     7066.524    6677.4564    6145.7968    8326.2678   -646.89227    710.39728   -360.90971   -2699.2817 
19792000    255.14331   -3881.5082   -3444.2013   -3881.5082            0    8953.0529     16.96402    19.981375    20.696065    7015.2305    7719.0882    8525.8061    10614.264   -102.65893    1906.7932   -256.88872    -2528.215 
19793000    267.39954   -3892.1322   -3433.8186   -3892.1322            0    6826.3106    16.999534    20.023206    20.739392    7059.3812      7503.61    5147.0801    7828.2416    1332.8145   -81.289028   -127.04043   -2731.0237 
19794000    252.08147   -3890.2563   -3458.1973   -3890.2563            0    7924.6956    16.960384    19.977092    20.691628    7010.7196    8408.2519    7156.2929     8209.542    593.26041   -753.75933   -529.08946   -2647.9435 
19795000    244.94973   -3896.1977   -3476.3622   -3896.1977            0    9877.1172    16.894908     19.89997    20.611748    6929.8376    9737.2206    10008.714    9885.4171    100.42284    225.29703    1001.5464   -2478.1356 
19796000     274.1445   -3883.2372   -3413.3629   -3883.2372            0    9319.3432     16.89006     19.89426    20.605834    6923.8747    8608.9196    10166.301    9182.8084    1962.3884   -1934.8018    846.97401   -2472.3179 
19797000    257.17477   -3873.1596   -3432.3709   -3873.1596            0    9588.8902    16.916641    19.925568    20.638262    6956.6149     7387.276     11163.75    10215.645    854.89493    2163.2427    193.45618   -2459.5291 
19798000    261.66389   -3842.5143   -3394.0313   -3842.5143            0    8716.2463    16.908526    19.916011    20.628363    6946.6094    8559.7922    8995.4397    8593.5069    2808.4185   -1098.8946   -2431.7932   -2510.9956 
19799000    265.61701   -3847.6359   -3392.3774   -3847.6359            0    9330.2613     16.90292    19.909407    20.621523    6939.7014    11683.169    7558.1909    8749.4236     2341.086   -402.03081   -1112.8302   -2448.0764 
19800000    268.51765   -3900.7383   -3440.5083   -3900.7383            0    10055.696    16.900789    19.906897    20.618923    6937.0768    9971.9097    11568.469    8626.7088   -250.01927    1668.9562   -1629.8771    -2423.172 
19801000    270.53401   -3865.6528   -3401.9667   -3865.6528            0    8586.3486    16.971777    19.990511    20.705528    7024.8574    6750.5727    10328.997    8679.4766    1198.6579    346.11484   -227.68713   -2522.2924 
19802000    249.32193   -3833.7685   -3406.4392   -3833.7685            0    9872.5293     16.82575    19.818512    20.527376    6845.0862    9243.9891    10547.643    9825.9561   -1387.4059   -807.30771    1793.1257   -2420.8788 
19803000    270.32671   -3910.5426   -3447.2118   -3910.5426            0    9373.4835    16.874642      19.8761    20.587024    6904.9306    9488.0529     8656.915    9975.4825    13.842889   -494.52998    196.12592   -2503.2896 
19804000    263.87534   -3865.8666   -3413.5933   -3865.8666            0     10234.61    16.917344    19.926396     20.63912    6957.4821    10253.268    11971.935     8478.627   -934.06439   -477.07483    3191.8415   -2375.1105 
19805000    255.75891   -3893.3651   -3455.0031   -3893.3651            0    10804.483    16.893303     19.89808    20.609791    6927.8636    10359.953    11637.953    10415.544      1741.69   -810.46584    1413.9639   -2363.3636 
19806000    284.27873   -3918.2021   -3430.9581   -3918.2021            0    8848.2057    16.918069    19.927251    20.640005    6958.3777    9214.7238    11168.617    6161.2758    1421.1196    1156.3834    1954.1434   -2533.0351 
19807000    276.03506   -3938.4558   -3465.3411   -3938.4558            0    8150.5398    16.946121    19.960292    20.674228    6993.0474    8410.8065    7977.1078    8063.7052   -922.19962   -916.53863    217.38854   -2634.0967 
19808000    266.44219   -3894.6109   -3437.9381   -3894.6109            0    9297.6837    16.927657    19.938544    20.651702    6970.2148    10545.964    8933.1989    8413.8883    727.38209   -536.02037    601.09379   -2492.7966 
19809000    264.39143   -3893.9946   -3440.8367   -3893.9946            0    8761.8021     16.92337    19.933494    20.646472    6964.9201    9635.5983    8028.2252    8621.5828     385.5276   -1600.3122    1470.3526    -2550.846 
19810000    249.42745   -3908.4822   -3480.9721   -3908.4822            0    9859.0813    16.894387    19.899357    20.611113    6929.1973    10086.286    9911.6863    9579.2721   -1263.9798   -63.602917    323.29373   -2484.6603 
19811000     252.2127   -3870.4801   -3438.1961   -3870.4801            0    12700.705     16.87099    19.871798    20.582568     6900.448    13384.822     13833.02    10884.273   -156.04819    908.28984   -155.71786   -2160.0485 
19812000    255.68115   -3862.3046   -3424.0758   -3862.3046            0    7234.5332     16.94817    19.962706    20.676728    6995.5854    7123.3066    7284.1278     7296.165   -697.48026    175.76343   -465.69206   -2685.9839 
19813000    271.93364   -3848.0917   -3382.0068   -3848.0917            0    8601.5718    16.919637    19.929098    20.641918    6960.3122     9201.959     8073.099    8529.6573   -117.55991    361.64708   -938.42848   -2508.8697 
19814000    265.89662   -3882.8437    -3427.106   -3882.8437            0    10864.793    16.849602    19.846606    20.556476     6874.238     11480.86    10089.793    11023.727   -1693.4355    58.983124    1122.9552   -2337.8702 
19815000    248.67842    -3896.995   -3470.7687    -3896.995            0    10469.205    16.867367     19.86753    20.578148    6896.0036    12929.742    9285.7768    9192.0951    -523.1458   -2457.1173   -2005.6566   -2417.8689 
19816000    273.56618   -3878.5338   -3409.6508   -3878.5338            0    8486.9523    16.934009    19.946026    20.659451    6978.0637    8795.1067    8476.0379    8189.7124   -1454.0546    84.623622   -1212.9083   -2545.9514 
19817000    259.90618   -3922.0806   -3476.6103   -3922.0806            0     8380.208    16.961067    19.977897    20.692463    7011.5676    9037.0409    8008.5914    8094.9919   -474.17054   -687.35307   -1552.6305   -2619.6794 
19818000    265.22416   -3896.7421    -3442.157   -3896.7421            0    10733.832    16.914758     19.92335    20.635965    6954.2921    11319.181    11548.531    9333.7852    358.49464   -304.15861   -31.089082   -2353.5186 
19819000    256.40738   -3925.6642   -3486.1907   -3925.6642            0    7196.2712    16.896119    19.901396    20.613225    6931.3281    8208.6156    4437.9702    8942.2278   -1196.3505   -409.71945   -1115.2598   -2758.7462 
19820000    253.84592   -3869.5402    -3434.457   -3869.5402            0    8315.1953    16.929206    19.940369    20.653592    6972.1285    8228.4651    9272.1685    7444.9522    846.47285    586.34919   -2084.8495   -2588.9568 
19821000    256.18514   -3889.0789   -3449.9864   -3889.0789            0     6866.066    16.939205    19.952145     20.66579    6984.4888    5898.4942    8007.9699     6691.734    151.40066   -602.23528    1194.3808   -2750.5979 
19822000    278.91564   -3860.9373   -3382.8855   -3860.9373            0     8940.006    16.930048     19.94136    20.654619    6973.1684    8118.0579    11198.034    7503.9257    1280.6443   -887.21622    917.81322   -2473.7181 
19823000    249.11224   -3928.4731   -3501.5032   -3928.4731            0    8713.2331    16.911457    19.919462    20.631938    6950.2214     7450.509     8430.359    10258.831    -364.4588    599.95609    1384.5024   -2618.3138 
19824000     267.9657   -3933.3203   -3474.0363   -3933.3203            0    9637.4197    16.891237    19.895646     20.60727     6925.322    10693.578    8933.2123     9285.469   0.17301004    122.70892    332.06701   -2500.6692 
19825000    252.69592   -3871.0851   -3437.9729   -3871.0851            0    10334.823    16.829062    19.822413    20.531417    6849.1292    11735.144    9025.4923    10243.833   -839.71311   -274.85374    1945.5114    -2405.653 
19826000    246.54959   -3867.4898   -3444.9122   -3867.4898            0    7442.0627    16.983737    20.004599    20.720119    7039.7195     8389.135    6910.9383    7026.1147    358.03779   -318.24786    1123.0868   -2680.8573 
19827000    255.49886   -3893.5112   -3455.5949   -3893.5112            0    9558.9743    16.868083    19.868374    20.579022    6896.8822    10936.756     10479.94    7260.2266   -1682.4193     -40.3668   -558.15195   -2494.1155 
19828000    263.24962   -3830.2653   -3379.0644   -3830.2653            0    9096.7916    16.920067    19.929604    20.642442    6960.8429    8097.6318    10006.068    9186.6754    1438.3178     1205.472   -757.83469   -2455.5877 
19829000    259.97874   -3893.7762   -3448.1815   -3893.7762            0    9269.7699     16.85403    19.851821    20.561877    6879.6584    7341.8285    11464.081    9003.4007    680.30366    1195.1535    734.76276   -2518.1199 
19830000    260.73666   -3866.5988   -3419.7051   -3866.5988            0    8327.3166     16.99119    20.013378    20.729212    7048.9917    9252.7046    7001.6304    8727.6149    756.25598    468.36396    397.10052   -2563.6377 
19831000     250.8036   -3880.6016   -3450.7328   -3880.6016            0    8559.0243    16.971613    19.990318    20.705328     7024.654    10067.997    7302.3342    8306.7413   -783.10572    754.42141    217.07262   -2573.8833 
19832000    254.97682    -3917.539   -3480.5174    -3917.539            0    7846.9137    16.915455    19.924171    20.636815    6955.1518    7163.3573    8626.0207    7751.3632    426.74729   -868.24367   -832.61038   -2684.5755 
19833000    246.29845   -3900.7558   -3478.6087   -3900.7558            0    9653.9034    16.883985    19.887104    20.598422    6916.4052    9250.0989    10396.362    9315.2495    559.26526   -813.77483    2585.7525   -2504.8323 
19834000    271.25072     -3869.58   -3404.6655     -3869.58            0    8306.4123    16.900984    19.907127    20.619162    6937.3179     7845.342    8559.4062    8514.4889   -86.526327    1081.2155    1391.7722   -2564.2754 
19835000    258.68783   -3895.7076   -3452.3255   -3895.7076            0    8527.5922    16.894495    19.899483    20.611244    6929.3298     9830.837    8524.2957    7227.6441    857.87931    195.61645   -1126.4555   -2590.5512 
19836000    264.60566    -3889.129   -3435.6039    -3889.129            0    9583.7443    16.885083    19.888398    20.599762    6917.7553    9713.0181    10495.181    8543.0336   -423.64121    1459.5416   -273.39477   -2468.7156 
19837000    261.61415   -3909.2357    -3460.838   -3909.2357            0    8566.9605    16.883469    19.886497    20.597793    6915.7721    7405.4212    9576.8751    8718.5852   -1033.6185   -555.10087    1133.7133   -2596.7792 
19838000    251.22323   -3805.9076   -3375.3196   -3805.9076            0    9984.7341    16.884642    19.887878    20.599223    6917.2128    11412.951    8835.2412    9706.0095    254.36829    1379.0795    405.45891   -2368.0551 
19839000    249.06379   -3876.5839   -3449.6971   -3876.5839            0    10182.691    16.874667    19.876129    20.587055    6904.9614    9825.5378    10896.762    9825.7731   -1083.8426   -191.09446   -634.52563    -2424.282 
19840000    260.09836   -3876.1005   -3430.3008   -3876.1005            0    11233.763    16.853855    19.851615    20.561664     6879.444     10465.15    11274.101    11962.038    448.31767   -1635.8145    -105.2999   -2303.2215 
19841000    241.39131   -3861.7967   -3448.0603   -3861.7967            0    10273.209    16.916708    19.925647    20.638344    6956.6978    10332.916    10862.584    9624.1272    306.81188    -1439.272    71.939202   -2405.7785 
19842000    263.18489   -3846.9818   -3395.8919   -3846.9818            0    10632.987    16.902353    19.908739    20.620831    6939.0028    10996.272    11492.024    9410.6654   -498.62363   -551.23078   -191.42508   -2319.8523 
19843000     249.8483   -3892.1524    -3463.921   -3892.1524            0    9041.0894    16.915119    19.923776    20.636406    6954.7383     8751.515    9727.9764    8643.7767   -252.66557    2155.6446    1561.4207   -2546.9038 
19844000    250.47396   -3870.3863   -3441.0825   -3870.3863            0    11905.882    16.813476    19.804054    20.512401    6830.1163    10631.585    14167.033    10919.028   -3147.5753    277.77734    38.517608   -2255.1347 
19845000    250.91134   -3895.2353   -3465.1819   -3895.2353            0    6910.8081    16.936125    19.948518    20.662033      6980.68     7087.297     6753.005    6892.1224    773.08838   -1166.5056    204.46818   -2761.6197 
19846000    266.89728   -3868.0137   -3410.5609   -3868.0137            0    10059.048    16.906342    19.913438    20.625698    6943.9173    9476.6515    12035.999    8664.4946   -172.33685    4.2515655    1617.8795   -2391.8819 
19847000    267.71335    -3868.099   -3409.2475    -3868.099            0    9741.9333    16.865425    19.865243    20.575779    6893.6219     10903.11    10412.183    7910.5069    1238.3803    176.30826   -839.44752   -2429.8285 
19848000    249.64291   -3895.9244   -3468.0449   -3895.9244            0    7005.3897    16.988091    20.009727    20.725431    7045.1351    9082.2288    7222.8104    4711.1298    1594.1132   -389.67186   -780.17351   -2748.2687 
19849000    255.77263   -3882.7613   -3444.3758   -3882.7613            0    6398.1997    16.988157    20.009805    20.725512    7045.2177    6469.3845    6507.0564    6218.1581    788.16172    232.06406   -825.11988   -2786.9782 
19850000    255.40658   -3892.7556   -3454.9974   -3892.7556            0    9225.8816    16.926802    19.937537    20.650659    6969.1587    6814.5373    9984.0901    10879.017    -500.7301     666.9582   -890.43237    -2517.297 
19851000    254.94848   -3920.9306   -3483.9577   -3920.9306            0    8877.3593     16.94532    19.959349    20.673251    6992.0565    6414.3451    9740.3012    10477.431    557.58808   -417.08443    275.44288   -2578.7158 
19852000    268.96075   -3872.7352   -3411.7457   -3872.7352            0    9769.1756    16.917338    19.926389    20.639113    6957.4751     9887.218    8902.3851    10517.924   -91.098083    2078.1591     769.1257   -2420.4905 
19853000    261.66403   -3864.1912    -3415.708   -3864.1912            0    9442.9555     16.86096    19.859984    20.570332    6888.1483    9908.0693    9674.5961    8746.2012    208.51151     2505.337     719.0077    -2467.101 
19854000    262.73036   -3895.6187   -3445.3079   -3895.6187            0    8094.2566    16.949946    19.964797    20.678894    6997.7842    7507.5525    7082.0768    9693.1405   -134.05657    742.23131    352.09613   -2619.2444 
19855000    268.83529   -3872.0471   -3411.2726   -3872.0471            0    8731.4043    16.925314    19.935784    20.648843    6967.3205    6493.3254    10008.713    9692.1745   -464.95172    924.32425    787.80352   -2524.0639 
19856000    244.08113   -3874.0559   -3455.7092   -3874.0559            0     7539.691    16.974978    19.994282    20.709434    7028.8338    6714.1363    8106.2847    7798.6522    1163.4624    79.178066    1267.4498    -2682.828 
19857000    249.40515   -3877.3956   -3449.9237   -3877.3956            0    8911.4512    16.897066    19.902512    20.614381    6932.4938    10742.142     7728.896    8263.3152    1079.7752   -81.344472    245.50998   -2548.9465 
19858000    262.03603   -3874.3018    -3425.181   -3874.3018            0    8913.5581    16.942565    19.956104     20.66989    6988.6469    11009.063    7767.9176    7963.6934    878.86059    301.00706    956.82461   -2516.6911 
19859000    267.59163   -3891.9661   -3433.3233   -3891.9661            0    10080.802    16.886634    19.890224    20.601653    6919.6611    9882.0925    9560.2537    10800.061    -224.1638    969.31059    28.422463   -2416.0074 
19860000    250.95276   -3846.4304   -3416.3059   -3846.4304            0    8809.1064    16.955424    19.971249    20.685577    7004.5707     8195.835    7392.2529    10839.231    557.64999   -1143.1056    7.5777467   -2516.4163 
19861000    258.57689   -3856.3343   -3413.1423   -3856.3343            0    7562.6363    16.937368    19.949982    20.663549    6982.2173    7442.9548    6808.9538    8436.0002   -1717.1973    15.152223   -978.67142   -2643.0506 
19862000    270.82494   -3896.9381   -3432.7534   -3896.9381            0    8410.0544    16.936813    19.949329    20.662873    6981.5312    9752.2973    7656.1162    7821.7496    1806.5173    312.67764   -1740.3884   -2576.4546 
19863000    249.00128   -3861.9832   -3435.2035   -3861.9832            0    7868.1036    16.958555    19.974938    20.689398    7008.4527    8631.2806    8314.9639    6658.0663    649.72935   -9.1451441    323.35941   -2630.9961 
19864000     270.6665   -3858.3671    -3394.454   -3858.3671            0    8462.8347    16.912042    19.920151    20.632651    6950.9426    6598.8491    7592.2797    11197.375    387.61706   -328.33475     135.2036   -2536.5564 
19865000    254.09182   -3834.1012   -3398.5965   -3834.1012            0    10066.942    16.883781    19.886864    20.598174    6916.1555    9537.6446    10139.268    10523.914    -573.8208    710.26148    1974.6991    -2383.194 
19866000    253.68885   -3866.6643   -3431.8503   -3866.6643            0    9306.2894    16.922553    19.932532    20.645475    6963.9112    10986.925     8763.393      8168.55    -187.7764    1272.5455    580.47587   -2486.6896 
19867000    247.35973   -3893.7894   -3469.8232   -3893.7894            0    7710.5515    16.968634     19.98681    20.701694    7020.9561    7682.6545     7034.357    8414.6431   -74.208427    100.03158    1765.0145   -2680.3133 
19868000    244.40389   -3838.6167   -3419.7168   -3838.6167            0    10999.805    16.912067    19.920181    20.632683    6950.9744    11969.455    11828.866     9201.095   -589.14157    978.17938    498.76915   -2304.6354 
19869000    261.02697   -3874.7406   -3427.3493   -3874.7406            0    6602.1872     16.99452    20.017299    20.733274    7053.1361    6587.9705    6689.2662    6529.3248   -430.55177    1996.9578   -78.729516   -2748.2301 
19870000    242.56462   -3842.5717   -3426.8243   -3842.5717            0    9998.5327    16.949284    19.964018    20.678087    6996.9645    9524.1572    9977.8791    10493.562    -1458.872    335.69757   -1148.2155   -2406.5385 
19871000    260.45723   -3891.1801   -3444.7653   -3891.1801            0    8835.3062    16.964921    19.982436    20.697163    7016.3473    9099.8304    8247.0024    9159.0857    1221.8824    -623.4854   -802.86568   -2540.6817 
19872000    258.14997   -3820.6619   -3378.2016   -3820.6619            0    11010.452    16.884103    19.887243    20.598566    6916.5506    11032.457     11176.83    10822.069   -544.69233   -434.68599    727.10125   -2267.5686 
19873000     259.1798   -3882.4176   -3438.1923   -3882.4176            0    9537.4995    16.880954    19.883534    20.594724    6912.6813    6977.4085    10933.899    10701.191    1006.4699    1271.1496    678.29297   -2476.6753 
19874000    257.18377   -3846.0658   -3405.2617   -3846.0658            0     8710.893    16.904349    19.911091    20.623267    6941.4624    9342.4389    8431.3031     8358.937    -496.1039   -1449.9339    1840.9014   -2523.4222 
19875000    275.20995   -3860.1286   -3388.4281   -3860.1286            0    8714.0447    16.905957    19.912984    20.625228     6943.443     9661.391    8583.8312    7896.9119   -707.44927   -463.70358    1012.1655   -2506.0179 
19876000    262.03398   -3882.6123    -3433.495   -3882.6123            0    8552.7677    16.906045    19.913088    20.625336    6943.5515    9601.4014    8214.1585    7842.7433    1299.6639    530.38657    124.78799   -2567.4026 
19877000    266.01436   -3886.6387   -3430.6992   -3886.6387            0    10899.826    16.871856    19.872818    20.583625    6901.5112    9800.2512    11947.815    10951.413   -908.99728    1296.9061    72.226662   -2333.6157 
19878000    271.13267   -3913.3401    -3448.628   -3913.3401            0    7738.7119    16.911641    19.919679    20.632163    6950.4487    10647.464    6556.1687    6012.5028    1502.6863    600.19161   -476.05573   -2664.1922 
19879000    280.48595   -3897.5742   -3416.8308   -3897.5742            0    8887.8833    16.903838    19.910489    20.622643    6940.8325    8971.2002    8204.3035    9488.1462   -1319.0149     1318.548   -1357.5299   -2517.1555 
19880000    251.21913   -3913.3405   -3482.7595   -3913.3405            0    9237.9765    16.875867    19.877542    20.588518     6906.434    8045.5747    10286.133    9382.2217    520.16402    1353.2092   -970.98541   -2552.2804 
19881000    259.41722    -3923.546   -3478.9137    -3923.546            0    7041.3668    16.907599    19.914918    20.627231    6945.4664    6967.9617    7688.7832    6467.3554   -264.16417   -217.89006    675.58896   -2765.6761 
19882000    261.43479    -3869.734   -3421.6437    -3869.734            0    7681.2766    16.971524    19.990213    20.705219    7024.5435    6528.8251    10544.798    5970.2068    91.657347    1435.9721    1145.1803   -2634.7295 
19883000    258.41342   -3886.6309   -3443.7192   -3886.6309            0    9475.8802     16.90176    19.908041    20.620108    6938.2731    9472.1701    11207.963    7747.5074    143.16543   -296.12714   -426.71057   -2484.8776 
19884000    251.41854   -3896.0723   -3465.1495   -3896.0723            0    8860.4961     16.95629     19.97227    20.686634    7005.6445    7584.7246    10107.732    8889.0313   -15.461255   -41.355836    95.887276   -2559.8714 
19885000    246.53544    -3923.296   -3500.7427    -3923.296            0    6426.6885    16.976478    19.996049    20.711264    7030.6971    7738.3724    5380.4243    6161.2687    416.45969    931.29268    173.42077    -2841.779 
19886000     243.0732   -3867.3093   -3450.6901   -3867.3093            0     9064.764    16.882582    19.885451    20.596711    6914.6816    9798.1581    8223.1552    9172.9788    116.16963    -912.6843   -419.74751   -2536.5672 
19887000    248.22409   -3893.4896    -3468.042   -3893.4896            0    9127.0866    16.917056    19.926058    20.638769    6957.1279    10277.686    8575.6962    8527.8773   -874.03709   -730.85798   -525.92724   -2541.9843 
19888000     257.2335   -3880.8936   -3440.0042   -3880.8936            0    9051.8942    16.873088    19.874268    20.585127    6903.0222    9584.2801    7726.3364     9845.066    245.39249   -877.28196   -355.50127   -2528.7183 
19889000    250.07999   -3907.8891   -3479.2606   -3907.8891            0    9890.2709    16.845793    19.842119    20.551829     6869.577    10928.783     9095.066     9646.964    619.41995    -203.5552   -177.69949   -2488.3965 
19890000    252.31696   -3883.9182   -3451.4556   -3883.9182            0    10169.352    16.878663    19.880836     20.59193    6909.8676    10091.601    10351.054    10065.402   -1083.3735   -1544.6894   -2524.2423   -2426.6561 
19891000    249.03485   -3915.2061   -3488.3689   -3915.2061            0    7867.2723    16.944049    19.957852    20.671701    6990.4835    7958.0339    6480.7545    9163.0285    153.56632    416.72776    1488.8866   -2686.3081 
19892000    248.31591   -3898.7838   -3473.1788   -3898.7838            0    8160.3256    16.962333    19.979388    20.694007    7013.1374    7954.0719    7281.6983    9245.2067    487.09608    310.49499    470.59034   -2638.5455 
19893000     260.7132   -3932.1651   -3485.3116   -3932.1651            0    7576.2771    16.933662    19.945617    20.659028    6977.6346    7657.4578    5595.0533    9476.3201   -773.33297    -972.3591   -927.75737   -2714.3372 
19894000    257.75058   -3902.1141   -3460.3384   -3902.1141            0      7406.12    16.937217    19.949805    20.663365    6982.0309    5382.3532    9268.3032    7567.7037    428.17068   -532.12907     1677.966   -2706.2047 
19895000    257.24897   -3864.8474   -3423.9314   -3864.8474            0    9837.0868    16.922095    19.931993    20.644917    6963.3462    9264.9013    8640.6999    11605.659    877.45361    406.88319    -1180.323   -2424.9432 
19896000    238.98471   -3873.9263   -3464.3147   -3873.9263            0     8756.362    16.957648    19.973869    20.688291    7007.3278    5643.4941    10713.146    9912.4464    142.32786     821.4061   -251.21521    -2569.461 
19897000    239.80671   -3884.3341   -3473.3136   -3884.3341            0    8800.9148    16.929882    19.941165    20.654416    6972.9632    8348.5477    9583.1569    8471.0398    1352.9724    1001.3989   -587.65464   -2578.3176 
19898000    238.97497   -3869.1079    -3459.513   -3869.1079            0    10314.908    16.956665    19.972712    20.687092    7006.1095    10403.963    10742.721    9798.0389    161.25444   -1694.5715    284.41677   -2405.5675 
19899000    270.44457   -3858.6056   -3395.0728   -3858.6056            0    7124.3696    17.020496    20.047896    20.764966    7085.5283    7495.3178    5778.8981    8098.8929   -75.790525   -435.97446   -875.30999   -2658.8749 
19900000    244.92083   -3862.3054   -3442.5195   -3862.3054            0    8231.4236    17.001641    20.025688    20.741963     7062.007    8225.4201    7492.3921    8976.4587    1061.3955     1050.665    80.214555   -2594.7477 
19901000    261.35086   -3870.8124    -3422.866   -3870.8124            0    8148.4835    17.008603    20.033888    20.750456    7070.6858    7870.7822    10473.008    6101.6601    1082.6937    748.95327    782.37721   -2582.6049 
19902000    238.44732   -3869.5378   -3460.8472   -3869.5378            0    8677.1137    16.973377    19.992396    20.707481    7026.8452    7651.8296    7128.4835    11251.028   -632.89422   -620.77524    183.78191   -2571.6224 
19903000    271.45199   -3873.6908   -3408.4313   -3873.6908            0    7289.2412    16.952655    19.967989      20.6822    7001.1406    8413.8296    6059.9461    7393.9479   -1288.7154    800.94794    1091.6726   -2664.1673 
19904000    250.01896   -3885.4524   -3456.9285   -3885.4524            0     7872.899    16.999651    20.023343    20.739534    7059.5264    8886.1773    7961.3798    6771.1398    -1133.662    887.82088   -922.67409   -2646.3667 
19905000    257.41779   -3878.0098   -3436.8046   -3878.0098            0    7743.4464    17.027169    20.055756    20.773106    7093.8651    4815.3228    8886.7617    9528.2547    963.49768   -180.22913   -773.06689   -2635.6928 
19906000    254.80671   -3929.7808   -3493.0508   -3929.7808            0    7022.7143    16.986486    20.007836    20.723473     7043.138    6022.5945    6148.5963    8896.9522    -317.5326   -134.43577    1291.9294   -2771.6991 
19907000    247.21644    -3869.633   -3445.9125    -3869.633            0    7371.8868    16.985798    20.007026    20.722634    7042.2827    6939.5489    6855.5416    8320.5699   -532.07653    89.868516    1241.0838   -2688.7867 
19908000    264.76639   -3912.4463   -3458.6458   -3912.4463            0      9067.22    16.969726    19.988096    20.703026    7022.3115    9269.8629    9006.1111     8925.686    37.154552   -1788.0059   -1029.6489   -2530.0427 
19909000    261.22698   -3887.8901    -3440.156   -3887.8901            0     9846.795    16.947082    19.961424      20.6754    6994.2375    9385.5258    10074.783    10080.076    147.57421   -64.260629   -430.12865   -2435.7457 
19910000    263.50081   -3850.7272   -3399.0958   -3850.7272            0     8243.485    17.000878    20.024789    20.741032    7061.0563    8574.3654    7427.8633    8728.2262   -1322.6856    782.06458     1538.743   -2550.1961 
19911000    248.09106   -3889.2659   -3464.0463   -3889.2659            0    9597.5019     16.95109    19.966145     20.68029    6999.2012    12003.659    9384.6695    7404.1771    11.219701   -2507.2642    -323.1583     -2484.37 
19912000     260.0824   -3892.3597   -3446.5874   -3892.3597            0    8969.6283    17.006284    20.031157    20.747627    7067.7944    9061.8914     9448.217    8398.7765   -1336.3047   -1141.0537   -678.67136   -2522.0292 
19913000    255.68655   -3881.4474   -3443.2094   -3881.4474            0     9665.488    16.974413    19.993617    20.708744    7028.1317    11526.796    10660.641    6809.0269     334.0722      37.6013   -1605.0446   -2452.5153 
19914000    243.34895   -3870.3276   -3453.2358   -3870.3276            0    10827.963    16.908604    19.916102    20.628458    6946.7053    12383.012    9253.1369     10847.74   -1508.4398   -726.91658   -261.19872   -2356.2487 
19915000     255.9684   -3886.6152   -3447.8941   -3886.6152            0    10005.396    16.929912      19.9412    20.654453    6973.0001    9556.5228    10671.243    9788.4209   -1467.9746   -1875.1412    33.543848   -2430.4048 
19916000    254.42116   -3883.3143   -3447.2451   -3883.3143            0    7415.6794    17.052715    20.085846    20.804272    7125.8419    7044.6744    8740.1304    6462.2333   -756.52243    344.44092    163.63971   -2676.5848 
19917000    243.80238   -3905.5382   -3487.6693   -3905.5382            0    9765.9118    16.923021    19.933084    20.646046    6964.4894    11037.784    8708.6828    9551.2689   -606.56981    948.83642    1002.2243   -2495.7463 
19918000    268.00477   -3884.6071   -3425.2561   -3884.6071            0    9111.3953    16.961597    19.978521    20.693108    7012.2242    10042.252    9582.4549    7709.4794    686.01896   -864.80924    449.57194   -2493.4693 
19919000    265.21894   -3855.7921   -3401.2159   -3855.7921            0     9457.995     16.93179    19.943412    20.656745    6975.3215    10920.269    7185.1347    10268.581    2285.2472   -558.35587   -603.71457   -2439.0738 
19920000    260.00701   -3867.6582   -3422.0151   -3867.6582            0     8900.709    16.975208    19.994552    20.709714    7029.1186    7414.4361     10518.82    8768.8711   -1022.5943   -929.28958    741.75397   -2509.5813 
19921000    250.73962    -3872.968   -3443.2089    -3872.968            0    9380.8179     16.97271     19.99161    20.706666    7026.0159     10353.41    9381.0226    8408.0207   -194.56702   -401.45018   -799.25761   -2481.9824 
19922000    260.63947   -3896.8226   -3450.0955   -3896.8226            0    8709.2661    16.983425    20.004231    20.719738    7039.3312     8012.035      9077.09    9038.6733   -415.08065    357.04083    939.00902   -2555.9899 
19923000    249.31441   -3870.0583    -3442.742   -3870.0583            0      9998.17     16.93563    19.947935    20.661429    6980.0679    9075.9771     10920.73    9997.8026    191.49427    337.66073   -2218.7628   -2424.9569 
19924000    251.01769   -3889.3509   -3459.1151   -3889.3509            0    7678.9825    17.016054    20.042664    20.759546    7079.9816     7334.777    6938.9186     8763.252    1275.5976   -1860.2964    -438.9511   -2666.2274 
19925000    278.10238   -3927.6345   -3450.9766   -3927.6345            0    7813.0956    17.050083    20.082745    20.801061    7122.5429     8014.873    8065.0697    7359.3442    222.82593   -825.48496    14.802621   -2639.3914 
19926000    257.23495   -3889.9352   -3449.0433   -3889.9352            0    7791.4102    16.971044    19.989648    20.704634    7023.9477    7813.8434    6973.6549    8586.7322   -113.32991   -117.72575    891.45383    -2650.914 
19927000    266.89146   -3874.8907   -3417.4479   -3874.8907            0    7407.2722    17.007787    20.032926     20.74946    7069.6677    7103.7224    7315.2104    7802.8837    1311.7515   -289.38888   -1733.1436   -2653.7296 
19928000     261.4911   -3858.9885   -3410.8017   -3858.9885            0    7543.7098    17.033136    20.062784    20.780386    7101.3253    7055.5585    6332.9902    9242.5806     109.3816   -821.32012    499.02948   -2629.5333 
19929000      266.244   -3899.7545   -3443.4214   -3899.7545            0    7476.9049    17.003349    20.027699    20.744046    7064.1347    8488.7636    5652.2911    8289.6601    687.96374    1105.9219    16.895035    -2673.127 
19930000    252.48751   -3889.3864   -3456.6314   -3889.3864            0    8000.3437    16.989066    20.010876    20.726621    7046.3487    9474.1606    6425.7465     8101.124   -527.94116    1671.3367    631.85795    -2634.486 
19931000    272.19821   -3884.2957   -3417.7573   -3884.2957            0    10605.133     16.91545    19.924166    20.636809    6955.1459    11651.256    10066.846    10097.297    908.77607    1441.0788   -1212.8957   -2342.0397 
19932000    277.14594   -3869.4371   -3394.4184   -3869.4371            0    8526.7581    16.985555    20.006741    20.722338     7041.981    7742.1662    9400.8288    8437.2792   -554.67929   -34.486462   -735.60003   -2518.7198 
19933000    251.93349   -3877.8457   -3446.0403   -3877.8457            0    10947.898    16.898282    19.903945    20.615865    6933.9912    11920.552    11112.806    9810.3347    541.91991   -650.73771    1011.9643   -2338.9325 
19934000    252.59067   -3879.6269   -3446.6952   -3879.6269            0    10419.549     16.86445    19.864095     20.57459    6892.4268    10347.829    9699.3255    11211.492   -1333.1755   -220.31687    1020.7517   -2399.3328 
19935000    263.98738   -3888.2541   -3435.7888   -3888.2541            0    7059.9872    17.075429      20.1126    20.831984     7154.355    7178.6817    7299.6106    6701.6693    927.85256     89.01633    551.99979   -2699.1573 
19936000    258.88047   -3861.4878   -3417.7756   -3861.4878            0    7855.6736    17.037128    20.067487    20.785257      7106.32    7463.2727    8297.8706    7805.8775    899.79517     195.8235    1521.9449   -2603.6262 
19937000    250.82227   -3869.6051   -3439.7043   -3869.6051            0    8513.8493    16.954041    19.969621     20.68389    7002.8571    7106.6322    8728.6982    9706.2175    859.04213    764.90468    710.05784   -2570.1893 
19938000     267.5107     -3852.81   -3394.3058     -3852.81            0    11353.826    16.874499     19.87593    20.586849    6904.7543    9956.0679    12032.248    12073.161    48.054964    2324.7906    627.99448   -2250.9897 
19939000    256.81075   -3888.8209    -3448.656   -3888.8209            0    8203.1734    16.918096    19.927282    20.640037    6958.4101     8302.104    7690.4376    8616.9785    2130.0968    466.11152   -541.35549   -2616.1876 
19940000    275.50523   -3861.1609   -3388.9544   -3861.1609            0    8596.7748    16.912184    19.920318    20.632824    6951.1176    7471.3162    10286.818    8032.1906    981.35724    302.27499   -1058.5892    -2517.457 
19941000    266.74111   -3892.2479   -3435.0627   -3892.2479            0    9241.9963    16.933767    19.945741    20.659156    6977.7651    9368.7488    8829.0572     9528.183    225.69867    -231.8464    980.78456   -2494.5644 
19942000    259.75498    -3872.129   -3426.9178    -3872.129            0    9828.5443    16.883404    19.886419    20.597713    6915.6912    8143.1755    10176.019    11166.439   -1034.0252   -110.78864   -258.24025   -2435.6279 
19943000    250.33501   -3859.8339   -3430.7682   -3859.8339            0    9552.7312    16.891129    19.895519    20.607138    6925.1892    9600.8222    9574.5216    9482.8499      667.975     -959.904   -599.10886   -2465.9731 
19944000    263.58063   -3867.4789   -3415.7107   -3867.4789            0    9723.5135    16.884971    19.888265    20.599625    6917.6173    8938.0486    9607.7672    10624.725   -1245.5194    347.70108   -130.36847   -2434.7409 
19945000    264.54544   -3874.0757   -3420.6539   -3874.0757            0    9102.2438    16.877223    19.879139    20.590172    6908.0986    7857.1671    10501.949    8947.6151    842.65109    158.94573    -35.14795   -2503.6253 
19946000    249.46549   -3855.6664    -3428.091   -3855.6664            0    6883.7733     16.96026    19.976946    20.691478    7010.5667    6315.7113    6653.0688    7682.5398    680.02688    53.752539    507.09685   -2724.2808 
19947000    251.90471   -3865.3518   -3433.5957   -3865.3518            0    8555.1043    16.902435    19.908836    20.620931    6939.1044    9055.4204    9010.2475     7599.645    -1008.964     1091.501    705.03067   -2567.8216 
19948000    251.68823   -3876.3333   -3444.9483   -3876.3333            0    7131.2004    16.997811    20.021176     20.73729    7057.2353    4573.4937    7069.0313    9751.0762   -493.68768    160.12372    135.09122    -2710.987 
19949000    277.26082   -3894.3492   -3419.1336   -3894.3492            0    8063.3127    16.943744    19.957492    20.671328    6990.1054    8298.2192    8374.2167    7517.5021   -545.32598    627.00276    384.92247   -2597.1311 
19950000    258.39945   -3894.7313   -3451.8435   -3894.7313            0    9175.2152    16.898555    19.904266    20.616198    6934.3269     7525.542    9614.4831    10385.621    558.29877   -313.76008   -200.92091   -2523.9535 
19951000    256.52072   -3881.2049   -3441.5371   -3881.2049            0    9881.1997    16.947439    19.961845    20.675836    6994.6798    8588.9156    11786.152    9268.5317   -913.63715   -1196.9035    1297.7297   -2433.5537 
19952000    260.15951   -3856.8196   -3410.9151   -3856.8196            0     7930.465     16.95721    19.973353    20.687757    7006.7849    7924.7796    7697.8024    8168.8129   -620.38452   -805.42893    15.985966   -2600.5265 
19953000     262.9941    -3903.047   -3452.2841    -3903.047            0    8728.4613    16.899142    19.904957    20.616914    6935.0492     7874.115    8498.7969     9812.472   -31.689488   -917.38135   -542.72402   -2569.4824 
19954000    258.31657   -3918.0184   -3475.2726   -3918.0184            0    8137.3087    16.919518    19.928958    20.641773    6960.1657    9183.1033    6697.3885    8531.4342    1252.4466    1279.6895   -208.04277   -2649.2798 
19955000    250.58422   -3905.4711   -3475.9783   -3905.4711            0    7622.5908    16.922005    19.931886    20.644806    6963.2344    7510.6982    8406.1713     6950.903    3145.2777   -874.97325   -1298.1274   -2701.8918 
19956000    255.00187   -3893.1265   -3456.0621   -3893.1265            0    8740.2083    16.928663    19.939729    20.652929    6971.4572    7638.2251    8157.3839    10425.016    2605.6598    291.95466    1595.0355   -2567.4315 
19957000    260.35995   -3888.7464   -3442.4984   -3888.7464            0    8481.0696     16.97208    19.990869    20.705898    7025.2345     7824.015    8859.7337      8759.46    593.91325     1111.858      1194.15   -2573.5633 
19958000    251.68088   -3847.4044    -3416.032   -3847.4044            0    10631.774    16.929863    19.941142    20.654393    6972.9397    10625.895    9389.5874    11879.839    748.24799   -252.04042    1719.5093   -2334.8532 
19959000    256.07231   -3880.2611   -3441.3619   -3880.2611            0    9642.4939    16.931871    19.943507    20.656843     6975.421     9656.739    9605.5294    9665.2133    503.52269    90.551564    195.41899   -2460.4372 
19960000    278.31577   -3877.4057    -3400.382   -3877.4057            0    8443.1343    16.954838     19.97056    20.684863    7003.8455    8514.3196    8670.5252    8144.5581    988.55745   -1258.9154   -624.76535   -2537.9673 
19961000    250.52224   -3862.7781   -3433.3916   -3862.7781            0     8662.157    16.928621    19.939679    20.652877    6971.4047     11060.18    6322.8919    8603.3987   -374.49371    1521.5575   -731.13476   -2552.7032 
19962000    260.89043   -3856.1975   -3409.0402   -3856.1975            0    10391.368    16.950285    19.965196    20.679308    6998.2035    9324.0157     12517.86    9332.2287    2705.4403   -849.50217   -587.33569   -2348.4804 
19963000    273.64858   -3876.0084   -3406.9841   -3876.0084            0    8107.6094    16.947422    19.961824    20.675815    6994.6585    8273.0954    8947.0662    7102.6665   -754.93874    -2073.187   -381.20158   -2579.9275 
19964000    254.50814   -3865.7204   -3429.5022   -3865.7204            0    8675.2283    16.963954    19.981297    20.695984    7015.1479    7589.9331     11220.84    7214.9116    1739.5311   -360.88184    1894.6007   -2541.9505 
19965000    246.45779   -3895.8277   -3473.4075   -3895.8277            0    7544.3242    16.959779     19.97638    20.690891      7009.97    6371.4865     9582.307     6679.179    305.37451    -502.5996   -23.203866   -2702.1269 
19966000    253.96003   -3861.5767   -3426.2979   -3861.5767            0    7887.0852    16.921626     19.93144    20.644344    6962.7666    9056.9512    6893.6131    7710.6914    121.96959    164.45193   -336.22522   -2625.4053 
19967000     260.3146   -3891.2465   -3445.0761   -3891.2465            0    10251.626    16.885377    19.888744    20.600121     6918.117    11540.126    8089.0169    11125.734    789.96129    474.39084    2177.2314   -2410.7523 
19968000    266.64693   -3873.9581   -3416.9344   -3873.9581            0    10077.349    16.910319    19.918122    20.630549    6948.8186    9565.3544    10900.399    9766.2931   -145.77926   -136.07958    2395.5672   -2395.6818 
19969000    261.34503   -3863.2044   -3415.2679   -3863.2044            0    10175.027    16.990881    20.013013    20.728835    7048.6063    11880.928    9681.2345    8962.9178     506.4642   -302.70246    230.15702   -2369.3088 
19970000    253.74857   -3888.7465   -3453.8301   -3888.7465            0    9934.2476    16.887856    19.891664    20.603145    6921.1639    9469.3442    11585.832    8747.5662   -1055.9043   -1449.7758    2783.3095   -2451.0863 
19971000     255.9521   -3880.7303   -3442.0372   -3880.7303            0     9077.848    17.002721    20.026959    20.743279    7063.3519    8802.8227     9657.805    8772.9161   -502.10833   -730.26731    434.95121   -2506.9122 
19972000    257.90889   -3902.3417   -3460.2947   -3902.3417            0    9534.3426    16.897528    19.903056    20.614945    6933.0627    10038.111    10140.682    8424.2352     -281.437    684.75377   -248.92538    -2496.262 
19973000    253.07349   -3881.5459   -3447.7866   -3881.5459            0    11871.034    16.833613    19.827773    20.536969    6854.6868    12228.503    12207.801    11176.799   -1707.5202   -166.11542   -570.28116   -2261.0562 
19974000    259.82977   -3895.3086   -3449.9693   -3895.3086            0    8808.8323    16.950443    19.965382      20.6795    6998.3993    7885.0694    8872.9247    9668.5029    347.18784     -578.099   -1438.3212   -2550.9005 
19975000    278.13681    -3908.724    -3432.007    -3908.724            0    10496.363    16.867467    19.867648     20.57827     6896.126    9385.1077    11309.974    10794.007   -252.50751   -109.81439   -424.48737   -2376.3571 
19976000    262.07416   -3873.7385   -3424.5524   -3873.7385            0    8613.8893    16.940715    19.953924    20.667632     6986.357    10456.277     7398.094     7987.297    -1676.053    320.40179   -536.79316   -2546.8931 
19977000    270.13397   -3833.2481   -3370.2477   -3833.2481            0    9322.1334     16.99695    20.020162    20.736239    7056.1623    7759.8935    10426.441    9780.0655    126.01347     627.4553    578.40949    -2410.936 
19978000    273.64821   -3861.2114   -3392.1878   -3861.2114            0    9110.7532     16.95017    19.965061    20.679167    6998.0613    9563.6994    8416.7272    9351.8331    178.74191    334.64553   -438.15398   -2462.3484 
19979000    261.63635   -3883.5151   -3435.0793   -3883.5151            0    7936.9716       17.013    20.039067    20.755821     7076.171    7820.2741    8276.6605    7713.9804    6.7135922     428.8267     -595.949   -2615.9942 
19980000    262.54679   -3862.6393   -3412.6431   -3862.6393            0    7725.0183    17.028486    20.057308    20.774714    7095.5119    8205.5221     7245.377    7724.1557    337.75295    -291.6857    1576.3764   -2613.2523 
19981000    261.21937   -3890.4587   -3442.7376   -3890.4587            0    9807.3736    16.973169    19.992151    20.707227    7026.5869    9577.8144    8641.7942    11202.512   -825.79979    1680.5695   -349.58349   -2437.7215 
19982000    256.06355   -3881.8046   -3442.9204   -3881.8046            0    8979.2371    16.883402    19.886417    20.597711    6915.6893    8012.4304    8853.0034    10072.277     44.49929   -211.26234    380.50003   -2537.2904 
19983000    255.13633   -3910.3431   -3473.0482   -3910.3431            0    9239.8396      16.9821    20.002671    20.718123    7037.6843    8002.3203    11060.048    8657.1501    566.97015    279.21665     512.4326    -2524.695 
19984000     269.5764   -3889.1457   -3427.1009   -3889.1457            0    8792.9593    16.951312    19.966406    20.680561    6999.4759    6660.4022    10146.517     9571.959   -1422.5067    1221.1233    234.98495   -2529.5141 
19985000    253.44632   -3882.6199   -3448.2216   -3882.6199            0     9495.768    16.914124    19.922604    20.635192    6953.5103    9036.5781    9534.2237    9916.5023   -1236.6654    713.21229    1097.4526   -2485.2576 
19986000    255.19106   -3874.8899   -3437.5012   -3874.8899            0     8160.126    16.959631    19.976205     20.69071    7009.7861    8224.3393    8556.5109    7699.5279    113.91298   -733.55555   -140.38486   -2603.2871 
19987000    252.68198    -3884.631   -3451.5427    -3884.631            0    8997.2579    16.935457    19.947731    20.661218    6979.8538    8531.7918    9153.7565    9306.2253    1299.7903   -786.65776    1564.3004   -2535.6758 
19988000    255.14188   -3865.5641   -3428.2597   -3865.5641            0    8069.0565    16.995513     20.01847    20.734487    7054.3736    9286.3441    7676.6414    7244.1839    1443.3994   -1198.8906    -694.5479   -2598.1087 
19989000    266.13475   -3888.4566   -3432.3107   -3888.4566            0    9322.9073    16.925493    19.935995    20.649062    6967.5414    9662.7944     9655.144    8650.7835    2711.6514    805.96666    -18.77424   -2484.9687 
19990000    264.40836    -3860.227   -3407.0401    -3860.227            0    8796.5187    16.956398    19.972398    20.686766    7005.7789    8753.7074    10608.611    7027.2382    969.30928   -1450.4978    1303.8741   -2508.2813 
19991000    239.04596   -3854.9322   -3445.2156   -3854.9322            0    9340.8025    16.956872    19.972955    20.687344    7006.3655    10173.772    10541.269     7307.366   -509.80488    434.59163   -747.40968   -2490.7663 
19992000    273.89389   -3882.5813   -3413.1365   -3882.5813            0    9636.0228    16.924868    19.935259      20.6483      6966.77    10071.322    9240.6979    9596.0485    64.305529    244.32642   -1961.9518   -2434.0858 
19993000    261.92143   -3845.8434   -3396.9191   -3845.8434            0    8693.4725    16.948311    19.962872      20.6769    6995.7596    9216.7038    8623.5929    8240.1208   -870.22628    1305.2431    -1907.317    -2509.959 
19994000    269.14651   -3879.8368   -3418.5289   -3879.8368            0    8069.7147    16.981844    20.002369     20.71781    7037.3655    7224.1994    8134.3678     8850.577    77.488769     482.6461   -110.25144   -2590.3118 
19995000    255.38791   -3815.5604   -3377.8343   -3815.5604            0    10282.727    16.935328    19.947579     20.66106    6979.6942    10988.278    9145.8626     10714.04    2233.4367    77.056022   -1504.9483   -2331.1382 
19996000    269.87757   -3886.2661   -3423.7052   -3886.2661            0    8922.8481    16.935904    19.948258    20.661764    6980.4075    7355.8507    10034.568    9378.1255   -690.86693    214.69083      -798.29   -2515.3407 
19997000    257.77794   -3871.7395    -3429.917   -3871.7395            0    10524.748     16.89784    19.903424    20.615326    6933.4468    8400.3354    12447.099     10726.81     230.0387     755.6376    1195.8451   -2365.6838 
19998000    267.68581   -3876.4504   -3417.6461   -3876.4504            0    7608.5933    17.000151    20.023932    20.740144    7060.1499    7072.0477    9462.7272     6291.005   -2382.4363    1059.5482   -1467.0895   -2634.2269 
19999000    247.19675   -3867.6011   -3443.9143   -3867.6011            0    9753.7192    16.874128    19.875494    20.586397    6904.2996    9640.5895    9923.0882    9697.4798   -34.182969   -481.72443   -1073.5836   -2461.7916 
20000000    266.17237   -3858.6426   -3402.4323   -3858.6426            0    8561.0552     16.99398    20.016664    20.732616    7052.4645     8917.523    7934.8083    8830.8343    879.76169   -63.396564   -662.38422   -2521.9024 
Loop time of 518.472 on 64 procs for 250000 steps with 864 atoms

Performance: 83.322 ns/day, 0.288 hours/ns, 482.186 timesteps/s
99.0% CPU use with 64 MPI tasks x 1 OpenMP threads

MPI task timing breakdown:
Section |  min time  |  avg time  |  max time  |%varavg| %total
---------------------------------------------------------------
Pair    | 22.321     | 26.816     | 31.846     |  46.5 |  5.17
Bond    | 0.26945    | 0.27662    | 0.28674    |   0.7 |  0.05
Kspace  | 218.04     | 228.9      | 240.12     |  33.3 | 44.15
Neigh   | 5.6488     | 6.4104     | 7.5793     |  20.3 |  1.24
Comm    | 118.55     | 128.44     | 138.67     |  41.6 | 24.77
Output  | 1.1626     | 1.1664     | 1.1762     |   0.5 |  0.22
Modify  | 118.64     | 121.57     | 124.29     |  14.6 | 23.45
Other   |            | 4.897      |            |       |  0.94

Nlocal:        13.5000 ave          18 max           8 min
Histogram: 1 2 4 9 5 11 9 8 7 8
Nghost:        2255.30 ave        2299 max        2202 min
Histogram: 1 0 5 6 16 12 8 10 3 3
Neighs:        4373.02 ave        6263 max        2555 min
Histogram: 2 3 12 7 9 9 9 5 6 2

Total # of neighbors = 279873
Ave neighs/atom = 323.92708
Ave special neighs/atom = 2.0000000
Neighbor list builds = 13719
Dangerous builds = 0

unfix		3
unfix		2
unfix		1

write_data	data.final.${pid}
write_data	data.final.0
System init for write_data ...
PPPM initialization ...
  extracting TIP4P info from pair style
  using 12-bit tables for long-range coulomb (../kspace.cpp:340)
  G vector (1/distance) = 0.37416933
  grid = 24 24 24
  stencil order = 5
  estimated absolute RMS force accuracy = 0.003171546
  estimated relative force accuracy = 9.5510164e-06
  using double precision FFTW3
  3d grid and FFT values/proc = 2535 216
Last active /omp style is kspace_style pppm/tip4p/omp
WARNING: Not all mixed pair coeffs generated from mixing. Use write_data with 'pair ij' option to store all pair coeffs. (../write_data.cpp:312)

write_restart   restart.lmp.${pid}
write_restart   restart.lmp.0
System init for write_restart ...
PPPM initialization ...
  extracting TIP4P info from pair style
  using 12-bit tables for long-range coulomb (../kspace.cpp:340)
  G vector (1/distance) = 0.37416933
  grid = 24 24 24
  stencil order = 5
  estimated absolute RMS force accuracy = 0.003171546
  estimated relative force accuracy = 9.5510164e-06
  using double precision FFTW3
  3d grid and FFT values/proc = 2535 216
Last active /omp style is kspace_style pppm/tip4p/omp
Total wall time: 0:08:40
