LAMMPS data file via write_data, version 30 Jul 2021, timestep = 18250000

864 atoms
2 atom types
576 bonds
1 bond types
288 angles
1 angle types

0.6241852063757101 17.583387193607038 xlo xhi
1.8267389950091815 21.802438804986338 ylo yhi
0.7615044938506781 21.451691306143992 zlo zhi

Masses

1 1.00794
2 15.9994

Pair Coeffs # lj/cut/tip4p/long/omp

1 0 0
2 0.21084 3.1668

Bond Coeffs # harmonic/omp

1 450 0.9572

Angle Coeffs # harmonic/omp

1 55 104.52

Atoms # full

675 1 1 0.5897 2.959544639535008 6.1576941101947265 0.9022079197902635 -2 0 -5
654 1 1 0.5897 4.259534324944818 3.7772093596779164 1.689206017644985 -3 -1 2
289 1 2 -1.1794 4.185065017105751 2.4777793806376405 4.848199700395447 -5 -2 -5
3 1 1 0.5897 1.7193102178990616 4.496507433037076 1.919118548325171 4 -1 5
2 1 1 0.5897 2.5708411770169155 5.394284903418308 2.7913993894670237 4 -1 5
402 1 1 0.5897 2.7474339631864892 6.473518549449113 4.899306456861634 -3 -1 -2
1 1 2 -1.1794 2.629060031563965 4.726703043975831 2.1078608933335383 4 -1 5
605 1 1 0.5897 4.773557597466213 6.06899661035129 3.6641688485346853 -3 -2 -2
510 1 1 0.5897 2.669662270294845 2.3722239209953586 3.4181662432324664 5 0 2
290 1 1 0.5897 3.5297671702157594 2.524250807824412 5.544396425945757 -5 -2 -5
400 1 2 -1.1794 2.837607536557318 6.717849981930407 3.9782039447666806 -3 -1 -2
710 1 1 0.5897 0.9471263655871667 6.219988015917284 3.925730624015519 -3 3 2
550 1 2 -1.1794 2.7472266997439774 5.945182748902828 6.487491340452397 2 13 -4
87 1 1 0.5897 0.897877079949474 3.9427354298595128 9.38087885912398 -1 6 0
85 1 2 -1.1794 1.7648202053930773 4.337024547600343 9.284918906914742 -1 6 0
127 1 2 -1.1794 2.114694939928656 2.8107632804416265 6.861594407377851 0 2 -7
86 1 1 0.5897 2.175552591981056 4.225188382130645 10.1422805999187 -1 6 0
129 1 1 0.5897 1.410211539056236 3.3152194395441628 6.454727543751144 0 2 -7
552 1 1 0.5897 3.2928204965225674 5.593164149688351 7.190836114775852 2 13 -4
482 1 1 0.5897 1.4766606783958913 5.967745800649382 9.173628316650452 -3 2 -1
128 1 1 0.5897 2.1806657643500054 3.163338160489288 7.7490732211126545 0 2 -7
61 1 2 -1.1794 4.518725770296673 4.544232215657114 8.160927585013388 -3 3 4
63 1 1 0.5897 4.191814363318443 3.9156672552002134 8.80459050726869 -3 3 4
460 1 2 -1.1794 4.694145440531102 1.9893941704068108 9.37999104343717 8 2 -2
551 1 1 0.5897 1.8491126435375589 5.8083398185129855 6.78904583801858 2 13 -4
716 1 1 0.5897 1.9673783799143931 5.3743548421685805 14.340675705853352 2 -6 -3
89 1 1 0.5897 2.9074400801723956 3.700776376816264 15.48047094125935 6 -1 2
583 1 2 -1.1794 2.808866563764366 3.7127099533177397 11.854460176281448 0 -5 2
717 1 1 0.5897 1.4875579953864997 6.692627124751604 13.771553744319522 2 -6 -3
608 1 1 0.5897 4.694737600590765 6.427704410909731 13.800859417393395 11 4 -2
585 1 1 0.5897 3.569425589083332 4.292364307689645 11.897280915277708 0 -5 2
584 1 1 0.5897 2.864837114618662 3.1841202810011646 12.650536899974092 0 -5 2
574 1 2 -1.1794 2.963454681156173 2.2310524958920186 14.269578553477617 2 -3 3
609 1 1 0.5897 3.8972906616447154 5.716040441499484 14.873048707168008 11 4 -2
569 1 1 0.5897 3.9021521256483975 6.142936320846956 11.670709466723427 3 -3 1
715 1 2 -1.1794 1.3205484154528977 5.750505800339469 13.743698767430867 2 -6 -3
88 1 2 -1.1794 2.885373703071361 4.622921218846814 15.736321388229866 6 -1 2
607 1 2 -1.1794 4.47885474877581 6.463300850373695 14.73273715639447 11 4 -2
90 1 1 0.5897 2.063633340985681 4.718803810464928 16.217797554616087 6 -1 2
568 1 2 -1.1794 4.645440066719184 5.76556183460251 12.14121342996477 3 -3 1
576 1 1 0.5897 3.6657297459792586 2.035609283367795 14.88995795130561 2 -3 3
83 1 1 0.5897 1.9969563429356196 3.3968433077927465 18.26998041516135 -6 -2 -3
704 1 1 0.5897 0.9786000246025623 6.16731592502072 17.649700655539164 9 0 -3
82 1 2 -1.1794 2.2837829934493765 3.941516969793613 19.003006348359293 -6 -2 -3
756 1 1 0.5897 2.0908295765705143 2.503371198916639 20.367010197049638 -5 2 -7
84 1 1 0.5897 3.2221068104253665 4.063737617495871 18.858412519602375 -6 -2 -3
421 1 2 -1.1794 4.279368132756532 2.0877930613868365 16.793644592306677 -5 3 4
273 1 1 0.5897 0.938762595825706 5.036809863969199 19.547259050533818 -3 1 2
422 1 1 0.5897 4.602264374988916 2.8820184699223548 17.219334918073557 -5 3 4
97 1 2 -1.1794 0.8597715447636285 2.6012744216831036 16.603298172050806 4 -7 5
734 1 1 0.5897 1.74594489190103 7.84370998699367 1.3742822202688496 -1 -2 -5
733 1 2 -1.1794 0.9842578946015146 8.281185955432182 1.7547199320453704 -1 -2 -5
55 1 2 -1.1794 4.2168354139385205 9.280382654830849 4.134246694850013 -8 -1 3
132 1 1 0.5897 2.4658573261799805 11.529553295323728 5.08536540198617 -2 3 3
56 1 1 0.5897 3.8114506568420867 10.135655163949693 3.991299126212472 -8 -1 3
18 1 1 0.5897 1.3219961565651783 9.985670398154692 1.3156417260707074 -4 7 2
17 1 1 0.5897 0.7975778602460867 11.40224128042756 1.2141573924823499 -4 7 2
16 1 2 -1.1794 1.4219645405858583 10.795858404726928 0.8157762679949276 -4 7 2
130 1 2 -1.1794 2.3797860318461366 11.302045693510873 4.159573803351874 -2 3 3
689 1 1 0.5897 1.1392493761311728 10.133535156094531 4.1456314561455105 6 -3 5
401 1 1 0.5897 3.1448843812012033 7.62416053047199 3.999296478149739 -3 -1 -2
345 1 1 0.5897 3.4082137421588254 8.33327882276188 10.625823350961124 2 0 -1
833 1 1 0.5897 1.3167868333401205 8.685783031049876 8.627506986674028 3 -3 2
832 1 2 -1.1794 1.4390404417078027 9.370303947330665 7.969659694935229 3 -3 2
344 1 1 0.5897 2.1381761936548003 7.511476417915458 10.686085974229249 2 0 -1
834 1 1 0.5897 2.303018163225155 9.193750989240876 7.597300176491443 3 -3 2
135 1 1 0.5897 4.615161872786766 9.529966246376201 7.136517575312492 0 -3 1
133 1 2 -1.1794 3.9275496351741968 8.885623505385048 6.968321754490228 0 -3 1
134 1 1 0.5897 3.894559889156451 8.81330600867669 6.014404339581087 0 -3 1
740 1 1 0.5897 4.328365256276328 10.3372797815592 9.50661282205096 -1 1 7
805 1 2 -1.1794 3.298918898910299 11.74313598422645 9.467089901992217 1 -2 -2
481 1 2 -1.1794 1.1959739150773094 6.882803789637567 9.18599760571679 -3 2 -1
739 1 2 -1.1794 4.7291835337118195 9.522947800182376 9.810723337464712 -1 1 7
807 1 1 0.5897 2.414195616874121 11.672675729902817 9.825644301715103 1 -2 -2
157 1 2 -1.1794 3.67142123476813 9.764559610194276 14.971306890205264 2 6 -1
760 1 2 -1.1794 4.254392543114648 10.34948018049172 12.332528233431727 2 -2 -1
159 1 1 0.5897 4.168778461937702 9.84650248960208 14.15755951876936 2 6 -1
140 1 1 0.5897 2.232260093430569 8.75261432057221 14.11229343364307 1 0 -3
141 1 1 0.5897 2.112237481408301 8.167399782591957 12.721216876115621 1 0 -3
139 1 2 -1.1794 1.6532491048719093 8.228326787234032 13.559005824918495 1 0 -3
761 1 1 0.5897 4.6454199383226795 10.044949928102033 11.51360699758721 2 -2 -1
158 1 1 0.5897 3.3249107168719663 10.64258740723957 15.130240095751876 2 6 -1
762 1 1 0.5897 3.3111522661264803 10.260799641238515 12.195611363571953 2 -2 -1
535 1 2 -1.1794 1.2482924463742342 11.426242424345944 12.839968127706245 5 3 3
536 1 1 0.5897 0.7370223012982576 10.831015044866712 13.388210086400294 5 3 3
537 1 1 0.5897 0.879996012266256 11.320588249581641 11.962762798651616 5 3 3
343 1 2 -1.1794 2.8854034353850966 7.78997971725374 11.215564205682167 2 0 -1
657 1 1 0.5897 1.40521039290823 9.7953366384735 19.723710720026297 -1 7 -6
533 1 1 0.5897 1.7362968143224407 8.113438428200647 18.510787272101616 -3 -2 -3
655 1 2 -1.1794 1.4546558315199036 9.725252793417683 18.770332640605872 -2 7 -6
209 1 1 0.5897 4.308606938766069 8.795552863976052 17.4512104667386 0 -3 1
656 1 1 0.5897 2.369482667905894 9.915746611863067 18.56280634309266 -2 7 -6
26 1 1 0.5897 4.730927718579678 7.606375662156615 21.336817207789395 1 8 6
547 1 2 -1.1794 4.231261692330977 10.459290143267877 18.30728096135816 5 2 5
549 1 1 0.5897 4.350510489542806 11.242763569862838 17.770419681676877 5 2 5
534 1 1 0.5897 2.9068467054137224 7.313451789253719 17.979920240516947 -3 -2 -3
208 1 2 -1.1794 4.467528275568078 7.865316913282773 17.29076585316755 0 -3 1
532 1 2 -1.1794 2.1100858319281297 7.232246094568908 18.504194359748794 -3 -2 -3
673 1 2 -1.1794 3.068876651101922 7.040572392825821 21.239049434281227 -2 0 -6
410 1 1 0.5897 3.857364776434874 11.776648634426696 20.037355787853855 7 0 -9
411 1 1 0.5897 2.852310591570809 11.69827201006521 21.166825983618878 7 0 -9
674 1 1 0.5897 2.677947466247961 6.999877296512906 20.366248050799605 -2 0 -6
210 1 1 0.5897 4.29919494219418 7.750899532514003 16.355412641557646 0 -3 1
484 1 2 -1.1794 4.72703905184468 15.994517657709391 2.4339219587275913 4 -1 1
791 1 1 0.5897 2.2528083469910314 14.309489499938168 4.288939994520475 1 3 -3
590 1 1 0.5897 4.543856370184133 12.63274183984167 2.014453450290855 -2 8 0
819 1 1 0.5897 2.901775398371733 16.752499646403372 5.352951308470808 9 -3 2
792 1 1 0.5897 2.14103200106589 14.479804100429115 2.788783173450675 1 3 -3
790 1 2 -1.1794 2.6052677145855476 13.981676390075291 3.461551206380382 1 3 -3
485 1 1 0.5897 4.105488264744208 15.57986660359172 3.0322543506872828 4 -1 1
838 1 2 -1.1794 1.5699375017237485 15.00766378457299 1.2498524435936387 -6 -4 -4
817 1 2 -1.1794 2.1044128282146906 16.747965369744605 4.823371026085473 9 -2 2
131 1 1 0.5897 2.39673809417645 12.143280795829321 3.7031356967299427 -2 3 3
839 1 1 0.5897 0.6301286116684225 14.826024127673186 1.2555208886282327 -6 -4 -4
616 1 2 -1.1794 4.858818250715619 16.647822741092956 5.802789567254368 -5 4 2
486 1 1 0.5897 4.2942638541598175 16.80358011772545 2.161108940662321 4 -1 1
172 1 2 -1.1794 3.03978835340055 12.111313916453213 6.635331353278945 1 0 -2
523 1 2 -1.1794 4.214559846711175 14.969534594136457 8.541231268071982 1 -4 0
806 1 1 0.5897 3.6763581989984093 12.504683248837582 9.907372266217031 1 -2 -2
525 1 1 0.5897 3.7794669570030486 15.781969591804458 8.282534385752909 1 -4 0
683 1 1 0.5897 2.0629294616145764 13.666606598140461 6.647238935460672 7 -2 -5
772 1 2 -1.1794 1.409716683582161 15.169314948471085 9.61682804251419 6 -1 0
684 1 1 0.5897 1.8754378406812748 15.151293333783519 6.876537618679179 7 -2 -5
524 1 1 0.5897 4.766294481859168 15.218396353233702 9.282804779733036 1 -4 0
773 1 1 0.5897 1.163300930277786 15.592164746033811 10.439470924476847 6 -1 0
174 1 1 0.5897 3.131581661943132 11.826916173483319 7.5446994448123705 1 0 -2
173 1 1 0.5897 3.8320143602707066 12.619753015556746 6.461756272345903 1 0 -2
682 1 2 -1.1794 1.469897314309971 14.393175286390452 6.455728376530724 7 -2 -5
774 1 1 0.5897 2.362246548851533 15.087749862998876 9.664816865879626 6 -1 0
457 1 2 -1.1794 3.376217417959032 16.738395846611592 11.072511117014521 -4 -1 -1
142 1 2 -1.1794 2.1980564148218606 13.967003587441974 12.89955357479375 -4 1 2
143 1 1 0.5897 1.7506995787473927 13.12277185117106 12.957924104888487 -4 1 2
377 1 1 0.5897 3.814395696791971 12.928801853236198 15.186479210507144 1 2 2
364 1 2 -1.1794 4.37172974142327 16.36652453471317 13.666053859860138 3 4 0
366 1 1 0.5897 4.014882539880944 16.555721936193173 12.79822624564709 3 4 0
540 1 1 0.5897 1.3386805985833763 15.08212885592015 15.793651532180291 -1 -3 -1
144 1 1 0.5897 1.503365236566145 14.593128006582917 12.695453368218288 -4 1 2
586 1 2 -1.1794 2.3947400319454015 16.686953239045096 15.724740256990982 -3 0 3
29 1 1 0.5897 3.758070494727944 13.655873001352026 12.079640929673362 -6 -2 5
28 1 2 -1.1794 4.506598335119617 13.234715493897928 11.657025316113723 -6 -2 5
538 1 2 -1.1794 0.9909176942577862 14.206626821186598 15.963438427280492 -1 -3 -1
376 1 2 -1.1794 3.1403430283573845 12.413250910299261 15.62933788104463 1 2 2
378 1 1 0.5897 2.347901464071718 12.9459626919757 15.562077351237631 1 2 2
588 1 1 0.5897 2.881181579764351 16.435494762069688 14.939623109454542 -3 0 3
30 1 1 0.5897 4.457516999307817 12.320769928671371 11.937318989271622 -6 -2 5
233 1 1 0.5897 3.6903970770747825 12.990086617233931 17.17626648025695 -1 0 1
492 1 1 0.5897 2.3975440226442126 13.532858179277985 18.9920141750628 3 5 4
234 1 1 0.5897 4.048963762129309 14.295482126256301 17.85404873564074 -1 0 1
490 1 2 -1.1794 1.5118312344401281 13.78005703736021 19.257854409052108 3 5 4
232 1 2 -1.1794 3.9639278520614463 13.35614179630076 18.017375295512352 -1 0 1
587 1 1 0.5897 2.998300411939749 16.51294443045266 16.44703195632366 -3 0 3
322 1 2 -1.1794 4.1564658854954075 14.899968289828564 20.522538211825058 6 -6 -2
10 1 2 -1.1794 1.6360806894267619 16.59349777013933 18.78534294345426 -2 -2 2
11 1 1 0.5897 1.9013546517790818 15.699021443330937 18.999369492530946 -2 -2 2
840 1 1 0.5897 1.8972106814618268 14.554678935978773 21.162852034062162 -6 -4 -5
323 1 1 0.5897 3.951694350706152 13.967424866629107 20.591093917852355 6 -6 -2
316 1 2 -1.1794 4.571596347855268 16.190356054968547 17.23599818295736 -3 -2 0
409 1 2 -1.1794 3.6290202828970943 12.176518573316264 20.876540295792708 7 0 -9
491 1 1 0.5897 0.951039013146795 13.098484809178233 18.887389048308123 3 5 4
324 1 1 0.5897 4.196176504670531 15.204265171185185 21.429262771628892 6 -6 -2
813 1 1 0.5897 4.058963616451802 19.55283069486216 1.8981903327019132 0 2 -2
811 1 2 -1.1794 3.882934647904385 18.66841835399974 2.2192754429212314 0 2 -2
71 1 1 0.5897 3.931942750078152 19.39367350843871 4.112706525206967 2 2 -4
508 1 2 -1.1794 2.106469057718604 21.650027999118123 3.083456416301159 5 -1 2
358 1 2 -1.1794 1.5534844301252186 17.966949833904096 1.0380664624611806 3 -2 -3
812 1 1 0.5897 3.089945736391682 18.398354704336548 1.7561243624015237 0 2 -2
571 1 2 -1.1794 1.3545371196556208 19.413054316296446 4.514371573688959 2 -3 -2
573 1 1 0.5897 1.667948064667235 20.09827148539255 3.9240162327781714 2 -3 -2
818 1 1 0.5897 1.948535528947851 17.669456979731898 4.6164012642706735 9 -2 2
70 1 2 -1.1794 4.314908232490319 19.588499578581477 4.968073671516154 2 2 -4
291 1 1 0.5897 4.342940259259124 21.51688328612238 4.729356265093199 -5 -3 -5
572 1 1 0.5897 1.6695167544685714 19.67824519087828 5.378519835813496 2 -3 -2
360 1 1 0.5897 1.674846606107463 17.017462241260326 1.0354060606868578 3 -2 -3
509 1 1 0.5897 2.1824454132751074 21.716088525581654 2.131534295937155 5 -1 2
823 1 2 -1.1794 4.24850299585048 19.405774629737763 8.116793894131819 0 -2 5
619 1 2 -1.1794 1.9030626585719357 20.154890269856416 7.140851950493568 4 -2 3
825 1 1 0.5897 4.758905265995943 19.307243113101876 7.3130281555564105 0 -2 5
235 1 2 -1.1794 2.6506107027254706 17.149573207771656 7.793321603002877 -3 -3 -5
687 1 1 0.5897 2.892977747551266 21.48319863444975 10.244888295539443 4 -6 -6
621 1 1 0.5897 1.8790546043809395 21.111755677275177 7.1313122232111485 4 -2 3
222 1 1 0.5897 2.1272793504591183 19.331767241235355 10.167576778070234 3 -3 6
824 1 1 0.5897 3.415433340417955 19.778366972797066 7.827914681947015 0 -2 5
237 1 1 0.5897 3.193841175814727 17.915343020707972 7.606842812703325 -3 -3 -5
236 1 1 0.5897 2.199330637287175 17.368269675961933 8.60866928763031 -3 -3 -5
686 1 1 0.5897 1.4072497244926128 21.666070974709115 10.471156181867265 4 -6 -6
220 1 2 -1.1794 1.6747716220412994 18.541970827522384 9.871350775648308 3 -3 6
620 1 1 0.5897 1.0240585254139 19.895514244841237 7.417147665804731 4 -2 3
459 1 1 0.5897 4.0626561051094745 17.312101595101186 10.731908886226508 -4 -1 -1
685 1 2 -1.1794 2.134434263475984 21.073018976001563 10.660369014615583 4 -6 -6
461 1 1 0.5897 4.526062106957177 21.103035342221304 8.999382592134674 8 1 -2
221 1 1 0.5897 0.8279318081712062 18.855429525050873 9.553751676733455 3 -3 6
458 1 1 0.5897 2.5582813819074417 17.16675750004243 10.82000672955639 -4 -1 -1
830 1 1 0.5897 3.6325885501077293 18.125986051824178 15.310989760140691 3 0 4
192 1 1 0.5897 4.248308764437089 20.59264758959452 12.551058560173626 5 6 -7
575 1 1 0.5897 2.3386471140448823 21.49016328000802 14.380818777187281 2 -4 3
302 1 1 0.5897 1.1652961210830446 17.924637419833964 14.785871495535327 -1 3 5
390 1 1 0.5897 1.3992856758785948 20.660216187154333 12.228158262140726 5 4 6
388 1 2 -1.1794 0.9705434802676974 20.38648259955645 13.03905371964869 5 4 6
829 1 2 -1.1794 3.9779208948015934 19.018474413576882 15.332907865392308 3 0 4
831 1 1 0.5897 3.2891897880996597 19.531999884983406 15.75504779971141 3 0 4
669 1 1 0.5897 1.031981604322981 19.568836138838726 18.732731934457817 -5 3 2
214 1 2 -1.1794 4.022748752806223 17.976974511017048 19.652661853878378 -4 2 4
721 1 2 -1.1794 3.7968963183024913 20.78510611104769 19.207255150836616 5 -3 0
215 1 1 0.5897 3.8891093865260133 18.901382961814434 19.44320918015348 -4 2 4
722 1 1 0.5897 3.249807573178286 21.028843732665038 19.95395817800579 5 -3 0
723 1 1 0.5897 4.634912550978697 21.217150017897183 19.372572305368493 5 -3 0
668 1 1 0.5897 1.2567076701714353 19.09446482270429 20.152753076927816 -5 3 1
423 1 1 0.5897 4.035488706610257 21.485777461217054 17.516849853651323 -5 2 4
512 1 1 0.5897 1.4903968067741071 21.00338667552097 16.88348962598797 -2 4 -5
755 1 1 0.5897 1.46744194802918 21.194505879024305 20.870249353397767 -5 1 -7
513 1 1 0.5897 0.9013925340964375 19.631716263405956 16.63135550451493 -2 4 -5
511 1 2 -1.1794 1.7182822668874251 20.12719917193491 16.572562127846368 -2 4 -5
667 1 2 -1.1794 0.9099879772943646 19.82872135254776 19.645886684163663 -5 3 2
216 1 1 0.5897 4.671326893037124 17.981743260015683 20.35664238495083 -4 2 4
754 1 2 -1.1794 2.1889478283325445 21.801355508455096 21.035843238174778 -5 1 -7
318 1 1 0.5897 4.664076918655721 16.844728586483193 17.928472294364262 -3 -2 0
12 1 1 0.5897 2.286830439874552 17.146707105263484 19.217559117912636 -2 -2 2
244 1 2 -1.1794 7.1840652644154765 5.653189634167124 1.3890270908317057 -6 4 0
155 1 1 0.5897 6.046418563338416 3.6623911061831156 3.641552287569431 4 3 -3
431 1 1 0.5897 5.694294966113254 2.9310282066932767 5.810754381584647 -10 3 -2
286 1 2 -1.1794 8.810175372066215 2.04573032408397 1.2519275564550552 3 6 -2
154 1 2 -1.1794 6.775634493550027 3.0627546841634126 3.483598668488635 4 3 -3
844 1 2 -1.1794 8.840246932207721 4.676623937921675 4.579906070350385 1 0 2
245 1 1 0.5897 6.751570427750704 6.3554498310701675 0.9031611005342806 -6 4 0
246 1 1 0.5897 6.66891395488935 5.563507979971623 2.190811890668487 -6 4 0
604 1 2 -1.1794 5.624474862924943 5.633756806177919 3.6114889551673315 -3 -2 -2
156 1 1 0.5897 7.547661912914762 3.5372789454309883 3.791959760330715 4 3 -3
288 1 1 0.5897 7.913597744319908 2.2415611341412003 1.5241034801532871 3 6 -2
606 1 1 0.5897 6.1565541793907474 6.065322058543634 4.280024645854988 -3 -2 -2
846 1 1 0.5897 8.345776825607981 5.168731948208045 5.235339732080257 1 0 2
653 1 1 0.5897 5.762845376452893 3.955889642240562 1.6795196451282235 -3 -1 2
652 1 2 -1.1794 5.037954871000403 3.612765857217191 1.1569627110288032 -3 -1 2
767 1 1 0.5897 8.641982213399636 6.522183871862153 2.066286534516906 -1 1 -3
603 1 1 0.5897 7.76213211069109 3.8364884803405377 7.1625198601119795 0 4 0
62 1 1 0.5897 5.051618073236363 4.020143842269468 7.562865696847385 -3 3 4
432 1 1 0.5897 6.309896925746532 2.0667345765504828 6.89056512886978 -10 3 -2
628 1 2 -1.1794 7.163601535873781 4.477140601899248 10.283448651906642 -3 -2 6
430 1 2 -1.1794 6.29207731241914 2.9640212806184723 6.557643437122656 -10 3 -2
601 1 2 -1.1794 8.47800732058792 4.338209535142891 7.552482812949752 0 4 0
630 1 1 0.5897 6.910974581692063 4.2654478692073 9.384754843729668 -3 -2 6
263 1 1 0.5897 8.677148607020191 6.117726827736263 7.694560538102535 5 -1 7
602 1 1 0.5897 8.890085299203605 3.730656671712729 8.166894631759412 0 4 -1
438 1 1 0.5897 5.423164590323467 6.233395883996267 8.087719144472796 -1 6 4
629 1 1 0.5897 7.058455795845629 5.426570376401401 10.344982726865764 -3 -2 6
462 1 1 0.5897 5.413206520984267 1.8441737576539745 9.994922649560356 8 2 -2
224 1 1 0.5897 7.052312949748682 3.335593118908104 11.738432044612019 3 0 -5
225 1 1 0.5897 7.274770430708397 2.3570770182479843 12.872003302798714 3 0 -5
648 1 1 0.5897 8.768109012576415 4.159355185882204 14.1669818316557 -6 -2 -3
280 1 2 -1.1794 6.862039145127101 4.7489302600303365 14.441126042036448 0 -4 0
570 1 1 0.5897 5.414867026025584 6.15865863981103 11.729238785999485 3 -3 1
281 1 1 0.5897 6.131060751781452 5.283347406982374 14.751495532172019 0 -4 0
282 1 1 0.5897 6.5029810858445805 4.256719151355268 13.70283414527492 0 -4 0
223 1 2 -1.1794 6.587411064684856 2.8385439945839153 12.41156327965696 3 0 -5
480 1 1 0.5897 7.704437997710157 6.369538447450549 14.127571923677477 -1 2 -2
336 1 1 0.5897 8.61875430311137 6.515981884314747 15.789427098301987 9 -2 7
476 1 1 0.5897 7.741677466545271 1.897297894734654 16.211855423108517 -1 -1 -2
68 1 1 0.5897 8.319626489294734 3.0696427598636085 20.429227442044407 6 -2 -9
101 1 1 0.5897 5.038402771196866 4.022672401872915 20.029720675015902 8 -5 -6
631 1 2 -1.1794 6.646232638519447 6.753396951566368 18.38460958135817 2 0 4
335 1 1 0.5897 8.031310129892875 6.311413859530259 17.16966474807065 9 -2 7
334 1 2 -1.1794 8.819340780609643 6.149890187932594 16.650828655420973 9 -2 7
69 1 1 0.5897 8.695450398369076 4.276285552934199 19.595719747202708 6 -2 -9
112 1 2 -1.1794 8.984330474150097 3.0928330184469806 16.905737959616054 -4 -4 1
67 1 2 -1.1794 8.157038266154018 3.484964124378316 19.58227128123815 6 -2 -9
102 1 1 0.5897 5.676429758474618 5.05362863640264 19.12304001740776 8 -5 -6
353 1 1 0.5897 6.509350231863432 2.2809413147477073 19.53451553119514 7 2 -4
113 1 1 0.5897 8.715095920661007 2.9063865888881004 17.805199069545516 -4 -4 1
114 1 1 0.5897 8.628220995457813 3.9625796212034072 16.724026099306776 -4 -4 1
100 1 2 -1.1794 5.063901957266174 4.318043215012505 19.119572910410326 8 -5 -6
93 1 1 0.5897 5.950209817565459 10.681817865442204 2.6536213428745485 -3 -5 6
847 1 2 -1.1794 8.950335908128238 8.404197739102958 4.671121293987204 7 -4 6
91 1 2 -1.1794 6.152407148188331 9.805601617626337 2.325565993817534 -3 -5 6
185 1 1 0.5897 8.201628451737896 11.576813374058025 4.732566670788341 -2 10 1
79 1 2 -1.1794 8.902870246732114 10.11250587477483 1.9161902115075364 0 1 -7
80 1 1 0.5897 8.681550516686238 11.026155195734985 2.0965251331200876 0 1 -7
186 1 1 0.5897 8.173305959653483 10.078535585183616 4.517127728219115 -2 10 1
92 1 1 0.5897 7.108312217521208 9.758025386945345 2.341570804101351 -3 -5 6
184 1 2 -1.1794 7.602432204210244 10.842782423231627 4.596723278464701 -2 10 1
147 1 1 0.5897 7.3109368766752745 7.759327522392188 5.42638683334136 1 -1 -6
27 1 1 0.5897 5.864126005296715 8.46133889550962 1.1728091229513706 1 8 7
57 1 1 0.5897 4.969904706500417 9.269973225874681 3.543437544778813 -8 -1 3
145 1 2 -1.1794 6.844151927092992 6.966438798763319 5.690398978368556 1 -1 -6
566 1 1 0.5897 6.333182059251644 7.1326384732708865 9.964917994641608 -1 5 -9
170 1 1 0.5897 7.5176300605583055 8.522442493361837 8.5994721008485 -4 4 -2
611 1 1 0.5897 5.8906531929767585 11.469755360259978 7.299904508076201 0 4 -2
610 1 2 -1.1794 6.119599559416054 10.608114079799456 6.951449892932373 0 4 -2
171 1 1 0.5897 7.127608744512573 9.896833629903119 8.098536678973986 -4 4 -2
146 1 1 0.5897 6.607216820298221 7.12071082704504 6.604914112620634 1 -1 -6
565 1 2 -1.1794 6.67005831236273 6.9816637718770425 10.848091157046417 -1 5 -9
169 1 2 -1.1794 7.445560444814689 9.43627770427467 8.87511795949318 -4 4 -2
436 1 2 -1.1794 5.69068048183484 7.135615299073012 8.262957092904738 -1 6 4
741 1 1 0.5897 5.655856920150813 9.614100783006315 9.588814448573782 -1 1 7
437 1 1 0.5897 4.96482080975596 7.668521244689728 7.938305066304836 -1 6 4
262 1 2 -1.1794 8.761464569645105 6.963875661252871 8.134094966859504 5 -1 7
612 1 1 0.5897 6.591090105371479 10.79508024366732 6.139632566465324 0 4 -2
266 1 1 0.5897 8.947904573872526 10.347257807937208 9.91664170837199 -3 -1 2
726 1 1 0.5897 5.709598843344559 10.09678129971363 15.721910662618054 4 -5 2
200 1 1 0.5897 7.4426800974343506 10.411472185840566 12.829348648771411 1 -1 -1
725 1 1 0.5897 7.211369692751083 10.286990723846227 15.746131662116435 4 -5 2
478 1 2 -1.1794 8.096346811401169 7.2426420054454 14.108458996760373 -1 2 -2
724 1 2 -1.1794 6.388432166519473 10.733998912098361 15.94425244186813 4 -5 2
201 1 1 0.5897 7.623595799322061 8.944771101826497 13.158032566087897 1 -1 -1
199 1 2 -1.1794 7.673847188563983 9.570315710704289 12.435222566094044 1 -1 -1
306 1 1 0.5897 6.621743786634811 11.471767103514285 14.288583773536812 6 -1 -6
479 1 1 0.5897 8.968580791238866 7.1061256971031375 13.738491348771177 -1 2 -2
567 1 1 0.5897 6.983545384169712 7.839305222023327 11.135245378007728 -1 5 -9
337 1 2 -1.1794 9.034397825036491 10.246162642261428 15.826127254913745 -3 3 2
267 1 1 0.5897 8.867478147206262 10.055822756583538 11.400075527995263 -3 -1 2
35 1 1 0.5897 7.571249527650998 11.707764715259321 20.475104184971052 -6 2 -1
25 1 2 -1.1794 5.679192231580441 7.724354658962449 21.280824762054003 1 8 6
60 1 1 0.5897 6.188785291692627 10.283094735388195 21.06191611720626 4 -1 -2
136 1 2 -1.1794 8.528414664317152 8.366392352862988 20.35763254978054 9 -4 -2
548 1 1 0.5897 4.948672712955698 10.49060384253916 18.94021694889507 5 2 5
59 1 1 0.5897 6.733068411497501 9.4783050905604 19.900865418241686 4 -1 -2
58 1 2 -1.1794 6.240878953819385 10.273201886895704 20.106171668630545 4 -1 -2
138 1 1 0.5897 8.740198514342817 8.946373123563525 21.089099207396956 9 -4 -2
632 1 1 0.5897 5.774147459758166 7.079846023339762 18.16278682428704 2 0 4
633 1 1 0.5897 6.943353370890807 7.324728291618291 19.092823065593286 2 0 4
506 1 1 0.5897 5.271124249676703 13.546815013402158 4.445767682563068 1 4 -3
698 1 1 0.5897 7.495284511480362 14.856997170922329 1.3563001447050183 1 3 -1
699 1 1 0.5897 6.601566824529795 15.267597966430893 2.5072428251312644 1 3 -1
507 1 1 0.5897 6.394214409018356 13.737395017490211 5.4429661485366125 1 4 -3
591 1 1 0.5897 5.930396619653082 13.111196259160696 2.3893513856944333 -2 8 0
697 1 2 -1.1794 7.342353280140406 14.702232170576993 2.2884680950769964 1 3 -1
505 1 2 -1.1794 5.507314114314885 14.032261532613978 5.2362472195118555 1 4 -3
779 1 1 0.5897 8.747680464865391 13.371641122283426 2.6632777933034752 -3 0 -2
719 1 1 0.5897 7.751198345626915 16.338102197098642 4.732862168795405 5 3 0
589 1 2 -1.1794 5.286546092316307 12.429931644073681 2.5832628597715406 -2 8 0
718 1 2 -1.1794 8.371819509687521 15.974092284684698 5.364200082986919 5 3 0
260 1 1 0.5897 8.304452620475534 14.276724145213992 5.849512746822109 -2 -1 11
372 1 1 0.5897 8.58967967263304 16.793338364417174 2.5332523072564537 -2 7 0
618 1 1 0.5897 4.887910975415891 15.696976542110916 5.696218835751396 -5 4 2
331 1 2 -1.1794 7.373955255250719 12.678807569067601 10.866769050559466 1 2 -1
542 1 1 0.5897 6.556209387623031 13.04224007602526 9.24385953275036 3 0 6
543 1 1 0.5897 5.7326064520785796 13.864519328019025 8.275596099534999 3 0 6
261 1 1 0.5897 7.94322327226519 13.627346512316803 7.168526908663184 -2 -1 11
427 1 2 -1.1794 8.380352229796927 15.447579642932187 8.677385992704856 -4 -2 -1
541 1 2 -1.1794 6.237390488064593 13.053876089565629 8.341368146502116 3 0 6
594 1 1 0.5897 7.012114261352884 15.292188460493517 9.838998105371587 0 0 -3
592 1 2 -1.1794 6.2419645592537 15.406069036664304 10.395944267228481 0 0 -3
593 1 1 0.5897 6.018531166341224 14.51990421942626 10.680651509373892 0 0 -3
428 1 1 0.5897 8.005526816292171 16.21223400936811 8.24026424083333 -4 -2 -1
259 1 2 -1.1794 8.113167890519389 13.427641777495328 6.247920349554173 -2 -1 11
720 1 1 0.5897 8.408857755306624 16.62374564013396 6.06622508229198 5 3 0
333 1 1 0.5897 7.902478024371413 11.88080921641046 10.855202042248585 1 2 -1
305 1 1 0.5897 7.802843273983945 12.278103395463635 13.791730919586328 6 -1 -6
714 1 1 0.5897 6.615280274313641 14.892355658238742 15.64800054031663 -7 -2 5
332 1 1 0.5897 6.955399124502179 12.676992764955385 11.727629353341426 1 2 -1
77 1 1 0.5897 7.173361863830658 15.66073901278508 11.849452987338683 -8 -5 0
853 1 2 -1.1794 8.730881128439007 13.694541305058758 14.284610622149692 -4 -1 2
393 1 1 0.5897 5.742841044808334 13.398764856304425 14.169554231397905 5 1 0
76 1 2 -1.1794 7.629677529352075 15.696166905747697 12.69016589388767 -8 -5 0
391 1 2 -1.1794 5.2616359992867965 13.93750273012799 14.797619188026157 5 1 0
392 1 1 0.5897 4.914312226799212 14.661353251626823 14.276366988227254 5 1 0
854 1 1 0.5897 8.3049753263032 14.495500947384919 13.979113250674231 -4 -1 2
78 1 1 0.5897 7.122600481050401 16.317749235672768 13.212441797855558 -8 -5 0
712 1 2 -1.1794 7.058333842872205 15.574900202718153 16.15208812800389 -7 -2 5
304 1 2 -1.1794 6.9854513493999075 11.874306161159899 13.499950474784432 6 -1 -6
855 1 1 0.5897 8.749281420669975 13.781049167120495 15.237731095520525 -4 -1 2
36 1 1 0.5897 7.757167734074492 13.204040441303377 20.338731928285085 -6 2 -1
179 1 1 0.5897 8.04103472599543 13.203645658522554 17.51500695985164 -8 -1 0
470 1 1 0.5897 7.1796316642718745 15.579767683209283 19.543904899382845 7 -5 4
469 1 2 -1.1794 7.025408791217498 14.749284926549524 19.994217417826277 7 -5 4
317 1 1 0.5897 5.4453282332627 16.123484868648315 16.85077991727244 -3 -2 -1
494 1 1 0.5897 5.676602696459126 12.877875594165797 17.805674165284657 -2 -3 1
471 1 1 0.5897 6.078206727952444 14.620940182122618 19.943247817159865 7 -5 4
178 1 2 -1.1794 8.687222797857698 13.642792828480305 16.961955527063864 -8 -1 0
713 1 1 0.5897 7.382234046046223 15.124929776537996 16.932397703384666 -7 -2 5
34 1 2 -1.1794 8.167991149962688 12.420374440186727 20.70391782021106 -6 2 -1
493 1 2 -1.1794 6.537528151714068 12.46740904430406 17.886825440589973 -2 -3 1
495 1 1 0.5897 6.635868818337614 11.955309237489342 17.084115378616417 -2 -3 1
420 1 1 0.5897 6.331267992822497 17.290180633443036 2.8003776268631224 -13 -2 6
419 1 1 0.5897 7.026071892293321 18.252946984220294 3.739704640520864 -13 -2 6
617 1 1 0.5897 5.183399565396114 16.992582521932405 4.9708948050358535 -5 4 2
33 1 1 0.5897 7.087206263710802 21.04657977610541 4.279141009219346 1 6 3
49 1 2 -1.1794 8.743753531965128 19.165390468563174 0.9227664329619548 8 -3 -2
32 1 1 0.5897 6.413846272126904 20.28124582932552 3.1598211123709428 1 6 3
31 1 2 -1.1794 6.794379398462092 20.169660528800904 4.031038505731189 1 6 3
649 1 2 -1.1794 5.3849647744857405 20.686680091409002 1.4954115977692501 -1 -3 -1