LAMMPS data file via write_data, version 30 Jul 2021, timestep = 1500000

1296 atoms
2 atom types
864 bonds
1 bond types
432 angles
1 angle types

-10.793142178669378 12.773142178669378 xlo xhi
-9.312233333989523 12.302231333989523 ylo yhi
-0.032050369557774516 21.89204936955406 zlo zhi
-9.477182623257853 1.6624727880567782 3.400915646069032 xy xz yz

Masses

1 1.008
2 15.999

Pair Coeffs # lj/cut/tip4p/long/omp

1 0 0
2 0.21084 3.1668

Bond Coeffs # harmonic/omp

1 450 0.9572

Angle Coeffs # harmonic/omp

1 55 104.52

Atoms # full

280 94 2 -1.1794 -9.612106305241024 -4.6439652507718145 1.074071159105005 1 1 0
73 25 2 -1.1794 -8.555132653991656 -3.89723070381073 4.397337789093912 1 0 0
275 92 1 0.5897 -10.670042237715464 -7.931207623840671 3.297666604288982 1 1 0
270 90 1 0.5897 -8.51426706804155 -7.208834431755289 2.0635977955249447 1 1 0
269 90 1 0.5897 -9.22068198103082 -5.879986816473766 2.2286813982305853 1 1 0
268 90 2 -1.1794 -9.14967994850257 -6.752780771533599 2.6154262518752973 1 1 0
282 94 1 0.5897 -10.491839173121981 -4.364833339499734 1.327889106135995 1 1 0
298 100 2 -1.1794 -6.031894548497141 -7.345034379069265 4.059093398937304 1 1 0
84 28 1 0.5897 -8.403032931130031 -0.5558030889070942 4.39208481721067 1 0 0
314 105 1 0.5897 -8.946428430138216 -6.774555809591395 4.321771843093737 1 1 0
299 100 1 0.5897 -6.552057912360811 -8.106712805570414 4.315356084793391 1 1 0
300 100 1 0.5897 -5.153020911567525 -7.693787200480416 3.9100466026521743 1 1 0
163 55 2 -1.1794 -7.2898142220038356 -7.904972570896702 0.4949957036531296 1 1 0
164 55 1 0.5897 -6.478854006823924 -8.359667045314454 0.7226958672074897 1 1 0
323 108 1 0.5897 -6.383575589424811 -5.7143918915835386 3.247483415698989 1 1 0
75 25 1 0.5897 -9.463348140003948 -3.608784266759665 4.306834876421107 1 0 0
59 20 1 0.5897 -13.802066616134702 -0.9556433004163942 3.312553517688779 1 0 0
281 94 1 0.5897 -9.106141813370597 -3.8325248662737748 1.0303157850369973 1 1 0
99 33 1 0.5897 -12.176223765166208 1.7553040024826725 5.072281123181818 1 0 0
324 108 1 0.5897 -7.229394096702351 -4.459191595326607 3.213455835059119 1 1 0
97 33 2 -1.1794 -12.285575271132657 0.8061584476615433 5.131944827329339 1 0 0
68 23 1 0.5897 -11.663699218480431 -2.727624531729324 4.730025185388642 1 0 0
53 18 1 0.5897 -12.42516807473564 0.8944242755381246 2.086568596973253 1 0 0
272 91 1 0.5897 -9.464610676170427 -1.3397343401287243 1.1295942624505722 1 1 0
256 86 2 -1.1794 -12.32314257747232 -3.6158346640856838 1.9260772340932732 1 1 0
258 86 1 0.5897 -12.69828640405795 -3.066272388196211 1.237956270502837 1 1 0
54 18 1 0.5897 -11.564213570374323 -0.34326302161677447 1.948908885614844 1 0 0
82 28 2 -1.1794 -9.288483035391017 -0.1960556564681859 4.445213794346674 1 0 0
83 28 1 0.5897 -9.854979861117993 -0.9079303092953541 4.147545823108664 1 0 0
271 91 2 -1.1794 -10.229622531064827 -0.8387909346806559 0.8466351664602609 1 1 0
98 33 1 0.5897 -12.290382367299046 0.5075392017801956 4.222561786194679 1 0 0
52 18 2 -1.1794 -12.284324049828554 0.024757734082628602 2.461020747427397 1 0 0
67 23 2 -1.1794 -11.004159609157796 -2.6752804585922325 4.038245025213105 1 0 0
69 23 1 0.5897 -11.44725116116429 -3.0096823221408604 3.258499562489619 1 0 0
44 15 1 0.5897 -9.872583011451567 0.8579146188104865 0.186107707261658 1 0 0
301 101 2 -1.1794 -7.854341125966734 -2.3018118331632937 1.6155273550786982 1 1 0
322 108 2 -1.1794 -6.490410130068677 -4.885978549170787 2.7798427458912225 1 1 0
107 36 1 0.5897 -9.856829025781945 1.3900624296768829 3.4221053959993233 1 0 0
273 91 1 0.5897 -10.560188704903862 -1.3152990039327213 0.08517120890051588 1 1 0
74 25 1 0.5897 -8.127743032296834 -3.1942715020650425 4.8866638821884125 1 0 0
260 87 1 0.5897 -7.00213644269777 -6.167827161269766 0.012626297656255683 1 1 0
633 211 1 0.5897 -6.015165980076925 -6.0873496321455605 5.424507667979458 1 1 0
313 105 2 -1.1794 -8.675233884501218 -6.4547845532012875 5.182208146545862 1 1 0
315 105 1 0.5897 -8.761186291698795 -5.503236428363932 5.122650950626174 1 1 0
261 87 1 0.5897 -6.65926272135431 -5.024349360821784 0.9436512915603033 1 1 0
259 87 2 -1.1794 -6.735598316123249 -5.248407695773697 0.01621670870115116 1 1 0
411 137 1 0.5897 -13.93740741761891 0.518185190851149 6.2424953067134386 1 0 0
420 140 1 0.5897 -9.314278751443261 -6.548468721147293 9.654445289315323 1 0 0
618 206 1 0.5897 -7.643028151304982 -7.439953482268407 6.608064670367264 1 1 0
413 138 1 0.5897 -7.58467064389785 -3.5064337995743795 7.827093534390187 1 0 0
419 140 1 0.5897 -8.962165302634908 -5.358953870632904 8.78648189453183 1 0 0
418 140 2 -1.1794 -9.668650768159445 -5.977435362895184 8.972818430794705 1 0 0
414 138 1 0.5897 -7.010028875860369 -4.891781599604862 7.620370598481458 1 0 0
427 143 2 -1.1794 -5.708546454741889 -7.230763210465972 9.19105870214213 1 0 0
350 117 1 0.5897 -7.4952465579594225 -4.068765341704264 10.01218151058713 0 0 0
412 138 2 -1.1794 -7.5222386259426886 -4.3690840750702815 8.237361792468532 1 0 0
522 174 1 0.5897 -10.253891864378252 2.3297660884055755 7.692644424464187 1 0 0
616 206 2 -1.1794 -7.350508311863301 -8.164750920966213 7.160715598630127 1 1 0
429 143 1 0.5897 -6.146733785655169 -7.310705253670188 8.343858744013295 1 0 0
626 209 1 0.5897 -10.816113962085835 -6.750897018492884 7.555615702932723 1 1 0
417 139 1 0.5897 -9.31212007538673 1.00729474254865 5.732805487566994 1 0 0
415 139 2 -1.1794 -8.969044156603232 1.7102049171992615 6.2845714829999135 1 0 0
435 145 1 0.5897 -8.039372936896047 -0.5671247856673087 9.574220335073816 0 0 0
527 176 1 0.5897 -12.306996432787118 2.130376164438532 8.923096467030865 1 0 0
526 176 2 -1.1794 -12.99265938655986 1.5567545107321248 9.26543286423346 1 0 0
426 142 1 0.5897 -8.937077706648843 -1.4573553217418311 7.036690649011574 1 0 0
402 134 1 0.5897 -11.179871903766504 -0.49648382877409425 6.3873178352938496 1 0 0
401 134 1 0.5897 -11.412014046927005 -1.027683853276681 7.785869850190272 1 0 0
400 134 2 -1.1794 -10.720885813547806 -0.730251456956438 7.194083660117774 1 0 0
537 179 1 0.5897 -9.87216457646776 0.0018223472180114442 8.622524620517607 1 0 0
536 179 1 0.5897 -10.161454127557722 0.027733525291900207 10.10828564231101 1 0 0
535 179 2 -1.1794 -9.53034866979529 0.3289111917553882 9.454588958959214 1 0 0
528 176 1 0.5897 -12.523243481819621 0.9080333315647877 9.789925148759554 1 0 0
424 142 2 -1.1794 -8.048641189930482 -1.809535420043824 7.090566283217274 1 0 0
428 143 1 0.5897 -6.414648320036087 -7.04394334855183 9.809760026466314 1 0 0
349 117 2 -1.1794 -7.414342191262097 -3.6503006820139703 10.869214093240586 0 0 0
627 209 1 0.5897 -10.206902893805848 -6.632545508585961 6.17473954779649 1 1 0
410 137 1 0.5897 -13.926749211268858 1.0690286111407339 7.652531561704256 1 0 0
351 117 1 0.5897 -7.4285020166392055 -2.7119232595771514 10.680427361612626 0 0 0
516 172 1 0.5897 -14.454702787924617 2.524093407422056 9.546136665685806 1 0 0
631 211 2 -1.1794 -5.747961530731829 -5.554475243863282 6.1733934766857255 1 1 0
433 145 2 -1.1794 -7.231948750901234 -0.9934887884326198 9.861468043596787 0 0 0
727 243 2 -1.1794 -8.224911110878557 -7.35442020161206 10.816947348109478 1 0 0
652 218 2 -1.1794 -5.843974895444817 -5.35106821358869 12.524531837701623 0 0 0
780 260 1 0.5897 -7.9174030543596405 -3.627335690548091 15.06747807087735 0 0 0
779 260 1 0.5897 -7.572844662973301 -2.4355369584877185 14.199625857723857 0 0 0
778 260 2 -1.1794 -8.315308601769775 -2.9354044069253016 14.539076849459649 0 0 0
768 256 1 0.5897 -10.148136550306148 -2.451073950228867 15.112154285671272 0 0 0
654 218 1 0.5897 -6.392709283838465 -4.697603917006868 12.090758362776588 0 0 0
653 218 1 0.5897 -6.43330887726325 -5.79063354924957 13.137578372543162 0 0 0
791 264 1 0.5897 -11.278129247576173 -0.20524171031453697 14.036435731913718 0 0 0
662 221 1 0.5897 -9.45033065665966 -3.5215520536875182 13.169571155476637 0 0 0
729 243 1 0.5897 -8.251110385752256 -6.912521737450934 11.665608591059277 1 0 0
769 257 2 -1.1794 -12.954260005729612 3.153749395902082 12.321360326040823 0 0 0
661 221 2 -1.1794 -9.710777770233479 -3.861785127564217 12.313671021538811 0 0 0
835 279 2 -1.1794 -11.645387348951415 -0.3610612559676607 10.935563845334876 1 0 0
663 221 1 0.5897 -8.899773678097906 -3.8793274054659923 11.805477115022029 0 0 0
788 263 1 0.5897 -5.646713690385496 -4.461365141018506 15.353719318035537 0 0 0
865 289 2 -1.1794 -13.102261565598827 1.6815214456152177 15.488365976645545 0 0 0
766 256 2 -1.1794 -11.004902932580311 -2.0495634570689987 14.96726275243903 0 0 0
684 228 1 0.5897 -8.709827609693356 -6.131624302777629 14.059461003490577 0 0 0
896 299 1 0.5897 -8.2528727342611 2.7153846072787733 15.539054753403498 0 0 0
866 289 1 0.5897 -12.69420449209219 2.2422737661328735 16.148090491451704 0 0 0
837 279 1 0.5897 -11.497290596538171 0.07495827379596598 11.774686591318535 1 0 0
790 264 2 -1.1794 -11.27018533482837 0.6234543322145871 13.557287832235179 0 0 0
740 247 1 0.5897 -11.272630392482888 -3.295769105333891 11.80137175895877 1 0 0
792 264 1 0.5897 -11.949647952847805 1.1504092735531213 13.977888908941164 0 0 0
762 254 1 0.5897 -9.492260377654706 2.566096632091117 12.063285650866234 0 0 0
761 254 1 0.5897 -9.719151787330606 1.4960013568109805 13.110018644881317 0 0 0
760 254 2 -1.1794 -9.039291203099602 2.0555407220760156 12.734407639282814 0 0 0
771 257 1 0.5897 -12.18440179547789 3.2058583840763433 11.754876152133832 0 0 0
682 228 2 -1.1794 -8.193045951248944 -6.6665908524290804 13.45697176061681 0 0 0
758 253 1 0.5897 -9.971998673093514 -5.077416344250125 16.402209861174576 0 0 0
1195 399 2 -1.1794 -10.073786117829542 2.350973832539472 16.246448704369584 0 0 0
836 279 1 0.5897 -11.94837988178151 -1.2380894910383216 11.170969428005781 1 0 0
888 296 1 0.5897 -11.097351456953795 3.4925739439908785 15.040358213812407 0 0 0
1087 363 2 -1.1794 -7.08522572834977 -4.741602648909383 16.285565589121852 0 0 0
770 257 1 0.5897 -12.642531247790176 3.4470782742150785 13.177475017694452 0 0 0
789 263 1 0.5897 -5.184137090828571 -4.4600789350540655 13.912223601996 0 0 0
1101 367 1 0.5897 -11.010332182468746 -0.8033603341317903 16.332940469325415 0 0 0
749 250 1 0.5897 -10.617692680202854 -5.658373725529553 12.023672682285442 1 0 0
1196 399 1 0.5897 -10.29743542442077 1.4265256486121487 16.354975783331405 0 0 0
1099 367 2 -1.1794 -10.735135053163612 -0.21107236680458463 17.03269517922829 0 0 0
1150 384 2 -1.1794 -6.543097378495995 -4.061421450262863 18.877564733078536 0 0 0
1131 377 1 0.5897 -7.628987099496836 -1.2824100529391291 17.097437659807504 0 0 0
1249 417 2 -1.1794 -12.152282134228026 1.3779283207617024 21.71076465528524 0 0 0
1108 370 2 -1.1794 -9.983219516095946 -3.8042976170847753 17.822390741189416 0 0 0
1152 384 1 0.5897 -7.276475506829117 -3.8942425411189916 19.469583231234353 0 0 0
1227 409 1 0.5897 -9.34151392393041 -2.6861364462490256 20.728269947936838 0 0 0
1009 337 2 -1.1794 -12.04258652637573 4.047149527929811 20.916619475328126 0 -1 0
1143 381 1 0.5897 -8.885650339965082 -4.701412138254019 21.574625881232443 0 0 0
1109 370 1 0.5897 -9.314856222739689 -3.120626411737284 17.77504896250595 0 0 0
1130 377 1 0.5897 -7.937961238513834 -1.2925844164258091 18.5794293966375 0 0 0
1089 363 1 0.5897 -6.937175641085847 -4.2567844554354375 17.097478691754937 0 0 0
165 55 1 0.5897 -6.0564046499957715 -5.080754400345346 21.7870278324057 1 1 -1
1151 384 1 0.5897 -6.07168334275808 -4.791120237123029 19.27958112796196 0 0 0
1246 416 2 -1.1794 -6.671923651760274 -0.48888202004248704 19.91171299412538 0 0 0
1129 377 2 -1.1794 -8.329689030688407 -1.4654875278421589 17.72339002001369 0 0 0
1218 406 1 0.5897 -13.674478518578798 3.804714849495628 17.847189049966303 0 0 0
1251 417 1 0.5897 -12.026918683655417 2.3264419836488557 21.679233201176665 0 0 0
1206 402 1 0.5897 -11.846773171063171 0.5547319541593474 18.31941460296828 0 0 0
1010 337 1 0.5897 -11.588189560423125 4.605874378562065 21.547137207158713 0 -1 0
1225 409 2 -1.1794 -8.45067532877993 -3.0354713039499632 20.753169937395803 0 0 0
1097 366 1 0.5897 -9.335408898593961 -5.396893020649755 18.712713957512726 0 0 0
1141 381 2 -1.1794 -8.836262100168362 -5.620490412198286 21.837778103836925 0 0 0
1011 337 1 0.5897 -12.794558982432656 4.567317913773595 20.63338400736611 0 -1 0
1260 420 1 0.5897 -10.506320460330526 3.307381562378735 19.599460638360227 0 0 0
1259 420 1 0.5897 -9.46045481819107 2.218359849569241 19.71011803812455 0 0 0
1258 420 2 -1.1794 -9.657609274285775 3.0347217098274637 19.250727274756628 0 0 0
1248 416 1 0.5897 -6.209933556548617 -0.8395905702668927 20.67314554755307 0 0 0
1219 407 2 -1.1794 -10.794126960634538 -1.2869985588284258 20.49125447158262 0 0 0
1236 412 1 0.5897 -8.254623207931422 0.34612430789564463 20.156374589711582 0 0 0
1216 406 2 -1.1794 -12.822457144424163 3.4076862504451064 17.666430644206365 0 0 0
1235 412 1 0.5897 -9.73214130150578 0.071511650520657 20.339603940576147 0 0 0
1234 412 2 -1.1794 -9.086047893494621 0.7777226843554104 20.353164955702567 0 0 0
1197 399 1 0.5897 -9.935945028031645 2.670781358962282 17.138010366253148 0 0 0
1100 367 1 0.5897 -9.857877564977008 -0.5114974528087508 17.270175340171583 0 0 0
1205 402 1 0.5897 -12.542466749274316 1.863381913060019 18.62853209410357 0 0 0
1229 410 1 0.5897 -8.419850672055986 4.188689886244072 18.590693362080252 0 0 0
1204 402 2 -1.1794 -12.430484109211065 0.9701866822896825 18.95418445195446 0 0 0
1226 409 1 0.5897 -8.060987585823106 -2.643487903869474 21.53460849498476 0 0 0
1221 407 1 0.5897 -11.2465196318237 -1.607281999763483 19.71092402465387 0 0 0
1096 366 2 -1.1794 -9.103865992328195 -6.258981711731348 19.05848684821352 0 0 0
1110 370 1 0.5897 -10.804843820497267 -3.328592226310385 17.944498047859035 0 0 0
1250 417 1 0.5897 -12.185489374462474 1.1096295613655478 20.792568284731473 0 0 0
1121 374 1 0.5897 -5.240139662847287 -2.8229292098623997 18.59501110362723 0 0 0
1217 406 1 0.5897 -12.201453113757252 4.133528471168889 17.728478824934676 0 0 0
1088 363 1 0.5897 -7.3734872777087785 -5.608161465672528 16.57260542790548 0 0 0
40 14 2 -1.1794 -15.479973865095147 3.940575581798033 1.7325927577171862 1 0 0
215 72 1 0.5897 -12.506510335182966 8.792230740377862 3.4247627668104674 1 0 0
193 65 2 -1.1794 -14.615946088362026 12.356906676901817 1.2729075246996424 1 0 0
177 59 1 0.5897 -14.503830348535853 4.649432152480053 3.16939198938084 1 0 0
192 64 1 0.5897 -11.686762985260824 6.806376685218426 4.095660174757148 1 0 0
56 19 1 0.5897 -12.810290129405878 5.9690814708529985 1.4140088572696063 1 0 0
284 95 1 0.5897 -17.72438911344473 11.834554242785723 4.668943971574498 1 0 0
66 22 1 0.5897 -13.897709840008897 2.723129039627537 1.4850673004358317 1 0 0
65 22 1 0.5897 -12.423979538029782 3.0688223773507577 1.4600768487230387 1 0 0
64 22 2 -1.1794 -13.027474491582076 2.3257949603498886 1.4523901561533925 1 0 0
181 61 2 -1.1794 -11.872476755209117 3.472748035766065 4.911588525210762 1 0 0
190 64 2 -1.1794 -12.427145022907231 7.351593331674765 4.361795643909086 1 0 0
191 64 1 0.5897 -13.187184372046605 6.7735275629599325 4.294744230115755 1 0 0
183 61 1 0.5897 -12.622348615784759 3.8476241613314226 4.44965853089922 1 0 0
175 59 2 -1.1794 -14.179806289352541 4.9495310607771135 4.0185692823661405 1 0 0
206 69 1 0.5897 -15.462879138969932 7.574604909208434 4.203865788000462 1 0 0
216 72 1 0.5897 -13.359023423619654 10.040533947249196 3.508773086918474 1 0 0
194 65 1 0.5897 -14.233435916994807 12.435693372844211 2.1467667042969265 1 0 0
176 59 1 0.5897 -14.930131237524904 4.861630656527609 4.606434209515944 1 0 0
55 19 2 -1.1794 -13.438664945702213 6.35881596681134 0.8061718923609791 1 0 0
160 54 2 -1.1794 -15.673698246825229 7.355770943042577 2.3937759380130075 1 0 0
153 51 1 0.5897 -13.095825256860396 9.336051055712916 1.1266900303311278 1 0 0
174 58 1 0.5897 -16.863020721134365 10.101226638601686 1.38182929690555 1 0 0
173 58 1 0.5897 -15.463227153658234 10.64719749194145 1.1958529406167766 1 0 0
172 58 2 -1.1794 -15.966797601059174 9.833268817505799 1.1787182087924646 1 0 0
161 54 1 0.5897 -15.888295513784058 8.077152540236197 1.8022688524131183 1 0 0
57 19 1 0.5897 -13.667003101723557 5.647149597468385 0.20815031579038482 1 0 0
148 50 2 -1.1794 -18.550098785125165 11.25168225876123 1.875761160367219 1 0 0
205 69 2 -1.1794 -15.326466358009995 7.8136089163910345 5.120604163105636 1 0 0
285 95 1 0.5897 -17.362417464985334 11.886290099821357 3.19986730755256 1 0 0
150 50 1 0.5897 -18.88743181195184 11.724821526034566 1.1151100436996846 1 0 0
162 54 1 0.5897 -15.128253523552718 6.769499060090203 1.869337264493532 1 0 0
283 95 2 -1.1794 -16.974761964657155 11.873046346870291 4.0749126934044435 1 0 0
291 97 1 0.5897 -15.366484296725794 11.127251180349388 4.691652348705914 1 0 0
289 97 2 -1.1794 -14.544482761582346 10.761904079302875 5.018863567420929 1 0 0
106 36 2 -1.1794 -10.130311644399313 2.203261291026152 2.9975264487741042 1 0 0
42 14 1 0.5897 -15.909677498418937 4.458910123428696 1.0522124786275426 1 0 0
45 15 1 0.5897 -10.130577747346637 1.9536349205584855 1.198406180223068 1 0 0
85 29 2 -1.1794 -11.470184332532902 4.684575201996934 1.6000588062344698 1 0 0
43 15 2 -1.1794 -9.986112526899937 1.8052378855334155 0.263898135905037 1 0 0
151 51 2 -1.1794 -13.139119482581759 9.037592071338706 0.2182750558731371 1 0 0
108 36 1 0.5897 -10.552292812005948 2.7072011608753517 3.69337577811126 1 0 0
86 29 1 0.5897 -11.078291223130805 5.06077066948051 2.3881298191482365 1 0 0
207 69 1 0.5897 -15.006115953001048 8.715126970084823 5.088447485560578 1 0 0
152 51 1 0.5897 -13.159235810501297 8.08252430146999 0.28015095026485565 1 0 0
167 56 1 0.5897 -17.221832721989227 6.57840821106678 3.132145781138155 1 0 0
182 61 1 0.5897 -11.52979628676307 4.194773656931467 5.438370743188524 1 0 0
508 170 2 -1.1794 -13.847608405850892 6.421486411248749 7.3194330785048525 1 0 0
520 174 2 -1.1794 -10.556856950771174 2.8959525156467123 8.402483783735445 1 0 0
644 215 1 0.5897 -13.189093544373561 7.419265031791506 10.237191967700157 1 0 0
643 215 2 -1.1794 -12.491659970418379 7.525376915579658 9.590172796170652 1 0 0
521 174 1 0.5897 -10.896540791947752 3.6741497967136247 7.960500849284776 1 0 0
510 170 1 0.5897 -14.195964869391657 7.17906165864226 6.849263874196126 1 0 0
567 189 1 0.5897 -13.437154196201298 11.45542402753611 10.555452875258503 0 0 0
509 170 1 0.5897 -14.604858151754224 5.85045235935231 7.449224100693828 1 0 0
525 175 1 0.5897 -12.246356203258054 8.30406481038049 5.661299919569415 1 0 0
532 178 2 -1.1794 -11.296850191074975 5.428242511136629 6.853315344440522 1 0 0
636 212 1 0.5897 -15.93608455344182 8.128356682050692 9.933620848970275 1 0 0
534 178 1 0.5897 -12.174013066419155 5.802938471758104 6.773061354845524 1 0 0
583 195 2 -1.1794 -19.23559828187355 11.94667942312993 5.671267848860388 1 0 0
617 206 1 0.5897 -17.602155344123357 13.207180699805667 7.668356900851176 1 0 0
645 215 1 0.5897 -12.85001051316489 7.147718090298708 8.786979423970118 1 0 0
565 189 2 -1.1794 -13.84222283186634 10.589258943322259 10.600849149178966 0 0 0
635 212 1 0.5897 -15.60248892066653 9.024381232461286 8.759723691351063 1 0 0
543 181 1 0.5897 -10.92164420481705 6.5232231496327024 9.912871401417007 0 0 0
634 212 2 -1.1794 -16.335785749342087 8.715400581286756 9.291831225318402 1 0 0
640 214 2 -1.1794 -14.136930616276281 12.253047182347588 7.127695822520395 1 0 0
630 210 1 0.5897 -13.447843389001914 9.25107942524466 7.549465311168313 1 0 0
629 210 1 0.5897 -14.232767348416672 10.535271816875087 7.713347185609346 1 0 0
628 210 2 -1.1794 -14.129281207040407 9.65874455440976 8.083989445610388 1 0 0
566 189 1 0.5897 -13.919394307786453 10.31232448406311 9.687876469739422 0 0 0
519 173 1 0.5897 -16.86837122749177 7.813259212173177 6.2639057789441805 1 0 0
642 214 1 0.5897 -15.045595514206813 12.550033024678017 7.1765392562080175 1 0 0
327 109 1 0.5897 -13.738199833494226 13.488480754173255 9.82937715738793 0 -1 0
585 195 1 0.5897 -19.27820395068266 12.310100973211766 6.555737061944784 1 0 0
518 173 1 0.5897 -17.180906286724056 7.964833803696068 7.737401004485227 1 0 0
523 175 2 -1.1794 -12.044215016075098 8.961228092982855 6.327244614077314 1 0 0
533 178 1 0.5897 -10.726627498105332 6.182310217787627 7.003523676734035 1 0 0
458 153 1 0.5897 -10.620653162071509 3.172862153763809 10.135438221257782 0 0 0
290 97 1 0.5897 -14.260695544587087 11.377274831485346 5.6948727516344375 1 0 0
459 153 1 0.5897 -10.37790775367208 4.497548073984968 10.826999065341628 0 0 0
879 293 1 0.5897 -15.525950619503117 10.112626159316887 11.575404325435047 0 0 0
876 292 1 0.5897 -13.088417553361104 5.129514593452813 15.04932585830757 0 0 0
887 296 1 0.5897 -10.797508175881198 4.466876582148084 13.92096775388272 0 0 0
874 292 2 -1.1794 -13.961193503377487 5.513500435428552 14.9652520187692 0 0 0
898 300 2 -1.1794 -14.503908510382063 7.879252338857208 13.90929301531302 0 0 0
945 315 1 0.5897 -14.96463601499354 7.57779886942083 12.01707725219759 1 0 0
900 300 1 0.5897 -15.191149725891652 8.257077149082411 14.458116630198443 0 0 0
899 300 1 0.5897 -14.346559304107547 7.012671906506069 14.284329828216075 0 0 0
943 315 2 -1.1794 -14.819887732219655 7.118138246276596 11.190062953718868 1 0 0
875 292 1 0.5897 -14.556790706982081 4.76472288727839 14.996300694320176 0 0 0
956 319 1 0.5897 -17.49779797508367 11.258663604957716 12.097265276629352 1 0 0
877 293 2 -1.1794 -16.060279527246315 9.991962009922903 12.360402653245657 0 0 0
869 290 1 0.5897 -13.036180328165003 8.642313221940201 12.9939346346278 0 0 0
870 290 1 0.5897 -12.477921319618966 9.77822633307317 12.163054376541416 0 0 0
868 290 2 -1.1794 -12.21279111342425 9.023714604992305 12.68913097832095 0 0 0
886 296 2 -1.1794 -11.517958804185525 4.105847244978955 14.437643723835944 0 0 0
878 293 1 0.5897 -15.433337762110243 10.015136739628852 13.08328646643877 0 0 0
658 220 2 -1.1794 -16.5322348663291 12.258599303948175 15.090184370751116 0 -1 0
672 224 1 0.5897 -13.994747166915257 10.566212199037784 15.07660058668383 0 -1 0
671 224 1 0.5897 -13.538916931415933 11.521578698696354 13.994137693583056 0 -1 0
670 224 2 -1.1794 -14.256615578923695 10.934848004501971 14.23293921244405 0 -1 0
660 220 1 0.5897 -15.863058552117256 11.837459856312508 14.55064541652258 0 -1 0
944 315 1 0.5897 -14.97394595609191 6.1964077607566725 11.397623513922216 1 0 0
649 217 2 -1.1794 -16.264432763740913 8.946208304505346 16.063037829120873 0 -1 0
728 243 1 0.5897 -18.021157668541953 13.375618399107347 10.996924621198994 1 -1 0
659 220 1 0.5897 -17.280990690817134 11.663430601912518 15.051886671337567 0 -1 0
683 228 1 0.5897 -17.48667766816014 14.145419283534173 13.945574309491084 0 -1 0
457 153 2 -1.1794 -10.577861516800517 3.5778215941796994 11.001660237964451 0 0 0
680 227 1 0.5897 -11.292488889678062 9.69767849106009 15.585671199669797 0 -1 0
1018 340 2 -1.1794 -12.531742646448764 7.928322643247535 20.741438093853695 0 -1 0
1019 340 1 0.5897 -13.111046789054338 7.1663949022972435 20.726589828855133 0 -1 0
1020 340 1 0.5897 -11.648905379306612 7.558433318691671 20.747799536500303 0 -1 0
988 330 2 -1.1794 -15.61172212558511 8.21680293651257 19.029451592043856 0 -1 0
979 327 2 -1.1794 -12.859972816554725 9.63088541716519 16.545137092996136 0 -1 0
1030 344 2 -1.1794 -9.92525634477189 6.964953057802697 20.227944893989694 0 -1 0
1207 403 2 -1.1794 -13.62537688324328 7.17979204233931 17.581278472731363 0 0 0
1237 413 2 -1.1794 -11.24655712302414 5.7271827842374545 17.858313625415207 0 0 0
1208 403 1 0.5897 -12.809585865647087 6.738125654842966 17.81720147092848 0 0 0
1238 413 1 0.5897 -10.694048424594868 5.650037204044011 18.636088386525323 0 0 0
1239 413 1 0.5897 -10.6506603330548 6.019853585725631 17.168690919120053 0 0 0
990 330 1 0.5897 -14.907722789733725 7.786657897579291 18.544036481152816 0 -1 0
991 331 2 -1.1794 -16.62300648489586 14.293282641300822 17.182315518527368 0 -1 0
1043 348 1 0.5897 -12.64361252070273 9.506173629216564 19.623280905740003 0 -1 0
1042 348 2 -1.1794 -12.83234803508528 10.394775530200308 19.3213897231551 0 -1 0
992 331 1 0.5897 -15.789712007236503 14.049199550043058 17.58512561400606 0 -1 0
1003 335 2 -1.1794 -14.290001662415213 5.73686394628181 20.54950991261085 0 -1 0
1209 403 1 0.5897 -14.041073884004533 6.593987890671647 16.948653820114266 0 0 0
1128 376 1 0.5897 -14.490903613419782 14.677765067685483 20.116124102184827 0 -1 0
1113 371 1 0.5897 -17.451020832229318 12.901839137701161 20.019735840317047 0 -1 0
989 330 1 0.5897 -15.669203806103699 9.091322555280337 18.644402279591638 0 -1 0
1138 380 2 -1.1794 -12.83525039638453 13.55773751141461 19.950002014770433 0 -1 0
1117 373 2 -1.1794 -14.762690394943021 11.360816864270744 21.199959550862168 0 -1 0
1127 376 1 0.5897 -15.998294603392182 14.555275639485282 20.184971304706167 0 -1 0
1022 341 1 0.5897 -13.62251554781588 12.995554849425963 18.39050275628744 0 -1 0
1119 373 1 0.5897 -15.39560431107284 11.816874147454344 20.64528442458964 0 -1 0
1098 366 1 0.5897 -18.15168421747239 14.911098535388147 18.327465724197445 0 -1 0
1044 348 1 0.5897 -13.517524977100335 10.708321777311065 19.911717039381706 0 -1 0
1111 371 2 -1.1794 -16.897722376640772 13.046797829928975 20.787192611612376 0 -1 0
1000 334 2 -1.1794 -15.912598964257686 10.888888335776402 18.07850536736249 0 -1 0
1001 334 1 0.5897 -15.355914885924332 11.533533972040404 17.641568681580928 0 -1 0
1032 344 1 0.5897 -9.362037580974711 6.372515332821438 20.726007247165413 0 -1 0
1023 341 1 0.5897 -13.522803217665754 13.296885030819618 16.910250684121095 0 -1 0
1021 341 2 -1.1794 -14.148321136028098 13.05365274291385 17.592810718799726 0 -1 0
981 327 1 0.5897 -12.97559491535511 10.051650601283272 17.397063539516587 0 -1 0
1033 345 2 -1.1794 -15.38011173329727 8.822267504190338 21.85751828335983 0 -1 0
1140 380 1 0.5897 -12.389059489376981 13.107903644088656 20.66749524790535 0 -1 0
650 217 1 0.5897 -15.993413507461213 9.66503999517054 16.63405970462663 0 -1 0
1126 376 2 -1.1794 -15.287221035455396 15.19347076374269 20.24336755218316 0 -1 0
980 327 1 0.5897 -13.137416891028858 8.725431031662309 16.68504568343365 0 -1 0
1002 334 1 0.5897 -16.772989769904278 11.30599203348991 18.12343063692539 0 -1 0
1035 345 1 0.5897 -15.24884482455844 9.756354480922264 21.694254572679412 0 -1 0
1118 373 1 0.5897 -14.505616040324881 12.010182617513612 21.854520600257906 0 -1 0
1034 345 1 0.5897 -15.235454497361975 8.407368227171672 21.007148989479354 0 -1 0
1013 338 1 0.5897 -11.359153763600455 11.475731080132109 18.735523290791114 0 -1 0
1142 381 1 0.5897 -18.135713905700772 15.520809093126152 21.02492399235431 0 -1 0
993 331 1 0.5897 -16.71170327917165 13.700169577198066 16.436292315243264 0 -1 0
3 1 1 0.5897 -1.3512105090019517 -3.199038557663779 4.195317742509216 0 0 0
242 81 1 0.5897 -1.3996167614807895 -6.762025852762104 4.6292751024416186 0 1 0
310 104 2 -1.1794 -3.399823257471162 -8.69558112671148 3.557938785672095 1 1 0
305 102 1 0.5897 -1.5287839205539324 -6.2571337213880565 2.1560493452218585 1 1 0
303 101 1 0.5897 -7.104939805345012 -2.3183083639175033 1.0201977514557483 1 1 0
318 106 1 0.5897 -2.8801398207014985 -4.252851271901857 1.4642042670058377 1 1 0
304 102 2 -1.1794 -1.5093275315492232 -7.19043116304208 2.368119949923274 1 1 0
88 30 2 -1.1794 -4.64656516314207 -0.05644875443910102 2.3748221405277055 1 0 0
311 104 1 0.5897 -2.8048439404991665 -8.165976497782228 3.0270166771470697 1 1 0
104 35 1 0.5897 -3.482856384159164 -2.3176338387660493 4.845985251596731 1 0 0
306 102 1 0.5897 -0.7253637315692405 -7.5200525527283 1.92878372053632 1 1 0
316 106 2 -1.1794 -1.9780550798848893 -4.470699935250584 1.2295571652746686 1 1 0
26 9 1 0.5897 -4.238685606066298 0.6338289448173597 4.404371795603584 0 0 0
94 32 2 -1.1794 -6.619302237102172 -1.1103872736719325 3.95136598074483 1 0 0
293 98 1 0.5897 -4.996422295264417 -3.9896824302560665 2.247089837508276 1 1 0
95 32 1 0.5897 -5.976554260899088 -0.8137098886999201 3.307013342888407 1 0 0
241 81 2 -1.1794 -0.9982626887801782 -6.355216566440024 5.3970990039426905 0 1 0
96 32 1 0.5897 -6.100023046659692 -1.5557698746179742 4.620853869728296 1 0 0
201 67 1 0.5897 0.5700857380456359 -8.849345577406416 0.09174252705984758 1 1 0
103 35 2 -1.1794 -2.9267437486367243 -2.1700433052976233 4.080972995837183 1 0 0
90 30 1 0.5897 -3.851746746177585 -0.3586341071683439 1.9352550263120925 1 0 0
105 35 1 0.5897 -3.494303108783014 -2.3543877363025505 3.332610457127507 1 0 0
292 98 2 -1.1794 -4.305650977458378 -3.358585485220524 2.0447924665051715 1 1 0
89 30 1 0.5897 -4.662029317248965 0.8881199178215482 2.2200824632780645 1 0 0
294 98 1 0.5897 -4.711060162171437 -2.748064796447193 1.4290109792216088 1 1 0
302 101 1 0.5897 -7.499645180616453 -1.9656528352587168 2.4385318087008696 1 1 0
27 9 1 0.5897 -4.313240962571724 1.7993509602202877 5.36766735435626 0 0 0
243 81 1 0.5897 -0.8705981107392837 -5.440578586958166 5.1450153268322385 0 1 0
317 106 1 0.5897 -1.5213274773052472 -3.6294161672478884 1.2252762790739828 1 1 0
25 9 2 -1.1794 -4.309904146600401 0.8426111858429177 5.335779724017036 0 0 0
1046 349 1 0.5897 -5.228540347399516 1.2641203047838925 0.16827990280721145 0 -1 1
546 182 1 0.5897 0.1738505952780809 -7.380138864166124 6.631167210503555 0 1 0
359 120 1 0.5897 -5.19256643506854 -3.0284861981405857 8.729088055554795 0 0 0
334 112 2 -1.1794 -4.443384197053119 -4.766077447028028 9.827261638646334 0 0 0
434 145 1 0.5897 -6.954524738647146 -0.49079284529252654 10.627309094939847 0 0 0
555 185 1 0.5897 -2.822261329401064 -6.594856621486141 6.223857108868452 0 1 0
554 185 1 0.5897 -3.0504909610117137 -6.456848997938543 7.714053949813777 0 1 0
553 185 2 -1.1794 -3.467178623642135 -6.7667825633271645 6.910028137281379 0 1 0
348 116 1 0.5897 -1.5362239376803757 -6.093147398569709 9.971446467735845 0 0 0
347 116 1 0.5897 -1.1204396450979885 -5.170733745621471 8.845174081533457 0 0 0
346 116 2 -1.1794 -1.8884839200918808 -5.578892773658639 9.24500465130976 0 0 0
336 112 1 0.5897 -3.5062295902249874 -4.898013912904497 9.683718297447383 0 0 0