LAMMPS data file via write_data, version 30 Jul 2021, timestep = 40750000

1008 atoms
2 atom types
672 bonds
1 bond types
336 angles
1 angle types

-3.1230943578842183 14.733093357438426 xlo xhi
-0.00838257415232313 22.58838157414239 ylo yhi
0.05845043721346599 19.171547562787893 zlo zhi
-0.15246949994483822 -6.801641077117707 0.07178900896656878 xy xz yz

Masses

1 1.008
2 15.999

Pair Coeffs # lj/cut/tip4p/long/omp

1 0 0
2 0.21084 3.1668

Bond Coeffs # harmonic/omp

1 450 0.9572

Angle Coeffs # harmonic/omp

1 55 104.52

Atoms # full

21 7 1 0.5897 1.2963285002969158 2.241132416569942 0.9558533286317057 0 0 0
55 19 2 -1.1794 -0.645937838530859 4.242758002549059 3.5928898854109006 0 0 0
56 19 1 0.5897 -1.3207314892746573 3.814448012699398 3.066281394316376 0 0 0
57 19 1 0.5897 0.12855956644721278 4.249910076337282 3.030468007045362 0 0 0
121 41 2 -1.1794 -2.4471386918552507 2.5897299901205697 2.3732462318007816 1 0 0
122 41 1 0.5897 -2.382657437848272 2.1994845550540547 1.5014901916890773 1 0 0
86 29 1 0.5897 -2.376922891720568 1.5816567774808379 3.945809414320118 1 0 0
31 11 2 -1.1794 1.317081390364196 1.034197688200508 2.386259502175464 0 0 0
32 11 1 0.5897 1.143906836423393 1.3971926662237744 3.2549648973820338 0 0 0
123 41 1 0.5897 -3.3772888190449355 2.7892408847236463 2.4787543753115617 1 0 0
46 16 2 -1.1794 1.88415029484044 4.620332700795063 2.375697994312253 0 0 0
33 11 1 0.5897 0.5908073342818048 0.4309784031892969 2.2290636604492575 0 0 0
71 24 1 0.5897 3.0220389728699724 0.5994150424266295 2.062942862646625 0 0 0
158 53 1 0.5897 -4.28663664886291 4.525774487456778 4.471219266708286 1 0 0
16 6 2 -1.1794 5.415204025013345 4.766813448784115 0.32158638250766264 0 0 0
47 16 1 0.5897 2.0728565893929423 5.084417445847207 1.5600007719618214 0 0 0
53 18 1 0.5897 4.6256553633126 2.9657821405384084 3.0447191221027787 0 0 0
527 176 1 0.5897 4.18732422924521 1.9034379231308052 0.35903270282980265 0 0 1
48 16 1 0.5897 1.9035208437002895 5.300572755955741 3.0489447796324205 0 0 0
52 18 2 -1.1794 3.860108350410032 3.0458501771843483 3.6137200401292264 0 0 0
78 26 1 0.5897 0.22914972392829558 2.9890962194246544 4.47327798397817 0 0 0
54 18 1 0.5897 3.189028866085777 3.4428211574896883 3.058483610304376 0 0 0
602 201 1 0.5897 -0.49915490962914744 5.177060947340924 0.5712141731891327 1 0 1
70 24 2 -1.1794 3.780278970127134 0.4339943848510418 1.5026219526509992 0 0 0
6 2 1 0.5897 3.644781937663855 1.5526305020204438 4.569868705665239 0 0 0
101 34 1 0.5897 -2.5456830747315062 4.537930537843919 0.22886894288606147 1 0 0
482 161 1 0.5897 -1.0448910348499143 0.014868543582074019 1.0336223893015486 1 1 0
19 7 2 -1.1794 1.281194588880803 2.6323894548027167 0.08232039034613418 0 0 0
18 6 1 0.5897 4.919094234332599 3.9857947731807073 0.07656223518816006 0 0 0
85 29 2 -1.1794 -2.4894152956663067 1.2268091620488586 4.827738813761483 1 0 0
76 26 2 -1.1794 0.8580247084773962 2.3278413016804724 4.762277769448906 0 0 0
134 45 1 0.5897 -2.204820007831209 2.6330078189791344 5.998194419438291 1 0 0
135 45 1 0.5897 -1.6743543402672394 3.841007295573467 6.740659758196683 1 0 0
60 20 1 0.5897 2.863245349447384 3.7857814987866925 6.742793664656172 0 0 0
34 12 2 -1.1794 0.10488643163294276 1.212904451860246 7.220847690075211 0 0 0
35 12 1 0.5897 0.21698437461896614 1.8462513003507306 7.92982779130838 0 0 0
36 12 1 0.5897 -0.7910355089999954 0.892655753305291 7.324731732724296 0 0 0
159 53 1 0.5897 -3.167122377975071 4.662323513627739 5.481041154380516 1 0 0
669 223 1 0.5897 -5.33122493480092 1.8472452377258668 9.06925148205329 1 0 0
124 42 2 -1.1794 -4.951956482802123 2.470234330475003 7.458512858897406 1 0 0
58 20 2 -1.1794 2.1556256027657357 4.229655221096621 6.275409391020439 0 0 0
59 20 1 0.5897 1.810411347061219 3.566847887524336 5.677278180226995 0 0 0
87 29 1 0.5897 -3.4246311788785153 1.0334734951169284 4.891124420395956 1 0 0
43 15 2 -1.1794 -0.3462153277188884 4.967199177729327 7.1239710194662855 0 0 0
126 42 1 0.5897 -4.0902439436287885 2.8177638601866435 7.228882211078316 1 0 0
45 15 1 0.5897 0.5368893295346622 4.626536747671594 6.981758490652122 0 0 0
133 45 2 -1.1794 -2.4838567094581956 3.3717875150348338 6.539237162037622 1 0 0
4 2 2 -1.1794 3.842825770611383 0.8333819294362174 5.169686190470253 0 0 0
401 134 1 0.5897 2.5199873774863697 0.26434271814353566 8.942332320943905 0 1 0
157 53 2 -1.1794 -3.7827974149306964 5.177035089157836 4.9592520464483245 1 0 0
98 33 1 0.5897 -4.1963821010057325 5.204437173213624 8.578898103251284 1 0 0
77 26 1 0.5897 0.4578322320420525 1.9398529327134126 5.540493661701641 0 0 0
69 23 1 0.5897 -2.6069021151056484 1.272500227172459 8.645685970470424 0 0 0
67 23 2 -1.1794 -2.3749944737902626 0.46817262550195027 8.181306811248813 0 0 0
44 15 1 0.5897 -0.36605518718333085 5.203178411268314 8.051507537077502 0 0 0
522 174 1 0.5897 1.9315651172037036 5.585757956510107 9.138722283883094 0 0 0
5 2 1 0.5897 3.158026907046434 0.18595698018636136 5.002458558224263 0 0 0
402 134 1 0.5897 1.4059368841103979 0.0870999570019317 7.932791811336165 0 1 0
68 23 1 0.5897 -3.1996168177262194 0.16309995320901147 7.8031793405721075 0 0 0
125 42 1 0.5897 -5.548810085482103 3.20853178442609 7.336175731143738 1 0 0
24 8 1 0.5897 0.8591129608379195 3.4644932786058473 9.611452499125676 0 0 0
606 202 1 0.5897 -6.076576314262395 4.884760341753072 9.569325561758598 1 0 0
22 8 2 -1.1794 0.24001960998595528 2.7543555908811435 9.442571775946094 0 0 0
97 33 2 -1.1794 -4.242683882517507 4.721123851850312 9.403897165480002 1 0 0
574 192 2 -1.1794 0.46073629493043544 0.6467724865717218 11.181900542489624 0 0 0
667 223 2 -1.1794 -5.59722912688529 1.2887869594796852 9.799779440967454 1 0 0
560 187 1 0.5897 -4.893592420213325 3.886816384158694 12.787462363658554 0 0 0
576 192 1 0.5897 -0.3122849530745899 0.7957536946355962 11.726405364164215 0 0 0
23 8 1 0.5897 0.5128075792622733 2.052466192448325 10.033555134355142 0 0 0
523 175 2 -1.1794 -2.461875936597934 2.610445149019092 9.945159246912697 0 0 0
627 209 1 0.5897 -6.9337222997003405 3.1333905624094487 12.232660990544687 1 0 0
587 196 1 0.5897 -1.2031923155112993 5.572300398291045 10.465253538795894 0 0 0
535 179 2 -1.1794 -2.1200896884530227 1.0843686912117196 12.247721709053792 0 0 0
536 179 1 0.5897 -2.2418167565673333 1.5574239562503447 13.071012860777644 0 0 0
537 179 1 0.5897 -2.343728172871087 1.7216714012454255 11.569369501692924 0 0 0
662 221 1 0.5897 -7.638897387873198 4.615779836295361 14.257392349103078 1 0 0
625 209 2 -1.1794 -6.056600782432221 2.841291631714174 11.984642277566316 1 0 0
556 186 2 -1.1794 0.3226161600805355 3.535756697157403 13.180117140190527 0 0 0
561 187 1 0.5897 -3.7043811433511022 3.56273698229895 13.666367528900977 0 0 0
668 223 1 0.5897 -5.910848170382909 1.8994529936133235 10.466960042252937 1 0 0
558 186 1 0.5897 -0.4585439829694451 3.7870654534325605 12.687383600360983 0 0 0
559 187 2 -1.1794 -4.142539591189715 4.289371824683316 13.223290008021685 0 0 0
550 184 2 -1.1794 -1.7421155053154234 4.9531569998694644 12.040108901337424 0 0 0
552 184 1 0.5897 -2.6704718627955684 4.858773717556188 12.252948548641958 0 0 0
626 209 1 0.5897 -5.808697753665518 2.2188388314854377 12.668330884692525 1 0 0
557 186 1 0.5897 0.11870279264266337 2.667167166044209 13.52685274729869 0 0 0
99 33 1 0.5897 -4.086444893161465 5.382104922508386 10.078449070825839 1 0 0
589 197 2 -1.1794 -5.717691164441192 1.023655688039648 13.958680352548265 1 0 0
520 174 2 -1.1794 2.1601061002201805 4.900946502233036 9.767316816897148 0 0 0
525 175 1 0.5897 -1.5660880127407126 2.9354763806258224 9.856025727741047 0 0 0
524 175 1 0.5897 -3.0127291136217367 3.3687973046257014 9.750885340279108 0 0 0
575 192 1 0.5897 1.0623581268440114 0.1619937637186512 11.74695136617988 0 0 0
551 184 1 0.5897 -1.4173075921144314 5.600866951934554 12.665599746351644 0 0 0
986 329 1 0.5897 -4.499167604930639 0.19648085960297726 10.76886091837892 1 1 0
593 198 1 0.5897 -7.557305427384246 0.8779425600535019 14.104078097787895 1 0 0
591 197 1 0.5897 -5.168789252253882 0.25864976488340913 14.13120538536106 1 0 0
547 183 2 -1.1794 -3.7729112481802822 4.908453208535784 16.985403031740855 0 0 0
581 194 1 0.5897 -2.9249941885682524 1.9011679572874172 15.172991276970377 0 0 0
629 210 1 0.5897 -8.781255853074104 3.2035328129483336 16.64402181595749 1 0 0
630 210 1 0.5897 -8.396949440161343 1.9223173723302103 15.934769978614385 1 0 0
582 194 1 0.5897 -2.048705890818548 3.121361215390746 14.986277401897679 0 0 0
563 188 1 0.5897 -1.1367720850175163 4.947252786851528 15.486655843897795 0 0 0
639 213 1 0.5897 -5.893871453174751 3.9123985658728193 15.291021024225026 1 0 0
20 7 1 0.5897 -5.675434579357681 1.9669567947205056 18.60483160410099 0 0 -1
538 180 2 -1.1794 -3.358428925573153 1.0378380208694837 16.668360262064667 0 0 0
539 180 1 0.5897 -3.0432042515200575 1.6411214960512264 17.34138493952971 0 0 0
508 170 2 -1.1794 0.4619167513761653 1.0154538337563268 14.452029301509299 0 0 0
540 180 1 0.5897 -4.2493665769533955 0.8187676106485593 16.9409512337767 0 0 0
638 213 1 0.5897 -6.282118727134348 2.8879911794965762 16.33595795569325 1 0 0
549 183 1 0.5897 -4.418741842917844 4.256193446411794 16.714197221933766 0 0 0
562 188 2 -1.1794 -1.2840252768541491 4.259719248395475 16.136207884355365 0 0 0
528 176 1 0.5897 -3.7930962686352636 2.802334177128897 19.00500013847985 0 0 0
564 188 1 0.5897 -2.0826100008393684 4.526706487957524 16.591406942952325 0 0 0
637 213 2 -1.1794 -5.561940873436075 3.1476311873796967 15.76140775795847 1 0 0
164 55 1 0.5897 -8.501233481346064 1.8150010535721133 18.293782796120617 1 0 -1
628 210 2 -1.1794 -8.153722009145898 2.481276641782767 16.672822086672085 1 0 0
590 197 1 0.5897 -5.547964004397566 1.6117903394897413 14.694634078678552 1 0 0
572 191 1 0.5897 -6.5951801275143715 0.13101242071186586 17.38992223116948 0 0 0
571 191 2 -1.1794 -5.766663617197649 0.4615723615479833 17.73680761460762 0 0 0
526 176 2 -1.1794 -2.866177505320561 2.639522331637794 18.830563794793726 0 0 0
601 201 2 -1.1794 -7.542334571834472 4.533678957496695 19.0956896534057 1 0 0
165 55 1 0.5897 -9.350102850719775 0.6747140170384992 18.81418847380861 1 0 -1
580 194 2 -1.1794 -2.524367812885547 2.44927229863557 14.49819690572469 0 0 0
603 201 1 0.5897 -6.7960592908846404 3.9350416835214514 19.126318236508826 1 0 0
163 55 2 -1.1794 -8.73256645175833 1.348962267555323 19.097278319395127 1 0 -1
548 183 1 0.5897 -3.8388788775424576 5.599839775521249 16.3266435618301 0 0 0
614 205 1 0.5897 -7.605863238230997 5.70536778126943 17.733709613278783 1 0 0
661 221 2 -1.1794 -7.0228310357404995 5.189732147968193 14.712537327178396 1 0 0
289 97 2 -1.1794 -2.5739552532720027 9.973518665738107 2.5320862052982083 1 0 0
255 85 1 0.5897 -2.508217305318138 9.0753132608964 4.0262397333856725 1 0 0
146 49 1 0.5897 -1.2840725487514848 6.645461597023914 2.1424156858777046 1 0 0
147 49 1 0.5897 -1.0274317625331428 7.459637883171493 0.8920462700982102 1 0 0
332 111 1 0.5897 -2.217915977880902 9.185261038063182 0.9500734609162321 1 0 0
145 49 2 -1.1794 -0.60527029763794 6.852788764612983 1.5001732722182177 1 0 0
112 38 2 -1.1794 -3.1449978577152606 6.471807893435906 2.5925550733471767 1 0 0
291 97 1 0.5897 -3.4458993301839596 10.355793711674957 2.6308431156594496 1 0 0
290 97 1 0.5897 -1.9732806151550588 10.694478190338009 2.7205384982017313 1 0 0
188 63 1 0.5897 0.8313702573336954 9.966580109239423 1.2985657697154647 0 0 0
200 67 1 0.5897 0.4875841102831475 8.00801597465092 2.301447053402369 0 0 0
114 38 1 0.5897 -3.2941723649934005 5.78875722099356 1.9387074608620987 1 0 0
9 3 1 0.5897 -0.8287562327816356 5.8489881742131695 4.3853142476889975 0 0 0
331 111 2 -1.1794 -1.9619588618705863 8.699711872934849 0.16577225495483397 1 0 0
224 75 1 0.5897 -0.37430925645540913 11.11903745633436 3.914712966652432 0 0 0
199 67 2 -1.1794 1.063296376807786 8.698837833476427 2.6292389011905333 0 0 0
113 38 1 0.5897 -3.31937120622494 6.043871425915423 3.4308924543351482 1 0 0
220 74 2 -1.1794 3.6458314323557373 10.835314918363423 3.5517632807894377 0 0 0
245 82 1 0.5897 0.6639897417742233 9.385808060388312 4.2111075148021015 0 0 0
221 74 1 0.5897 4.367191920761208 10.679255264947336 2.9422127561587885 0 0 0
239 80 1 0.5897 3.654430636035163 8.81619300700533 1.3277007191981933 0 0 0
240 80 1 0.5897 3.2757203760728952 7.35188453517894 1.2622669343653126 0 0 0
187 63 2 -1.1794 0.8334015890136142 10.389158287274006 0.4396172017125791 0 0 0
238 80 2 -1.1794 3.6014278719420325 8.023438140758833 1.8615891656940604 0 0 0
201 67 1 0.5897 1.9477007666116943 8.375132709983838 2.4583619240827863 0 0 0
10 4 2 -1.1794 1.9820478527717151 6.283709588645813 4.402818413281649 0 0 0
174 58 1 0.5897 3.468647212450527 9.154208517138045 4.469916422098454 0 0 0
189 63 1 0.5897 1.7575635878841762 10.55966191328831 0.2582127959930254 0 0 0
12 4 1 0.5897 1.075021359500563 6.552477579917443 4.548462372621739 0 0 0
696 232 1 0.5897 4.215354010890203 11.022959713481598 0.23803288465607092 0 0 1
694 232 2 -1.1794 3.617440772247356 10.27816482140331 0.17570271046649394 0 0 1
82 28 2 -1.1794 2.4131468896243433 6.2346232576288205 0.17724657334686544 0 0 0
222 74 1 0.5897 2.987679055598253 11.296260850885357 3.03157372195933 0 0 0
173 58 1 0.5897 3.107360919125253 7.700368548620843 4.688400016463965 0 0 0
191 64 1 0.5897 0.4063585982766478 9.841380561986549 8.86571599605336 0 0 0
8 3 1 0.5897 -0.5996978532028465 6.334627394028826 5.800919438845986 0 0 0
109 37 2 -1.1794 -4.28667930642424 6.485501073839858 7.326214440707832 1 0 0
111 37 1 0.5897 -5.187674549783058 6.808483710718926 7.321008744423327 1 0 0
293 98 1 0.5897 -4.1765945553159725 10.314760757226296 7.37281665570435 1 0 0
65 22 1 0.5897 2.3912496531169776 7.619836441906424 8.63164935334785 0 0 0
292 98 2 -1.1794 -5.088584951049873 10.036031971821037 7.454076252555037 1 0 0
257 86 1 0.5897 -4.3917627252234235 8.46071059376555 4.98820501633273 1 0 0
246 82 1 0.5897 0.4386194138312631 9.547549655386051 5.6995296133051605 0 0 0
294 98 1 0.5897 -5.143089622497266 9.644371772709556 8.325854873485222 1 0 0
837 279 1 0.5897 -6.090008743447523 8.138191597812407 9.224847554871792 1 0 0
64 22 2 -1.1794 2.0097149834638035 6.980253285705614 8.030312179195445 0 0 0
110 37 1 0.5897 -4.181998141503305 6.052398970558962 6.4789429250302515 1 0 0
202 68 2 -1.1794 0.10606887123442421 8.765742215804064 7.309998575503454 0 0 0
203 68 1 0.5897 -0.7448040447940105 8.430387336651416 7.592176227879722 0 0 0
204 68 1 0.5897 0.7025996376157089 8.024352448800384 7.4138209423018075 0 0 0
588 196 1 0.5897 -1.415239311354581 6.503975915685772 9.290866063084769 0 0 0
235 79 2 -1.1794 -2.149472454535446 7.847032105095424 8.364461171180023 0 0 0
236 79 1 0.5897 -2.926756601822011 7.484381949838211 7.939755888183999 0 0 0
237 79 1 0.5897 -2.4680734825165063 8.62266858179889 8.826257550496868 0 0 0
302 101 1 0.5897 -2.320308770928889 9.959633491441547 6.2031433261748505 1 0 0
301 101 2 -1.1794 -2.5578466154704977 10.656744802529513 6.814701318836676 1 0 0
172 58 2 -1.1794 3.6409378574997078 8.409749411940421 5.04647783900384 0 0 0
228 76 1 0.5897 1.73163400593159 11.226843283338523 5.787290975335871 0 0 0
66 22 1 0.5897 2.7589359944840535 6.619930875395097 7.555873171926384 0 0 0
7 3 2 -1.1794 -0.6521175860658825 6.6397086314106035 4.8950733278575065 0 0 0
244 82 2 -1.1794 0.5724027616222371 10.049106413680065 4.895236223617574 0 0 0
11 4 1 0.5897 2.1759992698060895 5.690346936484813 5.128520163979218 0 0 0
303 101 1 0.5897 -1.7279053487728868 11.08443213510781 7.025196983594704 1 0 0
254 85 1 0.5897 -1.911051327463485 7.963564078125715 4.862601677334828 1 0 0
253 85 2 -1.1794 -2.5361685881404243 8.687471255001128 4.900979639762013 1 0 0
513 171 1 0.5897 -4.062395440334335 5.80448947596415 14.143188627336736 0 0 0
794 265 1 0.5897 -5.294463872649232 10.525060784767204 12.381581058527074 1 0 0
692 231 1 0.5897 -1.5105971685658481 10.25087485790172 9.810082133075467 0 0 0
750 250 1 0.5897 -3.227189950952993 10.686251935485084 13.988764148351365 0 0 0
742 248 2 -1.1794 0.2739389757091475 7.899760627831034 11.391068092107034 0 0 0
724 242 2 -1.1794 0.3270643590516604 10.755093612492066 12.880560653266485 0 0 0
616 206 2 -1.1794 -6.581038267626739 6.387931666037539 12.135135355952487 1 0 0
693 231 1 0.5897 -2.4667708866782703 9.654229992615932 10.82084033452583 0 0 0
649 217 2 -1.1794 -4.051857469801535 6.835942626966226 11.127055980188574 1 0 0
650 217 1 0.5897 -3.4236934906073615 7.298925162259308 11.681306678831492 1 0 0
651 217 1 0.5897 -4.827260838104683 6.732054545909626 11.678550216318342 1 0 0
795 265 1 0.5897 -5.858291588550001 9.573651664687869 11.347710733362753 1 0 0
744 248 1 0.5897 0.001585589262805609 7.240654342728325 10.752565862500031 0 0 0
793 265 2 -1.1794 -5.939413813160931 9.827166610126767 12.267256660511205 1 0 0
586 196 2 -1.1794 -0.7649141592172941 5.927304493631479 9.691826225108299 0 0 0
759 253 1 0.5897 -5.91195737003054 8.748451841516655 13.638232403358668 1 0 0
703 235 2 -1.1794 -2.2429901036722155 8.51212042909908 12.23076284058499 0 0 0
704 235 1 0.5897 -1.3260131580677452 8.250427083902169 12.148377661032265 0 0 0
705 235 1 0.5897 -2.251892059177581 9.128637413652605 12.963019811358878 0 0 0
743 248 1 0.5897 0.27329515396175985 8.722498168873335 10.901775167091794 0 0 0
678 226 1 0.5897 0.2209920496372062 9.338345425256223 14.031910040592383 0 0 0
836 279 1 0.5897 -4.908105820751166 8.115556324936215 10.170501686424782 1 0 0
617 206 1 0.5897 -7.253863292650649 7.063478253113397 12.050253354872257 1 0 0
691 231 2 -1.1794 -2.43792748321237 10.064723323896674 9.956531369347392 0 0 0
618 206 1 0.5897 -6.70222663945271 5.830459317675319 11.366439160844056 1 0 0
663 221 1 0.5897 -6.71995417994375 5.79877095164847 14.03901915732194 1 0 0
726 242 1 0.5897 -0.33009864383803844 11.247766133698626 12.388987437153116 0 0 0
190 64 2 -1.1794 0.25598142720876593 10.203693367876953 9.738943558069835 0 0 0
192 64 1 0.5897 0.846356470907756 10.95519711364409 9.791899453217708 0 0 0
835 279 2 -1.1794 -5.555768747411418 8.703855727003313 9.782331349968247 1 0 0
748 250 2 -1.1794 -2.547942869568029 10.133670641958476 14.375415828686032 0 0 0
797 266 1 0.5897 -7.231128669019096 10.560202429689959 16.882136622473407 1 0 0
695 232 1 0.5897 -3.136256805718631 10.07978769708153 18.371673950820387 0 0 0
741 247 1 0.5897 -6.137166374764427 8.973443513629356 18.248161739078835 0 0 0
613 205 2 -1.1794 -7.705043965227694 6.4231577141295 17.108193915220955 1 0 0
740 247 1 0.5897 -6.431138849780346 7.6639899267444695 17.54749199239619 0 0 0
568 190 2 -1.1794 -1.442340297407438 7.17158490884505 17.929145805641163 0 0 0
333 111 1 0.5897 -8.576807031406457 9.448088901664352 18.627999941932558 1 0 -1
731 244 1 0.5897 -1.7913244380108395 11.310532392754256 15.440183349913344 0 0 0
758 253 1 0.5897 -5.772472959339753 9.149546699014959 15.091490273259213 1 0 0
615 205 1 0.5897 -7.491648041095102 6.0337139919811404 16.260129583308558 1 0 0
569 190 1 0.5897 -1.568929739549377 6.3520147521282935 18.407232673111096 0 0 0
749 250 1 0.5897 -2.9819320397012996 9.697301100168486 15.108576143588259 0 0 0
798 266 1 0.5897 -8.411255812924999 9.691952828723554 16.501497563675503 1 0 0
511 171 2 -1.1794 -3.867402076345278 6.570438620817446 14.683184568085272 0 0 0
796 266 2 -1.1794 -8.09785890284029 10.287101077806888 17.182571716741755 1 0 0
706 236 2 -1.1794 -3.2199137342790225 9.05605873776167 16.826711395947893 0 0 0
707 236 1 0.5897 -4.137675776819262 8.809681527283233 16.940911775560682 0 0 0
708 236 1 0.5897 -2.727229741931672 8.293129718013741 17.129189750286372 0 0 0
739 247 2 -1.1794 -5.709481754175866 8.218295825825463 17.844180045740423 0 0 0
83 28 1 0.5897 -4.930381325239159 6.99251953352675 18.900613635650437 0 0 -1
676 226 2 -1.1794 0.3628896167609721 8.65749042732579 14.689659350122023 0 0 0
805 269 2 -1.1794 -5.71648109228661 10.80941847299969 15.860648272517079 1 0 0
512 171 1 0.5897 -4.637869145131614 7.131028225502956 14.591881502515337 0 0 0
762 254 1 0.5897 -7.762405382047551 8.486574384176897 14.810678565243883 1 0 0
757 253 2 -1.1794 -5.897073253793413 8.388076286365035 14.5249590121002 1 0 0
570 190 1 0.5897 -0.6236789056665861 7.0455483992466785 17.449443214247925 0 0 0
84 28 1 0.5897 -4.094571850900144 5.780967583484675 18.546085486914535 0 0 -1
516 172 1 0.5897 -0.6787925437263311 7.210616937665931 14.466121524126013 0 0 0
514 172 2 -1.1794 -1.195018108390907 6.40603022051185 14.418394468474292 0 0 0
515 172 1 0.5897 -2.104426011643061 6.701824754752015 14.458576177958669 0 0 0
280 94 2 -1.1794 -3.434354581123542 13.914789163837737 2.7282090428602803 1 0 0
281 94 1 0.5897 -3.416217069063074 13.446501072965084 3.5629184785882444 1 0 0
282 94 1 0.5897 -2.5141613114210593 14.088573352140063 2.530468707657837 1 0 0
500 167 1 0.5897 -1.83110202625327 15.865266679451414 0.6469095613814146 1 0 0
367 123 2 -1.1794 0.9717364868424356 16.34021914629905 2.7820195700910735 0 0 0
250 84 2 -1.1794 2.305106779366181 13.808404223449566 0.12120278199627077 0 0 0
313 105 2 -1.1794 -1.022689470047454 14.737317601990828 1.7637087061885872 1 0 0
315 105 1 0.5897 -0.682088549254523 14.078815368766717 1.1581063968381546 1 0 0
180 60 1 0.5897 2.0176206152121727 13.768605469273055 4.14698946261641 0 0 0
223 75 2 -1.1794 -0.780162948972289 11.79774602160662 3.3753215122530125 0 0 0
225 75 1 0.5897 -0.8745705203360288 12.547149526844485 3.9634129121808144 0 0 0
314 105 1 0.5897 -0.24222568470990113 15.140541136375475 2.143636859851451 1 0 0
369 123 1 0.5897 0.8758272627976642 16.668162402657153 3.676259902188974 0 0 0
423 141 1 0.5897 -2.6679705868215753 16.409275937908184 4.0188572458063385 1 0 0
216 72 1 0.5897 0.7375573914176119 12.435536889434406 2.6684308852298906 0 0 0
368 123 1 0.5897 1.8953879952551915 16.099052880424267 2.712549214218277 0 0 0
406 136 2 -1.1794 3.445174123421485 15.595142347303971 1.8991342542875638 0 0 0
407 136 1 0.5897 4.247695923451586 15.235828297861268 2.277286930581735 0 0 0
215 72 1 0.5897 1.7341175374437272 12.99402929977283 1.6750435440693805 0 0 0
252 84 1 0.5897 2.8489903844830575 14.381548627403317 0.6614408573597966 0 0 0
408 136 1 0.5897 3.7287688976686573 16.38659834724033 1.441508450409738 0 0 0
214 72 2 -1.1794 1.6611194947254218 12.66736411993535 2.57189173637775 0 0 0
184 62 2 -1.1794 5.229937986212274 12.503181152867343 0.4333397091200804 0 0 0
770 257 1 0.5897 -1.5043583813329695 12.411304889032259 0.2658703797349681 1 0 1
771 257 1 0.5897 -0.102860750135223 11.843647157306629 0.19348703143376372 1 0 1
499 167 2 -1.1794 -2.41901380967469 16.440454744750106 0.15723615414450037 1 0 0
269 90 1 0.5897 -3.4449194160868064 12.806008424984853 1.2636825761837056 1 0 0
268 90 2 -1.1794 -3.254604766944436 12.389892724801829 0.4228229533126818 1 0 0
404 135 1 0.5897 -1.6888633735167171 15.785822337503582 7.7766800639270866 0 0 0
326 109 1 0.5897 -3.173339498778266 11.870219114715356 5.605297433317331 1 0 0
340 114 2 -1.1794 3.5518535897684913 16.382006776002363 5.35283419780173 0 0 0
327 109 1 0.5897 -4.093841665773924 13.071810554809984 5.635593292590649 1 0 0
405 135 1 0.5897 -2.717191125397696 16.419754801950234 8.68925562794822 0 0 0
211 71 2 -1.1794 -0.42628447088548516 12.282034709350976 7.477711263565893 0 0 0
227 76 1 0.5897 1.279587875997147 12.076855226085584 6.955822454406438 0 0 0
213 71 1 0.5897 -0.6261510053456312 12.92790249919871 6.800038565839423 0 0 0
212 71 1 0.5897 -0.519682471465325 12.761307504910102 8.301107197071032 0 0 0
756 252 1 0.5897 -1.504991112158153 14.451385988288706 9.232801623250653 0 0 0
232 78 2 -1.1794 1.922888221787339 14.420563764181832 8.3065985639276 0 0 0
425 142 1 0.5897 -4.289094444223515 15.913730866649118 5.016701679196704 1 0 0
234 78 1 0.5897 1.2947718842784983 14.994010707624643 7.867416396516796 0 0 0
370 124 2 -1.1794 0.01979544027135649 16.16857057493094 7.364881242354667 0 0 0
179 60 1 0.5897 2.159138377213319 13.381178487768816 5.6037467201216264 0 0 0
277 93 2 -1.1794 -4.516713526459844 13.839917787542639 7.258291912148253 1 0 0
278 93 1 0.5897 -3.9073488959677416 14.484024885634637 7.618728193786583 1 0 0
325 109 2 -1.1794 -3.67924993649944 12.450717696681046 5.036648799540632 1 0 0
690 230 1 0.5897 1.9365354161753041 13.020924828267045 9.459597304159342 0 0 0
403 135 2 -1.1794 -2.491568535931067 15.593703087667956 8.261353327899192 0 0 0
175 59 2 -1.1794 -0.8032244833786959 13.857558103481356 5.182509942248198 0 0 0
267 89 1 0.5897 -3.9359236892937 12.618531903493677 8.662613683352337 1 0 0
279 93 1 0.5897 -5.3802100412831955 14.14428615644189 7.537432996886364 1 0 0
341 114 1 0.5897 3.0609166644344654 15.588832912687396 5.1383736560899544 0 0 0
226 76 2 -1.1794 2.0589795961104578 11.82129194713561 6.462380855424874 0 0 0
1004 335 1 0.5897 -5.308167923268831 16.684145799193672 9.05390812282628 1 0 0
233 78 1 0.5897 2.7008949842015566 14.445702321614068 7.7495684471380555 0 0 0
372 124 1 0.5897 0.09010408380219115 16.653128490129767 6.542314015910399 0 0 0
176 59 1 0.5897 -1.3703740686880526 14.6217372879685 5.079245432046612 0 0 0
371 124 1 0.5897 0.07622926069699476 16.840147036167224 8.044698972257882 0 0 0
422 141 1 0.5897 -2.420333077658585 16.72688712429909 5.4783249368303135 1 0 0
462 154 1 0.5897 -5.07626152292309 16.890597789565696 6.68513333000046 1 0 0
177 59 1 0.5897 0.08531209540453233 14.210293913129808 5.136681812384507 0 0 0
178 60 2 -1.1794 2.0381915385226055 14.137805587654508 5.029975868301356 0 0 0
265 89 2 -1.1794 -3.900322295285178 12.456047794160249 9.605333661385965 1 0 0
421 141 2 -1.1794 -2.523679491514354 15.99522189617385 4.86979718196525 1 0 0
925 309 2 -1.1794 -5.992018635782388 15.992765223429268 14.248045990209796 1 0 0
728 243 1 0.5897 -3.3333889445819604 11.936152865614549 12.428550873009879 0 0 0
755 252 1 0.5897 -0.29562592699746526 14.45697798495609 10.14332321757876 0 0 0
718 240 2 -1.1794 -1.5760536784449934 12.449349648233344 11.888043675738404 0 0 0
912 304 1 0.5897 1.0883771737271237 15.185513862408778 11.68471473980384 0 0 0
720 240 1 0.5897 -1.4209808576655103 13.086786507046183 12.585152134195477 0 0 0
846 282 1 0.5897 0.2940980303781311 16.927301954257445 13.889529245138748 0 0 0
871 291 2 -1.1794 -2.034606278697395 16.399191268562333 12.179430074301077 0 0 0
831 277 1 0.5897 -7.853956972876639 11.975052658791855 14.007927117837411 1 0 0
784 262 2 -1.1794 -6.467323224570849 13.89308621187598 12.087850502883235 1 0 0
729 243 1 0.5897 -4.277656653678907 12.575461378044968 13.424449029979126 0 0 0
911 304 1 0.5897 -0.2068563159286647 15.9675135349246 11.736366692450217 0 0 0
910 304 2 -1.1794 0.4962028268080556 15.705889759782707 11.141764795765617 0 0 0
1005 335 1 0.5897 -4.888684501957064 15.844500300572442 10.241842736223258 1 0 0
727 243 2 -1.1794 -4.123184589116098 11.763771841300505 12.94106075918045 0 0 0
719 240 1 0.5897 -1.423803766585396 12.937057163467808 11.078534544664537 0 0 0
786 262 1 0.5897 -6.628041136838527 13.505021029911003 12.948045622242002 1 0 0
817 273 2 -1.1794 -3.9081064355225834 14.576761491962722 11.308404500444915 1 0 0
818 273 1 0.5897 -4.728332849534001 14.374663882744226 11.758428438373256 1 0 0
819 273 1 0.5897 -3.7361418494493925 13.807247684806232 10.76558623598677 1 0 0
873 291 1 0.5897 -2.6266162865474945 15.648516157436484 12.13340699818926 0 0 0
772 258 2 -1.1794 -6.650333081860545 12.266198781366112 9.847041683113687 1 0 0
785 262 1 0.5897 -7.148273105808021 14.559243396655205 11.994060354841647 1 0 0
773 258 1 0.5897 -6.75257117271693 12.71688731335356 10.685394853140703 1 0 0
682 228 2 -1.1794 -1.3844757951087852 14.050214525162312 14.08184547497018 0 0 0
688 230 2 -1.1794 2.10384051221482 12.324960501525556 10.095163570354293 0 0 0
1003 335 2 -1.1794 -5.657949213624461 16.223411107848996 9.816591346663449 1 0 0
829 277 2 -1.1794 -7.14761184654189 12.537737183871528 14.325003014578437 1 0 0
725 242 1 0.5897 0.6827201832663423 11.386915696885046 13.505513355034923 0 0 0
684 228 1 0.5897 -0.7366655087195193 14.734986593520839 14.247727863061478 0 0 0
872 291 1 0.5897 -2.272887276517504 16.9393823557022 11.425935007716232 0 0 0
774 258 1 0.5897 -5.70444123838315 12.162477960507008 9.7440364452833 1 0 0
266 89 1 0.5897 -3.3781641863713734 11.658449515298344 9.691813733466653 1 0 0
754 252 2 -1.1794 -0.8761937859674158 13.869461623186345 9.659679968621393 0 0 0
926 309 1 0.5897 -5.288205024099906 15.349903834954961 14.335345780640747 1 0 0
844 282 2 -1.1794 0.3967156997237593 16.160782597503072 14.45365851916641 0 0 0
683 228 1 0.5897 -1.2458861112011164 13.413710188198184 14.78326724766614 0 0 0
717 239 1 0.5897 -3.0154414170104102 12.453674476384935 16.831555596740994 0 0 0
783 261 1 0.5897 -8.703548757118398 14.121449614576242 16.780208549471393 1 0 0
185 62 1 0.5897 -1.6630897475987378 13.362649319490776 19.01023622557966 0 0 -1
681 227 1 0.5897 -4.165351795176424 13.599586206393859 15.443553729878294 0 0 0
830 277 1 0.5897 -7.51703999576342 12.978748748324174 15.090138269117258 1 0 0
806 269 1 0.5897 -6.191068029750436 11.410494111344837 15.286395480507815 1 0 0
715 239 2 -1.1794 -3.953253657445245 12.631376168029652 16.902403620460184 0 0 0
716 239 1 0.5897 -4.05343203855271 13.056188940875648 17.75440695347095 0 0 0
874 292 2 -1.1794 -3.490624790288366 16.41487719834823 17.004648829823257 0 0 0
907 303 2 -1.1794 -6.071545648130744 15.610664290437107 17.85230354584449 0 0 0
875 292 1 0.5897 -3.3679960189242557 16.750770129020523 16.116667579404453 0 0 0
876 292 1 0.5897 -2.7831164847795007 15.780774002739127 17.12121454998418 0 0 0
736 246 2 -1.1794 -1.4887368507695458 14.738635393772714 17.812492445538375 0 0 0
909 303 1 0.5897 -5.281922929028713 15.780148137516951 17.33856445466996 0 0 0
781 261 2 -1.1794 -7.8090772806931 13.796532489187717 16.67777989714251 1 0 0
782 261 1 0.5897 -7.659068787015885 13.257628369291599 17.454586062142788 1 0 0
730 244 2 -1.1794 -1.4339329783798833 11.98720540027119 16.015187773947645 0 0 0
908 303 1 0.5897 -6.5850484675600125 15.010393908097921 17.31177418251077 0 0 0