LAMMPS data file via write_data, version 30 Jul 2021, timestep = 4250000

1920 atoms
2 atom types
1280 bonds
1 bond types
640 angles
1 angle types

0.048865964396734185 24.681135035602537 xlo xhi
0.010329456472218723 24.719671543522352 ylo yhi
0.07820081881517282 22.731799181188116 zlo zhi

Masses

1 1.008
2 15.999

Pair Coeffs # lj/cut/tip4p/long/omp

1 0 0
2 0.21084 3.1668

Bond Coeffs # harmonic/omp

1 450 0.9572

Angle Coeffs # harmonic/omp

1 55 104.52

Atoms # full

1 1 2 -1.1794 4.491554677776787 1.4160392759416818 4.187225464217559 0 0 0
2 1 1 0.5897 4.588774300016926 2.108400936578489 4.840939764163392 0 0 0
3 1 1 0.5897 5.2163183189495825 1.557524040268707 3.578216753490559 0 0 0
4 2 2 -1.1794 2.936910776347978 1.6359005243029057 1.9003403140089015 0 0 0
5 2 1 0.5897 3.340101767803364 1.5327473582717004 2.762297902243313 0 0 0
6 2 1 0.5897 1.9955558158241045 1.631922595327252 2.073686554468609 0 0 0
9 3 1 0.5897 5.009090419934709 4.621941598230088 3.6619089954168125 0 0 0
10 4 2 -1.1794 3.1861894868789866 4.587977343022849 3.652136461527403 0 0 0
11 4 1 0.5897 2.7554015717869578 5.369181667530942 3.9989870730068504 0 0 0
12 4 1 0.5897 2.780705588883183 4.450445252345014 2.7960733223862912 0 0 0
13 5 2 -1.1794 1.3868853129215126 2.9985287441796835 4.929664623627587 0 0 0
14 5 1 0.5897 2.162499719075765 3.358043799526445 4.499123539378496 0 0 0
15 5 1 0.5897 1.5247846326294354 2.0513998610756246 4.920690543913169 0 0 0
19 7 2 -1.1794 4.772201557871863 3.279306115266939 0.6335309285517888 0 0 0
20 7 1 0.5897 3.960294553686956 2.915946795746415 0.9870467719264141 0 0 0
21 7 1 0.5897 5.465238657420576 2.855575765224017 1.1398302124285313 0 0 0
22 8 2 -1.1794 1.670424995117035 4.497354210532479 1.3822768437175699 0 0 0
23 8 1 0.5897 0.9329155899230612 4.616433558285897 1.9806879709143472 0 0 0
24 8 1 0.5897 1.612469510071547 5.2386069690131105 0.7794968845342455 0 0 0
27 9 1 0.5897 4.689015612735901 5.064008965722907 0.6686139080539711 0 0 0
7 3 2 -1.1794 5.960326721827403 4.575372673633383 3.5660254399634175 0 0 0
28 10 2 -1.1794 1.5497392766364222 0.2938392616591095 4.8013997984398795 0 0 0
98 33 1 0.5897 0.26138101302576794 5.497026442636966 3.859289928018158 1 0 0
16 6 2 -1.1794 0.22102020636556322 1.5266851090613804 2.1156153646318865 0 0 0
387 129 1 0.5897 4.006775519234141 0.1811716227763015 1.221314253056419 0 1 0
25 9 2 -1.1794 4.59343905464189 6.0144231730063575 0.7296698621703941 0 0 0
99 33 1 0.5897 0.26409168239429176 3.9835876702138773 3.8936753203610746 1 0 0
47 16 1 0.5897 6.035322471567908 0.8564000766491852 1.745121643302092 0 0 0
867 289 1 0.5897 4.619332347397498 0.03863988094898539 5.619338974891581 0 1 0
150 50 1 0.5897 1.6057865477648763 6.000786908164775 5.6546650460964365 0 0 0
494 165 1 0.5897 1.4146434872119533 1.9907204069275783 10.590217164486626 0 0 0
481 161 2 -1.1794 4.469274530845851 1.5567588088187168 9.933417717265423 0 0 0
487 163 2 -1.1794 5.963477630070274 4.732729484742822 9.145264658950298 0 0 0
491 164 1 0.5897 2.7400683887298007 4.911516157531609 8.501953224547638 0 0 0
498 166 1 0.5897 1.1224597334744704 1.605447483250181 7.812294799540013 0 0 0
501 167 1 0.5897 4.5804970690284605 4.155470694123285 6.239601894892585 0 0 0
579 193 1 0.5897 0.3019988133075689 5.390155499950516 9.605043574440941 1 0 0
527 176 1 0.5897 5.695864732882914 0.7483237877929072 7.399860112728636 0 0 0
499 167 2 -1.1794 4.679408559477716 3.2038399478161343 6.267244529206482 0 0 0
486 162 1 0.5897 3.2973322533506426 1.0251856725202433 7.277806376299514 0 0 0
500 167 1 0.5897 3.8947175049890412 2.894051075235751 6.719446119358096 0 0 0
490 164 2 -1.1794 3.2101254457590866 4.9010592298648135 9.335688902563808 0 0 0
528 176 1 0.5897 6.010950872573739 2.221829542695277 7.254251596616196 0 0 0
492 164 1 0.5897 2.8026726043170638 4.191255863329065 9.832001609863827 0 0 0
508 170 2 -1.1794 1.411255656461814 0.15340470920906563 10.52178969803134 0 0 0
629 210 1 0.5897 2.163554595431984 6.1292168018244375 10.223971488285454 0 0 0
483 161 1 0.5897 4.646026128210354 2.3361249633282397 10.460205799967607 0 0 0
489 163 1 0.5897 5.034062424130107 4.8748183294656195 9.324733074020239 0 0 0
578 193 1 0.5897 0.26909066694123224 3.879120165051326 9.519148448965504 1 0 0
505 169 2 -1.1794 4.490233733982902 6.033717111416532 6.23801998599121 0 0 0
504 168 1 0.5897 1.5297097433214286 4.035627651618848 6.4112468105116305 0 0 0
502 168 2 -1.1794 1.619104250524914 4.779706916492094 7.0066548012622 0 0 0
503 168 1 0.5897 0.8307776034779025 4.749370920548164 7.548704668202148 0 0 0
493 165 2 -1.1794 1.4092626458071627 2.9454751675756783 10.522669911125018 0 0 0
485 162 1 0.5897 3.190292318401744 1.733079281016513 8.611654336862488 0 0 0
484 162 2 -1.1794 2.8064399115255165 1.7078247038781698 7.735188065365312 0 0 0
482 161 1 0.5897 5.1977672200114995 1.515568213851078 9.313904896629312 0 0 0
496 166 2 -1.1794 0.18191348168678673 1.7721253859605197 7.750626317905672 0 0 0
488 163 1 0.5897 6.206211036532665 3.995819029444832 9.705801703057478 0 0 0
1347 449 1 0.5897 4.559826903689168 0.3091851872230539 11.18808188934808 0 1 0
961 321 2 -1.1794 4.498493011762484 1.7590691155834783 15.468439080830754 0 0 0
962 321 1 0.5897 5.282129081159167 1.6963724991678881 14.922378712244448 0 0 0
963 321 1 0.5897 4.508839686458489 0.9602605325661682 15.995650847929992 0 0 0
964 322 2 -1.1794 2.9024056194493 1.637975822838243 13.290954337342242 0 0 0
965 322 1 0.5897 3.3690525143308223 1.6864159260190363 14.125263381458103 0 0 0
966 322 1 0.5897 1.976469156984796 1.6373294982777584 13.533545027675713 0 0 0
970 324 2 -1.1794 3.2867241113091787 4.837282504841607 14.809546031393134 0 0 0
971 324 1 0.5897 4.2358589076943485 4.71418404644332 14.823750436458509 0 0 0
972 324 1 0.5897 2.934150682082923 4.027514557614111 15.178500049109914 0 0 0
973 325 2 -1.1794 1.6879786216617183 3.0459515463410534 16.247962526507536 0 0 0
975 325 1 0.5897 0.9213627067357951 3.4868901020384633 15.8818123806097 0 0 0
979 327 2 -1.1794 4.666394549763613 3.3022744688647983 12.051087456189553 0 0 0
980 327 1 0.5897 3.9076638017693646 2.830312277235411 12.394263759501683 0 0 0
981 327 1 0.5897 5.41177799339308 2.937713917566197 12.528260977728698 0 0 0
982 328 2 -1.1794 1.2758127971666349 4.5554515976659316 12.814283175443084 0 0 0
983 328 1 0.5897 1.3087039891797327 5.201118050651153 12.108456298258892 0 0 0
984 328 1 0.5897 2.063068464797374 4.725129489039578 13.331617798078456 0 0 0
987 329 1 0.5897 4.560707246629838 5.058575108062494 12.203195876255988 0 0 0
990 330 1 0.5897 1.5952742611687998 1.2238342982281971 16.263514614182544 0 0 0
967 323 2 -1.1794 5.99406299634817 4.566227434383849 14.836173737487082 0 0 0
1109 370 1 0.5897 0.7161786025602069 5.847055444425449 15.8559166696919 0 0 0
1110 370 1 0.5897 2.2290312559795185 5.900132678035133 15.873446030419615 0 0 0
1346 449 1 0.5897 3.8913562965176074 0.2563600446491169 12.54532800717775 0 1 0
1008 336 1 0.5897 5.992796451933625 0.8084207704396361 13.049232842792613 0 0 0
1058 353 1 0.5897 0.06888322382269725 4.503205510330454 14.177138771296722 1 0 0
985 329 2 -1.1794 4.52325998784966 6.007079925418872 12.080376036469445 0 0 0
976 326 2 -1.1794 0.17925694065106018 1.591227984327466 13.667357514539367 0 0 0
988 330 2 -1.1794 1.616178214212019 0.26947600014266143 16.193432875357356 0 0 0
1460 487 1 0.5897 4.734577449882151 2.7970693255846943 16.964075911065667 0 0 0
495 165 1 0.5897 1.2136091963104607 3.247695449031076 11.409547371731602 0 0 0
1463 488 1 0.5897 1.5207758493895498 5.2916858682036 17.893369869872213 0 0 0
1455 485 1 0.5897 1.497017937117264 3.2840748925282215 22.640878677897792 0 0 0
1459 487 2 -1.1794 4.73052474927462 3.3038661393065207 17.77605026358629 0 0 0
1456 486 2 -1.1794 0.27220752720351105 1.5043525439024763 19.04366398610425 0 0 0
974 325 1 0.5897 1.804218620917485 3.4436023939879172 17.11082260748312 0 0 0
1826 609 1 0.5897 4.038853949511154 0.2651745615607521 18.216823934872416 0 1 0
1590 530 1 0.5897 2.2647558625045985 5.960845969304311 21.66288917135479 0 0 0
386 129 1 0.5897 4.862437269814112 0.20384810593745303 22.626274037306402 0 1 -1
1465 489 2 -1.1794 4.477580272988853 6.0486971550870186 17.824598553329565 0 0 0
1468 490 2 -1.1794 1.5334024673967643 0.1240045567188575 21.871032281006055 0 0 0
1488 496 1 0.5897 5.949500963653787 0.8355003448554913 18.62545068627435 0 0 0
1539 513 1 0.5897 0.30207418775731726 5.4044609900301195 20.989206142259693 1 0 0
1444 482 2 -1.1794 3.0044172120059196 1.4546784619079578 19.199594176500867 0 0 0
1446 482 1 0.5897 3.2374179602120385 2.179511065247842 18.619519405241874 0 0 0
1538 513 1 0.5897 0.3341974276607095 3.8931814007666814 20.907423035500894 1 0 0
1464 488 1 0.5897 0.9425514733318687 4.632656130871381 19.127501361908642 0 0 0
1445 482 1 0.5897 2.0477144299429364 1.4304456005156363 19.18103213876417 0 0 0
1462 488 2 -1.1794 1.6769679892788398 4.581492313227413 18.515774681787793 0 0 0
1447 483 2 -1.1794 6.070547882051043 4.635264533983136 20.711407454869896 0 0 0
1443 481 1 0.5897 4.660302693697232 2.20351685600583 21.847748181126608 0 0 0
1442 481 1 0.5897 3.988805740901425 1.4917462051884853 20.692662293386142 0 0 0
1441 481 2 -1.1794 4.761995561339854 1.4581692073670138 21.255909868625857 0 0 0
1451 484 1 0.5897 4.291202895469465 4.6772095150636215 20.525907458071405 0 0 0
1487 496 1 0.5897 6.0233153709626395 1.528803962632931 19.96917920846306 0 0 0
1450 484 2 -1.1794 3.3444696392755016 4.659957059844754 20.665950185967258 0 0 0
1452 484 1 0.5897 2.970888970435061 4.698833520732015 19.78555289207655 0 0 0
1461 487 1 0.5897 5.363682344167812 2.8592464426659356 18.3396170977721 0 0 0
1469 490 1 0.5897 1.5289993979817054 1.0781176165641302 21.947177281526017 0 0 0
1453 485 2 -1.1794 1.5880307987769215 2.8242567291871867 21.80634379250199 0 0 0
1466 489 1 0.5897 4.565691283672468 5.098004682025894 17.757004428588544 0 0 0
1454 485 1 0.5897 2.1956100749937963 3.363561266826837 21.30020464592356 0 0 0
121 41 2 -1.1794 4.579111641303939 7.872885687996079 4.236326788791157 0 0 0
122 41 1 0.5897 3.8303122458521623 7.964554030774951 3.6471805222128273 0 0 0
123 41 1 0.5897 5.324462692692557 7.721056185335049 3.655296226549149 0 0 0
124 42 2 -1.1794 2.949242051159157 7.823616325992551 2.078062413946152 0 0 0
125 42 1 0.5897 3.3667520665740978 7.04840528875104 1.7026993676913025 0 0 0
126 42 1 0.5897 3.448284308640405 8.559883607663087 1.724458911513792 0 0 0
129 43 1 0.5897 5.161808953015347 10.780594204806516 3.708889087824361 0 0 0
130 44 2 -1.1794 3.35787870646529 10.892280157943224 3.6836424664794523 0 0 0
131 44 1 0.5897 2.985528410351532 11.67919627695839 4.081485492512418 0 0 0
132 44 1 0.5897 2.8884951231079308 10.1685733379796 4.09848489124052 0 0 0
133 45 2 -1.1794 1.5669321016541775 9.153144118259545 4.808142335934307 0 0 0
135 45 1 0.5897 0.8696169875669226 9.617729908649006 4.345434086156453 0 0 0
137 46 1 0.5897 1.157316297517258 7.805608724898304 2.1116865206274587 0 0 0
139 47 2 -1.1794 4.8137811198526785 9.583382333591612 0.9877274748050011 0 0 0
140 47 1 0.5897 4.800885898441399 10.531691025795277 0.858526902567671 0 0 0
142 48 2 -1.1794 1.681666433057485 10.666147676012471 1.4435884548116145 0 0 0
143 48 1 0.5897 2.378798711312352 10.706014944135589 2.0982705448208465 0 0 0
144 48 1 0.5897 1.8023065028404859 11.455742146228193 0.9161952763770911 0 0 0
149 50 1 0.5897 1.5868488616919838 7.352079079731758 4.972500105487129 0 0 0
148 50 2 -1.1794 1.5437671840194647 6.41289328452943 4.792988738178941 0 0 0
218 73 1 0.5897 0.4193368997368526 10.878526166620476 2.744897631162879 1 0 0
127 43 2 -1.1794 6.114793727417084 10.705893241768948 3.6593485361736953 0 0 0
168 56 1 0.5897 6.047920367711713 8.411847264219219 1.7414673413174877 0 0 0
621 207 1 0.5897 4.717874643412863 8.980875623526309 5.597555585088608 0 0 0
136 46 2 -1.1794 0.20981174324089302 7.941438054473825 2.112815260910998 0 0 0
145 49 2 -1.1794 4.746892942635256 12.349889317017453 0.7488981598639549 0 0 0
507 169 1 0.5897 4.543916864579772 6.600071073962318 5.468264961271158 0 0 0
270 90 1 0.5897 1.0845112696220511 12.357489198222078 4.553728620501988 0 0 0
26 9 1 0.5897 5.283064674295405 6.286553874046399 1.3351040981793487 0 0 0
134 45 1 0.5897 1.626736612017908 9.593035485773497 5.656129256464244 0 0 0
1574 525 1 0.5897 1.6110006779787334 9.41019580525123 0.14843722354857292 0 0 1
141 47 1 0.5897 4.820989131685256 9.220594123014799 0.10200913064357309 0 0 0
620 207 1 0.5897 5.305481832068588 8.931069604541184 6.991825857073295 0 0 0
612 204 1 0.5897 2.9210303581994648 11.688781196495095 9.648850452634187 0 0 0
1101 367 1 0.5897 4.502840993950239 9.031707701490223 11.302970223137239 0 0 0
623 208 1 0.5897 2.240967090644825 10.889562918132816 7.5887666955579185 0 0 0
628 210 2 -1.1794 1.422001726021633 6.376329750083214 10.776445987396103 0 0 0
604 202 2 -1.1794 2.942687495751685 7.794644842973261 7.979311406817862 0 0 0
647 216 1 0.5897 5.8040777790175735 7.603490237868338 8.568492671027892 0 0 0
615 205 1 0.5897 0.8301772349851998 9.52072158523064 10.22682595791389 0 0 0
613 205 2 -1.1794 1.5827163448163848 9.120278750349124 10.662166740871665 0 0 0
625 209 2 -1.1794 4.641924806277014 12.099306891602517 6.375057990434294 0 0 0
603 201 1 0.5897 3.933726848163183 7.755232577408269 9.37825710250964 0 0 0
601 201 2 -1.1794 4.64148252322058 7.775125507306658 10.022366792501693 0 0 0
619 207 2 -1.1794 4.643701171741768 9.378900323998979 6.464873357721465 0 0 0
630 210 1 0.5897 1.369019631068742 7.328557014036821 10.695173808148464 0 0 0
699 233 1 0.5897 0.2548724609952753 10.754495948692961 8.45134769859335 1 0 0
614 205 1 0.5897 2.344019091494348 9.513002754941656 10.235109316981006 0 0 0
607 203 2 -1.1794 5.893931227994434 10.786534392781327 9.280491192662168 0 0 0
605 202 1 0.5897 3.291282228038371 8.538938882257709 7.488729203178024 0 0 0
602 201 1 0.5897 4.4370399092244055 7.060718311584504 10.625678606403818 0 0 0
698 233 1 0.5897 0.3078656386452972 11.520243769344615 9.756162854244666 1 0 0
624 208 1 0.5897 1.5147474676268715 11.514761935071947 6.416809732138794 0 0 0
626 209 1 0.5897 4.622644815626173 11.145740181845547 6.455604799900934 0 0 0
622 208 2 -1.1794 1.48960654414256 10.763463635178999 7.009325801784014 0 0 0
648 216 1 0.5897 5.750496881685747 6.9057390834067895 7.226108958637254 0 0 0
611 204 1 0.5897 4.145070052491192 10.896658660606747 9.241330103626384 0 0 0
606 202 1 0.5897 1.996784154197722 7.940212817227887 7.996285867203816 0 0 0
610 204 2 -1.1794 3.190491017427789 10.904374213278548 9.171086781750164 0 0 0
616 206 2 -1.1794 0.20448143224938958 7.851721747637105 7.876720253311669 0 0 0
506 169 1 0.5897 3.8280808519213627 6.445448930081818 6.793192060274184 0 0 0
1081 361 2 -1.1794 4.662531906485529 7.821351386524371 15.655490324233002 0 0 0
1082 361 1 0.5897 4.695526913447397 8.578960215197526 16.239524432735138 0 0 0
1083 361 1 0.5897 4.66097760204261 7.065525315437877 16.242755784712646 0 0 0
1084 362 2 -1.1794 2.82853981077877 7.718184844558176 13.56941441671448 0 0 0
1085 362 1 0.5897 3.3149274194155747 7.763510685885512 14.392549407763935 0 0 0
1086 362 1 0.5897 3.301737506029492 8.303920965178305 12.978508754550393 0 0 0
1089 363 1 0.5897 4.997013431624658 10.802393064581503 15.104705067087243 0 0 0
1090 364 2 -1.1794 3.203904001341707 10.807612405883937 15.045430023330708 0 0 0
1091 364 1 0.5897 2.737740641215501 11.56992131940326 15.388566787317856 0 0 0
1092 364 1 0.5897 2.8535789921322974 10.068387900337815 15.542403502180195 0 0 0
1093 365 2 -1.1794 1.7043321150071415 9.064760351870468 16.438497160154704 0 0 0
1094 365 1 0.5897 1.5953386557117455 8.114177070947848 16.412766103271707 0 0 0
1095 365 1 0.5897 0.9584133656901962 9.405281463367817 15.944691910762915 0 0 0
1097 366 1 0.5897 1.070537312606425 7.684602329394933 13.47755473633461 0 0 0
1099 367 2 -1.1794 4.599621010975197 9.49516229434047 12.134839500352907 0 0 0
1100 367 1 0.5897 5.360671715369828 9.088424550773363 12.549035643090399 0 0 0
1102 368 2 -1.1794 1.5888773094741517 10.937728824415716 12.709749263253808 0 0 0
1103 368 1 0.5897 1.5941178705466172 10.150410779553589 12.16545412438821 0 0 0
1104 368 1 0.5897 2.3017065596719193 10.802598197188702 13.334093117702272 0 0 0
1107 369 1 0.5897 4.616045198200207 11.285032716813282 12.010665264342826 0 0 0
1087 363 2 -1.1794 5.94792156380851 10.727920201811632 15.02445475293221 0 0 0
1179 393 1 0.5897 0.407543646655703 10.7964495121053 14.05270973896582 1 0 0
1127 376 1 0.5897 5.836266922999698 7.7896603504436515 14.264556446305301 0 0 0
1128 376 1 0.5897 5.766990837249742 7.013016491574581 12.966964773913746 0 0 0
1096 366 2 -1.1794 0.12731886634295564 7.726480248291893 13.32008403535631 0 0 0
1108 370 2 -1.1794 1.454227723263334 6.2489393337863275 16.314135745766407 0 0 0
1105 369 2 -1.1794 4.676742006166225 12.23161506431943 12.13891482952883 0 0 0
1178 393 1 0.5897 0.41268871783155203 11.429128528166117 15.4279971400418 1 0 0
986 329 1 0.5897 3.8719156523215505 6.305706860529821 12.715010010121754 0 0 0
750 250 1 0.5897 1.6224400171913402 12.270518652099348 11.4398472244861 0 0 0
1467 489 1 0.5897 5.309946425127841 6.341041425216333 18.195948688121966 0 0 0
1561 521 2 -1.1794 4.915826815975 7.779681462797027 21.38412079766645 0 0 0
1230 410 1 0.5897 1.6495135275068902 12.304678181298558 17.172492273472628 0 0 0
1563 521 1 0.5897 4.122328906371545 7.745507171632141 20.849898906945715 0 0 0
1583 528 1 0.5897 1.0662660944373537 10.886703506534491 19.10645074374652 0 0 0
1570 524 2 -1.1794 3.464073374626475 10.784278008597864 20.784489631847702 0 0 0
1658 553 1 0.5897 0.3433083353836782 10.117968763993108 21.088298025219956 1 0 0
1582 528 2 -1.1794 1.801753100664606 10.974853593131392 18.500245691396447 0 0 0
1709 570 1 0.5897 0.9932528330806776 12.122020159985428 21.568509558577855 0 0 0
1573 525 2 -1.1794 1.6308952354345816 9.000497176419792 21.937212685238325 0 0 0
1589 530 1 0.5897 1.5959941898556158 7.271324522612446 22.019432265937272 0 0 0
1564 522 2 -1.1794 2.9879997410787573 7.793201334669775 19.30584322478134 0 0 0
1572 524 1 0.5897 4.403775514582673 10.806920598314598 20.603774040450105 0 0 0
1567 523 2 -1.1794 6.181822137513865 10.724920461626539 20.635335011619357 0 0 0
1579 527 2 -1.1794 4.719799457784866 9.463606171268482 17.876269170079148 0 0 0
1608 536 1 0.5897 6.016098158648031 7.643630506658456 20.03535847471689 0 0 0
1585 529 2 -1.1794 4.703501373434018 12.225702881175208 17.515191065531027 0 0 0
1580 527 1 0.5897 3.986907225221069 8.96647053605352 18.239473638981533 0 0 0
1571 524 1 0.5897 3.053137375523573 10.794278908607359 19.9200787427372 0 0 0
1581 527 1 0.5897 5.498629831959191 9.04716245368437 18.245310190359298 0 0 0
1584 528 1 0.5897 1.701338434111573 10.24188867633348 17.89292223722369 0 0 0
1562 521 1 0.5897 4.8107213026465345 7.068203795272009 22.015714229137753 0 0 0
1587 529 1 0.5897 4.73774602144234 11.280902582439495 17.6646191822248 0 0 0
1576 526 2 -1.1794 0.26085952154269754 7.6414684673031505 18.97241572379007 0 0 0
1710 570 1 0.5897 2.500467586096752 12.09737094451872 21.70831005408715 0 0 0
1588 530 2 -1.1794 1.4647250179760112 6.323509363932781 22.04318059130341 0 0 0
1565 522 1 0.5897 2.0463206058869696 7.671562991594739 19.184786492284655 0 0 0
1575 525 1 0.5897 2.3087305444468633 9.479378303028444 21.4603411877298 0 0 0
1566 522 1 0.5897 3.388073528888061 7.080968460065069 18.80701424273957 0 0 0
241 81 2 -1.1794 4.801096999116166 14.021309602231423 4.3690291304416515 0 0 0
242 81 1 0.5897 4.663694949384058 13.353157231873992 5.040483696672586 0 0 0
243 81 1 0.5897 4.059953048362328 13.917746765199224 3.772226296133438 0 0 0
244 82 2 -1.1794 2.973410060981362 13.814536770626754 2.1947332513715634 0 0 0
245 82 1 0.5897 2.0267089045530593 13.93565344537224 2.1219190946547064 0 0 0
246 82 1 0.5897 3.3466375494511174 14.508389331580435 1.6511923471915804 0 0 0
250 84 2 -1.1794 3.318863946889727 17.177025044497697 3.737312562291744 0 0 0
251 84 1 0.5897 3.015923287988691 17.045679672972035 2.8388977133574933 0 0 0
252 84 1 0.5897 4.265082732338664 17.03913704129429 3.694099536096834 0 0 0
253 85 2 -1.1794 1.45565245320614 15.512051140651357 4.947626187149077 0 0 0
254 85 1 0.5897 0.7251677124832767 15.948566533663211 4.509404814513603 0 0 0
255 85 1 0.5897 2.2375747450776866 15.906749425311583 4.561613980041555 0 0 0
259 87 2 -1.1794 4.614173766250911 15.682664076418046 0.9774372583989007 0 0 0
260 87 1 0.5897 4.652035429973575 16.635822804383658 0.8986775823994727 0 0 0
262 88 2 -1.1794 1.5712159919156687 16.97846250658101 1.4692024881902677 0 0 0
263 88 1 0.5897 1.6873744741390038 16.291099412208375 0.8133059008415237 0 0 0
264 88 1 0.5897 1.559950950628292 17.791923952520165 0.9649110339180965 0 0 0
269 90 1 0.5897 1.6622350574677238 13.68829215269926 4.986074273720762 0 0 0
288 96 1 0.5897 5.944876733120488 14.780992167741683 1.7809520991092247 0 0 0
268 90 2 -1.1794 1.7739037193617273 12.743796540381549 5.093818547914167 0 0 0
338 113 1 0.5897 0.2002354415858483 16.927935035192966 2.7228022471744895 1 0 0
247 83 2 -1.1794 6.054606910720234 16.914446715861622 3.6635490484381736 0 0 0
146 49 1 0.5897 5.5215012231792535 12.802971283799264 1.081901615549618 0 0 0
287 96 1 0.5897 6.196982365797052 13.89511811468635 2.982364503003089 0 0 0
147 49 1 0.5897 4.030479159349824 12.660987745859424 1.3022154156177428 0 0 0
389 130 1 0.5897 2.1637419230389967 18.40470064773927 4.39932663688367 0 0 0
256 86 2 -1.1794 0.21194261556734909 13.986493865181973 2.1428709327461473 0 0 0
265 89 2 -1.1794 4.742031854277038 18.412416881240958 0.8612463996086036 0 0 0
339 113 1 0.5897 0.17991045932156854 17.727887813518507 4.00786352344966 1 0 0
740 247 1 0.5897 4.794845278486498 15.295006994906561 5.625631014360858 0 0 0
768 256 1 0.5897 6.072241077720789 14.519924279779513 7.475029648957107 0 0 0
627 209 1 0.5897 5.333481808526303 12.376943799838703 6.9757730812183 0 0 0
741 247 1 0.5897 4.719284460670083 16.638897338968768 6.318417401099007 0 0 0
818 273 1 0.5897 0.23140640410634533 16.91432768149886 8.430811427418952 1 0 0
1106 369 1 0.5897 4.819162801648371 12.584149132466962 11.260503772299893 0 0 0
744 248 1 0.5897 1.5968917654347845 16.358588440820853 6.445552997522703 0 0 0
722 241 1 0.5897 4.014172029442521 13.889003085948028 9.30775955349773 0 0 0
728 243 1 0.5897 5.150301684688223 16.869720999129555 9.331774372391004 0 0 0
870 290 1 0.5897 2.2777816703800586 18.276685249489944 10.160587280184963 0 0 0
732 244 1 0.5897 2.8204979192718085 16.418943396351956 9.800718249723534 0 0 0
736 246 2 -1.1794 0.2614504780039405 14.165413299026218 7.761713837899544 0 0 0
745 249 2 -1.1794 4.827744398276709 18.426012784157557 6.372669666518273 0 0 0
727 243 2 -1.1794 6.1045278011311055 16.796229333477925 9.315414757214024 0 0 0
726 242 1 0.5897 3.313188148489524 13.157406611549836 7.295991976373553 0 0 0
724 242 2 -1.1794 2.9909081637049444 13.956014769559951 7.713747859980172 0 0 0
1221 407 1 0.5897 4.787906153664022 15.157196591399344 11.155281887949346 0 0 0
735 245 1 0.5897 0.9115625438220458 15.873637748967651 10.174516300340064 0 0 0
748 250 2 -1.1794 1.552757140967051 12.666831727261616 10.571374398279621 0 0 0
749 250 1 0.5897 1.5716180786060912 13.60960592128875 10.735601804561998 0 0 0
725 242 1 0.5897 3.443692555653171 14.665106747870952 7.257303419588966 0 0 0
737 246 1 0.5897 1.213427192357224 14.147403608822298 7.859833328079496 0 0 0
733 245 2 -1.1794 1.5813260440940646 15.422024432387214 10.687982045078057 0 0 0
731 244 1 0.5897 2.8825715571098445 17.016358044087312 8.41112599900485 0 0 0
743 248 1 0.5897 1.5467010044619174 17.868012600746553 6.549503618210371 0 0 0
742 248 2 -1.1794 1.5944529935838092 17.07382894742738 7.081620258368646 0 0 0
721 241 2 -1.1794 4.767052409709364 13.841010994658257 9.896880723007818 0 0 0
723 241 1 0.5897 5.523468030641514 13.77142004420304 9.314482781082413 0 0 0
730 244 2 -1.1794 3.315006025868099 17.038916234566145 9.264746197204024 0 0 0
869 290 1 0.5897 0.7696868390136299 18.40158568202198 10.204109121877185 0 0 0
739 247 2 -1.1794 4.707483413481366 15.697275050602785 6.489758426514615 0 0 0
1201 401 2 -1.1794 4.59919121200163 14.338103829039538 15.624894755530667 0 0 0
1202 401 1 0.5897 5.4054841094768085 14.269721851468178 15.113604305450078 0 0 0
1203 401 1 0.5897 4.538697578922741 13.503918118936172 16.090333767917635 0 0 0
1204 402 2 -1.1794 3.0455618688303954 14.033356079890847 13.375955914146958 0 0 0
1205 402 1 0.5897 3.4833910988891685 14.155070693349213 14.21837303847807 0 0 0
1206 402 1 0.5897 3.5587064753063005 13.356705077645637 12.93437182183009 0 0 0
1210 404 2 -1.1794 3.37951448164002 17.151762850793155 14.897126303763589 0 0 0
1211 404 1 0.5897 3.007342935595257 17.835156223954172 15.454464182806028 0 0 0
1212 404 1 0.5897 4.326241849672355 17.2442293159085 15.003768418512347 0 0 0
1213 405 2 -1.1794 1.732332621427083 15.379116556057703 16.29342269632792 0 0 0
1214 405 1 0.5897 0.9325595585211391 15.821556591954467 16.009159373717885 0 0 0
1215 405 1 0.5897 2.424741683793462 15.768372335074119 15.759346967944426 0 0 0
1218 406 1 0.5897 1.22815207543013 14.020778500270096 13.643224918901288 0 0 0
1219 407 2 -1.1794 4.750804226269459 15.629759139386113 11.986828767016899 0 0 0
1220 407 1 0.5897 4.0260941104539985 15.223111736735408 12.461826040116678 0 0 0
1222 408 2 -1.1794 1.4523906585386825 17.135322471304733 12.881188730799682 0 0 0
1223 408 1 0.5897 1.4826816675959367 17.812524540323153 12.205438547561197 0 0 0
1224 408 1 0.5897 2.301206445174018 17.195512725677055 13.319472612443652 0 0 0
1227 409 1 0.5897 4.681223719125211 17.41894537853201 12.087517942615616 0 0 0
1229 410 1 0.5897 1.6037254220931159 13.587885279514646 16.370631286186402 0 0 0
1298 433 1 0.5897 0.3483908829243928 17.169735186844306 14.373302410594532 1 0 0
1216 406 2 -1.1794 0.2718036468610501 13.99536491857886 13.61217663962559 0 0 0
1225 409 2 -1.1794 4.491548024163896 18.357118430507093 12.084976269971033 0 0 0
1247 416 1 0.5897 6.068911054025684 14.766137297033872 13.103906844591483 0 0 0
734 245 1 0.5897 1.5507781205355944 15.844172223175752 11.546481443889975 0 0 0
1228 410 2 -1.1794 1.4943479958995847 12.640449660335136 16.289685659531763 0 0 0
1248 416 1 0.5897 5.949023816569918 13.25758399633768 13.143679116175514 0 0 0
1207 403 2 -1.1794 6.05275189590373 17.13775304141005 15.121777158320825 0 0 0
1350 450 1 0.5897 0.984566053433181 18.427793354935375 15.99146586258829 0 0 0
1700 567 1 0.5897 4.764481414636413 15.340296507609027 17.151042180439514 0 0 0
1699 567 2 -1.1794 4.778551158892647 15.77980728176739 18.001216139974886 0 0 0
1691 564 1 0.5897 2.8671738242560787 16.29880643072336 21.11491848949459 0 0 0
1695 565 1 0.5897 1.7125521690384802 14.307951719035492 22.090500064870753 0 0 0
1703 568 1 0.5897 1.7154350453192884 16.305076674735787 17.899717905316436 0 0 0
1778 593 1 0.5897 0.3822718859714449 17.075378433347367 19.878819261582326 1 0 0
1728 576 1 0.5897 6.124879048542397 14.540198560637986 18.77493810321692 0 0 0
1687 563 2 -1.1794 6.0427521435108105 17.262009903113203 20.796889923512843 0 0 0
1705 569 2 -1.1794 4.782228265461521 18.458123006355798 17.994979912756044 0 0 0
1701 567 1 0.5897 4.121827478490887 15.317007840727223 18.52151952037927 0 0 0
1586 529 1 0.5897 5.419873041052902 12.578273535938228 18.04310776714804 0 0 0
1830 610 1 0.5897 2.327947331657071 18.28927627381931 21.56521487384528 0 0 0
1686 562 1 0.5897 3.466518547815441 13.882129180595305 19.90919872250908 0 0 0
1702 568 2 -1.1794 1.6278976683308246 17.030737455230692 18.517706264721248 0 0 0
1779 593 1 0.5897 0.32254394310685675 17.697356655939302 21.257697384859004 1 0 0
1683 561 1 0.5897 4.781897818558065 13.441664022357765 21.880955716332164 0 0 0
1696 566 2 -1.1794 0.32389006031240164 13.870340844994345 19.232507372360995 0 0 0
1697 566 1 0.5897 1.2637872739428015 13.927337253008778 19.060590157975277 0 0 0
1681 561 2 -1.1794 4.675642659473109 14.146121065412324 21.241730045228667 0 0 0
1707 569 1 0.5897 4.645016256010792 17.511307490831193 17.96556676494791 0 0 0
1682 561 1 0.5897 5.384664972731556 14.009057425755048 20.61348511313145 0 0 0
1694 565 1 0.5897 0.9891797334662913 15.524870871940465 21.554247019232534 0 0 0
1690 564 2 -1.1794 3.3040631443120807 17.030200157568785 20.678618768092786 0 0 0
1685 562 1 0.5897 3.508270776743852 13.168061599963181 18.574998503273704 0 0 0
1708 570 2 -1.1794 1.7174432470490348 12.542740959039614 22.0319026366745 0 0 0
1689 563 1 0.5897 5.090939378794363 17.242382524012662 20.697496594899434 0 0 0
1684 562 2 -1.1794 3.073676057415047 13.885303079320284 19.03636395394441 0 0 0
1692 564 1 0.5897 2.7711016796110624 17.199144724254694 19.901707782945927 0 0 0
1693 565 2 -1.1794 1.7654345785540513 15.262750716601316 22.04913719279574 0 0 0
1704 568 1 0.5897 1.6607684896628438 17.816206798567435 17.971710506481546 0 0 0
261 87 1 0.5897 4.542875028312399 15.369995573713863 22.72919258061705 0 0 -1
361 121 2 -1.1794 4.791457869082663 20.19487553978896 4.362069756960674 0 0 0
362 121 1 0.5897 4.033542774834437 20.067083190849715 3.7916066175568988 0 0 0
363 121 1 0.5897 4.757958964586725 19.459592099900654 4.973945903562728 0 0 0
364 122 2 -1.1794 3.0014006542384286 19.972729716121094 2.265972275321911 0 0 0
365 122 1 0.5897 3.4078126115111327 20.704000397567675 1.8009574167998075 0 0 0
366 122 1 0.5897 2.065091690538836 20.06796155456648 2.0914257148740583 0 0 0
370 124 2 -1.1794 3.18869475562822 23.216670865722968 3.4282350013404184 0 0 0
371 124 1 0.5897 4.130399545496876 23.11505820389999 3.5663643219244756 0 0 0
372 124 1 0.5897 2.7937057249488944 22.508889983042792 3.9373466183634602 0 0 0
373 125 2 -1.1794 1.5494837892915099 21.514001537387117 4.834634496110163 0 0 0
375 125 1 0.5897 0.852163432224541 22.00725931478793 4.40262755632355 0 0 0
379 127 2 -1.1794 4.530256886698711 21.8759348591879 0.8347934060672542 0 0 0
380 127 1 0.5897 4.633956765807917 22.827410446762308 0.8253117772102198 0 0 0