LAMMPS (30 Jul 2021)
Processor partition = 1
  using 2 OpenMP thread(s) per MPI task
using multi-threaded neighbor list subroutines
variable        pid world 0 1
variable        phase world IceV IceIII

shell cd ${phase}
shell cd IceIII
include Restart.lmp
echo both
log log.lammps
#include		in.partitions
include		in.temp
variable        temperature equal 93.97
variable	tempDamp equal 100.0
include		in.pressure
variable        pressure equal 6899.0
variable        pressureDamp equal 1000.0 # This is 1 ps
include		in.seed
variable        seed equal 745823

units		real
atom_style	full

read_restart	restart.lmp.${pid}
read_restart	restart.lmp.1
Reading restart file ...
  restart file = 30 Jul 2021, LAMMPS = 30 Jul 2021
  restoring atom style full from restart
  orthogonal box = (0.16975147 0.11208593 0.075406087) to (19.830250 19.887915 20.624592)
  2 by 4 by 4 MPI processor grid
  restoring pair style lj/cut/tip4p/long/omp from restart
  restoring bond style harmonic/omp from restart
  restoring angle style harmonic/omp from restart
  972 atoms
  648 bonds
  324 angles
Finding 1-2 1-3 1-4 neighbors ...
  special bond factors lj:    0        0        0       
  special bond factors coul:  0        0        0       
     2 = max # of 1-2 neighbors
     1 = max # of 1-3 neighbors
     1 = max # of 1-4 neighbors
     2 = max # of special neighbors
  special bonds CPU = 0.002 seconds
  read_restart CPU = 0.006 seconds
include 	in.setup
variable	out_freq equal 1000
variable	out_freq2 equal 10000
variable	out_freq3 equal 1000

timestep	2.0

neigh_modify    delay 7 every 1

include		in.tip4p
# This is TIP4P/Ice

# create groups ###
group ox type 2
324 atoms in group ox
group hy type 1
648 atoms in group hy

# set charges - beside manually ###
set group ox charge -1.1794
Setting atom values ...
  324 settings made for charge
set group hy charge 0.5897
Setting atom values ...
  648 settings made for charge

# ### TIP3P Potential Parameters ###
pair_style lj/cut/tip4p/long/omp 2 1 1 1 0.1577 8.5
pair_coeff 1 1*2 0.000 0.000
pair_coeff 2 2 0.21084 3.1668
bond_style  harmonic
bond_coeff  1 450 0.9572
angle_style harmonic
angle_coeff 1 55 104.52
kspace_style pppm/tip4p/omp 1.0e-5
pair_modify tail yes

thermo          ${out_freq}
thermo          1000
thermo_style    custom step temp pe etotal epair emol press lx ly lz vol pxx pyy pzz pxy pxz pyz enthalpy

restart 	${out_freq3} restart.lmp.${pid} restart2.lmp.${pid}
restart 	1000 restart.lmp.${pid} restart2.lmp.${pid}
restart 	1000 restart.lmp.1 restart2.lmp.${pid}
restart 	1000 restart.lmp.1 restart2.lmp.1


include         in.dump
dump            myDump all atom ${out_freq2} dump.water.${pid}
dump            myDump all atom 10000 dump.water.${pid}
dump            myDump all atom 10000 dump.water.1
dump            myDump2 all dcd ${out_freq2} dump.dcd
dump            myDump2 all dcd 10000 dump.dcd
dump_modify     myDump append yes
dump_modify     myDump2 append yes


variable natoms 	equal  "count(all)"                        # NUMBER ATOMS
variable H      	equal  "enthalpy/v_natoms"                 # ENTHALPY-per-atom
variable Vol      	equal  "vol/v_natoms"                 # volume-per-atom
fix AVG all 		ave/time ${out_freq} 1 ${out_freq} v_Vol v_H file vol_enthalpy.dat
fix AVG all 		ave/time 1000 1 ${out_freq} v_Vol v_H file vol_enthalpy.dat
fix AVG all 		ave/time 1000 1 1000 v_Vol v_H file vol_enthalpy.dat


timer           timeout 02:55:00 every 1000
New timer settings: style=normal  mode=nosync  timeout=02:55:00

fix 		1 all shake 1e-6 200 0 b 1 a 1
Finding SHAKE clusters ...
       0 = # of size 2 clusters
       0 = # of size 3 clusters
       0 = # of size 4 clusters
     324 = # of frozen angles
  find clusters CPU = 0.000 seconds
fix             2 all nph aniso ${pressure} ${pressure} ${pressureDamp}
fix             2 all nph aniso 6899 ${pressure} ${pressureDamp}
fix             2 all nph aniso 6899 6899 ${pressureDamp}
fix             2 all nph aniso 6899 6899 1000
fix             3 all temp/csvr ${temperature} ${temperature} ${tempDamp} ${seed}
fix             3 all temp/csvr 93.97 ${temperature} ${tempDamp} ${seed}
fix             3 all temp/csvr 93.97 93.97 ${tempDamp} ${seed}
fix             3 all temp/csvr 93.97 93.97 100 ${seed}
fix             3 all temp/csvr 93.97 93.97 100 745823


run             250000
PPPM initialization ...
  extracting TIP4P info from pair style
  using 12-bit tables for long-range coulomb (../kspace.cpp:340)
  G vector (1/distance) = 0.37228936
  grid = 24 24 24
  stencil order = 5
  estimated absolute RMS force accuracy = 0.0034990196
  estimated relative force accuracy = 1.0537193e-05
  using double precision FFTW3
  3d grid and FFT values/proc = 3211 432
Last active /omp style is kspace_style pppm/tip4p/omp
Neighbor list info ...
  update every 1 steps, delay 7 steps, check yes
  max neighbors/atom: 2000, page size: 100000
  master list distance cutoff = 10.8154
  ghost atom cutoff = 10.8154
  binsize = 5.4077, bins = 4 4 4
  1 neighbor lists, perpetual/occasional/extra = 1 0 0
  (1) pair lj/cut/tip4p/long/omp, perpetual
      attributes: half, newton on, omp
      pair build: half/bin/newton/omp
      stencil: half/bin/3d
      bin: standard
Setting up Verlet run ...
  Unit style    : real
  Current step  : 33500000
  Time step     : 2
  Walltime left : 2:54:59.92
Per MPI rank memory allocation (min/avg/max) = 10.19 | 10.19 | 10.19 Mbytes
Step Temp PotEng TotEng E_pair E_mol Press Lx Ly Lz Volume Pxx Pyy Pzz Pxy Pxz Pyz Enthalpy 
33500000    97.799151    -5039.267   -4850.6532    -5039.267            0    6821.8286    19.660498    19.775829    20.549186    7989.5779     6911.143    7225.8436    6328.4993   -344.59629    864.83071   -161.56102   -4055.7751 
33501000    93.067377   -5059.4143   -4879.9261   -5059.4143            0    6394.4441    19.763739    19.739057    20.508745    8000.8221    4875.1249    8035.0643    6273.1431    55.188697    127.90423   -699.89265   -4133.7981 
33502000    92.483698   -5050.9733   -4872.6107   -5050.9733            0    7488.1273    19.861093    19.626899    20.471889    7980.1811    6501.4648    8826.0896    7136.8275    175.97502    347.25045    827.00995   -4001.1218 
33503000    94.258231   -5060.7049   -4878.9199   -5060.7049            0    6891.0856    19.743475    19.758547    20.457153    7980.3839    6211.7448    7938.9635    6522.5485    44.840549    640.27391    -928.0505    -4076.896 
33504000    90.522185   -5062.0465   -4887.4669   -5062.0465            0    6645.8629    19.843236    19.774141    20.342596     7982.088    5491.1061    7186.4573    7260.0253    422.42077    466.10084   -501.05615   -4113.8182 
33505000    96.076328   -5058.6436   -4873.3523   -5058.6436            0    6419.2525     19.77648    19.943666    20.290089    8002.7258    6727.9028    6063.7319    6466.1229    341.48436    410.02555    151.06273   -4124.1514 
33506000    96.361369   -5050.2261   -4864.3851   -5050.2261            0    7557.2197    19.688738    19.722717    20.466651    7947.5158     7232.843    8238.5261    7200.2901     79.66113    948.02202    287.06101   -3988.4553 
33507000    96.131972   -5050.3351   -4864.9365   -5050.3351            0    7394.1661    19.683443     19.75479    20.359432     7916.608    7164.1424     7907.395    7110.9608   -406.83786    595.04658    259.31199   -4011.2386 
33508000    91.687498   -5050.0521   -4873.2251   -5050.0521            0    7299.6445    19.887277    19.765908    20.343346    7996.7678    7912.0076    5931.0093    8055.9165   -609.65667   -557.68468    1220.5011   -4021.9065 
33509000    97.477238   -5048.3818   -4860.3887   -5048.3818            0    7841.9429    19.840616    19.664288    20.390537    7955.4005    7882.8632    7948.4855      7694.48    87.314618   -565.45756    1233.5518   -3950.5559 
33510000    94.868009   -5046.8315   -4863.8706   -5046.8315            0    7351.4052    19.833343    19.562852     20.51699    7960.5256    8337.1508    7288.3748    6428.6899   -111.35775    259.64472   -217.04576   -4010.4011 
33511000    91.650438   -5057.3586    -4880.603   -5057.3586            0    5351.2772    19.598265    19.858775    20.586753    8012.3136    5614.2763    4977.1016    5462.4537   -387.06182    681.54988    -398.8824   -4255.2989 
33512000    96.317293    -5040.537    -4854.781    -5040.537            0    7153.6765    19.690137    19.793159     20.40489    7952.3983    8037.3941    6275.2379    7148.3975   -343.06688   -563.38192   -259.69675    -4025.115 
33513000    95.987795   -5042.3601   -4857.2395   -5042.3601            0    7231.0281    19.712468    19.835632    20.400008    7976.5919    6369.9091    8077.5052      7245.67    512.03538    711.59777    1579.0503    -4016.051 
33514000    94.573609   -5057.5929   -4875.1997   -5057.5929            0    7619.5192    19.860172     19.74289    20.344055    7976.8468    7876.8057    6680.6979    8301.0539    101.33744   -983.19586   -308.85443   -3988.7896 
33515000    92.243051   -5053.3122   -4875.4137   -5053.3122            0    6369.0836    19.718954    19.737995    20.548804    7997.8539    6599.6829    6714.1345    5793.4333   -114.00556    719.10612    172.59099   -4132.5207 
33516000    91.235629   -5045.9374   -4869.9818   -5045.9374            0    6582.9094    19.759138    19.806151    20.354095    7965.6254     7265.427    5591.8857    6891.4155   -149.00367   -5.7162253    208.30046   -4105.2421 
33517000    91.955404   -5049.2854   -4871.9417   -5049.2854            0     6682.089    19.858107    19.732115    20.344187    7971.7164    5064.3957    7599.4277    7382.4437    142.51366    597.44738    220.69785   -4095.0866 
33518000    88.225201   -5051.9486   -4881.7989   -5051.9486            0    6833.7413    19.743422    19.749528     20.44542    7972.1452    6808.9487    6372.1494    7320.1258   -128.24917    428.92077    63.052773   -4087.2702 
33519000     94.38814   -5052.9688   -4870.9333   -5052.9688            0     7421.776    19.791921    19.661236    20.393856    7935.9353    7767.5437    6650.8043      7846.98    6.2173666   -661.26973    -138.5294   -4011.9557 
33520000    92.460792    -5054.701   -4876.3826    -5054.701            0    6581.4391    19.613744     19.88855      20.4461    7975.7972    7704.6181    5482.8535    6556.8456   -578.06921   -839.32427    142.96371   -4110.8374 
33521000    93.304671   -5067.6437   -4887.6978   -5067.6437            0    4921.6676     19.99769    19.721023    20.396476    8043.8585     5133.191    4401.7168    5230.0951   -166.26747   -208.58435    333.54523   -4310.3299 
33522000    87.474215   -5044.1248   -4875.4234   -5044.1248            0    6457.0722    19.851551    19.816884    20.351414    8006.1626    5078.1638    6651.1729    7641.8799    -225.3631    324.54054    -231.3448   -4121.4848 
33523000    91.810027   -5057.2047   -4880.1413   -5057.2047            0    6142.8157    19.550762    19.884376    20.489225    7965.2825    7442.4161     5446.916    5539.1149   -287.31159    1453.7975    87.904869   -4166.5582 
33524000    98.082363   -5044.3746   -4855.2146   -5044.3746            0    7038.7967     19.74648    19.901416    20.285062    7971.6826    6147.0452    6992.9487    7976.3963    37.525631    524.18474   -163.48204   -4036.8924 
33525000    96.919665   -5044.9968   -4858.0791   -5044.9968            0    7570.5237    19.776711    19.745137     20.34191    7943.3913    8226.6249    6648.0503     7836.896    118.77915    36.845339   -262.75638   -3981.0626 
33526000    96.411615   -5047.0275   -4861.0896   -5047.0275            0    7168.2706    19.837482    19.728369    20.336803    7959.0353    7105.4791    6939.8467    7459.4861    -179.0982    138.55004    1152.1703   -4029.0372 
33527000    96.859393   -5049.0324    -4862.231   -5049.0324            0    6458.1683    19.692239    19.806994     20.46656    7982.8602    6886.8608    5809.4273    6678.2168    683.88555    651.58208    410.85169   -4110.3592 
33528000    91.447753   -5058.1308   -4881.7661   -5058.1308            0    6591.0095    19.763118    19.740124     20.53148    8009.8722    6542.6494    7261.5468    5968.8324   -620.88886    249.56602   -128.43635   -4111.8322 
33529000    91.723722   -5046.3349   -4869.4379   -5046.3349            0    6776.4731    19.741147    19.651681    20.521048    7961.0731    7029.6521    6733.1736    6566.5937   -373.90361    762.14627    377.35336   -4082.6617 
33530000    97.143598   -5051.8494   -4864.4998   -5051.8494            0    7423.7694    19.705144    19.752467    20.438816    7955.3023    7855.0596    6821.5639    7594.6847   -854.51036    472.10388   -338.73538   -4003.1946 
33531000    92.631853   -5038.7655   -4860.1171   -5038.7655            0    6749.5178    19.709744    19.774971    20.435719    7965.0178    6653.5564    7119.9686    6475.0282   -96.193933    663.57134   -490.99011   -4076.0822 
33532000    96.632936   -5054.4178   -4868.0531   -5054.4178            0     6983.953     19.73365    19.745463    20.497003    7986.6585    6810.0968    7516.1701    6625.5922    33.125461    723.01938   -254.07025   -4054.5816 
33533000    97.610454   -5053.9527   -4865.7027   -5053.9527            0    7604.6705     19.73129    19.737711    20.352835     7926.422    6610.6023    8650.9756    7552.4334   -8.8436436    1085.3942    307.08765   -3986.6125 
33534000    96.048852   -5062.0227   -4876.7844   -5062.0227            0    7295.5913    19.640174    19.901172    20.373568    7963.2632    7506.8017    6943.6028    7436.3694   -13.426608   -588.66843    151.01167   -4029.5034 
33535000    89.744489   -5059.2422   -4886.1625   -5059.2422            0    7982.8023    19.700506    19.877209    20.253142    7930.9497    6868.0859    8769.4348    8310.8861    301.54694     509.7555    410.70556   -3962.8335 
33536000    92.263526   -5062.8449   -4884.9069   -5062.8449            0     6699.569    19.762445      19.8848    20.324143    7986.8246    7667.1714    5367.8776    7063.6578     305.2963    63.796502    219.65132   -4104.5435 
33537000    95.454856   -5059.6071   -4875.5143   -5059.6071            0    6023.7936    19.746977    19.836225     20.36493    7977.0547    6938.8399    5448.4895    5684.0515    284.86454   -211.26807    72.885297   -4174.7233 
33538000    95.077975   -5051.8699    -4868.504   -5051.8699            0    6439.1479    19.672383    19.919248    20.429711    8005.5678    6280.1236    6442.5361    6594.7839   -243.06084   -765.25992   -133.77921   -4116.7142 
33539000    89.981689   -5055.7036   -4882.1663   -5055.7036            0    6727.6759    19.751129    19.765111    20.507885    8005.9348    6002.8198    6911.8253    7268.3828    42.263539    168.06385    775.46192    -4096.654 
33540000    93.161514   -5051.9683   -4872.2985   -5051.9683            0    7237.8649    19.594056    19.834645    20.451953    7948.4703    6876.5442    7579.1567    7257.8938   -289.29287   -389.48657    346.66455   -4033.2831 
33541000    94.209729   -5048.1405   -4866.4491   -5048.1405            0    7837.0934    19.733704    19.731731    20.365287    7929.8378    9257.1903    6527.1598    7726.9302    97.619883   -18.008349   -269.46441   -3960.1006 
33542000    94.857085   -5061.5457   -4878.6059   -5061.5457            0    6472.9248    19.614677    19.841262    20.501922    7978.9369    6816.3295    5412.6197    7189.8251   -288.51094     560.2797    644.75311   -4125.3865 
33543000     95.66651   -5049.0998   -4864.5989   -5049.0998            0     6840.588    19.925443    19.606589    20.402291    7970.5625    7492.7787    6230.6873    6798.2981    171.01268    4.2650224    -540.2058    -4069.432 
33544000    91.301709   -5064.3748   -4888.2918   -5064.3748            0    6785.6206    19.822075    19.733495    20.487512    8013.8707    6097.7895    6949.0785    7309.9937    253.50391    468.28694    71.278684   -4095.2286 
33545000    90.972429   -5061.9962   -4886.5482   -5061.9962            0    7372.9346    19.888418    19.711617    20.347373    7976.8394    7703.2711    6826.1397     7589.393    163.66502    799.62184    -744.3693   -4028.8251 
33546000    94.255692   -5060.0357   -4878.2557   -5060.0357            0      6823.16    19.681322    19.828373    20.401694     7961.732    7103.2155    6678.1738    6688.0907   -242.81418   -360.59508   -293.93435   -4085.9934 
33547000    96.600846   -5056.4284   -4870.1255   -5056.4284            0    7812.7818    19.786463    19.643382    20.424942    7938.6247    9339.9694    7243.6965    6854.6794   -232.69207     411.5505   -594.21025   -3965.5874 
33548000    91.242701   -5060.1691   -4884.1998   -5060.1691            0    6984.8853    19.788908    19.667218    20.483796    7972.1455    6481.6116    7041.0021    7432.0423    328.02876    693.97569    1156.0957   -4072.0982 
33549000    93.532626   -5049.7033   -4869.3177   -5049.7033            0    7352.4637    19.774201    19.667891    20.508835    7976.2312    7159.6549    7723.2392     7174.497    -1.831972    1230.1513    1002.5263   -4014.0413 
33550000    92.940214   -5064.2956   -4885.0526   -5064.2956            0    6407.3603    19.750542     19.78512    20.411514    7976.1429     6456.023    6373.1943    6392.8636   -384.05244    731.74679    44.848666   -4139.7237 
33551000     102.9978   -5044.7073   -4846.0674   -5044.7073            0     6394.817     19.82602    19.780326     20.32822    7972.0187    6491.8917    6032.6143    6659.9451   -645.04262   -134.75064   -28.642937   -4102.5822 
33552000    89.527006    -5053.258   -4880.5976    -5053.258            0    7534.3011    19.667447    19.809363    20.378023    7939.2695    7937.3203    6483.9253    8181.6576    72.289892    643.33721    321.97654   -4008.2303 
33553000    89.063325   -5054.8728   -4883.1067   -5054.8728            0    6836.1175    19.818042    19.804366    20.293372    7964.8188    5953.7758    7479.1401    7075.4364    175.06135   -126.23632   -890.91428   -4089.0321 
33554000    97.545285   -5050.4913   -4862.3671   -5050.4913            0    7379.5768    19.683786    19.817182    20.390989    7954.0591    6118.2158    8650.1428     7370.372   -852.33673   -701.69487   -361.43472   -4006.3229 
33555000    95.805424   -5053.3667   -4868.5978   -5053.3667            0    7799.5537    19.586565     19.87548    20.401046    7941.9716    8116.3399    7854.8351    7427.4862    47.670674   -244.90046    504.05252   -3965.2105 
33556000    96.402035    -5046.524   -4860.6046    -5046.524            0    6981.0161    19.828784    19.741142    20.424862    7995.1661    6048.6759    7773.4671    7120.9052    47.710744     677.7912   -698.75644   -4046.6091 
33557000    88.646744    -5055.974   -4885.0113    -5055.974            0    7085.5969    19.723913    19.763829    20.343602    7930.3437    6855.3675    6958.1086    7443.3146    90.961906    259.63807   -955.45817     -4065.52 
33558000    93.028504   -5056.1673    -4876.754   -5056.1673            0     7143.813    19.817376    19.702353    20.461457    7989.1541    8122.2694    6067.1142    7242.0554    2.8137794   -61.647834   -183.08276   -4044.4025 
33559000    93.311916   -5054.0493   -4874.0895   -5054.0493            0    6780.5187    19.794959    19.760742     20.36653    7966.6346     5411.465    7951.5585    6978.5326    200.11389    -372.6929   -141.17507   -4086.2936 
33560000    93.330736   -5050.6618   -4870.6657   -5050.6618            0    7989.9435    19.675866    19.706861    20.454235    7931.1202    7260.2738    8557.6112    8151.9455    120.44831    124.55743    17.942324   -3946.4908 
33561000    92.747583   -5046.4615     -4867.59   -5046.4615            0    7223.1462    19.758817    19.628861    20.536747    7965.0353    6205.0799     8011.918    7452.4406   -97.826471    34.433736    1295.6328   -4028.5358 
33562000     98.77143   -5052.6219   -4862.1329   -5052.6219            0    5482.1175    19.782027    19.809498    20.469556     8021.446    5845.3212    4949.2206    5651.8107    349.47365   -294.48941   -437.15741   -4220.8097 
33563000    94.787498   -5046.4334   -4863.6277   -5046.4334            0     7489.295    19.782321    19.760155    20.393694    7971.9302      5737.77    8695.8877    8034.2274   -178.91768    446.46562    340.75945   -3992.9041 
33564000    96.031557     -5058.81   -4873.6051     -5058.81            0    6334.7376    19.829862    19.717194    20.354327    7958.3227    5378.3134    6796.0678    6829.8316    190.63358    866.47274   -323.48274   -4138.3703 
33565000    93.680528   -5057.2879   -4876.6172   -5057.2879            0    7256.2106     19.82444    19.826778    20.242007    7956.2174    7127.0944    6265.4171    8376.1202   -196.50612    697.50347   -184.79676   -4034.6553 
33566000    97.793942   -5048.8214   -4860.2175   -5048.8214            0    5743.4885    19.710672    19.743052    20.553704    7998.4494    5630.2067    5705.8084    5894.4505   -63.339391    441.36418    -313.5303   -4190.2443 
33567000    89.708034   -5049.4215    -4876.412   -5049.4215            0    8109.1874    19.726745     19.72492    20.496145    7975.2237    9266.0703    7995.8074    7065.6846   -171.32727    33.165394    384.04182   -3933.2287 
33568000    94.938066   -5056.5693   -4873.4732   -5056.5693            0     7218.899    19.726272    19.760861    20.406266    7954.5283     6609.583    7503.2952    7543.8187   -60.554913   -97.248498    568.21696   -4036.0186 
33569000    87.816114   -5052.4506   -4883.0898   -5052.4506            0    8514.1305    19.660809    19.809688     20.34423    7923.5586    7700.3184    9249.1962    8592.8769   -368.15585    216.03713   -1731.8191   -3899.2227 
33570000    93.096454   -5049.3863    -4869.842   -5049.3863            0    6336.6014    19.784441    19.755194    20.413353    7978.4663    4283.4539    8233.9421    6492.4082    202.54085    85.238789    770.10935   -4132.5293 
33571000    93.216121   -5049.6504   -4869.8753   -5049.6504            0    7446.4381    19.759384    19.764702    20.408639    7970.3559     6796.391    8504.0361    7038.8871    208.71619    -1106.175    540.40142   -4004.3053 
33572000    97.563161   -5038.3663   -4850.2075   -5038.3663            0    7992.0517    19.786222    19.670004    20.442052     7955.946     7611.884    8459.2307    7905.0403   -12.709679   -39.644697    431.87035   -3922.8953 
33573000    87.780381   -5056.8067   -4887.5149   -5056.8067            0    7045.6745    19.784017     19.83826    20.371471    7995.4047    6938.5427    6775.0842    7423.3966   -83.676516    -150.5157    530.75077   -4065.9556 
33574000    91.078033   -5058.0625   -4882.4109   -5058.0625            0    5829.3646    19.685113    19.785266    20.517256    7990.9622    5877.6561    5646.5298    5963.9079    -53.25623    -10.16676   -501.07636   -4203.0568 
33575000    92.957168   -5056.7973   -4877.5216   -5056.7973            0    6635.2187    19.736068    19.752249     20.45422    7973.7036    6418.1259    7063.3938    6424.1364    44.408248    35.122838    71.840857   -4105.9233 
33576000    93.488448   -5052.3926   -4872.0923   -5052.3926            0    7338.1409    19.956291    19.601332     20.33558    7954.6665    7124.1789    6821.4008    8068.8429   -4.1447844   -646.85988   -517.76404   -4020.7898 
33577000    89.355954    -5055.429   -4883.0985    -5055.429            0    7821.8466    19.639414    19.742533    20.417834    7916.6431    8299.3494    7658.2591    7507.9312   -95.458921   -1057.5251     794.1381   -3980.0185 
33578000    97.945016   -5048.8589   -4859.9637   -5048.8589            0    7080.8063    19.757515    19.875557    20.357136    7994.0768    6574.8296     6958.739    7708.8503   -221.80013    721.71116    139.78583    -4034.445 
33579000    88.863198   -5050.8423   -4879.4621   -5050.8423            0    6956.8816    19.827863    19.819495    20.229309    7949.6783    7145.3812    6182.4203    7542.8432   -43.206677    771.65981   -115.23267   -4072.8958 
33580000    97.406995   -5054.8556    -4866.998   -5054.8556            0    5832.2593    19.703897    19.809643    20.468818    7989.5361    5525.1374     5684.652    6286.9886    163.59313   -75.994415    35.957414   -4187.4279 
33581000    91.862533    -5052.002   -4874.8374    -5052.002            0    6587.0057    19.728802    19.868935    20.424197    8006.0866    7208.6025    5580.0273    6972.3873    271.81269   -239.30651    246.75512   -4105.7349 
33582000    92.612791   -5063.7168   -4885.1052   -5063.7168            0    6766.2759    19.828791    19.795467    20.334545     7981.719    6954.9598    6407.0295    6936.8384    36.209247   -504.35595    115.71968   -4097.4756 
33583000    96.268819   -5057.3741   -4871.7115   -5057.3741            0    7149.7209    19.608347    19.792526    20.535635    7969.8537    6829.0366    7895.3434    6724.7827   -117.91902   -638.96277    452.36899   -4040.6842 
33584000    100.87862   -5053.4093   -4858.8564   -5053.4093            0    6746.6913    19.765065    19.727709    20.431121    7966.4914    6799.6427    7154.4835    6285.9479   -134.43609   -731.60553    59.151865   -4075.0049 
33585000    92.854103   -5058.0503   -4878.9734   -5058.0503            0    7396.1189    19.867841    19.759252    20.293095    7966.5351    6088.1305    8209.0162      7891.21   -321.24235    246.24862    32.871305   -4019.6646 
33586000    92.128154   -5053.7993   -4876.1224   -5053.7993            0     6960.854    19.659871    19.857484    20.408714    7967.4715    7082.3158    6505.1406    7295.1056    86.280665    939.09715    89.251408   -4067.2892 
33587000    90.461964   -5052.1707   -4877.7072   -5052.1707            0    6407.8112    19.769024    19.726297    20.468843    7982.2273    6908.2555    6084.7553    6230.4228    -60.49841    140.48898    249.25883   -4131.7572 
33588000    93.861692     -5048.81   -4867.7898     -5048.81            0    8247.3206    19.603632    19.736973    20.514349     7937.337    8442.8259     9089.676    7209.4599   -152.73254    345.72044   -37.325051   -3913.0972 
33589000    89.094555   -5066.6215   -4894.7952   -5066.6215            0    6972.6455    19.812857     19.71444    20.439192    7983.5358    5808.4545    8348.9579     6760.524   -181.53176   -284.74906    755.93168   -4082.9583 
33590000    92.984648   -5054.2298   -4874.9011   -5054.2298            0    7576.0605    19.713945    19.853176    20.327513    7955.8718    6786.1792     7432.926    8509.0762   -199.52006    213.27655    185.83189   -3995.8642 
33591000    94.249506   -5060.6805   -4878.9124   -5060.6805            0     7103.492    19.802304    19.849562    20.249044    7959.2324    6252.5802    6863.4449    8194.4509    547.50516    -339.2095   -152.74124   -4054.3586 
33592000    93.969579   -5054.8483     -4873.62   -5054.8483            0    7850.0071    19.681102    19.771419     20.39496    7936.1544    7535.0004    8626.4878    7388.5332   -377.33509      4.13842   -51.890242   -3965.0549 
33593000     97.41881   -5053.0202   -4865.1399   -5053.0202            0    7530.7263    19.726431    19.778028    20.423429     7968.199    8123.0587    8592.9967    5876.1235   -157.95575    189.95375    392.14432   -3990.0092 
33594000    93.863224   -5057.4635   -4876.4403   -5057.4635            0    6374.1731    19.839687    19.821739    20.349093    8002.4252     5412.439    6956.0668    6754.0136   -179.59863    174.23136    122.45312   -4132.5287 
33595000     90.56839   -5060.5273   -4885.8586   -5060.5273            0    7573.9006    19.705305    19.738592    20.415867    7940.8531    6787.6441    8042.1924    7891.8653   -184.43259    178.44774   -543.81673   -4008.7312 
33596000    98.995777   -5061.0854   -4870.1637   -5061.0854            0    6744.3668    19.578277     19.80404    20.568012    7974.8141    7698.1379    6915.1621    5619.8003   -380.67556    800.77865    85.053596   -4085.7636 
33597000    95.598306   -5057.0588   -4872.6895   -5057.0588            0      6582.88    19.822237    19.678499    20.426616    7967.8483    5224.0496    7187.4523    7337.1379   -228.27591     931.4873    11.412478   -4107.7398 
33598000    89.913457   -5047.4589   -4874.0532   -5047.4589            0    6497.8656    19.928446    19.633903    20.423839    7991.3001    5853.1613    7491.0436    6149.3919    556.71151    144.78513    -523.4715     -4116.76 
33599000    98.904621   -5065.5491   -4874.8032   -5065.5491            0    7476.3208     19.69048    19.787345    20.424184    7957.7175    7626.0187    7080.3135    7722.6301   -218.02797   -394.07759    7.0272954   -4007.1377 
33600000    92.084187   -5049.8812   -4872.2891   -5049.8812            0    7859.2343    19.769301    19.688517    20.432041    7952.7268    8066.7922    8536.5348     6974.376    -147.8532    885.12164    121.80564   -3960.7566 
33601000    87.885993   -5060.4654   -4890.9699   -5060.4654            0    5955.0404    19.792207    19.794982    20.443993    8009.6782    4764.5706    7092.6456     6007.905   -251.29659    966.71736   -269.60825   -4195.3441 
33602000    95.460113   -5059.7559    -4875.653   -5059.7559            0    6675.8557    19.842692    19.738462    20.424878    7999.6942      7127.91    6061.4777    6838.1793   -816.52546    253.17686   -982.67886   -4096.7988 
33603000    91.037369   -5042.6792    -4867.106   -5042.6792            0    6153.7743    19.685805    19.899712    20.402554    7992.5341    6136.4328    6208.5983    6116.2919   -740.60685    79.481183    131.54571   -4149.8041 
33604000      98.8512   -5058.0867   -4867.4438   -5058.0867            0    6527.8979    19.743745    19.805284    20.368288     7964.621    6029.0932    6603.1528    6951.4476    43.082096   -18.739623   -341.04574   -4109.1905 
33605000    95.944982   -5039.5504   -4854.5124   -5039.5504            0    7208.7119    19.833832    19.728906    20.322186    7952.0676    6879.2697     7569.524     7177.342   -245.68894   -606.52923   -58.619743   -4018.4983 
33606000    91.613004   -5059.1966   -4882.5132   -5059.1966            0    7071.2246    19.678202     19.76061    20.537071    7985.9073    7775.5776    6656.8287    6781.2676   -120.75121    1155.1601   -823.08864   -4058.9541 
33607000    94.159016   -5060.7889   -4879.1953   -5060.7889            0    5862.4583    19.694647    19.812725    20.558681    8022.0925    7197.3282    4672.9255    5717.1211   -673.83602   -88.061501   -595.17119   -4193.3229 
33608000    96.846206    -5050.985    -4864.209    -5050.985            0    6782.2208    19.739197    19.898741    20.288262    7968.9283    7010.1693    6134.5975    7201.8956   -113.39173     163.3551    -1149.833   -4075.9884 
33609000    92.861415   -5050.6342   -4871.5432   -5050.6342            0    6727.1743    19.706209    19.809944    20.398242    7963.0434    6489.7063    6324.1147     7367.702   -255.33203   -266.99657    645.55949   -4090.2974 
33610000    98.175179   -5054.5757   -4865.2366   -5054.5757            0    7298.2337    19.651299    19.855403    20.404507    7961.5212    7983.3175    7038.8887    6872.4949    95.437827   -307.20103    633.08566   -4017.8341 
33611000     97.60518   -5047.0001   -4858.7603   -5047.0001            0    7307.7236    19.775803    19.787265     20.27543    7933.9591    6437.6386    8333.1417    7152.3904   -409.45714   -1395.1513     380.4476   -4013.1935 
33612000    94.590997   -5045.7247    -4863.298   -5045.7247            0    7218.1691    19.608648    19.832609    20.386511    7928.1236    7922.2178    6807.6111    6924.6783   -216.64268    36.892707     1713.975   -4028.7076 
33613000    95.570685   -5072.8062   -4888.4901   -5072.8062            0    6127.9823    19.800526     19.74992    20.517447     8023.528    6693.4727    6109.0702    5581.4039    85.084756    299.65969   -765.13302   -4171.4247 
33614000    94.838138   -5053.5653    -4870.662   -5053.5653            0    5906.0345    19.762925    19.740872    20.543309    8014.7128    6031.7179    6143.1175     5543.268   -163.95482   -22.207476   -374.49131   -4180.3271 
33615000    91.330375   -5044.1469   -4868.0086   -5044.1469            0     7448.089    19.659365    19.832168    20.349389    7933.9789    7075.3459    7456.2866    7812.6344   -124.14746    368.47708    80.924837   -4006.1981 
33616000    86.722187   -5043.9133   -4876.6623   -5043.9133            0    7754.2243    19.556168    19.715939     20.50662    7906.7008    8214.2208    7519.5285    7528.9237   -272.73615    697.59294   -870.15488    -3982.514 
33617000    87.328025   -5052.1707   -4883.7513   -5052.1707            0    6970.8589    19.719581    19.818302    20.396391    7971.0853    7450.9278    6041.4455    7420.2034   -129.32714    -280.8504   -409.88868   -4073.3882 
33618000    91.498205   -5056.9304   -4880.4684   -5056.9304            0    6395.1767    19.800629    19.835422    20.322343     7981.678      6123.42    5535.9616    7526.1486   -548.26703   -184.03677   -99.317919   -4136.0405 
33619000    94.489868   -5062.5903   -4880.3586   -5062.5903            0    6853.5414      19.8419    19.693161    20.353872      7953.27    6557.1706    7588.2061    6415.2475   -15.929863    851.76322   -219.68653   -4085.4144 
33620000    94.000464   -5054.1258    -4872.838   -5054.1258            0    6125.2394     19.61195    19.863267    20.477602    7977.2012    6821.6177    5222.4843    6331.6161    82.585115   -311.70685   -452.96445   -4160.2319 
33621000    89.964943   -5061.8744   -4888.3695   -5061.8744            0    7458.4237     19.88741    19.691295    20.386728    7983.6237    6961.8978    7343.0165    8070.3569   -145.37831    1722.1043   -870.94855   -4019.9631 
33622000    98.182656   -5053.1428   -4863.7893   -5053.1428            0    7020.1909    19.698955    19.843753    20.414239    7979.9507     8142.363    6397.7491    6520.4606   -255.38428   -314.90378    494.31569   -4046.7837 
33623000    93.991655   -5053.1253   -4871.8544   -5053.1253            0    7587.7947    19.730811    19.810821    20.338727    7950.0743     8131.758    6794.3278    7837.2984   -315.35413    889.00797   -552.50246   -3992.0976 
33624000    94.870138   -5059.0787   -4876.1137   -5059.0787            0    5802.2732    19.801847    19.939928    20.298373      8014.76     5446.301    5604.8087      6355.71   -119.75185    321.52614    794.19657   -4197.9031 
33625000    97.641003   -5052.3544   -4864.0456   -5052.3544            0    7094.4387    19.702447    19.843014    20.389238    7971.2933    7879.6154    6618.5841    6785.1164    32.256059     266.1265    444.87509   -4039.2948 
33626000    89.510837    -5062.636   -4890.0068    -5062.636            0    6735.0794    19.786161    19.745474     20.51832    8016.2437    6913.5257    7246.5632    6045.1492    38.078353   -262.69053   -864.05629   -4102.6175 
33627000     99.13858    -5066.446   -4875.2489    -5066.446            0    6905.2755    19.734704    19.741806    20.458287    7970.5217    6035.8926    7424.1215    7255.8124   -196.72501   -362.47531    1229.2396   -4072.5667 
33628000     91.05447   -5048.7445   -4873.1383   -5048.7445            0    8138.8662    19.738202    19.682227    20.335319    7900.1042     8255.102    8045.4272    8116.0693    256.73163    1112.4485   -101.20748   -3935.4195 
33629000    101.38808   -5053.8227   -4858.2873   -5053.8227            0    6245.1047    19.724282    19.861707    20.370889     7980.457    6052.1351    6127.4071     6555.772   -261.57355   -334.18093     131.6788   -4131.4397 
33630000    87.353202   -5060.5522   -4892.0842   -5060.5522            0     6691.549    19.826166     19.69549    20.451732    7986.1164    5863.2854    7554.7838    6656.5779   -418.70494    565.88744    1044.6306   -4112.7241 
33631000    87.163104   -5059.1494    -4891.048   -5059.1494            0    6597.7939    19.747252    19.737094    20.533182    8002.8766     7118.065    5321.7188     7353.598   -475.89209   -883.07726   -252.12927   -4120.9948 
33632000    97.999972   -5051.0797   -4862.0785   -5051.0797            0     6654.949    19.703629    19.688591     20.54333    7969.5117    6761.9188      7393.51    5809.4184    246.95281    937.16936    20.653669   -4088.5927 
33633000     95.16328   -5042.9958   -4859.4654   -5042.9958            0    7838.5343    19.678249    19.812922    20.377951    7945.0287    9482.2361    6122.1113    7911.2555    203.67248    131.79169   -288.91441   -3951.2137 
33634000    90.444256   -5052.8696   -4878.4403   -5052.8696            0    7016.4879    19.803519    19.788341    20.331939    7967.6556    6544.4295    6871.4256    7633.6086    437.46764   -223.06881   -61.420086   -4063.1238 
33635000    92.915606   -5049.7138   -4870.5183   -5049.7138            0    8029.2011    19.931979    19.757429    20.152459    7936.1325    6305.1016    8047.8296    9734.6721   -280.88662     435.9123    667.97068   -3941.2157 
33636000    96.251306   -5054.8328   -4869.2041   -5054.8328            0    6682.7636    19.575222    19.776587    20.527831    7946.9613    7713.9533    5978.4581    6355.8793   -90.825951    -226.4096    238.51946   -4094.6833 
33637000    91.799693   -5057.2802   -4880.2368   -5057.2802            0    7374.2276    19.810326    19.741206    20.366102    7964.7695    5794.0165    7542.5354    8786.1309    149.93924    515.40861   -289.40762   -4023.6613 
33638000    94.481707   -5059.1397   -4876.9237   -5059.1397            0    7577.3867     19.69134    19.782268    20.447236    7965.0033    7427.4987     8218.497    7086.1642    145.91152   -224.32439    595.85418   -3996.7239 
33639000    87.342364   -5061.4859   -4893.0388   -5061.4859            0    6198.7328    19.812703    19.699969    20.493495    7998.8087    6060.9226    6813.0899     5722.186   -415.66823    430.60054     207.2668   -4169.9292 
33640000    97.573817   -5056.8458   -4868.6664   -5056.8458            0    7211.5584    19.635297    19.839732    20.417065     7953.652     8740.755    5373.4815    7520.4387   -188.14109    380.50761    41.559679   -4032.1556 
33641000     93.12731   -5059.5642   -4879.9603   -5059.5642            0    6581.1065    19.705276    19.873935    20.459363    8012.3243    8408.0688    4816.7109    6518.5398    73.110201   -75.511752   -484.73975   -4110.9479 
33642000    93.376402   -5056.7383   -4876.6541   -5056.7383            0    7383.3104    19.862111    19.747464    20.366292    7988.1954    6792.8108    7829.7304      7527.39    -388.1233   -722.83848    407.06389   -4016.5011 
33643000    88.850223   -5051.2889   -4879.9338   -5051.2889            0     7364.218    19.651445    19.861951    20.416509    7968.8908    7836.4466    6514.9726    7741.2349    25.877847    878.25933    133.86787   -4024.0784 
33644000    95.031989   -5060.0615   -4876.7843   -5060.0615            0    6535.0215    19.853152    19.764809    20.379018    7996.5996    6327.9408    5969.6242    7307.4994   -148.84218    490.38863    449.98319   -4114.6557 
33645000    91.829187   -5056.3258   -4879.2255   -5056.3258            0    6619.1863    19.844519    19.793937    20.378577    8004.7286    6827.8633    6264.9159    6764.7796   -488.45768    710.98729   -183.26397   -4106.4967 
33646000    94.152365    -5066.292   -4884.7113    -5066.292            0     6115.441    19.697335    19.819907    20.462197    7988.4282    6286.6621    6260.1768    5799.4841   -52.410547     186.0162   -151.96768   -4172.2439 
33647000    89.810179   -5055.2791   -4882.0727   -5055.2791            0    7359.6475    19.743412    19.813141    20.337166    7955.4724     6581.385    7608.1012    7889.4563   -102.24812   -221.84205    924.01275   -4028.1887 
33648000    92.134636     -5058.65   -4880.9606     -5058.65            0    6891.9064    19.750166    19.869207    20.310039    7970.0685     6918.301    6326.5752    7430.8429    31.652988    266.30938    25.913798   -4079.8779 
33649000     95.43045   -5050.4303   -4866.3846   -5050.4303            0    6387.7538    19.751629    19.766193    20.404223    7966.1044    5172.1963    7098.2011    6892.8639   -103.48762    349.39622     1282.951   -4124.2716 
33650000    92.700381   -5058.5835    -4879.803   -5058.5835            0    6195.4706    19.833259    19.763998    20.394024    7994.1412    6925.0064     5609.352    6052.0533   -244.48563   -26.521728    1147.1242   -4157.4957 
33651000    98.784908   -5053.9765   -4863.4615   -5053.9765            0    6572.8608    19.663741    19.750345     20.55698    7983.6252    7477.7001    7261.9085    4978.9737    -206.6849    228.02733    1138.7148   -4098.1637 
33652000    97.912486   -5055.9256   -4867.0931   -5055.9256            0    7740.9563    19.717798    19.694858    20.534221     7974.244    7230.2238    8237.8534    7754.7918    85.313023    192.20162    1031.4434   -3966.8496 
33653000    93.254404   -5053.5215   -4873.6725   -5053.5215            0    7660.9047    19.789668    19.709274    20.405584    7958.9935    8360.0879    6866.7007    7755.9255   -586.69704     579.7623   -878.49873   -3984.4425 
33654000    98.068188   -5060.9892   -4871.8565   -5060.9892            0    6931.5829      19.7482      19.7135    20.361633    7926.9084    6179.6043    8048.0766    6567.0679   -384.05465   -375.17526     554.9793   -4070.5251 
33655000      93.8077   -5061.4776   -4880.5616   -5061.4776            0    6649.0241    19.892016    19.776635    20.350785    8005.9403    7028.7275    6675.3729    6242.9719    330.70188    109.44361   -8.5894339    -4104.232 
33656000    90.367247   -5058.9089    -4884.628   -5058.9089            0    6378.5506    19.666158    19.879663    20.410319    7979.5486    5610.9783    6203.2192    7321.4543   -192.87987    222.39732    794.56818   -4142.3336 
33657000    94.394229   -5056.2311   -4874.1839   -5056.2311            0    6822.3122    19.796709    19.756145     20.47566    8008.1669    7561.3751    6191.6099    6713.9517    261.35971   -496.37404    591.54732      -4077.4 
33658000    89.977333   -5060.5414   -4887.0125   -5060.5414            0    6319.7724    19.747663        19.79    20.443046    7989.2702    6243.2079    6322.0091    6394.1004   -440.72894    270.32141    417.48964   -4150.6623 
33659000    92.613215   -5061.9194    -4883.307   -5061.9194            0    5513.9238    19.805146    19.787052     20.40292    7995.6079    5135.5342    6042.9158    5363.3214   -246.86826    248.21414   -94.003433   -4240.3408 
33660000    96.445046   -5057.2664    -4871.264   -5057.2664            0    7685.3561    19.928801     19.70104    20.281603    7962.9247    7733.5683    7334.0101    7988.4899    662.57262   -529.27654    196.41464   -3978.7552 
33661000    90.970441   -5053.6577   -4878.2136   -5053.6577            0    8252.0488    19.688328    19.765018    20.418225    7945.5516    8491.7151    8141.5224    8122.9088   -341.00341    995.32156    279.17762    -3921.985 
33662000    94.184682   -5056.7612   -4875.1181   -5056.7612            0    6403.3191    19.772164    19.712393    20.547999    8008.7195    5989.8973    7397.9006    5822.1595   -183.38749    265.41736   -638.85633   -4127.2171 
33663000    94.729701   -5054.2673   -4871.5731   -5054.2673            0    7030.7439     19.78575    19.694084    20.457188    7971.3935    6827.6285    7695.4181    6569.1851   -278.34488    574.15078    979.12311   -4054.2168 
33664000     91.02992   -5055.9939   -4880.4351   -5055.9939            0    7619.0425    19.718218    19.799413    20.363759    7950.1976    6011.5719    9006.4844    7839.0713   -262.60399    1155.3742   -1453.6933   -3997.0415 
33665000    93.976122   -5057.0045   -4875.7636   -5057.0045            0    7117.6712    19.788955    19.835229    20.310925     7972.413    6860.1892    7275.0553    7217.7692    232.36613    69.501184    -6.861171   -4048.1958 
33666000    95.931186   -5048.6427   -4863.6313   -5048.6427            0    6987.8254     19.57733     19.89732    20.356766    7929.7011    7879.4654    5726.5935    7357.4172   -46.024833    188.21114    550.24733   -4055.5134 
33667000    95.395397   -5057.1049   -4873.1269   -5057.1049            0     7264.731    19.833663     19.75967    20.334137    7969.0832    6940.6243    7987.3481    6866.2208    193.97325    213.84916    239.87283   -4028.8133 
33668000    96.393252   -5045.9673   -4860.0648   -5045.9673            0    7441.1441    19.823641    19.618504    20.484586     7966.664     8101.536    8069.5154    6152.3808    35.802043   -200.02655    862.53973   -3995.5109 
33669000    100.11693    -5055.509   -4862.4251    -5055.509            0    6194.0619    19.725317    19.850852    20.370865    7976.5047    6089.3621    5917.1673    6575.6564    109.19123    722.00113   -30.573468   -4141.8752 
33670000    90.911182   -5049.6373   -4874.3075   -5049.6373            0    7350.4683    19.902831    19.834348    20.242946    7991.0988    5871.2561    7994.5393    8185.6096   -542.90442     51.42272    669.52727   -4017.6693 
33671000     93.31224   -5050.1401   -4870.1796   -5050.1401            0    6301.8051    19.859594    19.782928    20.347243    7994.0434    6017.5985    5924.6433    6963.1734    70.940988    331.87138    1133.4565   -4135.4842 
33672000    85.917213   -5045.3078   -4879.6092   -5045.3078            0    7214.9414    19.738621    19.684663    20.535268    7978.9393    7731.7396    7223.2031    6689.8814    295.01165    872.86865   -887.04962   -4040.0451 
33673000    90.159296   -5055.5638    -4881.684   -5055.5638            0    7550.1858    19.681114    19.779203    20.415204    7947.1643    7224.3092    7798.1833    7628.0649   -301.23653    159.15197    563.50729   -4006.6081 
33674000    94.455241   -5049.7834   -4867.6186   -5049.7834            0     8178.482    19.879144     19.75664      20.1775    7924.6145    6545.1025    9061.6051    8928.7385   -325.55482    1477.2156    241.52351    -3922.412 
33675000    96.452887   -5060.3974   -4874.3799   -5060.3974            0    7796.0841    19.816791    19.815264    20.218224    7939.1899    7112.7877    7833.2679    8442.1968   -178.44402     483.2593   -384.29637   -3971.7108 
33676000    90.324871   -5057.9388   -4883.7397   -5057.9388            0    6154.8902    19.734866    19.863123    20.322706    7966.4208    5488.9647    6337.7536    6637.9524   -540.25266   -71.776521    697.22024   -4168.6518 
33677000     96.06683    -5057.763     -4872.49    -5057.763            0    6222.9156     19.75194    19.872912     20.33968    7983.9055    5928.4412    6530.8799    6209.4257    404.52519     412.1505    -212.8685    -4147.912 
33678000    90.759143   -5046.8771   -4871.8404   -5046.8771            0    7330.5991    19.855165    19.659643    20.355053    7945.5026    8005.2196    6229.8608    7756.7169     23.97066    156.61589    53.407796   -4022.3925 
33679000    97.133802   -5055.8942   -4868.5635   -5055.8942            0     7026.268    19.816753     19.69089    20.497399    7998.2798    6451.3161    8320.6785    6306.8096   -32.163355    1108.4991   -64.440534   -4048.9724 
33680000    96.569698   -5057.7852   -4871.5424   -5057.7852            0    5946.6014    19.799838     19.67856    20.498942    7987.0498    5571.4609    7031.5156    5236.8278   -144.24578     1183.239    74.363522   -4178.8649 
33681000    90.372482   -5051.4283   -4877.1373   -5051.4283            0    6789.2759      19.6464    19.781148    20.502931    7968.0201    8434.3695    6039.2613    5894.1967   -18.578027     315.5864   -404.31604   -4088.1868 
33682000    90.791189    -5046.803   -4871.7046    -5046.803            0    6799.3709    19.790994    19.681624    20.416163    7952.4812    5844.7608    7897.7167    6655.6352   -126.43611   -416.53668    114.96674   -4083.1218 
33683000    93.085331    -5065.401   -4885.8781    -5065.401            0    6993.2845    19.804716    19.794037      20.3344    7971.3954    7047.0376    7626.9013    6305.9146   -178.12901    764.61208   -223.07377   -4072.8765 
33684000    92.456783   -5062.6707     -4884.36   -5062.6707            0    7057.0432    19.776371    19.826342    20.298826    7959.0294    6842.7939    6866.3085    7462.0274    -200.6178    -20.26905    241.82367   -4065.2188 
33685000    95.055955   -5049.9056   -4866.5822   -5049.9056            0    6867.8843    19.673162    19.770077    20.490648    7969.6309    6639.9488    7454.5321     6509.172   -481.03236    774.16962    220.13748   -4068.3356 
33686000    94.093529   -5042.8021   -4861.3348   -5042.8021            0     8348.736     19.59699    19.807887    20.424345    7928.2194    9426.4405    7953.2218    7666.5458    519.74923    -307.1723   -128.34981   -3896.0126 
33687000    92.204366   -5059.3546   -4881.5307   -5059.3546            0    6946.5051    19.791071    19.751138    20.397713     7973.388    6856.1546    7178.2295    6805.1314     222.2795    160.93755   -349.44131   -4073.7655 
33688000    93.624406   -5052.4349   -4871.8724   -5052.4349            0    7093.2723    19.792702    19.869913    20.298544    7982.9965    8337.8382    5134.6348    7807.3439   -146.46274   -70.327002    514.47077   -4046.0466 
33689000    91.890499   -5061.0146    -4883.796   -5061.0146            0    7299.3189    19.696182    19.800157    20.450501    7975.4396    8308.4183    6398.8748    7190.6636    89.569326   -447.63697   -534.62645   -4034.7859 
33690000    95.039773   -5043.7456   -4860.4534   -5043.7456            0    6800.0243    19.715083    19.711686    20.538728    7981.7096    6005.6952    8352.5759    6041.8017    99.843549    345.44995   -264.58546   -4068.8963 
33691000    94.817072     -5062.08   -4879.2173     -5062.08            0    5697.2782    19.747976    19.763345     20.56288    8025.4052    5288.5362    6450.2886    5353.0097   -300.78042   -524.44692    652.24487   -4212.3947 
33692000    94.650774   -5053.3644   -4870.8225   -5053.3644            0    6717.2256    19.740538    19.729305     20.45173    7965.2759    6498.0998    7701.8857    5951.6914     17.34989    1025.4435   -417.06948   -4090.5134 
33693000    94.186084   -5052.1845   -4870.5388   -5052.1845            0    7733.2384    19.698999    19.735564    20.491418    7966.4661     9813.297    6166.1984    7220.2199   -44.878808   -224.05936   -157.82806     -3972.07 
33694000    98.406034   -5052.2315   -4862.4472   -5052.2315            0    7282.0212     19.82305    19.822632    20.273404    7966.3335    8062.3612    5544.0442    8239.6582   -582.40502   -348.99774    694.76463   -4016.4161 
33695000    97.168789   -5055.0724   -4867.6743   -5055.0724            0    8551.4853    19.684988    19.722014    20.404157    7921.4569    7754.9485    9150.4256    8749.0817   -257.03691    911.56908    1313.1216   -3879.7526 
33696000    96.149328    -5062.217   -4876.7849    -5062.217            0    7038.3721      19.6768    19.810168     20.50346    7992.2637    8535.2619    6170.1474     6409.707    -594.4497   -1111.9543    264.51802   -4056.3996 
33697000    95.473968   -5058.5455   -4874.4159   -5058.5455            0    6500.2914    19.721088    19.787113     20.45175    7980.7513    5704.3392    7721.3288    6075.2061   -226.38222     -509.084     1132.151     -4117.84 
33698000    91.694037   -5056.9123   -4880.0727   -5056.9123            0    5531.8985    19.797896    19.954828    20.469923    8086.9216    5983.7182    4886.2637    5725.7136    3.5080991    251.64032    29.830607   -4227.6436 
33699000    95.213712   -5048.3692   -4864.7415   -5048.3692            0    7511.4391    19.643109    19.880701    20.442426    7983.1511    8391.6476    6347.9917    7794.6782   -327.82842    -1028.888   -496.57656   -3990.2142 
33700000    93.750548    -5060.781   -4879.9752    -5060.781            0    7003.5914    19.912952     19.73116    20.325847    7986.1401    6475.4648    7859.1415    6676.1679   -352.30157    409.47785   -623.82835   -4064.2693 
33701000     93.47533   -5051.6443   -4871.3693   -5051.6443            0    7947.0797    19.556063    19.801593    20.448737    7918.5937    8468.5176    8091.3659    7281.3555    8.1555386    636.88249   -16.898475   -3953.6042 
33702000    94.258654   -5057.3197   -4875.5339   -5057.3197            0    6460.8825    19.799543    19.851352    20.370359    8006.5227    5626.0008    6335.1636     7421.483    147.18844    187.96881   -712.53217   -4121.1166 
33703000    89.119291    -5057.578    -4885.704    -5057.578            0    6753.8861    19.707771    19.845723    20.462676    8003.2587    8521.5663    6084.0401    5656.0518    673.01893    1181.3759   -266.55332    -4097.395 
33704000    89.326883   -5052.1766   -4879.9022   -5052.1766            0      6914.53    19.758443      19.7926    20.356609    7960.8785     7121.462    6723.3338    6898.7942   -59.841731    1557.9689   -26.198734   -4077.1167 
33705000    93.024641   -5065.5619    -4886.156   -5065.5619            0    7475.7612    19.808627    19.792812    20.329519    7970.5625    7878.5338    7035.2843    7513.4655    77.659964    209.25658    479.12435    -4017.155 
33706000    91.264811   -5064.7388   -4888.7269   -5064.7388            0    5632.8099    19.868229    19.734416    20.440954    8014.6503    5134.0827     5970.615    5793.7319    274.05491    284.43577    65.688854   -4230.3334 
33707000    94.624052   -5058.1279   -4875.6375   -5058.1279            0    6693.3254    19.737699    19.756898    20.462964    7979.6494    6415.7983     7287.215    6376.9629    254.83849    115.98874   -244.75444   -4096.7017 
33708000    91.268739   -5045.2405   -4869.2211   -5045.2405            0    7246.9232    19.653445    19.834134    20.405229     7954.143     6829.363    7427.0077     7484.399    120.42216    231.39168   -891.96284   -4028.5561 
33709000    95.007682    -5053.596   -4870.3657    -5053.596            0    7324.4086    19.636279    19.853848    20.349811    7933.4899    6683.9475    7185.8974    8103.3811    687.13314    665.59878    162.52077   -4022.9184 
33710000    99.499845   -5052.4743   -4860.5805   -5052.4743            0    7011.4969    19.760125    19.836649    20.293277    7954.4504     8261.523     5537.738    7235.2296   -403.10765     -471.734   -460.48575   -4047.1942 
33711000    96.747172   -5055.7135   -4869.1284   -5055.7135            0    6113.7589    19.685889    19.956637    20.233422    7948.9859     5600.438    5349.9564    7390.8824    130.95154   -152.01298     226.2103   -4160.3737 
33712000    91.906745   -5046.6477   -4869.3978   -5046.6477            0    8144.5291    19.792545     19.63168    20.456555    7948.6175    6955.1712    8956.0554    8522.3605   -503.41231    295.55826    457.10885   -3925.2642 
33713000     96.95242   -5057.0966   -4870.1157   -5057.0966            0    6640.1188    19.761988    19.685109    20.641918    8030.0544    6314.5212    7829.9096    5775.9257    18.727242    646.41991    654.97158   -4092.4907 
33714000    98.132864   -5066.1969   -4876.9395   -5066.1969            0    4827.2461    19.868381    19.736251    20.517891    8045.6262    4869.8222    4968.3624    4643.5536    177.64904   -194.90915   -261.42447   -4310.5239 
33715000    93.812806   -5069.3357   -4888.4098   -5069.3357            0    7400.3059    19.837056    19.678207    20.383226    7956.7493    7171.4422    7428.8658    7600.6099   -213.66436   -1029.5513    143.10357   -4029.6707 
33716000    90.679446   -5050.8582   -4875.9752   -5050.8582            0    7888.9367    19.702828    19.768102    20.377764    7936.8847    8988.5395    6950.1625    7728.1083   -172.03751    1027.3373   -1022.4993   -3962.8204 
33717000    90.890718   -5064.5558   -4889.2654   -5064.5558            0    6180.0893    19.734647    19.840683    20.384106    7981.3736    6880.4797     5651.551    6008.2374    151.38755    509.66444   -465.83803   -4169.9021 
33718000    97.192198    -5053.476   -4866.0327    -5053.476            0    5977.0027    19.733254    19.820626    20.373365    7968.5415    5756.3553    5929.1208    6245.5321    166.30539    448.89998    787.59101   -4171.4273 
33719000    91.913883   -5047.7868   -4870.5232   -5047.7868            0    5964.6833    19.695097    19.717223    20.531682    7973.1219    4785.3226    7721.8567    5386.8707   -528.57775    1293.5521     274.6661    -4176.951 
33720000    94.454379   -5066.7534   -4884.5902   -5066.7534            0    7294.2747    19.835605    19.688706    20.384025     7960.724    8198.9931    6199.7565    7484.0745   -209.07792    325.37818    717.30919   -4037.7322 
33721000    94.131645   -5054.8846   -4873.3438   -5054.8846            0    7431.4427    19.591384    19.793319    20.434538     7924.075    7211.9261    7994.0443    7088.3575    261.89858   -219.17642   -212.45635   -4014.5328 
33722000    91.904681   -5062.5005   -4885.2546   -5062.5005            0    5680.1787    19.838851    19.685395    20.491149    8002.5236    5426.6068    5718.7744    5895.1548    66.116108    616.67575   -418.62903   -4222.3289 
33723000    91.559739   -5056.5075   -4879.9268   -5056.5075            0    7165.1722    19.844555    19.649092     20.45436    7975.7169    8051.9778    6731.0906     6712.448    273.68228    368.91661   -1018.7136   -4046.4908 
33724000    96.287043   -5058.2566    -4872.559   -5058.2566            0    7369.7094    19.765152    19.857913    20.236001    7942.5222    8088.2705    6572.0305    7448.8274    25.556161    177.45345    308.62571   -4018.8994 
33725000    88.397479   -5050.5398   -4880.0578   -5050.5398            0    7426.1052    19.660536    19.790727    20.421141    7945.7906    7532.6264    7491.5657    7254.1235   -30.553214   -72.227511    -259.5007   -4019.5118 
33726000    91.949014   -5051.3259   -4873.9945   -5051.3259            0     6379.451    19.748201    19.899027    20.310318    7981.3455    5521.1369    6641.8467    6975.3695    -481.1994   -484.21221    925.50095   -4131.4281 
33727000    102.95623   -5050.5487    -4851.989   -5050.5487            0    7321.3227    19.753297    19.755589    20.430755    7972.8573      7528.27    7833.4459    6602.2523   -273.81698    1216.2219   -161.94955   -4000.6952 
33728000    90.704409   -5044.3819   -4869.4508   -5044.3819            0    6331.6146    19.630048    19.859798    20.510695    7996.0693     7690.822    5381.3627     5922.659    22.198905   -121.36745    3.5472259   -4131.0929 
33729000    97.672041   -5058.6967   -4870.3279   -5058.6967            0    6874.1917    19.712183    19.847776    20.407787    7984.4032    7869.0658    5846.4137    6907.0956   -175.23113   -1289.4031    55.978724   -4069.8673 
33730000    95.539562    -5043.899    -4859.643    -5043.899            0    7202.5743    19.713173    19.906607     20.27419    7956.0461    7697.9135    6488.7222    7421.0871   -267.93081    29.324379    85.958014   -4023.9227 
33731000    94.634829   -5051.9339   -4869.4226   -5051.9339            0    5874.6457    19.827756    19.794403     20.37757    7997.7602    6676.1421    4790.3507    6157.4441   -446.71016   -432.63444    -243.7065   -4184.2091 
33732000    94.472361   -5057.3925   -4875.1946   -5057.3925            0    5980.8458    19.836745    19.758467    20.398054    7994.8879    4157.7974    7670.0055    6114.7344   -83.746531    776.70539    805.71862   -4177.8445 
33733000    94.768696   -5064.3071   -4881.5377   -5064.3071            0    6486.2658    19.739638      19.6775    20.565975    7988.3745       6625.3    6801.1035    6032.3938    87.013906    1056.0524   -10.268143   -4125.8732 
33734000    95.425079   -5055.0899   -4871.0546   -5055.0899            0    6633.3192    19.754037    19.827375    20.426584    8000.4944    6713.8496    6564.9522    6621.1556   -90.807489   -37.481173    1070.9271   -4097.0855 
33735000    91.786053   -5060.1115   -4883.0944   -5060.1115            0    6440.5931    19.802658    19.744562    20.401225    7976.7729    5608.1974    6993.2643    6720.3177    -306.8012   -120.81987     278.5335   -4133.8405 
33736000    90.086224   -5059.7178    -4885.979   -5059.7178            0    6304.0609     19.75072    19.969243    20.381668    8038.6714    6966.2322    5408.4386     6537.512    14.031971   -110.47082    245.40217   -4146.9175 
33737000    96.967726   -5059.7713   -4872.7609   -5059.7713            0    6764.5447    19.708427    19.737906    20.450313    7955.2346    7373.3703    6656.5318    6263.7319   -649.64398    733.59336   -339.46787   -4087.9456 
33738000    92.772346   -5048.4378   -4869.5185   -5048.4378            0    7480.6755    19.719562    19.894676    20.357161    7986.4048    7800.8378    6835.3584    7805.8302    83.069285    258.19751   -618.35958   -3998.2179 
33739000    92.675924   -5050.4811   -4871.7478   -5050.4811            0    7915.0623    19.799524     19.77773    20.309564    7953.0147    7864.0284    7857.4009    8023.7574   -237.52798   -498.15461   -539.76056    -3953.707 
33740000     95.39002    -5052.823   -4868.8553    -5052.823            0    6240.2273    19.577255    19.865819    20.461667    7957.9147    7408.9765    5639.5332    5672.1723    201.34181    193.49433    311.85016   -4144.6269 
33741000    95.826929    -5060.173   -4875.3627    -5060.173            0    6654.7225    19.624716    19.724145    20.468525    7922.9719    7455.8886     5634.592    6873.6868   -268.69863     534.3293   -305.84002     -4106.42 
33742000    94.916859   -5052.0919   -4869.0368   -5052.0919            0    8507.6586    19.661694    19.635401    20.499218    7914.0355    8844.6663    9385.4753    7292.8341   -40.166099   -16.158612    1008.3724   -3887.0991 
33743000    94.012611   -5054.6256   -4873.3144   -5054.6256            0    5429.3583    19.891362     19.76039     20.39771    8017.5458    4700.7226    5782.2145    5805.1379   -374.09719   -602.75058    208.58777   -4238.4721 
33744000    98.050875   -5059.4386   -4870.3392   -5059.4386            0    5874.6854    19.902056    19.748907    20.341773     7995.209    5162.8409    6586.5783     5874.637   -389.80824    6.9643423    298.29797   -4185.3396 
33745000    101.77494   -5057.4413   -4861.1598   -5057.4413            0    6392.2205     19.76874    19.777756    20.450856    7995.9025    5899.5938    7852.9526    5424.1151     194.7761    242.57911    1285.3055   -4115.7499 
33746000    95.527127   -5051.1794   -4866.9473   -5051.1794            0    7376.3477    19.746598    19.804794    20.401802    7978.6817    6740.1378    7908.2997    7480.6058   -148.91291   -238.60176   -59.750552   -4008.6289 
33747000    94.697296   -5060.4755   -4877.8438   -5060.4755            0    6421.7159    19.739024    19.764344      20.4678    7985.0793    5460.1041    7419.3359    6385.7079   -391.75687    40.527478   -62.694323    -4130.008 
33748000    94.171908   -5049.6917   -4868.0732   -5049.6917            0    6234.0782    19.694855    19.909434    20.399346    7998.8573    7514.0288    4434.8999    6753.3059   -62.163243     843.4453   -216.64987    -4140.836 
33749000    89.123797   -5053.5259   -4881.6432   -5053.5259            0    7141.6147    20.033422    19.612179    20.294158    7973.5557    6329.8759     7494.925    7600.0431   -55.058608   -678.39899   -623.30229   -4051.1724 
33750000    96.508441   -5048.2699   -4862.1452   -5048.2699            0    6892.7368    19.667753    19.900616    20.411724    7989.1568    6824.8677    6340.5289    7512.8138   -438.13362    1521.7444    448.38358   -4059.0473 
Loop time of 414.646 on 64 procs for 250000 steps with 972 atoms

Performance: 104.185 ns/day, 0.230 hours/ns, 602.923 timesteps/s
194.1% CPU use with 32 MPI tasks x 2 OpenMP threads

MPI task timing breakdown:
Section |  min time  |  avg time  |  max time  |%varavg| %total
---------------------------------------------------------------
Pair    | 27.626     | 35.977     | 43.881     |  70.2 |  8.68
Bond    | 0.9813     | 1.2079     | 1.5123     |  11.3 |  0.29
Kspace  | 181.11     | 192.69     | 204.83     |  38.8 | 46.47
Neigh   | 0.46832    | 0.52324    | 0.57663    |   6.0 |  0.13
Comm    | 71.115     | 78.062     | 84.615     |  41.7 | 18.83
Output  | 0.60271    | 0.60316    | 0.60487    |   0.0 |  0.15
Modify  | 84.42      | 87.259     | 89.716     |  17.3 | 21.04
Other   |            | 18.33      |            |       |  4.42

Nlocal:        30.3750 ave          38 max          26 min
Histogram: 7 6 3 2 3 6 1 1 1 2
Nghost:        2694.75 ave        2720 max        2664 min
Histogram: 1 1 3 5 3 5 5 2 5 2
Neighs:        9830.47 ave       12270 max        7913 min
Histogram: 3 7 2 3 2 6 2 3 2 2

Total # of neighbors = 314575
Ave neighs/atom = 323.63683
Ave special neighs/atom = 2.0000000
Neighbor list builds = 1219
Dangerous builds = 0

unfix		3
unfix		2
unfix		1

write_data	data.final.${pid}
write_data	data.final.1
System init for write_data ...
PPPM initialization ...
  extracting TIP4P info from pair style
  using 12-bit tables for long-range coulomb (../kspace.cpp:340)
  G vector (1/distance) = 0.37233416
  grid = 24 24 24
  stencil order = 5
  estimated absolute RMS force accuracy = 0.0034906687
  estimated relative force accuracy = 1.0512045e-05
  using double precision FFTW3
  3d grid and FFT values/proc = 3211 432
Last active /omp style is kspace_style pppm/tip4p/omp
WARNING: Not all mixed pair coeffs generated from mixing. Use write_data with 'pair ij' option to store all pair coeffs. (../write_data.cpp:312)

write_restart   restart.lmp.${pid}
write_restart   restart.lmp.1
System init for write_restart ...
PPPM initialization ...
  extracting TIP4P info from pair style
  using 12-bit tables for long-range coulomb (../kspace.cpp:340)
  G vector (1/distance) = 0.37233416
  grid = 24 24 24
  stencil order = 5
  estimated absolute RMS force accuracy = 0.0034906687
  estimated relative force accuracy = 1.0512045e-05
  using double precision FFTW3
  3d grid and FFT values/proc = 3211 432
Last active /omp style is kspace_style pppm/tip4p/omp
Total wall time: 0:06:54
