LAMMPS (30 Jul 2021)
  using 1 OpenMP thread(s) per MPI task
package omp 0
using multi-threaded neighbor list subroutines
echo both

include		in.partitions
variable        pid world 0
include		in.temp
variable        temperature equal 224.84
variable	tempDamp equal 100.0
include		in.pressure
variable        pressure equal 2500.0
variable        pressureDamp equal 1000.0 # This is 1 ps
include		in.seed
variable        seed world 745823

units		real
atom_style	full
read_restart    restart.lmp.${pid}
read_restart    restart.lmp.0
Reading restart file ...
  restart file = 30 Jul 2021, LAMMPS = 30 Jul 2021
  restoring atom style full from restart
  triclinic box = (-3.2823804 -0.098774070 -0.27509375) to (14.892379 22.678773 19.505092) with tilt (0.050932059 -6.8558192 -0.10641091)
  4 by 4 by 4 MPI processor grid
  restoring pair style lj/cut/tip4p/long/omp from restart
  restoring bond style harmonic/omp from restart
  restoring angle style harmonic/omp from restart
  1008 atoms
  672 bonds
  336 angles
Finding 1-2 1-3 1-4 neighbors ...
  special bond factors lj:    0        0        0       
  special bond factors coul:  0        0        0       
     2 = max # of 1-2 neighbors
     1 = max # of 1-3 neighbors
     1 = max # of 1-4 neighbors
     2 = max # of special neighbors
  special bonds CPU = 0.837 seconds
  read_restart CPU = 1.042 seconds

include 	in.setup
variable	out_freq equal 1000
variable	out_freq2 equal 10000
variable	out_freq3 equal 1000

timestep	2.0

neigh_modify    delay 7 every 1

include		in.tip4p
# This is TIP4P/Ice

# create groups ###
group ox type 2
336 atoms in group ox
group hy type 1
672 atoms in group hy

# set charges - beside manually ###
set group ox charge -1.1794
Setting atom values ...
  336 settings made for charge
set group hy charge 0.5897
Setting atom values ...
  672 settings made for charge

# ### TIP3P Potential Parameters ###
pair_style lj/cut/tip4p/long/omp 2 1 1 1 0.1577 8.5
pair_coeff 1 1*2 0.000 0.000
pair_coeff 2 2 0.21084 3.1668
bond_style  harmonic
bond_coeff  1 450 0.9572
angle_style harmonic
angle_coeff 1 55 104.52
kspace_style pppm/tip4p/omp 1.0e-5
pair_modify tail yes

thermo          ${out_freq}
thermo          1000
thermo_style    custom step temp pe etotal epair emol press lx ly lz vol pxx pyy pzz pxy pxz pyz enthalpy

restart 	${out_freq3} restart.lmp.${pid} restart2.lmp.${pid}
restart 	1000 restart.lmp.${pid} restart2.lmp.${pid}
restart 	1000 restart.lmp.0 restart2.lmp.${pid}
restart 	1000 restart.lmp.0 restart2.lmp.0


include         in.dump
dump            myDump all atom ${out_freq2} dump.water.${pid}
dump            myDump all atom 10000 dump.water.${pid}
dump            myDump all atom 10000 dump.water.0
dump            myDump2 all dcd ${out_freq2} dump.dcd
dump            myDump2 all dcd 10000 dump.dcd
dump_modify     myDump append yes
dump_modify     myDump2 append yes


variable natoms 	equal  "count(all)"                        # NUMBER ATOMS
variable H      	equal  "enthalpy/v_natoms"                 # ENTHALPY-per-atom
variable Vol      	equal  "vol/v_natoms"                 # volume-per-atom
fix AVG all 		ave/time ${out_freq} 1 ${out_freq} v_Vol v_H file vol_enthalpy.dat
fix AVG all 		ave/time 1000 1 ${out_freq} v_Vol v_H file vol_enthalpy.dat
fix AVG all 		ave/time 1000 1 1000 v_Vol v_H file vol_enthalpy.dat



fix 		1 all shake 1e-6 200 0 b 1 a 1
       0 = # of size 2 clusters
       0 = # of size 3 clusters
       0 = # of size 4 clusters
     336 = # of frozen angles
  find clusters CPU = 0.001 seconds
fix             2 all nph tri ${pressure} ${pressure} ${pressureDamp}
fix             2 all nph tri 2500 ${pressure} ${pressureDamp}
fix             2 all nph tri 2500 2500 ${pressureDamp}
fix             2 all nph tri 2500 2500 1000
fix             3 all temp/csvr ${temperature} ${temperature} ${tempDamp} ${seed}
fix             3 all temp/csvr 224.84 ${temperature} ${tempDamp} ${seed}
fix             3 all temp/csvr 224.84 224.84 ${tempDamp} ${seed}
fix             3 all temp/csvr 224.84 224.84 100 ${seed}
fix             3 all temp/csvr 224.84 224.84 100 745823


run             250000
PPPM initialization ...
  extracting TIP4P info from pair style
  using 12-bit tables for long-range coulomb (../kspace.cpp:340)
  G vector (1/distance) = 0.37839078
  grid = 24 27 36
  stencil order = 5
  estimated absolute RMS force accuracy = 0.0025287056
  estimated relative force accuracy = 7.6151218e-06
  using double precision FFTW3
  3d grid and FFT values/proc = 4050 480
Last active /omp style is kspace_style pppm/tip4p/omp
Neighbor list info ...
  update every 1 steps, delay 7 steps, check yes
  max neighbors/atom: 2000, page size: 100000
  master list distance cutoff = 10.8154
  ghost atom cutoff = 10.8154
  binsize = 5.4077, bins = 5 5 4
  1 neighbor lists, perpetual/occasional/extra = 1 0 0
  (1) pair lj/cut/tip4p/long/omp, perpetual
      attributes: half, newton on, omp
      pair build: half/bin/newton/tri/omp
      stencil: half/bin/3d/tri
      bin: standard
Per MPI rank memory allocation (min/avg/max) = 9.327 | 9.338 | 9.353 Mbytes
Step Temp PotEng TotEng E_pair E_mol Press Lx Ly Lz Volume Pxx Pyy Pzz Pxy Pxz Pyz Enthalpy 
 6250000    228.17881   -4870.3817   -4413.9959   -4870.3817            0    1794.1729     18.17476    22.777547    19.780186     8188.531    2152.8176    2672.3905    557.31075   -208.93392    1709.9981    931.74268   -4199.7334 
 6251000    234.73167   -4913.3111   -4443.8188   -4913.3111            0    1966.5062    18.423461    22.774425    19.371871    8128.1221    368.10854    2306.3987    3225.0114   -1391.4059   -505.94704   -535.96239   -4210.7085 
 6252000    224.28397   -4891.0615   -4442.4658   -4891.0615            0    2146.8534    18.230471    23.128815    19.372781    8168.5172    1603.1919    2055.0631    2782.3052   -1791.7873   -107.98489    1467.1387   -4186.7124 
 6253000    223.51903    -4902.999   -4455.9333    -4902.999            0    2007.9582    18.041712    23.035535    19.605854    8148.2024    1745.4822    2315.3163    1963.0762   -34.089681    1088.2717    -345.0221   -4217.3213 
 6254000    218.30716   -4919.7591   -4483.1178   -4919.7591            0    1865.5368    18.172836    22.994931    19.426543    8118.0245    1619.7328    1725.9171    2250.9605    225.94185    79.948004    219.86909   -4262.2512 
 6255000    220.14473   -4888.3702   -4448.0536   -4888.3702            0    913.25253    18.263407    23.083312    19.343086     8154.657    323.25759    1235.0602    1181.4398    342.73069   -279.76216   -1108.3895   -4339.4429 
 6256000    230.91974   -4886.1387   -4424.2707   -4886.1387            0    4661.5608    17.969781    22.916595    19.577351    8062.0747    4966.4015    4704.1809    4314.0999    937.26949   -772.04216   -17.435343   -3876.1779 
 6257000    224.70521   -4890.0438   -4440.6057   -4890.0438            0     4172.886    18.091109     22.87602    19.464969    8055.6277    5613.7204    3956.6387    2948.2989    736.18399   -388.26968    1218.3865   -3950.3622 
 6258000    233.45755    -4903.195   -4436.2511    -4903.195            0    2298.4968    18.331146    22.842295    19.439691    8139.8934    1392.3736    2458.8832    3044.2337    -1413.474    304.61623    1478.4758   -4163.3919 
 6259000    230.63673   -4868.8035   -4407.5015   -4868.8035            0    4886.8382    18.113391    22.943716    19.380683    8054.3889     3482.711    5664.7879    5513.0157   -1069.0044    1214.4314    1190.2224   -3833.4691 
 6260000    233.65915   -4893.7545   -4426.4074   -4893.7545            0    2599.7742    17.885147    23.204882    19.571705    8122.7024    4813.6751    1632.2453    1353.4021    47.851162   -65.836714     829.6573   -4118.4348 
 6261000    231.67692     -4915.64   -4452.2575     -4915.64            0     2612.182    18.229908    22.989772    19.339504    8105.2141    2118.3562    2939.3208    2778.8691   -295.11381    1222.7121   -153.17624   -4143.4813 
 6262000    240.80442   -4892.6101   -4410.9715   -4892.6101            0     970.4351    18.232611    23.049296    19.447744     8172.892    1195.3625    901.36912    814.57363   -359.26239    1218.1774   -1293.2973   -4295.3022 
 6263000    232.61482   -4871.6071   -4406.3487   -4871.6071            0    3634.8818    18.257331    22.678679    19.566986    8101.7527    3966.6651    4239.7455    2698.2348    858.28125   -157.32508   -854.40872   -3976.8665 
 6264000    230.36911   -4913.6905   -4452.9239   -4913.6905            0     1638.664      18.2428    22.876005    19.546024    8156.9936   -360.52704    2555.3606    2721.1584    261.74288   -969.20274    -752.4819   -4257.9861 
 6265000     222.0667   -4886.2219   -4442.0611   -4886.2219            0    2876.5212     18.35987    22.758326    19.539328    8164.3109     2307.818    2781.9835    3539.7621    102.55129   -211.90862    1741.9588   -4099.5592 
 6266000    220.21492   -4883.7241   -4443.2671   -4883.7241            0    1977.9853    18.221623    22.858944    19.542568    8140.0083    1633.9436    3138.3918    1161.6205    124.90425    210.86785    236.03407   -4208.4532 
 6267000    221.32127   -4890.1591   -4447.4892   -4890.1591            0    2133.5481     18.16389    23.060267    19.406231    8128.5747    1120.8953    2492.4671    2787.2821   -1266.4054    1249.5968   -290.98891   -4194.5637 
 6268000    221.95352    -4904.612   -4460.6776    -4904.612            0    2533.1372    18.090326    23.084344    19.487875    8138.2006    1862.2842    2554.9813    3182.1461   -489.70657    534.54651    818.25495   -4160.0263 
 6269000    222.96014   -4886.9714   -4441.0236   -4886.9714            0    2408.1278    18.163346    22.811319    19.630139    8133.3529    1546.1344     3558.298    2119.9511   -980.22289    1007.6432    605.29313   -4155.3796 
 6270000    229.31004   -4903.0205   -4444.3721   -4903.0205            0    3783.7353    18.370346    22.733937    19.376125    8092.0565    2761.0168    3916.7054    4673.4838   -2409.9595   -493.85516     -777.239    -3997.837 
 6271000    225.37245   -4914.2556   -4463.4828   -4914.2556            0    2624.1412    18.163056    23.002142    19.449481    8125.7829    3699.0647    2683.4109     1489.948   -886.80396    152.30424   -597.21227   -4152.5058 
 6272000    231.63372   -4908.7696   -4445.4735   -4908.7696            0    2945.1818    18.030816     23.14831    19.475599    8128.7821    3158.4599    2309.1426    3367.9428    661.88237   -121.75275   -1878.0118   -4096.3224 
 6273000     221.1237   -4909.7266   -4467.4519   -4909.7266            0    3073.2481    18.089664    23.181892     19.36807    8122.0512    3120.6758     2673.281    3425.7876    188.56826    167.11304   -2013.7371   -4103.4201 
 6274000    230.48008   -4860.7405   -4399.7518   -4860.7405            0     3714.964    18.210086    23.077081    19.356102    8134.1239    1971.9064    3975.2901    5197.6955    1113.2988     554.7805    1560.2933   -3959.0536 
 6275000     240.7521   -4896.8926   -4415.3587   -4896.8926            0    1048.8607     18.19447     22.98519    19.520098    8163.3705    2103.2466     1121.836   -78.500421   -1394.9057   -259.44521    12.445349   -4290.4872 
 6276000    232.89414   -4892.4344   -4426.6174   -4892.4344            0    1937.9835    18.295674     23.03603    19.395925    8174.6004    785.45162    1810.6491    3217.8497    1180.0123     548.2987   -180.13385   -4195.5746 
 6277000    237.01146   -4880.2898   -4406.2376   -4880.2898            0    2568.0837    18.250674    22.967411    19.396657     8130.511    1728.3104    2970.5603    3005.3805    614.45009    1394.2415    818.56384   -4101.7267 
 6278000    223.64633    -4902.293   -4454.9727    -4902.293            0    1101.6101    18.115572    23.188099    19.500076    8191.3127     1495.627    940.68796    868.51541   -921.77553    608.68973    148.43984   -4323.3723 
 6279000    216.37745   -4883.8794   -4451.0978   -4883.8794            0    2962.0763    18.134148     23.12271    19.398729    8134.0935     3313.768    3083.0504    2489.4106   -570.52572    1101.1054   -1905.1662   -4099.7143 
 6280000    228.77293   -4874.6544   -4417.0803   -4874.6544            0    1052.0316    18.207456     22.89049    19.703192    8211.8489    2444.8829    1517.1795   -805.96773    511.55243     1243.967   -2435.6549   -4291.0876 
 6281000    232.14024   -4884.2351    -4419.926   -4884.2351            0    2333.8935     18.24464     22.78555    19.649826    8168.7106    3082.6455    2988.7581    930.27696    945.68509     1067.402    1278.4967   -4141.8839 
 6282000    230.59343   -4893.0184    -4431.803   -4893.0184            0    1861.4186    18.318857    22.827805    19.490983    8150.7253    673.10866    1981.2967    2929.8504    247.51486   -8.5431206   -149.78286   -4210.5363 
 6283000    228.48344   -4902.9235   -4445.9283   -4902.9235            0    309.22614    18.185513    23.010661    19.559187    8184.7508   -503.23883    933.55414    497.36311    30.208035    353.56385    234.10595   -4409.0172 
 6284000    212.79525   -4901.7482   -4476.1314   -4901.7482            0    3676.3506     18.06347    22.967185    19.498531    8089.2984    3004.7612    3697.0298    4327.2607    410.29149    113.02706    705.82937   -4042.4172 
 6285000    221.13777   -4916.2789   -4473.9761   -4916.2789            0    2584.2778    18.053501    23.061135    19.457042    8100.6325    2811.9993     2824.374    2116.4601   -2030.0546     257.8327   -1775.4402    -4168.671 
 6286000     216.1707   -4900.1359   -4467.7678   -4900.1359            0    3408.4216    18.070316    23.092928    19.365659    8081.2221    1074.4464    4601.8336    4548.9849   -199.18853    -152.6738    869.19179   -4066.0637 
 6287000    228.04221   -4893.0873   -4436.9748   -4893.0873            0    3226.2749    18.039214    23.084566     19.41057    8083.0935    3611.4794    2705.4101    3361.9351   -555.05316    352.41647    -2015.751   -4056.6498 
 6288000    218.24865   -4881.8448   -4445.3205   -4881.8448            0    4644.0697    18.104443    22.942076    19.453349    8080.0167    4227.5623     4504.679    5199.9678    714.39445     186.3751   -66.870932   -3898.0691 
 6289000    232.83222   -4914.8924   -4449.1992   -4914.8924            0    2466.0817    18.130758    23.027615    19.414884    8105.8714    2914.2491    1744.1691     2739.827    834.93978    -439.1759    1109.3026   -4157.6693 
 6290000    231.12321   -4901.1404   -4438.8654   -4901.1404            0    2135.4212    18.317618    22.724448    19.637377    8174.2109    3203.2344    1836.3727    1366.6566   -821.31512   -307.26979    -623.8736   -4184.2965 
 6291000    226.18368   -4897.8323    -4445.437   -4897.8323            0    2662.2362    18.294105     22.91781    19.445463    8152.7209    846.83627    3081.0096    4058.8627    160.63837    102.04578    -869.5302   -4128.8996 
 6292000    224.44458   -4887.2524   -4438.3355   -4887.2524            0    3198.0113    18.086972    23.075502    19.438504    8112.9698    3892.1682    3042.1518    2659.7141    441.78652     953.3376    81.046774   -4059.9489 
 6293000    227.23867   -4875.6241   -4421.1187   -4875.6241            0    2962.7238    18.079682    23.054493    19.520641    8136.5528    3212.5682     2658.849    3016.7543    -347.3561    126.11773   -1799.5261   -4069.5522 
 6294000    221.66765   -4913.5145   -4470.1518   -4913.5145            0    2256.2434    18.114185    23.080843    19.380068    8102.6256    2806.1835    1806.8579    2155.6888    1329.2442   -947.39854    495.29419    -4203.535 
 6295000    216.38406   -4900.2196   -4467.4247   -4900.2196            0    2833.6833    18.102111      23.1757    19.320343    8105.4459    2372.0469    2067.6181     4061.385   -372.87877    412.29836   -1846.5319   -4132.4561 
 6296000    227.49701    -4919.186   -4464.1639    -4919.186            0    1046.8623    18.079675     23.15442    19.497188    8161.9985   -598.97383    2207.6756    1531.8853   -48.681254      1013.55    494.63704   -4339.5513 
 6297000    221.44349   -4881.3663   -4438.4519   -4881.3663            0    3710.9912    18.036105    22.968841    19.544935    8096.8499     4323.133    2940.3792    3869.4613   -901.12586   -889.81395     1291.126   -4000.2423 
 6298000     214.4591   -4895.6564   -4466.7117   -4895.6564            0    2102.7863    18.337261    22.970282    19.313461    8135.0626    1927.5851    2101.0484    2279.7253   -1024.8144    329.54862     -1946.57   -4217.2338 
 6299000    232.02996   -4891.5826    -4427.494   -4891.5826            0    3339.5492    18.264441    22.862527    19.453173    8123.0862     1955.522    2916.5013    5146.6244   -797.83858    205.69368    1106.2537    -4031.868 
 6300000    217.84179   -4903.7601   -4468.0496   -4903.7601            0    1821.7429    18.208253    22.718286    19.749226    8169.4708    2883.6796    1966.9237    614.62545    294.48651   -711.76689    -926.8973    -4251.001 
 6301000    237.42013   -4864.9154   -4390.0458   -4864.9154            0    1525.2177    18.268486    22.975669    19.541243    8202.0597    777.28772    1822.1018    1976.2636   -311.86782    65.662313   -333.48649   -4207.6013 
 6302000    222.85507   -4907.5645   -4461.8268   -4907.5645            0    2516.7463    18.107704    23.041072    19.421358    8102.9966    3508.6506    2002.2622     2039.326     602.7249   -243.86832    492.53996   -4164.4131 
 6303000    216.00441   -4909.7467   -4477.7112   -4909.7467            0    2102.9241    18.011468    23.140221    19.507781    8130.6352    3044.6528    1655.4134     1608.706    100.81011   -150.11743   -1053.2287   -4228.3529 
 6304000    234.15291     -4882.68   -4414.3452     -4882.68            0    1565.6942    18.226677    23.159048     19.34068    8163.9425   -124.56826    1371.9873    3449.6636    322.05222   -1049.8253   -347.61306   -4227.9294 
 6305000    232.60729   -4891.2588   -4426.0155   -4891.2588            0    3993.7865    18.202545    22.886831    19.437046    8097.4455    2531.5835    4780.8358    4668.9401    525.56307   -567.39782    544.40364   -3954.3775 
 6306000     233.4875   -4872.7583   -4405.7545   -4872.7583            0    2488.7016    18.152037     22.89767    19.595962    8144.8531    3092.1073    2772.3112    1601.6863    876.93707    113.09985    1187.1766   -4110.1357 
 6307000    223.44585   -4922.6083    -4475.689   -4922.6083            0    1191.1513    18.197667    23.016384    19.494931    8165.3441    2343.2654    287.17856    943.01001    353.84536   -959.90989    2266.1457    -4333.843 
 6308000    234.90599    -4917.374    -4447.533    -4917.374            0    2789.8459    18.076037    23.107008    19.364935    8088.4067    2357.6228    2275.4334    3736.4815   -1477.1353   -1455.8019    388.95329   -4118.4397 
 6309000    227.71199   -4905.9014   -4450.4493   -4905.9014            0    2723.7617    18.189357    22.853602    19.572945     8136.323    3117.5631    2881.4897    2172.2324    1520.7611    578.88991    527.41085    -4127.248 
 6310000    226.34404   -4897.7473   -4445.0313   -4897.7473            0    2647.0463    18.355311    22.674998    19.516429    8122.8674    2081.9463     3361.027    2498.1655   -976.34375    -68.95127   -2224.2581   -4131.4524 
 6311000    224.41377   -4874.3157   -4425.4605   -4874.3157            0    1405.1841    18.298426     22.88275    19.568134    8193.5357    1583.9914    1741.4931    890.06792    12.222446   -422.06685    50.191713    -4257.549 
 6312000     242.5989    -4887.483   -4402.2552    -4887.483            0    2193.6997    18.071742    23.128052    19.484553    8143.8453    4977.5749    343.94886    1259.5755    -420.6744   -399.33589    -1348.298   -4141.7103 
 6313000     224.1633   -4863.9091   -4415.5548   -4863.9091            0    3675.6521    18.147367     23.23426    19.282508    8130.2893    3201.0581    2949.9315    4875.9667    91.544794    345.31507   -87.920826   -3979.7257 
 6314000    232.76614   -4917.6146   -4452.0536   -4917.6146            0    2324.5543    18.145949    23.045686    19.388108    8107.8318     1664.472    2560.0136    2749.1772    1057.4971    560.79707    559.88691   -4177.1881 
 6315000    216.64424   -4897.2838   -4463.9686   -4897.2838            0     2302.211    18.109334    22.976796    19.542928    8131.7044    2760.3222     2550.321    1595.9899   -705.87739    925.39374   -1804.6918   -4190.9435 
 6316000    228.66756   -4870.7422   -4413.3788   -4870.7422            0    1144.0481    18.273999    22.909992    19.555091    8186.8787    1289.6844    521.31184     1621.148   -475.22529    641.05139   -1115.0232   -4276.7826 
 6317000    214.62015   -4886.0005   -4456.7337   -4886.0005            0    2526.3588    18.253279    22.958498    19.341047    8105.2113    2733.4708     1349.601    3496.0047    204.45372   -637.93829    1080.4088   -4158.1025 
 6318000    223.30785   -4888.8157   -4442.1724   -4888.8157            0    3021.3794    18.142403    22.871752    19.597051     8131.768    3453.5235    2522.8645    3087.7503    143.53256   -1135.1412   -133.06971   -4083.8565 
 6319000    220.53726   -4915.5263   -4474.4246   -4915.5263            0    4385.1723      18.0621    22.889708    19.489284    8057.5755    4625.6746    4914.3425       3615.5   -284.89908    546.91309   -1337.7037   -3959.1165 
 6320000    227.90906   -4887.2591   -4431.4128   -4887.2591            0    1932.0579    18.184881    23.094618    19.442967    8165.5187    2751.3148    1292.5399    1752.3189    63.621072   -448.77551    752.17706   -4201.3323 
 6321000    219.04939   -4884.5871   -4446.4613   -4884.5871            0     2296.958    17.948145    23.266123    19.463036    8127.4478    1466.0773    2784.0751    2640.7218    590.48176    697.77791    -1102.535   -4174.2018 
 6322000    240.37481   -4876.6188   -4395.8395   -4876.6188            0    2477.4457    18.064197    23.179774    19.485001    8158.8377    4225.3402    1277.0931    1929.9037   -733.86538    1208.9121   -116.50627   -4101.0525 
 6323000    223.33902   -4927.2614   -4480.5558   -4927.2614            0    3131.1662    18.291113    22.941517    19.306925    8101.6852     1342.454    3946.8456    4104.1989   -2138.8353    102.48022   -364.51523   -4110.5936 
 6324000    211.16989    -4896.755   -4474.3892    -4896.755            0    2630.3159    18.161012    22.812812    19.597453    8119.2983    2583.3046    3348.4291    1959.2139    215.04077    1391.4924    833.34962   -4162.9292 
 6325000    233.32774   -4920.1017   -4453.4173   -4920.1017            0    4185.5307    18.159588    22.881623    19.404681    8063.0493      4193.13    3504.0492     4859.413   -462.01673    333.16929   -772.72919   -3961.2353 
 6326000    226.26013   -4888.7839   -4436.2357   -4888.7839            0    2720.3838    18.275321    23.090924      19.2709    8132.2048    2352.4433    2245.4728    3563.2353    1015.8409   -429.93652    805.71584   -4113.5985 
 6327000    215.15647   -4920.1868   -4489.8473   -4920.1868            0    2339.2745    17.955177    23.132244    19.520284    8107.6235    4137.5208     792.3522    2087.9505    903.00404   -681.94597   -408.70855   -4213.2482 
 6328000    240.38924   -4887.3088   -4406.5006   -4887.3088            0    3404.2263    18.107404    23.135377    19.376958    8117.4264    4004.9923    3403.2239    2804.4625   -21.503767    539.81001    163.97582   -4003.4935 
 6329000    228.45252   -4915.8939   -4458.9607   -4915.8939            0    1138.4946    18.374138    22.916427    19.307778    8129.9182    185.98507    555.04425    2674.4544   -435.14116   -946.54361    939.04189   -4323.9733 
 6330000    229.40277   -4874.6541   -4415.8202   -4874.6541            0     3144.997    18.190576    22.824712    19.571736    8126.0802    3712.8617    2959.0444    2763.0848    435.39181   -1062.0169   -1478.4536   -4043.1049 
 6331000     228.0843   -4895.4395   -4439.2427   -4895.4395            0    2457.9692    18.098644    22.827615    19.715852    8145.5818    3739.3499    2272.4504    1362.1072   -519.02499    246.86559    515.85255   -4147.2484 
 6332000    212.95516   -4899.8981   -4473.9615   -4899.8981            0    486.31035    18.253915    23.341231    19.197897     8179.626    1110.1744   -1423.5567    1772.3134    32.116777   -628.21815   -197.25732   -4415.9488 
 6333000    230.12119   -4891.9566   -4431.6858   -4891.9566            0    1121.9655    18.121832     23.30177    19.348813    8170.4378    741.06514    1603.7626    1021.0686    106.58244   -227.78344    97.253198   -4297.9952 
 6334000    232.36682   -4878.7244   -4413.9621   -4878.7244            0    1992.9394    18.179027    23.037465    19.500293     8166.697    2214.7266    1403.0371    2361.0545      145.934    264.11689   -2559.0889   -4176.5972 
 6335000    220.10856    -4900.458   -4460.2137    -4900.458            0     3115.709    18.298462      22.6945    19.539912    8114.4259    2941.3226    3654.2932    2751.5112   -517.01991   -206.10736   -604.67772   -4091.4989 
 6336000    214.11849   -4883.4792   -4455.2158   -4883.4792            0     2880.977    18.153291    22.758818    19.585689    8091.7775    2338.6968     3291.963    3012.2712     4.491859   -624.95366   -576.83119   -4115.2309 
 6337000    217.61725   -4888.9483   -4453.6869   -4888.9483            0    2188.0506    18.114622    22.943575    19.540406    8121.2703    2706.8158    2164.3556    1692.9802   -699.18157    184.04488    967.48966   -4194.5333 
 6338000     218.8604   -4882.4418    -4444.694   -4882.4418            0    1547.1552    18.117651     23.14707    19.474301    8166.9482    3470.5404    167.60238    1003.3227   -488.27875   -954.30862    561.45781   -4260.4177 
 6339000    216.14244   -4920.1263   -4487.8147   -4920.1263            0    1716.8817    18.023431    23.179169    19.521047    8155.2721     3322.262     1138.888    689.49507   -131.80724   -538.52636    629.56459   -4283.6152 
 6340000    232.18128   -4924.0869   -4459.6956   -4924.0869            0    805.73491    18.253099    23.041688    19.436971    8174.8439    416.01155    815.48341    1185.7098   -394.76663   -356.36291   -604.51817   -4363.6345 
 6341000    220.30094   -4905.7255   -4465.0964   -4905.7255            0    2442.8048    18.325315    22.784605    19.491864    8138.5367    902.89274    3171.3706    3254.1512     387.2535     183.2089    157.98772   -4175.1545 
 6342000    227.17327    -4905.984   -4451.6094    -4905.984            0     3952.273    18.224511    22.691637    19.539298    8080.3597    4407.7812    5103.1369     2345.901    481.61006    832.06987   -590.03318   -3985.8587 
 6343000    232.93719   -4885.6702   -4419.7671   -4885.6702            0    4269.4218    17.939947    23.127647    19.454451    8071.8225    5196.8604    3507.9869    4103.4181    56.109088   -1335.7291    1090.6527   -3917.1739 
 6344000    221.67904   -4881.3735   -4437.9881   -4881.3735            0    3227.6936    17.944772    23.243806    19.426882    8103.0459    3594.6835    2187.9578    3900.4396   -268.85423    240.57217    537.51908   -4056.5566 
 6345000    215.10533   -4915.7935   -4485.5563   -4915.7935            0    3303.4128    18.109555    22.888729    19.511395    8087.5649    4137.5528    3215.5482    2557.1374    153.38841   -39.305386    544.39263   -4095.9226 
 6346000    230.55812   -4895.0248   -4433.8801   -4895.0248            0    2653.6351    18.300843    22.582833    19.606809    8103.1978    3300.1781    3514.1574    1146.5699   -863.23471    909.30847    21.802077   -4120.2819 
 6347000    220.18174   -4888.7449   -4448.3542   -4888.7449            0    2500.7327    18.297978    22.770789    19.480491    8116.7301    1731.9538     2856.242    2914.0023    1064.2759     187.4267   -173.82124    -4152.332 
 6348000    225.62966   -4902.7894   -4451.5022   -4902.7894            0    2820.4943    18.041056    23.214537    19.438429    8141.1012    3442.2493    1694.9866    3324.2469    694.64278    1242.1756   -1185.9186   -4116.6261 
 6349000    224.82309   -4897.3143   -4447.6403   -4897.3143            0    4350.1753     18.08039    23.020844      19.3847    8068.4129    4852.0982     4167.899    4030.5288    573.57597    390.31383    1511.2424   -3935.7572 
 6350000    236.71789   -4919.3504   -4445.8853   -4919.3504            0    2669.1711    18.138427    22.909569    19.494433    8100.7856    2480.2027    3232.6127    2294.6977   -481.99624    1398.2752   -1480.4648   -4130.5451 
 6351000     213.2739   -4908.8405   -4482.2663   -4908.8405            0    1822.3257     18.34908    22.999083    19.333185    8158.8364    1389.3485    1470.7118    2606.9167   -628.81001   -497.09347     17.26209    -4265.431 
 6352000    221.35792   -4887.9122    -4445.169   -4887.9122            0    2602.9897     18.08621     22.98247    19.582673    8139.8471     1733.352    3789.1719    2286.4453   -815.61254    664.21321      588.506   -4136.1646 
 6353000    231.38041   -4897.8601   -4435.0707   -4897.8601            0    3260.8432    18.147616    23.002389    19.465076    8125.4724    4770.6369     2727.407    2284.4856   -552.88963    686.55271    1262.9697   -4048.6553 
 6354000    232.02361   -4895.6094   -4431.5335   -4895.6094            0    4011.9508    18.287054    23.053397    19.176026    8084.2044     3185.123    2814.8544    6035.8749   -937.82189   -117.79192    2.3538216   -3958.5252 
 6355000    233.30017   -4872.1177   -4405.4885   -4872.1177            0    1662.4729    17.929346    23.262847    19.555404    8156.3167    1783.6784    1283.9716    1919.7688    411.08998    467.58161    1157.0896   -4207.7348 
 6356000    220.32313    -4912.111   -4471.4375    -4912.111            0    676.76557    18.277389     22.94533    19.492465    8174.7641    406.38827     945.7891    678.11933   -424.00276    337.83859   -100.00966   -4390.7532 
 6357000    226.61171   -4889.0362   -4435.7848   -4889.0362            0    2756.3338    18.323589    22.730192    19.466451    8107.7514    3210.5476    2764.7103    2293.7435    2011.2662   -15.293504    1558.3614   -4109.8669 
 6358000    227.18644   -4880.2148   -4425.8138   -4880.2148            0    808.47808    18.157542      22.9687    19.646665    8193.7424    1562.7418    942.02127   -79.328774    325.33106    301.73897   -1045.4063   -4329.2028 
 6359000     229.9463   -4913.8303   -4453.9093   -4913.8303            0    4785.1643    18.082156    22.966118    19.398447    8055.7275    4283.0976    4038.8652    6033.5301    160.22015   -456.12356    1003.8545   -3891.7266 
 6360000    235.04763   -4888.1244   -4418.0001   -4888.1244            0    2056.8504    18.321629    23.084325    19.245352    8139.6761    1304.9266    1796.0313    3069.5933    158.58826   -595.77107    342.58412   -4173.8338 
 6361000    225.17708   -4864.3743   -4413.9923   -4864.3743            0    2312.4158    18.099298    23.041972     19.56299     8158.618    2022.3962    2212.8518    2701.9994   -546.00255    466.62322    1991.1824   -4138.8493 
 6362000    222.52846   -4885.2563   -4440.1719   -4885.2563            0    3036.4758    18.108653    23.048928    19.452571    8119.2122    4404.7493    2631.0615    2073.6167   -808.96558    407.96506   -407.88333   -4080.6217 
 6363000    225.29894   -4910.4786   -4459.8529   -4910.4786            0    3441.0934    18.137042    22.931302    19.405252    8070.7603    2942.1897    4190.2799    3190.8106     1625.858    273.76517    1438.5433   -4054.8232 
 6364000     228.3669   -4889.2969   -4432.5349   -4889.2969            0    1408.0567    18.247243    22.913662    19.543634    8171.4119    563.02388    1646.6572    2014.4891   -2209.8507   -503.23057   -1052.0393   -4264.7345 
 6365000    213.71895   -4878.1866   -4450.7223   -4878.1866            0    1585.3279    18.115887    22.914334    19.649198     8156.647    3821.3755    613.98393    320.62419   -779.61052    44.400823    196.86064   -4262.1376 
 6366000     222.7276   -4916.1113   -4470.6286   -4916.1113            0      2715.68    18.220441    23.088916    19.269936    8106.6738    2626.3191    1658.6403    3862.0805    79.159841   -50.623352   0.35165528   -4149.5605 
 6367000    220.81192    -4919.547   -4477.8959    -4919.547            0    1970.0317    18.156146    23.070461     19.42992    8138.6238    1615.3704    1533.8536    2760.8712    346.93735    100.75907   -1573.1829    -4244.066 
 6368000    219.64894   -4901.8796   -4462.5545   -4901.8796            0    3769.9572    17.867971    23.114078    19.527174    8064.7552    4407.0882    3508.6576    3394.1258    310.23492   -287.60693    1021.2003   -4019.1466 
 6369000    220.78445   -4908.7332    -4467.137   -4908.7332            0    3817.1612    18.064058    23.096886    19.393875    8091.5803    4722.7086    2808.0113    3920.7637   -85.309619    497.16741    140.03304   -4016.6837 
 6370000    217.81008    -4889.326    -4453.679    -4889.326            0    921.99953     18.32143    23.056453    19.418845     8203.048    238.01599    295.99981    2231.9828     600.8153   -887.23185   -309.86357   -4343.3773 
 6371000    219.62418   -4909.3025    -4470.027   -4909.3025            0    2311.4282    18.235949    22.723292    19.656865    8145.4272    2742.8124     2800.868    1390.6043   -1417.9686   -521.59074   -624.67905   -4195.4462 
 6372000      230.111   -4888.9689   -4428.7184   -4888.9689            0    1373.0143    18.289335    22.709285    19.698196    8181.4036    286.36779     2594.769    1237.9061    111.55356   -193.93781    344.49316    -4264.894 
 6373000    219.67004   -4895.4655   -4456.0983   -4895.4655            0    2920.7032      18.2323     22.86915     19.48439    8124.1568    3056.8572    3099.1455    2606.1071   -153.77528     772.1026    1587.4669   -4110.0461 
 6374000    235.99776   -4904.4283   -4432.4037   -4904.4283            0    2010.2816    18.125757    23.019652    19.443285    8112.6836    1170.1469    2531.3557    2329.3422   -63.329346    -356.3186    2932.9672   -4194.5568 
 6375000     230.8011   -4883.0729   -4421.4422   -4883.0729            0    2486.4694    18.070978    23.140938     19.53005    8167.0642    4171.7658    1807.4643     1480.178    871.22092   -66.393942    86.898527   -4125.2832 
 6376000    222.86343    -4903.898   -4458.1436    -4903.898            0    1453.5075    18.187015    22.961756    19.484551    8136.8614    1334.8183    1675.5289    1350.1753    1696.0756    -874.3848    519.36275   -4285.6591 
 6377000    219.62544   -4902.7097   -4463.4317   -4902.7097            0    2467.2376    18.177912    23.062603    19.445657    8152.2026    2404.2004    2730.8244    2266.6878    265.02814    1325.7757   -1429.1811   -4170.0981 
 6378000    215.87078   -4898.4895   -4466.7213   -4898.4895            0    2319.6249    18.008024    23.074904    19.550181    8123.7539    3181.5115    2434.4301    1342.9331    1357.6815   -877.20494   -30.034648   -4191.8999 
 6379000    242.36161   -4889.1833   -4404.4301   -4889.1833            0    2897.7512    18.303184    23.076642    19.300427    8152.0375    2479.3774    2368.3207    3845.5553    800.55701    1451.7265   -869.59361   -4059.9191 
 6380000    217.73305   -4920.8346   -4485.3416   -4920.8346            0    1066.1998    18.235105    23.030151    19.426713    8158.3885    940.79428    1216.1595    1041.6456   -124.11984    836.86152   -1043.0481   -4358.4833 
 6381000    216.00804   -4911.3747    -4479.332   -4911.3747            0    1293.4207      18.1759    22.930936    19.612396    8174.2581    1537.8318     1810.412    532.01824    697.27162   -13.331887    401.00548   -4325.1392 
 6382000    239.04902   -4906.9239   -4428.7963   -4906.9239            0    2143.2442    18.293803    23.026955    19.388017     8167.213    1380.1606    1741.2797    3308.2924   -580.49452   -634.79053   -270.44976   -4173.5136 
 6383000    231.29985   -4885.2309   -4422.6026   -4885.2309            0    3611.5659    18.283053    22.788322    19.516607     8131.401    2498.4588    4530.4955    3805.7434   -284.07706    1325.6412    1273.0273   -3994.3137 
 6384000    220.11137   -4907.8242   -4467.5743   -4907.8242            0    2567.4146    17.936568    23.116301    19.564927    8112.1494    3811.3222     2120.676    1770.2456    -114.1592   -715.09202   -1448.1119   -4163.8302 
 6385000    224.30644     -4907.01   -4458.3694     -4907.01            0    3190.8199    18.041213      23.1706    19.327038     8079.199    2958.3748    2925.1848    3688.9002    341.51631     230.3674     718.7211   -4082.4052 
 6386000    230.65624   -4888.6275   -4427.2866   -4888.6275            0    3902.3207    18.057176    23.131349    19.336469     8076.589    4989.0744    3218.2144    3499.6734    709.32133   -155.89419    2653.4041    -3967.637 
 6387000    227.67893   -4908.0622   -4452.6762   -4908.0622            0    3219.4145    18.168234    22.722399    19.575834    8081.4107    2149.3775    4033.3888    3475.4774    1175.5331    715.28841    1113.0111    -4073.239 
 6388000    221.95687   -4890.1262    -4446.185   -4890.1262            0    60.686838    18.168621    22.864172    19.846086    8244.2723    1221.4126    250.11857   -1289.4707    795.73057    760.38259    2248.7655   -4438.8884 
 6389000    216.58985   -4906.9724    -4473.766   -4906.9724            0    2354.9413    18.213545    22.907031    19.448624    8114.3203    2505.7687    2600.4544    1958.6006    -1718.891    345.98182   -1843.8037   -4195.0845 
 6390000    228.28355   -4892.2931   -4435.6978   -4892.2931            0    2817.8286    18.129421    23.103543    19.437588    8141.5087    1775.1213    2116.7429    4561.6216    752.71831   -361.90293   -14.608496   -4101.1213 
 6391000    224.13625   -4900.6718   -4452.3716   -4900.6718            0    3506.9428    18.017863    23.127482    19.350881    8063.6631    4683.3685    2617.6563    3219.8036    710.82163   -774.49904   -1048.7161   -4039.9543 
 6392000    232.67684   -4905.9073   -4440.5249   -4905.9073            0    3356.6889    18.175017    22.964554     19.41457    8103.2754    3438.0787    3825.4244    2806.5635   -1016.4244   -538.44472   -83.542534   -4043.8382 
 6393000    219.85527   -4904.9222   -4465.1845   -4904.9222            0     1210.703    18.232584    22.890587    19.579594    8171.6329     613.2718    1738.0485    1280.7889    166.90113   -518.74365    848.10488   -4320.8991 
 6394000    222.94971    -4896.993   -4451.0661    -4896.993            0    1433.9969    18.350936    22.701629    19.600957     8165.683    552.98196    2313.3289    1435.6798   -1089.5969    77.173622   -137.43619   -4280.2941 
 6395000    226.77232   -4898.7839   -4445.2113   -4898.7839            0    4003.9942    18.144893    22.857249    19.479561    8078.9988    4528.5262    3577.7107    3905.7456   -1286.8248   -145.62179    965.18326    -3973.445 
 6396000    222.05094   -4903.4058   -4459.2765   -4903.4058            0    2369.5714     18.08709    23.293444    19.287084    8125.8532    2267.5509    1536.3299    3304.8333   -500.36545    370.36577    -2544.889   -4178.4651 
 6397000    221.43668   -4924.0862   -4481.1855   -4924.0862            0    2637.7793    18.010734    23.142036    19.405732    8088.4069    2542.4408    2232.1706    3138.7266   -67.808374    140.80778   -335.13817   -4170.0301 
 6398000     224.9346   -4909.8447   -4459.9477   -4909.8447            0    3635.9371    18.162219    22.877851    19.502722    8103.6254     5031.067    4499.2009    1377.5435    412.13978     1178.218   -46.561064   -4030.2416 
 6399000     225.9846   -4875.3234   -4423.3263   -4875.3234            0    1278.9825    18.309017    22.736603    19.689594    8196.4797    2043.0015     1833.123   -39.177027   -712.75229   -148.66126   -747.32974   -4270.4402 
 6400000    223.07675   -4913.7236   -4467.5426   -4913.7236            0    1177.4053    18.278539    22.633575    19.677463    8140.7374    481.52979    2357.7565    692.92958    240.34563   -918.96455    70.170327   -4327.7559 
 6401000    228.48347   -4866.9367   -4409.9415   -4866.9367            0    3228.5454    18.330273     22.98364    19.295016    8128.9208    3515.7628    2442.7351    3727.1384   -139.57182   -178.02825    212.37721   -4027.1911 
 6402000    224.92178   -4889.1408   -4439.2695   -4889.1408            0    2858.9161    18.072066    22.980078    19.546028    8117.4162    1684.9987    3046.9552    3844.7943    -827.5115   -1163.8643   -73.891082    -4100.819 
 6403000    228.16738   -4893.4664   -4437.1035   -4893.4664            0    3616.9575    17.994453    23.038147    19.466604    8070.0528     2972.893    3431.3465     4446.633   -1089.0082    704.01414    1073.8077   -4011.4113 
 6404000    218.79552   -4885.6864   -4448.0683   -4885.6864            0    2321.9075    18.218987    23.178447    19.187206    8102.5235    1195.7971    1182.4354    4587.4901   -202.73941   -353.25087   -457.80617   -4173.6955 
 6405000    219.95216   -4903.1484   -4463.2169   -4903.1484            0    2914.4013    18.120709    23.017069    19.498652    8132.6068    4363.1879    2655.2828    1724.7333      419.138    369.26347    1546.4315   -4117.5522 
 6406000    217.46859   -4914.3192   -4479.3552   -4914.3192            0    3056.2586    18.121707      22.9256    19.505536    8103.5946    3856.4877    2312.7463    2999.5417    -421.8335   -750.01131   -715.67225   -4118.1586 
 6407000    233.66797   -4923.5067   -4456.1418   -4923.5067            0    3809.8998    18.146214    22.921124    19.430169    8081.6218    2238.5919    3318.3471    5872.7605     699.0702   -301.80661   -843.28171   -4007.0988 
 6408000    221.75856   -4916.5774   -4473.0329   -4916.5774            0    3798.7112    17.974546    23.093494    19.420554    8061.3762    3281.4885    4253.6387    3861.0064     785.5541    880.92925   -1590.8161   -4026.4302 
 6409000    227.52129   -4921.7702   -4466.6995   -4921.7702            0    2371.5066    18.231532     23.02845    19.377852    8135.6739    1832.7185    2449.5434    2832.2578   -350.63694    -292.7052   -1284.3053   -4185.3191 
 6410000    236.03879   -4910.0065   -4437.8997   -4910.0065            0    2996.7345    18.274394    22.841147    19.480703    8131.4038    1713.0698    3339.6013    3937.5323   -137.69392    184.64729    924.40806   -4082.5224 
 6411000    213.84002   -4898.7356   -4471.0291   -4898.7356            0    1641.8218    18.233017    22.962544    19.516085    8170.9253    2510.9785    659.77651    1754.7105   -257.95424   -355.40807   -857.56025   -4275.3821 
 6412000    222.73455   -4891.5579   -4446.0613   -4891.5579            0    3039.2543      18.1144    23.017291     19.48923    8125.9256    2369.7983    3482.3843    3265.5803   -414.17624   -418.08592    883.78004   -4085.8845 
 6413000    221.71599    -4898.027   -4454.5676    -4898.027            0    3887.3166    18.168662    23.022906    19.248557    8051.5828    2973.3207    4746.0476    3942.5815   -1119.9355    373.85548   -55.988567   -3998.1031 
 6414000    223.92786   -4903.5519   -4455.6685   -4903.5519            0    3204.3247    18.087865    23.186281    19.318325    8101.9184    3663.2454    2387.7994    3561.9293     98.99772   -35.208372    1444.8314   -4077.0514 
 6415000    223.28273   -4905.3397   -4458.7467   -4905.3397            0    2980.3423    18.277731    22.854708    19.417988    8111.5192    2340.1469    3184.2692    3416.6109   -1139.3717   -190.82669   -455.27495   -4106.1776 
 6416000    244.23897   -4900.6166   -4412.1084   -4900.6166            0     3305.444    18.231272    22.715587    19.536405    8090.6903    1177.2888    5302.9678    3436.0755   -142.50611    1093.3817    18.511066   -4022.0845 
 6417000    218.01835   -4892.5208   -4456.4572   -4892.5208            0    2587.9093    18.299471    22.548213    19.792393    8166.7444    3918.7361    3411.2876    433.70412    24.592774    105.06742   -1684.9986   -4148.2279 
 6418000    216.87879   -4864.4437   -4430.6593   -4864.4437            0    4144.0436    18.155655    22.869283    19.418175    8062.5585    4953.1754     3519.009    3959.9464    33.648427   -597.48952   -714.41888   -3943.3855 
 6419000    233.16688   -4881.1699   -4414.8073   -4881.1699            0    3106.8063     17.91591    23.200024    19.473581    8094.1847    4672.2138    3158.0073    1490.1979   -145.80599     438.0448   -627.60602   -4048.0632 
 6420000    225.58492   -4887.0324   -4435.8347   -4887.0324            0    3155.1654    17.918015    23.458152    19.278014    8103.0025    4128.3781     1282.968    4054.1503    1076.6165   -28.261152   -861.33454   -4062.9763 
 6421000    224.57004   -4887.6345   -4438.4667   -4887.6345            0     2058.348    18.218215    23.030876    19.407101    8142.8596    751.46915    2012.6605    3410.9143    1020.9543   -479.96231   -237.55129   -4194.0271 
 6422000    219.21783   -4901.4298   -4462.9671   -4901.4298            0    3596.2577    18.069568    22.888259    19.528573    8076.6457    4135.9028    4221.0526    2431.8178    193.27396   -459.93661    2135.4389   -4039.3654 
 6423000     226.7746   -4921.2443   -4467.6671   -4921.2443            0    2168.1183    18.137099    22.951665    19.510022    8121.5658    3325.4068    1787.6997    1391.2484    619.70692   -168.15491   -141.34685   -4210.8649 
 6424000    228.45451   -4908.8272     -4451.89   -4908.8272            0    1375.2829    18.114127    23.129732    19.532544     8183.646    1017.3432    1206.3504    1902.1552    1566.0086   -22.675913    1557.6984   -4287.7498 
 6425000    220.27048   -4901.5158   -4460.9476   -4901.5158            0    2224.5554    18.160226    22.844267    19.575789    8121.1538    2340.7173     2081.065    2251.8839   -729.54577    -1225.272   -1358.0256   -4197.4742 
 6426000    222.27204   -4901.0654   -4456.4938   -4901.0654            0    3814.1727    18.255221    22.761523    19.492663    8099.5258    3721.5092    3780.3684    3940.6404    591.69609   -421.29681    1260.8177   -4005.9512 
 6427000    225.14258     -4873.23    -4422.917     -4873.23            0    2601.4309    18.274266    22.864427    19.499682    8147.5641    2331.3536    2872.5891    2600.3499    581.70704    326.57943   -816.35571    -4113.805 
 6428000    235.38387   -4912.5787   -4441.7818   -4912.5787            0    1199.1228    18.117244    23.258002    19.382346    8167.1564    1458.5808    103.41597    2035.3715    47.592506    -314.5801    -515.2833   -4298.9548 
 6429000    231.12233   -4890.8809   -4428.6077   -4890.8809            0    1505.4812    18.152539    23.214073    19.389302    8170.5428    620.19073    1445.4637    2450.7892   -340.15285    532.88884    1362.3607   -4249.2161 
 6430000    230.13856   -4901.7065   -4441.4009   -4901.7065            0    2682.8869    18.162492    23.049755    19.441122    8138.8505     1797.695    1662.8402    4588.1255    952.16596   -818.44181    -59.94699   -4122.9509 
 6431000      214.555   -4889.9515    -4460.815   -4889.9515            0    3455.1271      18.1904    22.612988    19.665481    8089.1848    4312.5386    2959.8977    3092.9449    457.56636    -1058.272    685.36576   -4053.2051 
 6432000    231.24972   -4906.1749   -4443.6469   -4906.1749            0    2197.9477    18.234681    22.812215    19.574522    8142.4815    964.39406    2838.3836    2791.0656   -842.51401   -67.012904   -971.67778   -4182.6412 
 6433000    212.70323   -4895.1869   -4469.7541   -4895.1869            0    1957.3049    18.239069    23.026357    19.406932    8150.5098    921.62936    2219.4983    2730.7871    773.89016    82.186159    711.87532   -4237.0955 
 6434000    219.82499   -4912.2131   -4472.5359   -4912.2131            0     2188.883    18.122677    23.276929     19.39189      8180.28     3053.223    1462.2125    2051.2134   -880.29579   -31.088295   -1125.5238      -4211.4 
 6435000    231.94758    -4884.735   -4420.8112    -4884.735            0    2530.3366    18.093339    23.003705    19.501482    8116.7866    2373.6785    3154.7511    2062.5803    1076.9462    607.60559    430.85737   -4121.2826 
 6436000    228.54184   -4890.3227   -4433.2108   -4890.3227            0    2669.1887    18.082339    23.022084    19.563645    8144.2113    3775.0934    1776.1015    2456.3712    261.91523    217.89486   -926.54618    -4116.178 
 6437000    227.83199   -4915.1381   -4459.4459   -4915.1381            0     3433.644    18.124066    23.058728    19.400592    8107.8551    2988.9704    3300.3921    4011.5697   -168.90321   -694.11532   -276.68515   -4053.4356 
 6438000    224.88863    -4877.434   -4427.6289    -4877.434            0    3719.1431    18.136738    22.944669    19.388997    8068.5653     4148.315    3691.3608    3317.7535    282.94092   -1453.6801    1511.7682   -3989.9909 
 6439000    217.64306   -4913.1026   -4477.7896   -4913.1026            0    3519.5018    18.206375    22.728757    19.536124    8084.2099    1884.2631    4496.0898    4178.1526   -189.80238    1014.5337   -466.99178   -4062.8406 
 6440000    234.33891   -4874.2343   -4405.5275   -4874.2343            0    3368.5469    18.284386    22.607373    19.695216    8141.2525    3726.7557    3500.4672     2878.418    506.32368   -885.91102    1021.5898   -4005.5738 
 6441000    231.20427   -4901.2292   -4438.7921   -4901.2292            0    3532.6804    18.258587    23.008865    19.279731    8099.5956    2989.6397    3524.8374     4083.564   -1436.8877    -337.6612    760.13561   -4021.4968 
 6442000    228.25924   -4891.8874   -4435.3407   -4891.8874            0    2577.7326    17.973006    23.350254    19.325628    8110.4686    2880.3689    1275.3403    3577.4886    869.43392   -333.29194   -27.655027   -4130.4391 
 6443000    227.57542    -4901.363    -4446.184    -4901.363            0    2800.2706    18.060546    23.131294     19.45887    8129.2113    5784.4562    993.69423    1622.6613     751.0082   -52.018067    168.78203   -4114.1946 
 6444000    218.07352   -4873.1208   -4436.9468   -4873.1208            0    1644.3242    18.394584    22.678959    19.590781    8172.6865    453.16934    2452.1946    2027.6086   -691.44074     439.2843   -561.98023   -4240.9594 
 6445000    219.03377   -4882.9861   -4444.8915   -4882.9861            0    1852.0278    18.353656    22.919846    19.523404    8212.7731    2536.3349    1373.2468    1646.5017    759.60971    103.27067    265.94326   -4223.0651 
 6446000    217.29512   -4883.1925   -4448.5754   -4883.1925            0    2274.5493    18.064688    22.855591    19.710507    8138.0569    2629.8962    3217.5899    976.16175   -1067.8247    316.99421    448.82659     -4178.62 
 6447000    229.53238   -4911.1578   -4452.0647   -4911.1578            0    750.76394    18.192766    23.116926    19.496198    8199.3375    606.31613    383.31433    1262.6614    1076.2979   -479.20644    1251.2701   -4362.2891 
 6448000    220.96263   -4889.3794   -4447.4268   -4889.3794            0    3780.7057    18.001201     23.28745     19.31147    8095.4082    3804.7625    2529.3451    5008.0095    -266.4618   -43.029904   -1677.4862   -4001.0645 
 6449000    227.94406   -4888.0616   -4432.1453   -4888.0616            0    1857.3254    18.220147     23.03659    19.475693    8174.5338     3604.446    435.99342    1531.5368   -884.42032   -286.31554   -14.864364   -4210.7202 
 6450000    220.27472    -4890.857   -4450.2804    -4890.857            0    2899.2651    18.155504    22.739997    19.640316    8108.6243    2886.3988    2805.2188    3006.1777    557.74948    886.70138    1140.2039    -4107.425 
 6451000    219.72308   -4883.8246   -4444.3513   -4883.8246            0      1015.84    18.330402    22.842454    19.617849    8214.2164     547.5433      1383.03    1116.9466    273.79052   -4.4360721   -139.98121   -4322.6578 
 6452000     224.8345   -4900.9627   -4451.2659   -4900.9627            0    2129.9551    18.194056    23.033186      19.4359    8144.9458    1265.4482    1920.2945    3204.1226    794.62216   -582.80304    1270.7326   -4198.2577 
 6453000    229.59293   -4933.6666   -4474.4524   -4933.6666            0    1990.3055    18.099727    23.001154    19.501138    8118.6086     2906.278    1669.1244    1395.5141    31.548619   -1244.6069    345.62388   -4238.7971 
 6454000    217.90768   -4908.0524   -4472.2101   -4908.0524            0    2866.8812    18.100379    22.953035    19.468776    8088.4714    1354.1522    3765.8428    3480.6486    1067.7728   -1124.2221    811.74913   -4134.0269 
 6455000    223.02531   -4920.3878   -4474.3096   -4920.3878            0    2040.3558    18.163563    23.027522    19.411681    8119.1654    2293.8492    1580.4313    2246.7868    939.33714   -446.60592    331.31194   -4232.7117 
 6456000    215.64991   -4896.7855    -4465.459   -4896.7855            0     3257.832    18.007881    22.901099    19.633588     8096.897    3427.4547    3777.0978    2568.9436    531.89876   -112.61514    1804.9296   -4080.7581 
 6457000    227.01786    -4895.858   -4441.7943    -4895.858            0    2897.5578    18.176715    22.877635    19.573742    8139.5497    3244.5053    3159.6845    2288.4837   -1891.4451    282.01789    1191.0929   -4097.8339 
 6458000    237.96766   -4901.1852   -4425.2205   -4901.1852            0    2904.4107    18.166638     22.91051    19.500267    8116.1466    2522.1275    3712.4654    2478.6392   -835.23777    816.65659    1582.6168    -4081.438 
 6459000    216.33221   -4881.4772   -4448.7861   -4881.4772            0    2321.1048    18.096043    23.184578    19.414533    8145.3502     1604.619    1799.0057    3559.6897   -1454.2044    265.85473   -304.80157   -4173.0584 
 6460000    225.81656   -4884.7421   -4433.0811   -4884.7421            0     1833.721     18.02521    23.320859    19.382113    8147.5305      2261.77    1540.8433    1698.5496   -384.64012     -656.108   -1699.1298   -4215.1922 
 6461000    227.83377   -4900.5365   -4444.8408   -4900.5365            0    1880.6511    18.074447     23.19762    19.405639    8136.4771    2189.0938    1768.4937    1684.3659     607.8208   -347.47584    1088.1136   -4221.6786 
 6462000    224.06288   -4893.2443   -4445.0909   -4893.2443            0    2131.1602    18.278016    22.900762    19.428111    8132.2283     880.2587    2379.8344    3133.3874   -507.09539    -369.3613   -182.34909   -4192.3349 
 6463000    223.42976   -4891.7756   -4444.8885   -4891.7756            0    3442.7443    18.320201    22.609895     19.52669    8088.3033    2081.2341    3564.3334    4682.6653    45.996429    27.394274    723.59753   -4038.7837 
 6464000    222.55196   -4896.6858   -4451.5544   -4896.6858            0    2230.8046    18.192981    22.649145    19.739005    8133.5648    1330.5184    3295.2062    2066.6891    1890.5435     1194.564    127.66635    -4186.937 
 6465000    227.95704   -4944.4964   -4488.5542   -4944.4964            0    2370.9037    18.256115    23.030967    19.336258     8130.045    1680.1681    2259.0323    3173.5108   -476.71078   -9.7713224   -195.14247     -4207.44 
 6466000    220.85517   -4894.7929   -4453.0553   -4894.7929            0    3862.0175    17.985359    23.150111    19.421928    8086.5733    4507.6143     2705.296    4373.1423    10.765041    584.06759   -465.65131   -3997.5907 
 6467000    226.87748   -4932.5155   -4478.7325   -4932.5155            0    2458.6849    17.940854    23.217177    19.435069    8095.4054    3044.6578     2311.045    2020.3518    1608.3853    490.09989    559.01269   -4188.4524 
 6468000    212.66292   -4855.6756   -4430.3234   -4855.6756            0    3781.3142    18.229794    23.053594     19.35383    8133.6842    4267.5904    3901.2312     3175.121   -872.92171   -393.28644    531.11661   -3981.7785 
 6469000    216.71303   -4881.4415   -4447.9887   -4881.4415            0    1635.8949     18.17437    22.823289    19.669554    8158.9096    1613.1271    2075.0782    1219.4793   -1339.1537    121.66515   -175.78723   -4253.3347 
 6470000    218.96341   -4916.6341   -4478.6803   -4916.6341            0    2593.2287    18.236224    22.647742    19.613824    8100.6915    2868.0647     3529.522    1382.0994   -2165.7013   -687.52127    932.96795   -4172.3155 
 6471000    222.22633   -4899.2172   -4454.7371   -4899.2172            0    1425.7027    18.266995    22.960435    19.446481    8156.2076    1025.4366    1494.0538    1757.6176    1204.9526   -561.45704    933.66806   -4285.1499 
 6472000    221.76193    -4929.663   -4486.1117    -4929.663            0    2807.2137    18.128863     23.09211    19.400549    8121.7236    2263.5887    3142.6419    3015.4103   -880.61553   -28.660945    434.44051   -4153.6057 
 6473000    217.28196    -4912.135   -4477.5442    -4912.135            0    2462.6914    17.940299    23.213059    19.428426    8090.9527    3166.2424    1553.1313    2668.7005   -1477.7873    7.5787605   -1618.6328   -4186.9509 
 6474000    232.83687    -4910.444   -4444.7415    -4910.444            0     1873.505    18.307347    22.913392    19.375645    8127.7617    1832.2208    2410.7706    1377.5237    302.92208   -678.34157   -281.18518   -4222.6654 
 6475000    219.59403   -4908.7822    -4469.567   -4908.7822            0    1937.0062    18.196977    22.934709     19.46925    8125.3428    1675.2675    2229.0858    1906.6655    467.42184    198.55422    285.34452   -4240.0321 
 6476000    228.65242   -4917.2756   -4459.9425   -4917.2756            0    2418.8319    18.057407    22.905904    19.642685    8124.6314    3926.2466    2636.5289    693.72011   -772.91325    697.24223    305.38986   -4173.3365 
 6477000    240.29718   -4875.8186   -4395.1946   -4875.8186            0    3910.1157    18.148373    23.098074    19.359441    8115.3318    3502.7314    3843.5059    4384.1099     -1216.62    127.40928    514.68736   -3932.4176 
 6478000    229.07311   -4884.3188   -4426.1443   -4884.3188            0    2478.9575    18.201754    23.226351    19.221146    8125.9379    2462.5597    2640.5645    2333.7482    -43.50733    1313.7275   -139.92319   -4132.3669 
 6479000    226.36644   -4884.5339    -4431.773   -4884.5339            0    2154.4575    18.113015    23.013875    19.538742    8144.7374    1357.8107    2356.2253    2749.3365    861.17024    498.18021   -789.63529   -4175.8609 
 6480000    230.51672    -4869.607   -4408.5451    -4869.607            0    1645.3767     18.03263     23.03181    19.654171    8162.8512     3409.633    1346.5095    179.98771    1157.9467    699.12706    1035.0495   -4212.6682 
 6481000    234.79112   -4894.4431   -4424.8319   -4894.4431            0    3400.3029     18.13113    23.089406    19.390457    8117.5631    3439.7251    2574.6913    4186.4922   -1018.8945    810.11295    849.09767   -4022.2825 
 6482000    225.63969   -4894.3366   -4443.0293   -4894.3366            0    1418.6398     18.20089    23.136002    19.323653    8137.1097    508.49366    743.63221    3003.7936   -146.94119   -614.55048   -442.55575   -4274.6774 
 6483000    222.43874   -4905.7336   -4460.8287   -4905.7336            0    2058.2286    18.017749    22.991259     19.67097    8148.7141    2430.1119     2947.999     796.5751   -796.48202    219.64184    396.84835   -4216.2274 
 6484000     226.2637   -4880.2965   -4427.7411   -4880.2965            0    2797.0002    18.232385    23.003594    19.382689    8129.3008    1438.6563    2634.6416    4317.7026   -15.658221    377.69978   -195.84854   -4096.1357 
 6485000    218.58228   -4901.7425    -4464.551   -4901.7425            0    4589.1453    18.052251    22.849227     19.46414    8028.5681    4462.7443    4883.1475    4421.5442    703.66655   -135.34076   -63.051298   -3927.2151 
 6486000    221.06714   -4900.6542   -4458.4926   -4900.6542            0    1453.9315    18.115173    23.000121    19.632534    8179.9184    1991.3354    1104.8771     1265.582   -193.46989   -425.13864    390.46991   -4285.0448 
 6487000    222.05539    -4903.234   -4459.0958    -4903.234            0     1173.092    18.350443     22.90641    19.414106    8160.5792    703.15192    1386.4748    1429.6493   -961.79062   -515.35066    709.19451   -4319.4818 
 6488000    226.88144   -4886.2413   -4432.4504   -4886.2413            0    3149.1412    18.240461    22.938243    19.343965     8093.595    2154.4647    4020.3153    3272.6437    58.972265    69.003321   -732.92348   -4060.7359 
 6489000    225.98154   -4896.2138   -4444.2228   -4896.2138            0     1785.071    18.047179    23.125332    19.587034    8174.5901    3740.4653    870.68228    744.06557    538.64391    170.99425   -1040.6742   -4231.4102 
 6490000    225.78547    -4881.874   -4430.2752    -4881.874            0    2465.1967    18.186408    23.084248    19.433733    8158.6608    3464.5879    1071.9049    2859.0972    1574.0342   -561.50434   -1456.0214    -4136.952 
 6491000    226.24897   -4921.8411   -4469.3152   -4921.8411            0    2445.9883    18.237404    22.942529    19.350885    8096.6455    1205.4049     2951.844     3180.716   -671.39945   -274.10439   -346.28529   -4180.4898 
 6492000     216.9559   -4889.7766    -4455.838   -4889.7766            0    2428.2535    18.120409     22.91571    19.618459    8146.4091    2642.3818    1728.6742    2913.7045   -867.75352    217.36079   -195.39231   -4167.3444 
 6493000     230.1967   -4880.0421   -4419.6202   -4880.0421            0    1899.8046      18.2347    22.946785    19.478866     8150.498    1915.1159    2176.3763    1607.9215   -774.51312    1431.4766   -18.882065   -4193.7968 
 6494000    221.24088   -4873.0899   -4430.5808   -4873.0899            0    4062.9399    18.180938    22.952348    19.405023    8097.6235    4717.2346     4518.301    2953.2841   -551.12101    1118.6786   -514.87686   -3950.7657 
 6495000    244.29672    -4902.294   -4413.6704    -4902.294            0    3341.7911    18.004882    22.959072    19.565916    8088.0679    5395.7817      3026.53    1603.0616 -0.092781623   -615.79906    405.85448   -4019.4855 
 6496000    218.78423   -4879.6175    -4442.022   -4879.6175            0    1664.8254    18.258409    22.755098    19.662762    8169.3248    729.94467    1685.4524     2579.079   -762.87246   -1283.5879   -608.90334   -4243.6727 
 6497000    225.33929   -4897.8293   -4447.1229   -4897.8293            0    2064.8588     18.26955    22.745456    19.588261     8139.887    2391.8001    2571.2868    1231.4896     565.1202   -797.73119    1718.3021   -4201.9996 
 6498000    231.39913   -4892.5245   -4429.6976   -4892.5245            0    1024.8444    18.164276    22.974529    19.540225    8154.4427    164.61723    887.15992    2022.7561    1000.4157   -194.28013   -610.36408   -4307.8188 
 6499000    225.64969   -4915.4764   -4464.1491   -4915.4764            0    1325.9591    18.099349    23.047541    19.548739     8154.668    2315.9031    520.72832    1141.2458   -631.70591    921.06871   -1622.1088   -4306.4562 
 6500000    237.34209   -4893.0114   -4418.2979   -4893.0114            0    4506.2702    18.102362    22.999285    19.280515    8027.2765    4617.1791    4752.6033    4149.0281    375.50299    198.26886   -45.978226   -3890.7507 
Loop time of 488.114 on 64 procs for 250000 steps with 1008 atoms

Performance: 88.504 ns/day, 0.271 hours/ns, 512.175 timesteps/s
99.1% CPU use with 64 MPI tasks x 1 OpenMP threads

MPI task timing breakdown:
Section |  min time  |  avg time  |  max time  |%varavg| %total
---------------------------------------------------------------
Pair    | 27.841     | 31.914     | 35.816     |  33.0 |  6.54
Bond    | 0.27615    | 0.28366    | 0.29573    |   0.8 |  0.06
Kspace  | 224.48     | 232.46     | 245.01     |  31.6 | 47.62
Neigh   | 3.3933     | 3.7514     | 4.5672     |  15.2 |  0.77
Comm    | 87.004     | 99.8       | 106.63     |  47.8 | 20.45
Output  | 1.4413     | 1.4474     | 1.4756     |   0.6 |  0.30
Modify  | 104.98     | 108.62     | 114.28     |  25.7 | 22.25
Other   |            | 9.841      |            |       |  2.02

Nlocal:        15.7500 ave          20 max          11 min
Histogram: 2 1 10 4 10 13 9 10 3 2
Nghost:        2494.67 ave        2533 max        2474 min
Histogram: 8 10 12 16 4 3 3 5 1 2
Neighs:        5211.73 ave        6599 max        3609 min
Histogram: 2 1 10 4 10 13 8 9 3 4

Total # of neighbors = 333551
Ave neighs/atom = 330.90377
Ave special neighs/atom = 2.0000000
Neighbor list builds = 7410
Dangerous builds = 1

unfix		3
unfix		2
unfix		1

write_data	data.final.${pid}
write_data	data.final.0
System init for write_data ...
PPPM initialization ...
  extracting TIP4P info from pair style
  using 12-bit tables for long-range coulomb (../kspace.cpp:340)
  G vector (1/distance) = 0.38309707
  grid = 24 30 32
  stencil order = 5
  estimated absolute RMS force accuracy = 0.0019714504
  estimated relative force accuracy = 5.9369643e-06
  using double precision FFTW3
  3d grid and FFT values/proc = 4080 384
Last active /omp style is kspace_style pppm/tip4p/omp
WARNING: Not all mixed pair coeffs generated from mixing. Use write_data with 'pair ij' option to store all pair coeffs. (../write_data.cpp:312)

write_restart   restart.lmp.${pid}
write_restart   restart.lmp.0
System init for write_restart ...
PPPM initialization ...
  extracting TIP4P info from pair style
  using 12-bit tables for long-range coulomb (../kspace.cpp:340)
  G vector (1/distance) = 0.38309707
  grid = 24 30 32
  stencil order = 5
  estimated absolute RMS force accuracy = 0.0019714504
  estimated relative force accuracy = 5.9369643e-06
  using double precision FFTW3
  3d grid and FFT values/proc = 4080 384
Last active /omp style is kspace_style pppm/tip4p/omp
Total wall time: 0:08:10
