LAMMPS data file via write_data, version 30 Jul 2021, timestep = 22250000

1008 atoms
2 atom types
672 bonds
1 bond types
336 angles
1 angle types

-3.060024250154555 14.670023249708763 xlo xhi
-0.2485016427963096 22.828500642793983 ylo yhi
0.022183273798333403 19.20781472619479 zlo zhi
-0.1196404091643239 -6.486989345805705 -0.04786720450472812 xy xz yz

Masses

1 1.008
2 15.999

Pair Coeffs # lj/cut/tip4p/long/omp

1 0 0
2 0.21084 3.1668

Bond Coeffs # harmonic/omp

1 450 0.9572

Angle Coeffs # harmonic/omp

1 55 104.52

Atoms # full

21 7 1 0.5897 1.3109455359718583 1.8461865338480066 1.027451079875028 0 0 0
55 19 2 -1.1794 -0.6249755614572843 4.119655807927729 3.653437156178614 0 0 0
56 19 1 0.5897 -1.1849975375511288 3.486756198194194 3.204077375293848 0 0 0
57 19 1 0.5897 0.16063114252054334 4.173700449013532 3.109291079669852 0 0 0
121 41 2 -1.1794 -2.339757814024107 2.239465256107518 2.5253968712064925 1 0 0
122 41 1 0.5897 -2.348416065228848 1.9139502932616064 1.625302152928655 1 0 0
86 29 1 0.5897 -2.1000779280170176 1.204315984388042 3.960926694942714 1 0 0
31 11 2 -1.1794 1.3244963949257489 0.594453122340223 2.407129170905562 0 0 0
32 11 1 0.5897 1.1787621715108187 0.9270842746677184 3.2927677694058226 0 0 0
123 41 1 0.5897 -3.1547720683937563 2.7341961737068563 2.6096338731228617 1 0 0
46 16 2 -1.1794 1.8055218777685864 4.465566632629009 2.428038590776654 0 0 0
47 16 1 0.5897 1.9067048304966958 5.024002781693555 1.6572078713484777 0 0 0
33 11 1 0.5897 0.5881737119060371 0.00392123274802153 2.24850206102728 0 0 0
71 24 1 0.5897 3.247643412815565 0.5220857943562821 1.8985577512340983 0 0 0
101 34 1 0.5897 -2.6504482189174556 4.166877749795794 0.35049386241750063 1 0 0
70 24 2 -1.1794 4.075826252706979 0.3400362743518299 1.4545220958457354 0 0 0
78 26 1 0.5897 0.30164951295351505 2.8078577743352504 4.592038259085253 0 0 0
158 53 1 0.5897 -4.333432045036753 4.501725435409044 4.378958072579778 1 0 0
52 18 2 -1.1794 3.8107795956804464 2.6711521621359076 3.5379382858125332 0 0 0
48 16 1 0.5897 1.9285297500867191 5.056908229636587 3.170582729303899 0 0 0
54 18 1 0.5897 3.2053524441176364 3.2041472844416865 3.022742669827796 0 0 0
76 26 2 -1.1794 1.0158538167403783 2.194035145226806 4.762996310784133 0 0 0
602 201 1 0.5897 -0.5203796875722237 5.042808419983278 0.614734839124037 1 0 1
527 176 1 0.5897 4.056671746107691 1.6925840501970153 0.2982329348269459 0 0 1
16 6 2 -1.1794 5.464931934097047 4.572144297076877 0.13435632454843338 0 0 0
53 18 1 0.5897 4.64669362025637 2.7448422882415873 3.0774759653188637 0 0 0
72 24 1 0.5897 4.575184656200435 -0.18158732948426234 2.082722706962211 0 0 0
19 7 2 -1.1794 1.1834320059173464 2.3213253951655837 0.20636054507559717 0 0 0
114 38 1 0.5897 -3.4111664333794542 5.446831264866506 1.9967953902018423 1 0 0
6 2 1 0.5897 3.5196155641310902 1.2240098111860311 4.771410024180236 0 0 0
601 201 2 -1.1794 -0.8018305576990823 4.258736757543271 0.1433662750170968 1 0 1
603 201 1 0.5897 -0.08436702756579795 3.636509529563111 0.26245015000496974 1 0 1
163 55 2 -1.1794 -2.2170104885246764 0.9729176804281396 0.22982460947965824 1 0 0
18 6 1 0.5897 5.132008904195841 3.6748476672484336 0.12081221088465176 0 0 0
134 45 1 0.5897 -1.9703295346266665 2.3010902309212646 6.016785978805816 1 0 0
135 45 1 0.5897 -1.7173625929410137 3.6334418103115285 6.689593730044344 1 0 0
60 20 1 0.5897 2.9697235532019333 3.7097071967554425 6.854987853088308 0 0 0
34 12 2 -1.1794 0.412501658548297 1.100369798376292 7.272074347022592 0 0 0
35 12 1 0.5897 0.41563593220209105 1.792361159025618 7.9333983605059135 0 0 0
36 12 1 0.5897 -0.4394122599125474 0.6758741504320576 7.373039446062817 0 0 0
401 134 1 0.5897 2.5805930250809883 -0.10145160630177089 8.899273098413097 0 1 0
669 223 1 0.5897 -5.116575093513434 1.6375917464143808 8.953464241792764 1 0 0
124 42 2 -1.1794 -4.998010809309031 2.2989005255300494 7.419739380790022 1 0 0
58 20 2 -1.1794 2.2540627196271172 3.994926009077327 6.287113478578316 0 0 0
59 20 1 0.5897 2.0776403968591515 3.2398818707700086 5.725897131073868 0 0 0
157 53 2 -1.1794 -3.8590117296742275 5.029847630556015 5.020906254675402 1 0 0
43 15 2 -1.1794 -0.33319198548648954 4.7145415836160405 7.176163505925799 0 0 0
126 42 1 0.5897 -4.10489180896665 2.609273023399691 7.270969687742318 1 0 0
45 15 1 0.5897 0.5847284014296248 4.459199399661983 7.0849524600909195 0 0 0
133 45 2 -1.1794 -2.41524096425975 3.0151200825140565 6.473332734874162 1 0 0
67 23 2 -1.1794 -2.073981248158872 0.3929719444558777 8.265474333737364 0 0 0
159 53 1 0.5897 -3.2007492067652 4.435584118936156 5.38092339909804 1 0 0
98 33 1 0.5897 -3.9250469572433575 4.868953747259964 8.786979521167586 1 0 0
44 15 1 0.5897 -0.4110549695211412 5.010712405987544 8.083052451215318 0 0 0
77 26 1 0.5897 0.7694673856668941 1.7607968997820644 5.580242028429796 0 0 0
69 23 1 0.5897 -2.300849810228974 1.0975722456101666 8.872360545825718 0 0 0
5 2 1 0.5897 3.217928464248075 -0.08255632653337328 5.474182184848463 0 0 0
522 174 1 0.5897 2.26350799283016 5.4358013883278105 9.0140954405001 0 0 0
90 30 1 0.5897 -4.9687837169026 1.39774622614257 5.824879001175395 1 0 0
68 23 1 0.5897 -2.908994993979601 0.13305848610768461 7.876611441083316 0 0 0
87 29 1 0.5897 -2.972207501092715 0.6092373554492833 5.045990915740509 1 0 0
22 8 2 -1.1794 0.3592661585299517 2.7988258295340542 9.545980826170492 0 0 0
11 4 1 0.5897 2.2038071060983295 5.475495574019405 5.339553997496292 0 0 0
520 174 2 -1.1794 2.4673791335222504 4.695509627813731 9.58559219340304 0 0 0
4 2 2 -1.1794 3.8355177670252427 0.648702245644353 5.468103705204801 0 0 0
24 8 1 0.5897 1.1030150804903043 3.3989701604899065 9.598839648607031 0 0 0
85 29 2 -1.1794 -2.05938188364084 0.7929047723989597 4.824241208630152 1 0 0
23 8 1 0.5897 0.5704452604066157 2.099657390615339 10.16465567853826 0 0 0
523 175 2 -1.1794 -2.3516599452544362 2.417786478614061 10.051476645460857 0 0 0
560 187 1 0.5897 -4.572623375300858 3.852485121528776 12.431688279441621 0 0 0
576 192 1 0.5897 -0.11078045246484258 0.43812640572413564 11.58587628974558 0 0 0
662 221 1 0.5897 -7.475353395145294 4.302979477549286 14.156106926577449 1 0 0
99 33 1 0.5897 -3.8150281257385346 5.407149092270199 10.197659890759258 1 0 0
627 209 1 0.5897 -6.7103802378845625 2.6223278477575827 12.20224409325935 1 0 0
667 223 2 -1.1794 -5.312319657002211 1.074857983963335 9.70265386209906 1 0 0
535 179 2 -1.1794 -1.830718239530813 0.9235368391367975 12.21790293306783 0 0 0
536 179 1 0.5897 -1.9709219142720151 1.389372620348719 13.042269781419495 0 0 0
537 179 1 0.5897 -1.973534667464102 1.5851529849538075 11.541089098704074 0 0 0
574 192 2 -1.1794 0.701345874250638 0.40812523392134703 11.080126653840773 0 0 0
625 209 2 -1.1794 -5.813721043795564 2.3810912859322526 11.970005529028699 1 0 0
556 186 2 -1.1794 0.5159777133109342 3.3197257242665854 13.09844396333479 0 0 0
561 187 1 0.5897 -3.6236447178365756 3.6564214426624466 13.594597290545767 0 0 0
668 223 1 0.5897 -5.5537422843729916 1.6819476679757457 10.402223404821667 1 0 0
558 186 1 0.5897 -0.2967361640556243 3.6905090650566614 12.754878063605299 0 0 0
559 187 2 -1.1794 -3.977681301726939 4.3278216125328415 13.011482968498955 0 0 0
550 184 2 -1.1794 -1.356663175965422 5.010398793040183 12.038298096321705 0 0 0
552 184 1 0.5897 -2.2889694489514705 4.828610464240189 12.156076778139361 0 0 0
626 209 1 0.5897 -5.571966673419151 1.711765097815488 12.610111091933609 1 0 0
557 186 1 0.5897 0.32245270431659456 2.3904594594859723 13.222016742947257 0 0 0
524 175 1 0.5897 -2.833214543816227 3.2414406153886968 9.974880091583286 0 0 0
986 329 1 0.5897 -4.286231616734723 -0.06326709543211687 10.616347376124832 1 1 0
97 33 2 -1.1794 -3.967204150587314 4.600797069802119 9.704883189811847 1 0 0
606 202 1 0.5897 -5.848306841319193 4.568517850714165 9.707071212498853 1 0 0
589 197 2 -1.1794 -5.592334519325737 0.6169044976982441 14.222723513618796 1 0 0
575 192 1 0.5897 1.3271800620715997 -0.029502756940314012 11.657067012716261 0 0 0
987 329 1 0.5897 -3.1964762628263927 -0.18662647645636876 11.659681816985284 1 1 0
591 197 1 0.5897 -4.954295809101772 -0.07678239013797669 14.389528750423173 1 0 0
525 175 1 0.5897 -1.4403767500533768 2.655951570957667 9.88124054769513 0 0 0
547 183 2 -1.1794 -3.622657061723209 4.933754754849299 16.821373469902998 0 0 0
581 194 1 0.5897 -2.8017557247964033 1.7811331146443679 15.072149709050516 0 0 0
571 191 2 -1.1794 -5.626375608332509 -0.06687859743796143 17.933779101811243 0 0 0
508 170 2 -1.1794 0.5992237991311686 0.8068678687412518 14.659666875434464 0 0 0
580 194 2 -1.1794 -2.4732110665750504 2.448031091266814 14.469158081008246 0 0 0
563 188 1 0.5897 -0.7504473706951247 5.047519256681872 15.707432796186346 0 0 0
639 213 1 0.5897 -5.744354633680635 3.7160294681987294 15.343192843232988 1 0 0
165 55 1 0.5897 -9.336364683385725 0.2747363928242508 19.110017799172102 1 0 -1
538 180 2 -1.1794 -3.2563930294697583 0.7114255852706843 16.6204077079245 0 0 0
539 180 1 0.5897 -2.9732236109906305 1.3422690700914999 17.28222942655949 0 0 0
630 210 1 0.5897 -7.986120408258888 1.3173659941561857 16.383495912803454 1 0 0
540 180 1 0.5897 -4.137674815047832 0.4565665947385187 16.893463328478116 0 0 0
638 213 1 0.5897 -6.121856241803579 2.6960044552788816 16.39632840101371 1 0 0
549 183 1 0.5897 -4.1195772383524005 4.210455843102223 16.439202813264334 0 0 0
562 188 2 -1.1794 -0.8837260787571735 4.244922352729012 16.211766534269678 0 0 0
582 194 1 0.5897 -1.8435937963785642 2.9500662851352653 14.986463379153138 0 0 0
564 188 1 0.5897 -1.6588576705007014 4.422202490581166 16.744665410145995 0 0 0
637 213 2 -1.1794 -5.39398860033343 2.9783892870358826 15.842485766137878 1 0 0
164 55 1 0.5897 -8.267046257955855 1.227402175485154 18.619240773214887 1 0 -1
628 210 2 -1.1794 -7.665567825297666 1.9293130907709228 17.04597654490158 1 0 0
593 198 1 0.5897 -7.467184553182359 0.3759557262996339 14.50174849641629 1 0 0
20 7 1 0.5897 -5.539102414950946 1.596800215477049 18.75731957638723 0 0 -1
526 176 2 -1.1794 -2.5822561856902118 2.347675837362113 18.852219176759277 0 0 0
590 197 1 0.5897 -5.419847299845712 1.2699172697173442 14.90095944560927 1 0 0
528 176 1 0.5897 -3.5084486751953685 2.5662073378220907 18.954724100940982 0 0 0
661 221 2 -1.1794 -6.90370908923355 4.9719218821677975 14.532754874511316 1 0 0
629 210 1 0.5897 -8.240076429124958 2.6908291421813146 16.967414122275535 1 0 0
289 97 2 -1.1794 -2.4684347361088426 9.919864861613526 2.351883527988197 1 0 0
255 85 1 0.5897 -2.404538602663988 9.015077827195887 3.967206495719831 1 0 0
146 49 1 0.5897 -1.4169499848213971 6.482250818421312 2.1442222900159638 1 0 0
147 49 1 0.5897 -1.105313525848977 7.438293350247364 1.0124510827992905 1 0 0
332 111 1 0.5897 -2.221868875834904 9.340062207586568 0.6620723362039169 1 0 0
145 49 2 -1.1794 -0.7085452757460291 6.766088642263166 1.5663969859122442 1 0 0
112 38 2 -1.1794 -3.177877944002682 6.155598264982193 2.5962770217891666 1 0 0
291 97 1 0.5897 -3.237367228279549 10.462838444805984 2.5252466402548874 1 0 0
290 97 1 0.5897 -1.7443027895809227 10.542607542612686 2.2887260797157016 1 0 0
188 63 1 0.5897 0.9559967237462192 9.79363699619956 1.562170267498309 0 0 0
200 67 1 0.5897 0.7787659422769586 7.745628264837631 2.2156488745290868 0 0 0
199 67 2 -1.1794 1.315486553969837 8.368291950602375 2.7058778224265794 0 0 0
694 232 2 -1.1794 3.4723112455090197 10.151075350869514 0.05503711129776298 0 0 1
29 10 1 0.5897 4.987583223908931 6.635980304017584 2.22459697867958 0 0 0
222 74 1 0.5897 2.9657310723710903 11.162161589329163 2.8496930813485783 0 0 0
238 80 2 -1.1794 3.718043286338027 7.780670400166763 1.5143386235362868 0 0 0
221 74 1 0.5897 4.3646890824082165 10.586040386825792 2.799737434469727 0 0 0
245 82 1 0.5897 0.8259442044028966 9.294760224075112 4.140382945152049 0 0 0
189 63 1 0.5897 1.6914065980631579 10.311764899718499 0.34447129671225546 0 0 0
201 67 1 0.5897 2.1848190392881017 8.29816276984384 2.3115429855009317 0 0 0
9 3 1 0.5897 -0.9818036832880539 5.699613355484529 4.531353444038543 0 0 0
187 63 2 -1.1794 0.8139657440038603 10.214741043648523 0.7144108866388373 0 0 0
220 74 2 -1.1794 3.5074574063743498 10.458048496256419 3.2058889505813215 0 0 0
240 80 1 0.5897 3.3044656950529925 7.130188020474124 0.9469325755909663 0 0 0
239 80 1 0.5897 3.660834001912737 8.599624709964145 1.0221210044126705 0 0 0
174 58 1 0.5897 3.6202326867368786 9.058845204001328 4.25606224174449 0 0 0
113 38 1 0.5897 -3.316584491150112 5.7872889097228715 3.468847551717334 1 0 0
696 232 1 0.5897 4.0745540008746834 10.894698418644245 0.0327469798127674 0 0 1
82 28 2 -1.1794 2.1235412635614583 6.045611526708706 0.19622076965341048 0 0 0
244 82 2 -1.1794 0.6522442080902948 10.013827656504827 4.7478422882858045 0 0 0
173 58 1 0.5897 3.0682859877143853 7.738014904715734 4.748743996926504 0 0 0
10 4 2 -1.1794 2.014145562951155 6.143726613378339 4.681018327385624 0 0 0
191 64 1 0.5897 0.5422432993184394 9.786494063901882 8.676938576298388 0 0 0
110 37 1 0.5897 -4.096292391279368 5.794008938609094 6.544824647506594 1 0 0
109 37 2 -1.1794 -4.228572691070415 6.113719845432498 7.437310739437899 1 0 0
111 37 1 0.5897 -5.128268476748612 6.440173412088704 7.444504593896951 1 0 0
293 98 1 0.5897 -3.9440286916930365 10.576400362321483 7.401825672443049 1 0 0
172 58 2 -1.1794 3.809615672916312 8.334498251192793 4.852430338655004 0 0 0
292 98 2 -1.1794 -4.85806847601153 10.440553713098184 7.651304905292201 1 0 0
7 3 2 -1.1794 -0.7874728245955165 6.489513376273691 5.0358136037183066 0 0 0
246 82 1 0.5897 0.49871167202895084 9.584991939561522 5.589746821701585 0 0 0
294 98 1 0.5897 -4.812891125265391 9.934983374237767 8.462831840491424 1 0 0
837 279 1 0.5897 -5.637659795227027 8.203656693762815 9.193073365895613 1 0 0
64 22 2 -1.1794 2.191541627687677 6.941500590244262 7.991786821375485 0 0 0
228 76 1 0.5897 1.8103980150329066 11.070470556724146 5.663469476030626 0 0 0
202 68 2 -1.1794 0.3186769370929432 8.620605327651463 7.112077886833514 0 0 0
203 68 1 0.5897 -0.5494686937344864 8.397429353279124 7.44779915029201 0 0 0
204 68 1 0.5897 0.8723244848216822 7.88363601537689 7.369908815999828 0 0 0
65 22 1 0.5897 2.559037813268432 7.624507487821199 8.552674492733479 0 0 0
235 79 2 -1.1794 -2.214108717562908 7.97824523407475 8.26860139557291 0 0 0
236 79 1 0.5897 -3.0044649893943256 7.523803866431124 7.977253797909268 0 0 0
237 79 1 0.5897 -2.5298660303828684 8.63490522592265 8.889353253127712 0 0 0
302 101 1 0.5897 -1.9947395281133735 10.176819354751373 6.084862891254388 1 0 0
301 101 2 -1.1794 -2.2145089676254 10.92189664332554 6.644132336077322 1 0 0
588 196 1 0.5897 -1.3163256252171585 6.725141501833006 9.422680135602926 0 0 0
8 3 1 0.5897 -0.7601462240702048 6.192649616949943 5.945398950854755 0 0 0
66 22 1 0.5897 2.9534324225864594 6.5305271889686125 7.583349362567961 0 0 0
258 86 1 0.5897 -5.041711077554221 9.220088400680053 6.125497754811824 1 0 0
253 85 2 -1.1794 -2.3178729151048034 8.791874993704159 4.893960248278814 1 0 0
257 86 1 0.5897 -4.100331909812121 8.427473864316529 5.243750254130099 1 0 0
192 64 1 0.5897 1.060479349587041 10.910198560213985 9.548929818436088 0 0 0
586 196 2 -1.1794 -0.6167036652079889 6.097066162428434 9.601947535608828 0 0 0
190 64 2 -1.1794 0.4474812062613611 10.175085502206114 9.546559708716593 0 0 0
254 85 1 0.5897 -1.726082575214158 8.039679251011252 4.905241025782309 1 0 0
12 4 1 0.5897 1.121746611210602 6.42814043794776 4.878007190515085 0 0 0
691 231 2 -1.1794 -2.301121360375891 10.205428535517623 10.034686246596278 0 0 0
794 265 1 0.5897 -5.309739607364687 10.809519302094518 12.016265762439716 1 0 0
617 206 1 0.5897 -7.045630621976912 7.027597089639282 11.835289634528035 1 0 0
678 226 1 0.5897 0.5129750278513168 9.292681520229758 13.935604715803182 0 0 0
742 248 2 -1.1794 0.7623986894513322 7.832118153239186 11.307053828251318 0 0 0
724 242 2 -1.1794 0.5779555018797424 10.764648671152594 12.825690724919287 0 0 0
616 206 2 -1.1794 -6.383978466081749 6.388191526908756 12.098864205867843 1 0 0
693 231 1 0.5897 -2.3637800456288276 9.689210211130309 10.838334845741215 0 0 0
649 217 2 -1.1794 -3.71952792244903 6.995451546865427 11.139485173872657 1 0 0
650 217 1 0.5897 -3.107226799568079 7.428139269613762 11.734390154676007 1 0 0
651 217 1 0.5897 -4.5235135097487635 6.900356248628643 11.650160526199516 1 0 0
795 265 1 0.5897 -5.891558205761292 9.738183248404727 11.118819724315035 1 0 0
744 248 1 0.5897 0.30299640986733856 7.265179358925644 10.687685490156246 0 0 0
793 265 2 -1.1794 -5.989885879451496 10.136839138112496 11.98348230006574 1 0 0
587 196 1 0.5897 -0.8861863215940025 5.66209567162781 10.41094627281851 0 0 0
759 253 1 0.5897 -5.560123093072123 9.064176898116003 13.524191433414348 1 0 0
703 235 2 -1.1794 -1.7595205493826187 8.352929120695839 12.31579948215418 0 0 0
704 235 1 0.5897 -0.8374977103890053 8.110424599861839 12.231204520976503 0 0 0
705 235 1 0.5897 -1.775755667852609 8.989504262346687 13.030450043268157 0 0 0
743 248 1 0.5897 0.9943267418498039 8.607605710359625 10.79607238726582 0 0 0
836 279 1 0.5897 -4.466515393608274 8.182357857621588 10.151856307029888 1 0 0
513 171 1 0.5897 -3.9786663924608447 5.881758419246396 14.051031553809906 0 0 0
618 206 1 0.5897 -6.487454321225098 5.6662135230517094 11.47899137107061 1 0 0
692 231 1 0.5897 -1.370945229452012 10.417291813063745 9.957307755378753 0 0 0
835 279 2 -1.1794 -5.084604992572766 8.775611846903082 9.72513119924326 1 0 0
750 250 1 0.5897 -3.070408846232916 10.699190349054161 13.942793991918553 0 0 0
663 221 1 0.5897 -6.650323809892917 5.5179393695222805 13.788471468198086 1 0 0
551 184 1 0.5897 -1.1295361915357276 5.583122050856281 12.770802000704027 0 0 0
515 172 1 0.5897 -1.795949766306177 6.717548712373098 14.292320900656824 0 0 0
748 250 2 -1.1794 -2.4555697873349827 10.118607459607064 14.391090961202035 0 0 0
757 253 2 -1.1794 -5.550794649637561 8.54208690728295 14.326424809357615 1 0 0
797 266 1 0.5897 -7.097643243919617 10.403332237351393 16.599189548159796 1 0 0
695 232 1 0.5897 -3.0349782657668136 9.783803036191646 18.338575575995957 0 0 0
741 247 1 0.5897 -5.992535832265652 8.676243891224917 18.402620550429674 0 0 0
613 205 2 -1.1794 -7.362429196711254 6.172689703502326 16.993310600824174 1 0 0
740 247 1 0.5897 -6.250294118438101 7.448080366008238 17.55588084250678 0 0 0
568 190 2 -1.1794 -1.215017376842126 7.200817307693019 17.927921633062557 0 0 0
333 111 1 0.5897 -8.185021378789099 9.311579649614215 18.42739801895823 1 0 -1
548 183 1 0.5897 -3.5723104770914427 5.586049368699462 16.122633116636468 0 0 0
758 253 1 0.5897 -5.518986153923507 9.187596173959411 15.032475443157674 1 0 0
83 28 1 0.5897 -4.887290915740848 6.71383525540504 19.02278578103623 0 0 -1
569 190 1 0.5897 -1.2484622546123694 6.409561430348763 18.46553427057169 0 0 0
749 250 1 0.5897 -3.0072767158860803 9.566404632333787 14.945156181059327 0 0 0
798 266 1 0.5897 -8.171372843515474 9.453510608525491 16.112858180214648 1 0 0
615 205 1 0.5897 -7.133402096312217 5.710203955103288 16.187157202772774 1 0 0
796 266 2 -1.1794 -7.969888166730642 10.07297350084651 16.814173008620195 1 0 0
706 236 2 -1.1794 -3.06056149381761 8.85814175407187 16.837948761214637 0 0 0
707 236 1 0.5897 -3.9055095205459684 8.52506925172635 17.14009833610915 0 0 0
708 236 1 0.5897 -2.4235809570612927 8.216517748570872 17.15206124185707 0 0 0
739 247 2 -1.1794 -5.552991164360515 8.039316676554709 17.839263104554444 0 0 0
511 171 2 -1.1794 -3.6427776895485566 6.613334478636436 14.568848973963886 0 0 0
570 190 1 0.5897 -0.4694137298978722 7.0627928793270875 17.343728524759882 0 0 0
731 244 1 0.5897 -1.45388079684066 11.131526170828698 15.411235408451319 0 0 0
805 269 2 -1.1794 -5.479771012314552 10.827489393919231 15.837111976740053 1 0 0
762 254 1 0.5897 -7.51718354258752 8.236799608929577 14.517669645395936 1 0 0
732 244 1 0.5897 -0.3879246596430965 11.021469921603785 16.48031798184532 0 0 0
676 226 2 -1.1794 0.7198746916518868 8.610776100372624 14.574662442069904 0 0 0
331 111 2 -1.1794 -8.560561641527983 8.729281475431014 19.08785455438735 1 0 -1
614 205 1 0.5897 -7.408552662410446 5.486337917004202 17.658923591308284 1 0 0
84 28 1 0.5897 -3.9874338204995636 5.5670724633550694 18.614127634702527 0 0 -1
514 172 2 -1.1794 -0.9115834009854682 6.3723398520911125 14.41387258748769 0 0 0
512 171 1 0.5897 -4.292798231037937 7.306562376178604 14.454880602126497 0 0 0
516 172 1 0.5897 -0.3663769761046307 7.148712356751919 14.541064773394199 0 0 0
280 94 2 -1.1794 -3.3900694830615654 13.87995003326608 2.3719842427257305 1 0 0
281 94 1 0.5897 -3.370642756355707 13.502980977763912 3.251609902412294 1 0 0
216 72 1 0.5897 1.2141465589907527 12.40690565833843 2.439424772670583 0 0 0
282 94 1 0.5897 -2.480851649324629 14.119948259748192 2.1934494519824743 1 0 0
313 105 2 -1.1794 -0.9147740197203094 14.539425924923808 1.495478081113678 1 0 0
315 105 1 0.5897 -0.5796438944895796 13.727754440055842 1.1145428560082424 1 0 0
225 75 1 0.5897 -0.8835648581124578 12.71703626374286 3.64531986427976 0 0 0
223 75 2 -1.1794 -0.6456400349745555 11.929476896823507 3.156061912962573 0 0 0
500 167 1 0.5897 -1.2654234022969542 16.100732087051256 0.27042518093969115 1 0 0
423 141 1 0.5897 -2.3242333189946254 16.311723351841138 3.7571938631668194 1 0 0
407 136 1 0.5897 4.547216203809249 15.301700187118227 2.0541705395127456 0 0 0
180 60 1 0.5897 2.0986350243363256 13.970031478209286 4.065230326606962 0 0 0
252 84 1 0.5897 3.010271329876786 14.615963178254349 0.4377945972165177 0 0 0
408 136 1 0.5897 4.108593044767173 16.55651002075408 1.3297359437844534 0 0 0
214 72 2 -1.1794 2.0793480541888707 12.790666375374254 2.5816483090243842 0 0 0
367 123 2 -1.1794 1.1899065297761258 15.94019851504164 2.5432136957812013 0 0 0
368 123 1 0.5897 2.1153811009796 15.841366856987587 2.3199271962400103 0 0 0
314 105 1 0.5897 -0.15140892844171994 14.944685296980605 1.9066572082255504 1 0 0
250 84 2 -1.1794 2.5002590439486863 13.87305963070071 0.11509727175231252 0 0 0
215 72 1 0.5897 2.3177242273521506 13.166199404063626 1.7340396943353238 0 0 0
406 136 2 -1.1794 3.7672557222424636 15.785603427059833 1.7829959208557389 0 0 0
369 123 1 0.5897 1.1933600624797833 16.393874573507112 3.3860436690411984 0 0 0
224 75 1 0.5897 -0.2873323129003036 11.336045947495474 3.8160599647986997 0 0 0
184 62 2 -1.1794 5.049992525570337 12.236647240454907 0.19506710649490938 0 0 0
499 167 2 -1.1794 -1.9687448482688985 16.702871492950898 0.027832404016482185 1 0 0
421 141 2 -1.1794 -2.282480546355834 16.074255988446723 4.683520616969415 1 0 0
771 257 1 0.5897 -0.05092982783649358 11.580250310173648 0.08422170796946804 1 0 1
404 135 1 0.5897 -1.512077942086166 15.830498785714507 7.892951101778669 0 0 0
1004 335 1 0.5897 -5.228696944516265 16.98443077337735 9.16890384685345 1 0 0
422 141 1 0.5897 -2.1202227254076016 16.90182053116876 5.136298909952786 1 0 0
327 109 1 0.5897 -4.031414081983167 13.249601772574197 5.464957545781451 1 0 0
405 135 1 0.5897 -2.3523255543829 16.50592144920582 8.955858649236678 0 0 0
211 71 2 -1.1794 -0.08929805567554894 12.552784666279269 7.3504866043600945 0 0 0
227 76 1 0.5897 1.5479573584982118 11.862037615351916 6.926979946691503 0 0 0
213 71 1 0.5897 -0.3989631633186179 13.124262494216346 6.647864899195883 0 0 0
212 71 1 0.5897 -0.1252989864441072 13.097806369179642 8.136536640020442 0 0 0
326 109 1 0.5897 -3.1333100804779592 12.035860722478496 5.5741887785516795 1 0 0
232 78 2 -1.1794 2.1383383686694426 14.664568235646453 8.184569012782335 0 0 0
176 59 1 0.5897 -1.2388544128088441 14.687673815234547 5.096487649643019 0 0 0
234 78 1 0.5897 1.4599129723671371 15.118042562935909 7.684443588596547 0 0 0
370 124 2 -1.1794 0.13025942921606903 16.34044357714319 7.138769866275544 0 0 0
179 60 1 0.5897 2.425535850767724 13.266936495111109 5.365444502626402 0 0 0
277 93 2 -1.1794 -4.206827696445126 14.23303132544311 7.170176755125187 1 0 0
278 93 1 0.5897 -3.728620076692038 14.923148101097002 7.629724460322362 1 0 0
372 124 1 0.5897 0.41274935165965454 16.68351884818924 6.290950048290098 0 0 0
756 252 1 0.5897 -1.28467225003799 14.174522798178925 9.371299642986921 0 0 0
403 135 2 -1.1794 -2.202158145127876 15.659905946387633 8.534025026771063 0 0 0
226 76 2 -1.1794 2.255919590920503 11.533727801035885 6.372694520585197 0 0 0
267 89 1 0.5897 -3.2982489262583097 12.943116793108297 8.68354202418861 1 0 0
303 101 1 0.5897 -1.377504715775455 11.358359728135394 6.802254645939197 1 0 0
233 78 1 0.5897 2.8168492955511883 14.462709126786159 7.540268596280704 0 0 0
279 93 1 0.5897 -5.112901095350882 14.334068098938534 7.461672239289439 1 0 0
341 114 1 0.5897 3.344697793035973 15.471986575117503 5.037503194845897 0 0 0
690 230 1 0.5897 2.2493729202166612 13.10007767776232 9.241991865067307 0 0 0
325 109 2 -1.1794 -3.610939585878018 12.569280582608775 4.939024676718048 1 0 0
462 154 1 0.5897 -4.972968913326634 16.951132792149693 6.858496666096559 1 0 0
177 59 1 0.5897 0.17967710252074998 14.204376515155538 4.882517638872976 0 0 0
175 59 2 -1.1794 -0.7023887876646686 13.89501731348291 5.088493272146432 0 0 0
178 60 2 -1.1794 2.181541945623983 14.120236051551524 5.00690837785548 0 0 0
340 114 2 -1.1794 3.877177552707307 16.263272322249833 5.118279882800958 0 0 0
265 89 2 -1.1794 -3.4953772282222606 12.667381350776125 9.578747006940139 1 0 0
425 142 1 0.5897 -4.043634450505039 16.177995321743836 4.860727733577107 1 0 0
774 258 1 0.5897 -5.272665785981736 12.339336048897389 9.69327092032621 1 0 0
728 243 1 0.5897 -3.1150030556298365 12.023500124962622 12.348180799821963 0 0 0
725 242 1 0.5897 1.046923812100868 11.285011841336978 13.477901547907308 0 0 0
718 240 2 -1.1794 -1.3716563033631672 12.344435731775038 11.990884870483637 0 0 0
912 304 1 0.5897 1.2914806032378037 15.342278897057508 11.653536154365094 0 0 0
720 240 1 0.5897 -1.3001694229058893 12.85797214493386 12.795464558578319 0 0 0
727 243 2 -1.1794 -3.926974369515155 11.829487012351104 12.816423793985706 0 0 0
871 291 2 -1.1794 -1.771260646745028 16.712953804930557 12.059845598020738 0 0 0
1003 335 2 -1.1794 -5.444013148189863 16.35124808790239 9.85372349812363 1 0 0
784 262 2 -1.1794 -6.1197675586351 13.920486980030551 12.180117574612405 1 0 0
729 243 1 0.5897 -4.051886142434164 12.577539234084819 13.400415977092715 0 0 0
911 304 1 0.5897 -0.015467434803329017 16.104009474409562 11.710420062691004 0 0 0
910 304 2 -1.1794 0.730996953531935 15.923119553887762 11.139175154128129 0 0 0
962 321 1 0.5897 -5.806958987930648 16.926605680551987 12.724621956720854 1 0 0
846 282 1 0.5897 0.4690637771745587 16.872987027420177 14.116314801871146 0 0 0
719 240 1 0.5897 -1.1511211135343635 12.96071193053378 11.292417820757205 0 0 0
786 262 1 0.5897 -6.314335523790171 13.382058750443818 12.947271352184345 1 0 0
817 273 2 -1.1794 -3.657242293237255 14.816050057143375 11.367209051548503 1 0 0
818 273 1 0.5897 -4.504421013345846 14.550042596267097 11.72461966460851 1 0 0
819 273 1 0.5897 -3.4493685797063245 14.144657693899795 10.717399491101292 1 0 0
873 291 1 0.5897 -2.342098962655867 15.94873763203876 11.980501972570874 0 0 0
785 262 1 0.5897 -6.919971553034132 14.424019827193801 12.031221077369178 1 0 0
1005 335 1 0.5897 -4.596218444893682 16.082928862693215 10.207562195527386 1 0 0
831 277 1 0.5897 -7.70411885153947 11.981666742143043 14.005693844618248 1 0 0
755 252 1 0.5897 -0.003141805060283609 14.475573881871611 10.118538694851972 0 0 0
773 258 1 0.5897 -6.220404151814243 12.736519988034585 10.805048213476557 1 0 0
772 258 2 -1.1794 -6.202038047193346 12.373184654148751 9.919684414331867 1 0 0
682 228 2 -1.1794 -1.075132839811146 13.891314844057742 14.294809892507644 0 0 0
688 230 2 -1.1794 2.3394611796294864 12.371937372344544 9.856744796599973 0 0 0
829 277 2 -1.1794 -6.975378479363922 12.52638456508493 14.302846488018629 1 0 0
754 252 2 -1.1794 -0.5323016374643474 13.751265820513266 9.784607702812181 0 0 0
726 242 1 0.5897 -0.09956390911321478 11.352504278250311 12.491859685877229 0 0 0
925 309 2 -1.1794 -5.704362109401402 16.082014540356752 14.395658260763314 1 0 0
266 89 1 0.5897 -3.006760997979659 11.852142269623153 9.69181756991622 1 0 0
680 227 1 0.5897 -2.9038519875927253 14.132690638813225 14.403352234483405 0 0 0
844 282 2 -1.1794 0.513966866350339 16.057041305038897 14.614763341276841 0 0 0
783 261 1 0.5897 -8.24932935506256 14.121210648078877 16.957204936045834 1 0 0
717 239 1 0.5897 -2.4990549114984972 12.115981865750541 16.831987640802435 0 0 0
875 292 1 0.5897 -2.969324999366407 16.80496424681613 16.005643660269804 0 0 0
927 309 1 0.5897 -5.352524762567471 16.930951105863656 14.663445849661558 1 0 0
681 227 1 0.5897 -3.901653282938753 13.491955120188106 15.344576927840638 0 0 0
830 277 1 0.5897 -7.351596595959407 13.076627545337264 14.989826357942125 1 0 0
930 310 1 0.5897 -7.5043511963683 15.890868215318854 14.565444118437961 1 0 0
715 239 2 -1.1794 -3.43138537709042 12.322319921468441 16.89731605836111 0 0 0
716 239 1 0.5897 -3.5467452377655695 12.630269940873394 17.796256367261687 0 0 0
874 292 2 -1.1794 -3.1645111263762216 16.375752419839543 16.83869131402682 0 0 0
907 303 2 -1.1794 -5.609725974205032 15.462887068306825 17.89328150753688 0 0 0
357 119 1 0.5897 -5.5300322337719425 16.929642577967364 18.931622638168978 0 0 -1
876 292 1 0.5897 -2.6350761740229744 15.578426117547615 16.82764804624783 0 0 0
736 246 2 -1.1794 -1.222740117079539 14.586246665444282 17.964829730537748 0 0 0
909 303 1 0.5897 -4.862485951266852 15.788137308046423 17.391175257492108 0 0 0
781 261 2 -1.1794 -7.391112600620194 13.77704081053277 16.709901480272187 1 0 0
782 261 1 0.5897 -7.145752058214574 13.201361814488521 17.43417101168425 1 0 0
730 244 2 -1.1794 -0.9282231013019517 11.658467663666206 16.012975396506405 0 0 0
908 303 1 0.5897 -6.089913843128235 14.9094159855116 17.27749502808465 0 0 0
738 246 1 0.5897 -0.4136532333147951 14.357224198494235 17.507511747435068 0 0 0
737 246 1 0.5897 -0.9804704517180909 15.321582298164675 18.52764939936553 0 0 0