LAMMPS data file via write_data, version 30 Jul 2021, timestep = 4250000

1920 atoms
2 atom types
1280 bonds
1 bond types
640 angles
1 angle types

-0.06676904097929359 24.79677004097079 xlo xhi
-0.11709928479821663 24.847100284801364 ylo yhi
-0.13693805400430392 22.946938054006008 zlo zhi

Masses

1 1.008
2 15.999

Pair Coeffs # lj/cut/tip4p/long/omp

1 0 0
2 0.21084 3.1668

Bond Coeffs # harmonic/omp

1 450 0.9572

Angle Coeffs # harmonic/omp

1 55 104.52

Atoms # full

1 1 2 -1.1794 4.55959699211954 1.283791822667751 4.366218765694001 0 0 0
2 1 1 0.5897 4.6515033961563 1.9942284090833629 5.001017257223862 0 0 0
3 1 1 0.5897 5.307692177387575 1.3887595952594243 3.7785275066069457 0 0 0
4 2 2 -1.1794 3.1027034483550344 1.1062617567896986 1.969275079558173 0 0 0
5 2 1 0.5897 3.4206739182826618 1.0426401876890485 2.869850635890601 0 0 0
6 2 1 0.5897 2.156935949433303 1.2239894723941724 2.0565361894300445 0 0 0
9 3 1 0.5897 4.995753803377822 4.5350956052452815 3.5035922184900126 0 0 0
10 4 2 -1.1794 3.201279258268127 4.6979654836504094 3.385568263584598 0 0 0
11 4 1 0.5897 2.665490254900112 5.249175828852664 3.9558167878736787 0 0 0
12 4 1 0.5897 2.6879216940639843 4.6132241267356004 2.582191595894657 0 0 0
13 5 2 -1.1794 1.6324716095705483 2.9351889076510553 5.062835857646105 0 0 0
14 5 1 0.5897 2.3393836400023007 3.274491530674055 4.514020704968447 0 0 0
15 5 1 0.5897 1.6575450734923807 1.9879376409076217 4.92799049700566 0 0 0
22 8 2 -1.1794 1.5490326820282536 4.514727320957106 1.2197404959829525 0 0 0
20 7 1 0.5897 3.6487425232464052 3.20159617460411 0.8082542026752856 0 0 0
23 8 1 0.5897 0.7703427157404529 4.6218030584525644 1.765826977884521 0 0 0
24 8 1 0.5897 1.6884871333468903 5.377213080060602 0.8288748994068393 0 0 0
21 7 1 0.5897 5.110520516840648 2.8312286559100412 0.939560803301319 0 0 0
19 7 2 -1.1794 4.51405198367604 3.39626896563055 0.4486245549989507 0 0 0
27 9 1 0.5897 4.768518554096769 5.112021346944203 0.37746386471282745 0 0 0
28 10 2 -1.1794 1.6155788848173218 0.30761816628042904 4.566275905783212 0 0 0
25 9 2 -1.1794 4.723478118947458 6.060516933262296 0.49753957499573664 0 0 0
16 6 2 -1.1794 0.14886956329252962 1.6226954624261498 2.0827911092766658 0 0 0
47 16 1 0.5897 6.135959522044324 0.8200456444941701 1.3864869579142454 0 0 0
98 33 1 0.5897 0.38521218571402593 5.482020118429444 4.117167654137355 1 0 0
387 129 1 0.5897 4.524037573220192 0.12265095948636875 1.1435762669678484 0 1 0
99 33 1 0.5897 0.3645065549963979 3.9731673689353553 3.996816795833772 1 0 0
7 3 2 -1.1794 5.947735299002155 4.595976120859882 3.580864047112001 0 0 0
97 33 2 -1.1794 -0.04517764829890582 4.765788155883806 3.650409756708885 1 0 0
8 3 1 0.5897 6.098796365896407 5.42108713985833 4.041819470745538 0 0 0
629 210 1 0.5897 2.0420989702627246 5.668683655019689 9.968624955826124 0 0 0
481 161 2 -1.1794 4.548500546207353 1.4645121354843116 9.953584263547478 0 0 0
502 168 2 -1.1794 1.5711829513912876 4.672230927940526 7.0918044895876715 0 0 0
496 166 2 -1.1794 0.012653585090493857 1.5019795663254116 7.904587228508111 0 0 0
150 50 1 0.5897 1.8737808986799052 6.006470082410037 5.724224359531428 0 0 0
483 161 1 0.5897 4.510099207760357 2.043671348298047 10.714680241947676 0 0 0
527 176 1 0.5897 5.822868372324993 0.8756615949927005 7.419866883554928 0 0 0
503 168 1 0.5897 0.8542249290962012 4.557706667532291 7.715436650166048 0 0 0
500 167 1 0.5897 3.7067225513872555 2.8028818178434776 6.82009602893379 0 0 0
506 169 1 0.5897 3.9116789199102993 6.102440053811699 6.909489872588892 0 0 0
867 289 1 0.5897 4.653949732197604 0.13570031302864338 5.7435590712777955 0 1 0
528 176 1 0.5897 5.52994453475011 2.3599844080677648 7.4698337100314856 0 0 0
493 165 2 -1.1794 1.2884410243035327 3.0134316038547904 10.675740050696442 0 0 0
485 162 1 0.5897 3.492106386354727 1.4807089870258583 8.497442805926898 0 0 0
492 164 1 0.5897 2.6606952181636285 3.837280548953687 9.746702956997089 0 0 0
482 161 1 0.5897 5.404989128741496 1.6377335682534977 9.563174782201843 0 0 0
501 167 1 0.5897 4.408591729158918 4.092927315437243 6.453178397057115 0 0 0
499 167 2 -1.1794 4.399357348149974 3.1552573773212322 6.261401069943552 0 0 0
504 168 1 0.5897 1.4377942960652905 3.9811535304863197 6.4431249148256775 0 0 0
490 164 2 -1.1794 3.2196436081749384 4.423560476595968 9.236879071956945 0 0 0
498 166 1 0.5897 0.9660844657537608 1.4852751958335777 7.9863081745064814 0 0 0
484 162 2 -1.1794 2.8971940294771596 1.4467825673558863 7.748420556125081 0 0 0
494 165 1 0.5897 1.5145964313980012 2.115317660371642 10.917252682906614 0 0 0
488 163 1 0.5897 5.073494027882314 4.631475994406399 9.334403397779287 0 0 0
486 162 1 0.5897 3.1292285932315074 0.6369434268937073 7.2940828804414615 0 0 0
491 164 1 0.5897 2.756899244670835 4.534461288455768 8.406385912685867 0 0 0
578 193 1 0.5897 0.10155411543431317 3.8273054849790484 9.44811952105141 1 0 0
526 176 2 -1.1794 6.129710041577685 1.6950755280502143 7.807807930045607 0 0 0
1347 449 1 0.5897 4.187184623625246 0.020717403834482673 11.342997221070062 0 1 0
508 170 2 -1.1794 1.5754612360181333 0.2288787971116999 10.58701669497169 0 0 0
487 163 2 -1.1794 6.022137598213018 4.705066076568539 9.231413442280854 0 0 0
628 210 2 -1.1794 1.3882271098088284 6.119989557333162 10.502321561042676 0 0 0
505 169 2 -1.1794 4.4233449269394685 5.773233488547608 6.1706132355062175 0 0 0
961 321 2 -1.1794 4.4127569023526965 1.4525765736109462 15.562730470976476 0 0 0
962 321 1 0.5897 5.20332832702344 1.4273000820493966 15.02385474016522 0 0 0
963 321 1 0.5897 4.440079293219817 0.6396557695830789 16.067241343174835 0 0 0
964 322 2 -1.1794 2.643180652769437 1.6815636030078256 13.405901098106524 0 0 0
965 322 1 0.5897 2.9113383007299074 1.8045360071209045 14.316481449421246 0 0 0
966 322 1 0.5897 1.7317686551947065 1.9726833598675397 13.382793741462496 0 0 0
970 324 2 -1.1794 2.9168408973991937 4.55080958695892 14.712314157138994 0 0 0
971 324 1 0.5897 3.862792459367659 4.455386315093908 14.602630753067373 0 0 0
972 324 1 0.5897 2.69609496229074 3.9506656948960677 15.424526281368465 0 0 0
973 325 2 -1.1794 1.5064367737739903 3.0031092806091935 16.495699769290376 0 0 0
975 325 1 0.5897 0.7028083625209706 3.3832094585960206 16.14114967527891 0 0 0
982 328 2 -1.1794 0.8002756012909392 4.674337981955818 12.825599867040157 0 0 0
983 328 1 0.5897 0.9503166887722432 5.322894164506993 12.137837174944146 0 0 0
984 328 1 0.5897 1.5894086678606676 4.710554503775242 13.365953030909099 0 0 0
990 330 1 0.5897 1.7560829950406698 1.1674517531603594 16.727007852502446 0 0 0
981 327 1 0.5897 5.174366584763646 2.789989156034437 12.692746439548014 0 0 0
987 329 1 0.5897 4.5484573178117875 4.945209493293454 12.164647607431444 0 0 0
979 327 2 -1.1794 4.445414962453352 3.1261504446468438 12.171532289944805 0 0 0
980 327 1 0.5897 3.6623291749652815 2.823946545382805 12.631392044622377 0 0 0
495 165 1 0.5897 1.2633207726841686 3.4864703683895892 11.507479172820176 0 0 0
1460 487 1 0.5897 4.688737955099844 2.430797022134743 17.144208270328416 0 0 0
1109 370 1 0.5897 0.7291822286055843 5.959690926103179 16.13640561020088 0 0 0
967 323 2 -1.1794 5.707049826056589 4.480746084669503 14.826805940462961 0 0 0
988 330 2 -1.1794 1.783577588042895 0.26529054170162053 16.408503325937513 0 0 0
1346 449 1 0.5897 3.6808279498924974 0.30289941114102115 12.741469258390916 0 1 0
1008 336 1 0.5897 6.080188839550082 0.8027890882501045 13.037529719725395 0 0 0
969 323 1 0.5897 6.0840634434764445 3.77692909189435 15.354632665646658 0 0 0
968 323 1 0.5897 6.057937544019407 5.283724571926692 15.211760051100107 0 0 0
986 329 1 0.5897 3.9746705755354954 6.096114240991045 12.963237826706715 0 0 0
1110 370 1 0.5897 2.1497418660085024 6.025140295707091 15.617775148946915 0 0 0
985 329 2 -1.1794 4.578386148719285 5.898282331114751 12.247355504907878 0 0 0
386 129 1 0.5897 4.9318193354025945 0.1560124626185695 22.76992495018062 0 1 -1
1454 485 1 0.5897 2.1170717957034237 3.50862032349363 21.600197600140252 0 0 0
974 325 1 0.5897 1.634560964149262 3.4500803230211905 17.332345318380145 0 0 0
1538 513 1 0.5897 0.03704143540746685 3.772766638065449 21.02718002163693 1 0 0
1453 485 2 -1.1794 1.504096017812439 2.9474728268148187 22.074997336621443 0 0 0
1463 488 1 0.5897 1.5024910100146665 5.5026717863425665 18.023697899023805 0 0 0
1826 609 1 0.5897 4.123297171958333 -0.07000189810503055 18.195401082750156 0 1 0
1443 481 1 0.5897 4.465861385150304 2.199208933109446 21.85766286196236 0 0 0
1539 513 1 0.5897 -0.04058935514641521 5.283926110720802 21.070668169853597 1 0 0
1465 489 2 -1.1794 4.454941383508547 5.645306519983313 18.134598696458646 0 0 0
1590 530 1 0.5897 2.134507625919528 5.939063864139148 21.66486402142587 0 0 0
1459 487 2 -1.1794 4.511401354190989 2.9080184498906876 17.95475773498541 0 0 0
1452 484 1 0.5897 2.6884976490793226 5.020092215679404 20.00494925744302 0 0 0
1461 487 1 0.5897 5.184737856016545 2.605193360051106 18.563845243204234 0 0 0
1464 488 1 0.5897 0.8196689735253785 4.76776830169205 19.15740473241703 0 0 0
1444 482 2 -1.1794 2.8748804819365947 1.2973873148532782 19.456120614836117 0 0 0
1466 489 1 0.5897 4.5498158674064175 4.694440113458316 18.08030963673577 0 0 0
1462 488 2 -1.1794 1.5385454014976832 4.691311722350816 18.5301681637371 0 0 0
1456 486 2 -1.1794 0.0841525266522026 1.5245979256903215 19.150404843302255 0 0 0
1442 481 1 0.5897 4.00763253654512 1.433826038815374 20.6345907297887 0 0 0
1441 481 2 -1.1794 4.652311418951163 1.4148518331124817 21.341779289230665 0 0 0
1445 482 1 0.5897 1.932010428953697 1.1976779207814336 19.325716194526056 0 0 0
1450 484 2 -1.1794 3.1238253173298367 4.784294900901565 20.824120487935293 0 0 0
1446 482 1 0.5897 3.063585483051293 2.1909017294668387 19.169559742804314 0 0 0
1469 490 1 0.5897 1.5097995040251078 1.1627356565972433 22.25562966312823 0 0 0
1451 484 1 0.5897 4.057973316255334 4.8288212513216155 20.620769792364882 0 0 0
1487 496 1 0.5897 5.909126943770116 1.3463253150245575 20.09984674496685 0 0 0
1468 490 2 -1.1794 1.233812138975939 0.2473004003758446 22.212199286645312 0 0 0
1467 489 1 0.5897 5.303103371829314 5.953256457345391 18.453665289770218 0 0 0
1455 485 1 0.5897 1.2704689574100072 3.452357542795015 22.85388561089918 0 0 0
121 41 2 -1.1794 4.562634926200825 7.6400858453823846 4.346864537286651 0 0 0
122 41 1 0.5897 3.9282152565841626 7.758122704380012 3.639974136578631 0 0 0
124 42 2 -1.1794 3.075012397101308 7.7747254306024605 1.7311986355090183 0 0 0
125 42 1 0.5897 3.5616463438397985 6.967615531354058 1.5643739253669209 0 0 0
126 42 1 0.5897 3.633547335167242 8.46851127084896 1.3808309328327975 0 0 0
129 43 1 0.5897 5.035821717147921 11.135313339131638 3.475042932791598 0 0 0
130 44 2 -1.1794 3.216726615131671 11.185998382990006 3.788694399339935 0 0 0
132 44 1 0.5897 2.8140360265660496 10.42563568697583 4.20794480103829 0 0 0
133 45 2 -1.1794 1.576672675171764 9.05143494442531 4.816865011062365 0 0 0
137 46 1 0.5897 1.2570748898481117 7.851806860721456 1.9775883251528499 0 0 0
142 48 2 -1.1794 1.627066335155795 10.723256681544758 1.3179636697362032 0 0 0
143 48 1 0.5897 2.2842073840386274 10.841131806494507 2.0037840395844735 0 0 0
144 48 1 0.5897 1.7960908113887901 11.433447887819314 0.6989377250430882 0 0 0
149 50 1 0.5897 1.6862181404871948 7.285854003454344 4.937077842173879 0 0 0
139 47 2 -1.1794 4.964451869460451 9.549232323797707 0.7940620554427917 0 0 0
135 45 1 0.5897 0.9352399284491635 9.50425859482376 4.269517289933886 0 0 0
131 44 1 0.5897 2.719563227809468 11.933882627176754 4.11968767540372 0 0 0
123 41 1 0.5897 5.376860397822447 7.40575952129605 3.901739654039691 0 0 0
140 47 1 0.5897 4.948762962660079 10.501398366845274 0.6980433295857922 0 0 0
218 73 1 0.5897 0.24608736261774372 10.829735816940627 2.6648807354235937 1 0 0
217 73 2 -1.1794 -0.031473350554634294 10.932422573998357 3.5751561766810545 1 0 0
136 46 2 -1.1794 0.3388446940363158 7.975796547022362 2.217260030211764 0 0 0
148 50 2 -1.1794 1.6712865949063547 6.333040667970208 4.8475663192643506 0 0 0
145 49 2 -1.1794 4.587263477026322 12.248202030263498 0.6894398227246166 0 0 0
507 169 1 0.5897 4.448314570053595 6.5030280811200685 5.551815944908782 0 0 0
26 9 1 0.5897 5.505091319373339 6.2753763336324795 1.0064082450875829 0 0 0
1575 525 1 0.5897 1.6343923878114717 9.391136128303 0.06289022064706734 0 0 1
168 56 1 0.5897 6.10120480366519 8.308190732844485 1.6224197812398415 0 0 0
127 43 2 -1.1794 5.992813893541994 11.13661878224205 3.4856813535119375 0 0 0
141 47 1 0.5897 4.927806973385762 9.216977750645258 -0.10285763234335477 0 0 0
134 45 1 0.5897 1.4330008964026635 9.402690477839844 5.695592476245212 0 0 0
648 216 1 0.5897 5.749823413047542 6.983270792783043 7.153981087025351 0 0 0
699 233 1 0.5897 0.43238427837524 10.65297443444681 8.611764955839762 1 0 0
604 202 2 -1.1794 3.002463724709145 7.504014726187199 7.841078957600798 0 0 0
614 205 1 0.5897 2.1833976124595846 9.20333009431317 10.13136232059505 0 0 0
603 201 1 0.5897 4.0981702640095286 7.360024582775065 9.465382679964423 0 0 0
1101 367 1 0.5897 4.797106573835261 8.771680604788019 11.21875657981081 0 0 0
647 216 1 0.5897 5.896921075837811 7.590728263560335 8.53279806673615 0 0 0
602 201 1 0.5897 4.758136575546734 6.676277808815727 10.643759996225794 0 0 0
612 204 1 0.5897 2.7775344636030956 11.060403383219578 9.880916038038674 0 0 0
698 233 1 0.5897 0.07210706055165797 11.256662055490745 9.952480974895296 1 0 0
610 204 2 -1.1794 2.944448285065564 10.514213887951017 9.112812919352221 0 0 0
605 202 1 0.5897 3.2417721631575773 8.368807487285912 7.507976756668556 0 0 0
620 207 1 0.5897 5.1533721815843725 9.163242472715867 7.043147814736088 0 0 0
611 204 1 0.5897 3.892514061958551 10.55722492587851 8.989244031740554 0 0 0
615 205 1 0.5897 0.6878827690599645 9.115717198216991 10.348055521487558 0 0 0
630 210 1 0.5897 1.5859816422461308 7.049568847231918 10.388909192037001 0 0 0
621 207 1 0.5897 4.3529617564752705 8.825482828336135 5.803429856825371 0 0 0
619 207 2 -1.1794 4.431623532193954 9.478146454929156 6.499124285687829 0 0 0
616 206 2 -1.1794 0.24115218119242804 7.488050070878364 7.82008715798723 0 0 0
601 201 2 -1.1794 4.920906272339131 7.318084860436021 9.952574812081021 0 0 0
622 208 2 -1.1794 1.3060773968871857 10.860326975631878 6.858864643690426 0 0 0
606 202 1 0.5897 2.045590350435536 7.5100059814291384 7.858598488265689 0 0 0
624 208 1 0.5897 1.4053324863379744 11.691803661305721 6.395277270258351 0 0 0
613 205 2 -1.1794 1.5189726885133499 8.748526160266477 10.648805982077844 0 0 0
626 209 1 0.5897 4.646670794965319 11.510612036395178 6.409114217904658 0 0 0
623 208 1 0.5897 2.0054640972919464 10.864834890548007 7.5122429680951255 0 0 0
607 203 2 -1.1794 5.967239085121049 10.8023438095528 9.303940496994455 0 0 0
1081 361 2 -1.1794 4.6861175476306105 7.422101763821135 15.915416265074565 0 0 0
1082 361 1 0.5897 4.710306084549747 8.26016996271832 16.37713253965144 0 0 0
1083 361 1 0.5897 4.623388517605566 6.7669937143342 16.610435045901628 0 0 0
1084 362 2 -1.1794 2.98168671572016 7.7316439296887065 13.74000731960959 0 0 0
1086 362 1 0.5897 3.4316656283208715 8.445823246918819 13.288845858710063 0 0 0
1089 363 1 0.5897 4.958199593017289 11.125764896713335 15.622839116954841 0 0 0
1090 364 2 -1.1794 3.0588668953840523 10.932340773987866 14.991132566011386 0 0 0
1092 364 1 0.5897 2.718641350862166 10.24388844576484 15.562437556766088 0 0 0
1097 366 1 0.5897 0.9510360624610266 7.84775581800364 13.357569751781304 0 0 0
1102 368 2 -1.1794 1.543974849795339 10.66353619823471 12.774802266794037 0 0 0
1103 368 1 0.5897 1.8199517042416191 10.038079269523855 12.10488513310435 0 0 0
1104 368 1 0.5897 2.220712921477506 10.607084626458898 13.449273533529237 0 0 0
1099 367 2 -1.1794 4.707076942284413 9.338517389892973 11.984766420952154 0 0 0
1085 362 1 0.5897 3.2538001134977943 7.815771797700347 14.653826702793035 0 0 0
1094 365 1 0.5897 1.5627675332105244 8.324608630098803 16.822205733497697 0 0 0
1100 367 1 0.5897 5.458124147930668 9.11853878888861 12.535745485752045 0 0 0
1091 364 1 0.5897 2.616293906835279 11.728498851778493 15.284960757023832 0 0 0
1093 365 2 -1.1794 1.8149775068298908 9.242172792458511 16.719511690106735 0 0 0
1095 365 1 0.5897 1.0895908966227104 9.637844705295326 16.236500269760278 0 0 0
1107 369 1 0.5897 4.473258787774757 11.118823547806945 12.015102118435504 0 0 0
1108 370 2 -1.1794 1.5670111832667484 6.40011319395061 16.278012730126616 0 0 0
1105 369 2 -1.1794 4.533024683930302 12.04577375385995 12.245954580370228 0 0 0
1127 376 1 0.5897 5.764648905699988 7.76875544772875 14.495157506475662 0 0 0
1096 366 2 -1.1794 0.061034010164629615 7.500726853441346 13.29899105901067 0 0 0
1178 393 1 0.5897 0.012507708904795134 11.610166729034098 15.247157039049025 1 0 0
1087 363 2 -1.1794 5.888821717507956 11.02707876348144 15.42242864645129 0 0 0
1179 393 1 0.5897 0.40128167684716665 10.64671986686173 14.146113299138698 1 0 0
1128 376 1 0.5897 6.113804689733082 7.078366516497282 13.19393101680353 0 0 0
1088 363 1 0.5897 6.127963182241956 10.182107400631459 15.803130100157482 0 0 0
750 250 1 0.5897 1.5513516979240185 11.956062631582524 11.470922429825688 0 0 0
1576 526 2 -1.1794 0.25866571446938197 7.440739852310214 19.30526705555839 0 0 0
1658 553 1 0.5897 0.13173056321629362 10.226367181148007 21.30064590767341 1 0 0
1585 529 2 -1.1794 4.658457548616121 12.241406794234841 17.700209791149703 0 0 0
1608 536 1 0.5897 5.8584541870615965 7.704724457153905 20.107234613946353 0 0 0
1588 530 2 -1.1794 1.3717788055749012 6.362043818179653 22.05902339239489 0 0 0
1561 521 2 -1.1794 4.812511137356125 7.884107931079788 21.591118307175165 0 0 0
1563 521 1 0.5897 4.0459407089245625 7.934251301347887 21.02025078881499 0 0 0
1570 524 2 -1.1794 3.1255307390901614 10.768881014162362 20.917226489221708 0 0 0
1582 528 2 -1.1794 1.6748132444361048 11.103267751561372 18.709197550617137 0 0 0
1579 527 2 -1.1794 4.668361394926903 9.43135132440965 17.840569218087946 0 0 0
1567 523 2 -1.1794 5.849997052750163 10.68522184386735 20.99083508287368 0 0 0
1587 529 1 0.5897 4.485341101256311 11.30822332357657 17.82383714765238 0 0 0
1572 524 1 0.5897 4.07927091775432 10.800638553543648 20.844291028070185 0 0 0
1584 528 1 0.5897 1.6704280754307608 10.393910973874267 18.066598867947306 0 0 0
1571 524 1 0.5897 2.8151762406260956 10.779747847179058 20.011810346277173 0 0 0
1573 525 2 -1.1794 1.5806076467581343 9.124982181886967 22.228904924483203 0 0 0
1589 530 1 0.5897 1.5810053867519163 7.295905227553931 22.04453096850716 0 0 0
1581 527 1 0.5897 5.460610717017907 8.995125044553141 18.153705880555744 0 0 0
1574 525 1 0.5897 2.1587133866276966 9.733082496803535 21.768396423940732 0 0 0
1580 527 1 0.5897 3.951410900996624 8.959753244104354 18.26436702968619 0 0 0
1562 521 1 0.5897 4.707093581985804 7.057794489419374 22.062507684249073 0 0 0
1564 522 2 -1.1794 2.9373604767823616 7.843973759726121 19.372648119773547 0 0 0
1565 522 1 0.5897 2.0441468211170797 7.5672329419892215 19.576486758478577 0 0 0
1566 522 1 0.5897 3.3544781843632183 7.061714949644552 19.011873461571597 0 0 0
1583 528 1 0.5897 0.8574559705860769 10.99240695719849 19.19464039008398 0 0 0
1710 570 1 0.5897 2.1973127380785096 12.188167006441985 21.813795139923137 0 0 0
241 81 2 -1.1794 4.377289109997056 14.42743997777536 4.244929898767227 0 0 0
242 81 1 0.5897 4.413119985334386 13.785481845565801 4.953983289300694 0 0 0
243 81 1 0.5897 3.5744039377707497 14.215057102793883 3.7692371186484603 0 0 0
244 82 2 -1.1794 2.661390882533036 13.624987140577067 2.025970746262933 0 0 0
245 82 1 0.5897 1.782604162979996 13.990570523391588 2.1262240322823764 0 0 0
246 82 1 0.5897 3.165954153746037 14.323848949698826 1.609939743220341 0 0 0
250 84 2 -1.1794 3.3200385564251027 17.597809308880834 3.688538333536348 0 0 0
251 84 1 0.5897 3.2682010928035594 17.50957934873007 2.7368365951246476 0 0 0
252 84 1 0.5897 4.1593606658043445 17.20095145934257 3.9209719339126963 0 0 0
253 85 2 -1.1794 1.4331446200358808 15.732329692224166 5.065751224668053 0 0 0
255 85 1 0.5897 2.1913457609551257 16.02567819680285 4.560663644715038 0 0 0
259 87 2 -1.1794 4.189217699487969 15.54893217056656 0.8218790477035915 0 0 0
262 88 2 -1.1794 1.0330082814275345 17.061465273974186 1.4690334065914343 0 0 0
263 88 1 0.5897 1.2429609198664655 16.307051768379274 0.9186711837479604 0 0 0
269 90 1 0.5897 1.4393478648168254 13.76379534272436 5.1584580527153525 0 0 0
264 88 1 0.5897 0.6903637821283479 17.715107326143944 0.8595549460432409 0 0 0
254 85 1 0.5897 0.6944705729608736 16.210295045091378 4.689001169214611 0 0 0
260 87 1 0.5897 4.370295498162329 16.488390622931185 0.7952838663171073 0 0 0
339 113 1 0.5897 0.016353994098427818 17.78886777473 4.029503160532352 1 0 0
265 89 2 -1.1794 4.615722001275299 18.219780157990037 0.5943875470551533 0 0 0
268 90 2 -1.1794 1.5397847305315215 12.823149082458421 5.012916898915852 0 0 0
288 96 1 0.5897 5.698823799920599 14.820510713018546 1.796615624274331 0 0 0
147 49 1 0.5897 3.8334844851843166 12.483947252509298 1.2300725548754805 0 0 0
247 83 2 -1.1794 6.072707298246867 17.040892273590224 3.562948528724653 0 0 0
270 90 1 0.5897 0.8349445183990906 12.597604237115409 4.405968721281501 0 0 0
287 96 1 0.5897 5.9185560296239474 14.163778362344047 3.142806499684815 0 0 0
146 49 1 0.5897 5.323723206174782 12.70953798731971 1.090474511070359 0 0 0
256 86 2 -1.1794 0.052771671118975405 14.228545576247074 2.097789551760907 0 0 0
258 86 1 0.5897 -0.03235989209769485 13.484337881378128 1.5019208725710171 0 0 0
389 130 1 0.5897 1.8483607380065863 18.49790433320878 4.396006482534321 0 0 0
261 87 1 0.5897 4.275826303041328 15.262020967101321 -0.08717884272698839 0 0 0
736 246 2 -1.1794 0.3695146457546002 14.094155136737983 7.827496131654214 0 0 0
869 290 1 0.5897 0.8122822320953624 18.60189684213335 10.60293854909725 0 0 0
818 273 1 0.5897 0.24652201713033206 17.26548838191261 8.676005324272175 1 0 0
625 209 2 -1.1794 4.72135978360241 12.449553240068044 6.239095659577687 0 0 0
1221 407 1 0.5897 4.58218340427749 15.08024406042651 11.107002221756813 0 0 0
738 246 1 0.5897 0.2230780818349007 13.832078207420663 8.736379478155984 0 0 0
733 245 2 -1.1794 1.7590265241428436 15.297128572288601 10.57379425311961 0 0 0
722 241 1 0.5897 3.7734376052492546 13.746978386454533 9.277464749847637 0 0 0
748 250 2 -1.1794 1.6707287732683571 12.39659186506171 10.62957298911315 0 0 0
732 244 1 0.5897 2.98206431789167 16.489070689708086 9.722416178200502 0 0 0
743 248 1 0.5897 1.3846995701457872 17.95542705075281 6.666937203038475 0 0 0
740 247 1 0.5897 4.637822431034983 15.602233373147941 5.70315320415298 0 0 0
721 241 2 -1.1794 4.503025748662211 13.80390430060721 9.894325101601822 0 0 0
724 242 2 -1.1794 3.048598701676676 14.169573741475288 7.785721876499748 0 0 0
739 247 2 -1.1794 4.720234119141837 15.87035463413457 6.618311309022489 0 0 0
742 248 2 -1.1794 1.231784033656634 17.25761073405186 7.303978417953513 0 0 0
749 250 1 0.5897 1.6639533017806625 13.329354013298888 10.844043792249748 0 0 0
731 244 1 0.5897 2.6275185805636934 17.264748941719695 8.471683559683758 0 0 0
741 247 1 0.5897 4.970781942075513 16.79314472638366 6.5763545949105415 0 0 0
725 242 1 0.5897 3.5069097529911737 14.944001392843369 7.4597208600917915 0 0 0
730 244 2 -1.1794 3.2195984053210425 17.270707599219563 9.223687999638248 0 0 0
723 241 1 0.5897 5.2679872803455305 13.976855643815343 9.345729895788526 0 0 0
737 246 1 0.5897 1.3217440521125612 14.110461330240028 7.732915382770504 0 0 0
735 245 1 0.5897 1.082850373868683 15.778680995008008 10.097417829285618 0 0 0
744 248 1 0.5897 1.0656940256298537 16.479373045146772 6.772102480516715 0 0 0
726 242 1 0.5897 3.3594130736767243 13.455062629446116 7.229860598776902 0 0 0
627 209 1 0.5897 5.4381033537856895 12.739303463643667 6.803337214445553 0 0 0
728 243 1 0.5897 5.2659538333879015 16.910941999038158 9.03538719277389 0 0 0
817 273 2 -1.1794 -0.05229899898603552 17.180110725175368 9.581324252908752 1 0 0
1201 401 2 -1.1794 4.534416921371462 14.130633344084497 15.736303723820503 0 0 0
1203 401 1 0.5897 4.672389277094409 13.560062754442416 16.492327256111366 0 0 0
1204 402 2 -1.1794 2.8018655461793225 14.033492641787328 13.409973895104942 0 0 0
1205 402 1 0.5897 3.201527841482019 14.314133789780694 14.2331777283366 0 0 0
1206 402 1 0.5897 3.248862873656257 13.2155271840886 13.192749739799838 0 0 0
1210 404 2 -1.1794 3.350897498874156 17.148046407992773 14.894129074422114 0 0 0
1212 404 1 0.5897 4.2992583598509695 17.270734652477515 14.855315979410246 0 0 0
1213 405 2 -1.1794 1.690515423690097 15.369203004281077 16.2986012238242 0 0 0
1215 405 1 0.5897 2.5595839775241602 15.628734613648536 15.993071402478822 0 0 0
1218 406 1 0.5897 1.0102387442593734 14.094235805015568 13.610091387775995 0 0 0
1222 408 2 -1.1794 1.70799305158145 16.888773601318803 12.843437553750773 0 0 0
1223 408 1 0.5897 1.8175086966410423 17.549330984116054 12.15946428272684 0 0 0
1224 408 1 0.5897 2.2966639484988893 17.1689558194616 13.544196769202234 0 0 0
1229 410 1 0.5897 1.1730125891494094 13.619275381783348 16.543611730451392 0 0 0
1211 404 1 0.5897 3.0223274185532696 17.946725449305553 15.306739364625793 0 0 0
1202 401 1 0.5897 5.180677787949954 13.83817310011672 15.093740515023482 0 0 0
1214 405 1 0.5897 1.087292483181159 15.928281542511195 15.809088473661063 0 0 0
1220 407 1 0.5897 3.7790287001442318 15.088904172735335 12.390169518396903 0 0 0
1219 407 2 -1.1794 4.361419337576897 15.63093565515603 11.858104323262932 0 0 0
1700 567 1 0.5897 4.735787474998074 15.173462974508253 17.13205583065189 0 0 0
1228 410 2 -1.1794 1.07454081259719 12.667575087578099 16.517709598265885 0 0 0
1227 409 1 0.5897 4.73368284340905 17.430397387025934 11.988442665998432 0 0 0
1225 409 2 -1.1794 4.4610673188596675 18.34784855308191 11.981440230161798 0 0 0
1106 369 1 0.5897 4.523256264436378 12.503492629743743 11.405372941686633 0 0 0
1247 416 1 0.5897 5.723598232139461 14.80112404417007 13.162757558952478 0 0 0
1248 416 1 0.5897 5.64063529433179 13.300582412857418 12.980957590660328 0 0 0
1216 406 2 -1.1794 0.10360745298241333 13.825551432626785 13.462434991137968 0 0 0
1246 416 2 -1.1794 6.07185697760542 13.97707623321845 13.502979339809231 0 0 0
1298 433 1 0.5897 0.4469563942818482 17.057447070355927 14.205519104198675 1 0 0
1297 433 2 -1.1794 -0.019202319953613767 17.20930753081894 15.027584866720048 1 0 0
1350 450 1 0.5897 0.925398126280399 18.539748415866953 15.977986814729011 0 0 0
734 245 1 0.5897 1.6536042912787154 15.572775465418912 11.484352785346815 0 0 0
1586 529 1 0.5897 5.199506874431193 12.48655771010759 18.45072897412448 0 0 0
1708 570 2 -1.1794 1.5096771934444144 12.775166942565958 22.127831467092836 0 0 0
1230 410 1 0.5897 1.2936560245441144 12.379446397948062 17.40379803673705 0 0 0
1778 593 1 0.5897 -0.04968954328267706 17.34995575344489 19.954680675154396 1 0 0
1709 570 1 0.5897 0.6948463703472235 12.371254962167807 21.82965708677954 0 0 0
1699 567 2 -1.1794 4.707036967318415 15.542328743433638 18.014836970881106 0 0 0
1681 561 2 -1.1794 4.440187944208234 14.020603275509078 21.380749109882597 0 0 0
1704 568 1 0.5897 1.1272759218442854 17.838507655770854 18.014050515873066 0 0 0
1688 563 1 0.5897 6.088530220408338 17.252962006687838 20.037427707095404 0 0 0
1694 565 1 0.5897 0.6050286186732896 15.944931523267547 21.688263416914907 0 0 0
1692 564 1 0.5897 2.6918496035454322 17.20997627773641 19.823151465761715 0 0 0
1697 566 1 0.5897 0.8289948844210426 13.716174885021065 19.224799891267853 0 0 0
1703 568 1 0.5897 1.244516316103263 16.332498487779823 17.915467712850493 0 0 0
1683 561 1 0.5897 4.4342475258364225 13.326911699820018 22.040221498198434 0 0 0
1707 569 1 0.5897 4.718412468810853 17.351723865726164 18.133329343204625 0 0 0
1684 562 2 -1.1794 2.7656161103322683 13.960321155624703 19.068835287372398 0 0 0
1693 565 2 -1.1794 1.2606092353823857 15.639262066298564 22.315039128399405 0 0 0
1687 563 2 -1.1794 5.752130732492702 17.247231586410983 20.93352509752428 0 0 0
1682 561 1 0.5897 5.285470052147751 13.927125571421254 20.94170180238726 0 0 0
1702 568 2 -1.1794 1.0109141229940517 17.035434434088927 18.52164139183955 0 0 0
1686 562 1 0.5897 3.196935041214571 14.008053239873883 19.921974071212837 0 0 0
1685 562 1 0.5897 3.2346019261872176 13.269413822969474 18.601083210122862 0 0 0
1690 564 2 -1.1794 3.0892984725215875 17.1597818642652 20.69245249265738 0 0 0
1691 564 1 0.5897 2.634183002086611 16.43622994525252 21.123053755590803 0 0 0
1689 563 1 0.5897 4.802345868434282 17.186273550637118 20.832826729696656 0 0 0
1701 567 1 0.5897 4.0688992204710965 15.00169946615549 18.480185529868866 0 0 0
1695 565 1 0.5897 1.3674151461139703 14.709148573606333 22.116122233535176 0 0 0
1728 576 1 0.5897 6.1335662275178775 14.720034592633766 18.90178389629847 0 0 0
1830 610 1 0.5897 2.038756519190758 18.44284775900102 21.855578165138002 0 0 0
1779 593 1 0.5897 0.012301855234568393 17.86216316683487 21.37791793993974 1 0 0
1705 569 2 -1.1794 4.620617471158907 18.30283363681977 18.17716122473078 0 0 0
266 89 1 0.5897 4.787248667474082 18.38402853458556 22.751010230869614 0 0 -1
1706 569 1 0.5897 4.629140585178664 18.58730938394646 17.263269563036264 0 0 0
361 121 2 -1.1794 4.7541672757122075 20.237107495119908 4.0142752570764735 0 0 0
362 121 1 0.5897 4.102458521654537 20.21281529457523 3.3137235954855373 0 0 0
364 122 2 -1.1794 3.125520031263183 20.26773424994667 1.7380824089784368 0 0 0
366 122 1 0.5897 3.5732186439877944 20.992442818291543 1.3016807245375837 0 0 0
370 124 2 -1.1794 3.176829346428254 23.36085253481958 3.326057018669968 0 0 0
371 124 1 0.5897 4.106149967648354 23.152914657010108 3.421331937696648 0 0 0
372 124 1 0.5897 2.7372884831192703 22.788949931653306 3.955217762694179 0 0 0
373 125 2 -1.1794 1.4394264481847325 21.599290154699112 4.630555914106699 0 0 0
375 125 1 0.5897 0.6889196974002028 22.09213420693041 4.299110445031436 0 0 0
381 127 1 0.5897 5.591842249560774 21.566014243905315 0.9774688982576252 0 0 0