LAMMPS (30 Jul 2021)
Processor partition = 0
  using 2 OpenMP thread(s) per MPI task
using multi-threaded neighbor list subroutines
variable        pid world 0 1
variable        phase world IceIh IceIII

shell cd ${phase}
shell cd IceIh
include Restart.lmp
echo both
log log.lammps
#include		in.partitions
include		in.temp
variable        temperature equal 90.22
variable	tempDamp equal 100.0
include		in.pressure
variable        pressure equal 2060.9
variable        pressureDamp equal 1000.0 # This is 1 ps
include		in.seed
variable        seed equal 745823

units		real
atom_style	full
#include		in.box
read_restart	restart.lmp.${pid}
read_restart	restart.lmp.0
Reading restart file ...
  restart file = 30 Jul 2021, LAMMPS = 30 Jul 2021
  restoring atom style full from restart
  orthogonal box = (0.17504110 0.11722972 0.15865321) to (18.032531 23.511948 22.054543)
  2 by 4 by 4 MPI processor grid
  restoring pair style lj/cut/tip4p/long/omp from restart
  restoring bond style harmonic/omp from restart
  restoring angle style harmonic/omp from restart
  864 atoms
  576 bonds
  288 angles
Finding 1-2 1-3 1-4 neighbors ...
  special bond factors lj:    0        0        0       
  special bond factors coul:  0        0        0       
     2 = max # of 1-2 neighbors
     1 = max # of 1-3 neighbors
     1 = max # of 1-4 neighbors
     2 = max # of special neighbors
  special bonds CPU = 0.002 seconds
  read_restart CPU = 0.007 seconds
include 	in.setup
variable	out_freq equal 1000
variable	out_freq2 equal 10000
variable	out_freq3 equal 1000

timestep	2.0

neigh_modify    delay 7 every 1

include		in.tip4p
# This is TIP4P/Ice

# create groups ###
group ox type 2
288 atoms in group ox
group hy type 1
576 atoms in group hy

# set charges - beside manually ###
set group ox charge -1.1794
Setting atom values ...
  288 settings made for charge
set group hy charge 0.5897
Setting atom values ...
  576 settings made for charge

# ### TIP3P Potential Parameters ###
pair_style lj/cut/tip4p/long/omp 2 1 1 1 0.1577 8.5
pair_coeff 1 1*2 0.000 0.000
pair_coeff 2 2 0.21084 3.1668
bond_style  harmonic
bond_coeff  1 450 0.9572
angle_style harmonic
angle_coeff 1 55 104.52
kspace_style pppm/tip4p/omp 1.0e-5
pair_modify tail yes

thermo          ${out_freq}
thermo          1000
thermo_style    custom step temp pe etotal epair emol press lx ly lz vol pxx pyy pzz pxy pxz pyz enthalpy

restart 	${out_freq3} restart.lmp.${pid} restart2.lmp.${pid}
restart 	1000 restart.lmp.${pid} restart2.lmp.${pid}
restart 	1000 restart.lmp.0 restart2.lmp.${pid}
restart 	1000 restart.lmp.0 restart2.lmp.0


include         in.dump
dump            myDump all atom ${out_freq2} dump.water.${pid}
dump            myDump all atom 10000 dump.water.${pid}
dump            myDump all atom 10000 dump.water.0
dump            myDump2 all dcd ${out_freq2} dump.dcd
dump            myDump2 all dcd 10000 dump.dcd
dump_modify     myDump append yes
dump_modify     myDump2 append yes


variable natoms 	equal  "count(all)"                        # NUMBER ATOMS
variable H      	equal  "enthalpy/v_natoms"                 # ENTHALPY-per-atom
variable Vol      	equal  "vol/v_natoms"                 # volume-per-atom
fix AVG all 		ave/time ${out_freq} 1 ${out_freq} v_Vol v_H file vol_enthalpy.dat
fix AVG all 		ave/time 1000 1 ${out_freq} v_Vol v_H file vol_enthalpy.dat
fix AVG all 		ave/time 1000 1 1000 v_Vol v_H file vol_enthalpy.dat


timer           timeout 23:50:00 every 1000
New timer settings: style=normal  mode=nosync  timeout=23:50:00

fix 		1 all shake 1e-6 200 0 b 1 a 1
Finding SHAKE clusters ...
       0 = # of size 2 clusters
       0 = # of size 3 clusters
       0 = # of size 4 clusters
     288 = # of frozen angles
  find clusters CPU = 0.000 seconds
fix             2 all nph aniso ${pressure} ${pressure} ${pressureDamp}
fix             2 all nph aniso 2060.9 ${pressure} ${pressureDamp}
fix             2 all nph aniso 2060.9 2060.9 ${pressureDamp}
fix             2 all nph aniso 2060.9 2060.9 1000
fix             3 all temp/csvr ${temperature} ${temperature} ${tempDamp} ${seed}
fix             3 all temp/csvr 90.22 ${temperature} ${tempDamp} ${seed}
fix             3 all temp/csvr 90.22 90.22 ${tempDamp} ${seed}
fix             3 all temp/csvr 90.22 90.22 100 ${seed}
fix             3 all temp/csvr 90.22 90.22 100 745823


run             250000
PPPM initialization ...
  extracting TIP4P info from pair style
  using 12-bit tables for long-range coulomb (../kspace.cpp:340)
  G vector (1/distance) = 0.37204181
  grid = 24 27 25
  stencil order = 5
  estimated absolute RMS force accuracy = 0.0031229035
  estimated relative force accuracy = 9.4045312e-06
  using double precision FFTW3
  3d grid and FFT values/proc = 4410 672
Last active /omp style is kspace_style pppm/tip4p/omp
Neighbor list info ...
  update every 1 steps, delay 7 steps, check yes
  max neighbors/atom: 2000, page size: 100000
  master list distance cutoff = 10.8154
  ghost atom cutoff = 10.8154
  binsize = 5.4077, bins = 4 5 5
  1 neighbor lists, perpetual/occasional/extra = 1 0 0
  (1) pair lj/cut/tip4p/long/omp, perpetual
      attributes: half, newton on, omp
      pair build: half/bin/newton/omp
      stencil: half/bin/3d
      bin: standard
Setting up Verlet run ...
  Unit style    : real
  Current step  : 32500000
  Time step     : 2
  Walltime left : 23:49:59.93
Per MPI rank memory allocation (min/avg/max) = 10.19 | 10.21 | 10.23 Mbytes
Step Temp PotEng TotEng E_pair E_mol Press Lx Ly Lz Volume Pxx Pyy Pzz Pxy Pxz Pyz Enthalpy 
32500000    93.944047   -4561.8107   -4400.7939   -4561.8107            0    1910.5493     17.85749    23.394718    21.895889    9147.4666    1346.3882    2673.7038    1711.5559   -444.66299   -185.49835   -47.292934   -4145.9143 
32501000    92.135522   -4581.2115   -4423.2944   -4581.2115            0    2070.6653    17.765448    23.373009    22.043941    9153.3491    2742.3445     2648.058    821.59337    371.38663     190.6078    396.19932   -4146.8767 
32502000    89.309396   -4578.7069   -4425.6337   -4578.7069            0    1863.3097    17.898199    23.412543    21.848048    9155.2577    1890.5896    1966.1731    1733.1665    224.05053   -98.637161    206.59604   -4176.8445 
32503000    93.230826    -4588.102   -4428.3075    -4588.102            0    1305.1379    17.930486    23.310145    21.978343    9186.1171    896.49393    1619.1877     1399.732   -303.04851   -201.66361    344.16615   -4253.4581 
32504000    88.794623   -4588.4638   -4436.2729   -4588.4638            0    1787.7165    17.769421    23.578482      21.8254     9144.318    2007.5693     1174.959    2180.6211    569.96215    337.08226   -121.21338   -4197.8621 
32505000    91.723149   -4575.4455   -4418.2352   -4575.4455            0    2572.8629    17.896547    23.236304    21.942552    9124.8015    1824.0442    3373.9732    2520.5714   -226.65833    99.825292     -34.2113   -4075.8492 
32506000    89.664734   -4569.9244   -4416.2421   -4569.9244            0    1950.2744    17.872601    23.351068    21.983465    9174.6746    3174.0868    1051.7163    1625.0201   -45.443562    36.616798    653.02666   -4155.2891 
32507000    90.850805   -4579.3116   -4423.5964   -4579.3116            0    2930.3828    17.864264    23.190456    22.016523    9121.0146    3314.4584    3177.1493    2299.5407    429.51224   -411.20362   -485.72665    -4033.795 
32508000    88.613459   -4570.8743   -4418.9939   -4570.8743            0    1090.8631    17.988708    23.365716    21.856893    9186.8685      854.816     323.5042    2094.2691    369.98359     221.0334    219.57527   -4272.8389 
32509000    96.358246   -4579.7632   -4414.6085   -4579.7632            0    2104.1941    17.953255    23.374294    21.819299    9156.3526    1769.0333    2688.3333    1855.2158    752.31954    229.31638    19.052784   -4133.6228 
32510000    87.332797   -4572.0333   -4422.3479   -4572.0333            0    1535.7983    18.003465    23.361695      21.8897    9206.6207    1291.8959    1449.8284    1865.6707   -274.73549   -372.89555     29.97425   -4216.1376 
32511000    87.386549   -4573.0808   -4423.3032   -4573.0808            0    2391.6226    17.832589    23.372851    21.952571    9149.7974    3829.4621    2175.9226     1169.483   -39.971017    -536.0556    309.27635   -4104.1641 
32512000    92.796584   -4565.5454   -4406.4952   -4565.5454            0    2778.6822    17.849229    23.302034    21.947532    9128.4906    3106.5517    2713.9815    2515.5133   -30.427306    13.078396   -63.453453   -4036.5702 
32513000    89.919452   -4569.9641   -4415.8452   -4569.9641            0    1425.2696       17.986     23.23583    22.026138    9205.1556    424.00745    1561.7491    2290.0523    48.525619   -1071.1517    79.311766   -4224.5059 
32514000    88.534358   -4584.1781   -4432.4332   -4584.1781            0    1519.1327    18.004844    23.358822    21.846787    9188.1458    975.58286    1298.4842    2283.3309    339.33308      16.8937   -75.329428   -4228.8699 
32515000    90.425839   -4579.4139   -4424.4271   -4579.4139            0    1984.3243    17.907872    23.299688    21.974339    9168.7452    2668.3591    2455.8406    828.77312    60.406591    94.604008   -100.34184   -4159.0898 
32516000    89.802401   -4575.5058   -4421.5876   -4575.5058            0    1783.6484     17.95103    23.415258    21.848035    9183.3408    2200.6144    1568.6013    1581.7296   -437.33089   -500.81276    512.83089   -4182.7042 
32517000    88.747074   -4575.4966   -4423.3871   -4575.4966            0    2115.9175    17.819983    23.494048    21.906453    9171.4332    1951.8823    2539.2116    1856.6586   -226.39274     167.0928    479.95676   -4140.3706 
32518000    86.332834    -4584.488   -4436.5165    -4584.488            0    926.58091    17.858382    23.462959     21.97614    9208.2329    1154.6588      1199.46    425.62397   -208.30249    92.518605    148.18475   -4312.0835 
32519000    86.241994    -4570.662   -4422.8462    -4570.662            0    2165.7562    17.850231    23.361895     21.93306    9146.4197    3616.3486    1639.8049    1241.1151   -319.54112    39.625588    130.54743   -4133.9535 
32520000    89.054362   -4583.0503   -4430.4142   -4583.0503            0    2541.1798    17.818563    23.453431    21.843086    9128.3661    2590.9877    2810.6728    2221.8788   -180.51295    -142.0206    51.229197   -4092.1124 
32521000    87.119363   -4580.2772   -4430.9576   -4580.2772            0    2482.6752    17.947068    23.348909    21.840389    9152.0937     2994.007    3001.1915    1452.8271   -232.68869   -481.01188    327.47798   -4099.5852 
32522000    94.139638   -4575.6588   -4414.3066   -4575.6588            0    2869.6616    17.851627    23.375013    21.859346     9121.512    2709.3741    2785.0292    3114.5817   -514.38559   -29.974328   -52.797807   -4032.5616 
32523000    86.635418   -4579.2177   -4430.7275   -4579.2177            0    3036.2024     17.91167      23.2018    21.964716    9128.1621    3416.1429    3918.1709    1774.2934    3.3211959   -323.25043    121.99578   -4026.5334 
32524000    97.105012   -4577.1234   -4410.6887   -4577.1234            0    2780.3958     18.01438    23.182082    21.895986    9144.0012    3269.7826    2549.5612    2521.8437   -18.179541    220.94052    219.76595   -4039.9066 
32525000    89.732677   -4576.2258    -4422.427   -4576.2258            0    1598.3421    18.001341    23.204332    21.954796    9170.7182    913.10101    2438.9621    1442.9631    750.29391   -176.83051    230.19031   -4208.6559 
32526000    95.405721   -4577.3718   -4413.8496   -4577.3718            0    1696.9623    18.000914    23.221248    21.961262    9179.8887    1052.7277    2168.2024    1869.9567    441.00929   -32.114504   -265.37249   -4186.6616 
32527000    91.748588   -4573.4282   -4416.1743   -4573.4282            0    2069.9649    17.961135    23.163261    22.021993    9161.9961    2218.9948    2177.1919    1813.7079    212.26673   -30.042842    374.11132    -4139.589 
32528000    89.745121   -4584.6882   -4430.8681   -4584.6882            0    2211.0317     17.90712    23.285631    21.957164    9155.6671     3436.991    2311.6975    884.40668    298.13305   -686.00338   -503.63809   -4135.6379 
32529000    88.293262   -4588.5446    -4437.213   -4588.5446            0    1812.4879    17.743088    23.407284    22.076518    9168.7644    1643.2907    1835.5674    1958.6056   -317.61724   -269.70753    176.63986   -4194.8525 
32530000    92.019858   -4575.9073   -4418.1884   -4575.9073            0    2027.0389    17.924228    23.195274    22.067568    9174.7543    1701.8423    1962.9633    2416.3113   -191.65168    539.33079   -233.64859   -4146.9617 
32531000    92.348029   -4572.4468   -4414.1654   -4572.4468            0     2205.971    17.929367     23.26023    21.973465    9163.8401    1989.2321     2367.898    2260.7828    222.87105   -119.09987   -211.67923    -4119.348 
32532000    89.579015   -4569.8414   -4416.3061   -4569.8414            0    2250.3519    17.888727    23.201648    22.099895    9172.5158    2011.4096     2719.218    2020.4281   -71.869181    -49.66758   -622.37305   -4115.2726 
32533000    90.632609   -4578.4845   -4423.1433   -4578.4845            0    2038.4687    17.912126    23.308519     21.94618    9162.6428    2533.7246    1646.6836    1934.9979   -297.32512   -370.64043    58.736189   -4150.7474 
32534000    88.142639   -4584.6613   -4433.5878   -4584.6613            0    2222.9282    18.007799    23.151905    21.964686    9157.4038    1714.6802    2523.6772    2430.4271    149.28473   -323.59757    33.843684   -4136.7128 
32535000    87.415416   -4586.8762   -4437.0492   -4586.8762            0    1774.6145    17.967431    23.234677    21.945528    9161.5438    1627.4416    1433.8655    2262.5366   -76.246781     86.90715      -139.33   -4199.9399 
32536000    86.696436    -4578.439   -4429.8442    -4578.439            0    1306.6371    18.043699    23.116825    22.005598    9178.8218    1412.2648    1285.9079    1221.7387   -502.32833    418.74788    192.23149    -4254.933 
32537000    91.124131   -4575.9119   -4419.7283   -4575.9119            0    2327.2866    17.944729    23.253368    21.891454    9134.7646    2172.6645    2988.5445    1820.6509   -332.24932   -331.55588    10.356281   -4109.6844 
32538000    87.840073   -4573.6783   -4423.1234   -4573.6783            0    2196.9344     17.90458    23.185851    22.024374    9143.0429    2110.0016    3628.0709    852.73075   -14.804944    46.341492    272.59436     -4130.18 
32539000    90.161983   -4575.4249   -4420.8904   -4575.4249            0    3176.2088    17.881554    23.348542    21.836253    9116.8154    4003.2031    3133.3722    2392.0512     35.62401   -36.166898   -397.47725   -3998.5836 
32540000    90.966337   -4582.9255   -4427.0123   -4582.9255            0    1770.1324    17.900043    23.220781    22.033923    9158.4657    1551.4907    2289.3196    1469.5871    383.52488    268.67732    551.33093   -4190.5813 
32541000    86.728459   -4575.5859   -4426.9363   -4575.5859            0    2042.7907    17.975663    23.221648    21.944287    9160.0834    2349.6385    1662.9818    2115.7516    682.57757   -429.12665   -415.94351    -4154.039 
32542000    88.027946   -4577.3681   -4426.4912   -4577.3681            0    1903.3324    18.021806    23.202606    21.916079    9164.2714    1202.1294    2438.9386    2068.9292    557.87263   -233.49716    89.305685    -4172.108 
32543000    91.408863   -4576.6261   -4419.9544   -4576.6261            0    1362.7194    18.002508    23.317237    21.895839    9191.1889    1460.0418    920.69324    1707.4233    529.38915    150.16397    98.450912     -4237.29 
32544000    89.744015   -4574.1403   -4420.3222   -4574.1403            0    2221.3727    17.958988    23.281623    21.928041    9168.4294    2230.4964    1838.6247     2594.997   -473.91398   -87.826403    8.1206666   -4123.2977 
32545000    84.551634    -4587.889   -4442.9704    -4587.889            0     1720.779    17.943254    23.238638    22.027202     9184.832    1496.5634    1581.7903    2083.9833    333.82102     95.31059   -138.81597   -4212.4697 
32546000    92.289171   -4580.2378   -4422.0573   -4580.2378            0    1767.8687    17.934228    23.382977    21.924275    9194.0681    1876.8215    1628.7811    1798.0035     -366.095    242.72638    40.428931   -4185.0108 
32547000    86.513486   -4578.4084   -4430.1272   -4578.4084            0    1739.2711    17.958557    23.231816    21.998509    9177.9953    1904.0585    1418.8964    1894.8585    625.45268   -687.04326   -552.48016   -4197.3229 
32548000    92.214556    -4576.706   -4418.6534    -4576.706            0    3665.5765    17.970015    23.168415    21.857265    9099.9827    3651.1835     2406.377    4939.1691   -563.54857    48.723647    178.53706   -3932.1804 
32549000    87.778035    -4568.796   -4418.3475    -4568.796            0    2092.1231    17.972943    23.266943    21.898445     9157.392    1647.7223    1900.5999     2728.047   -130.34727    197.66219    646.44322    -4138.942 
32550000     90.19165   -4582.5559   -4427.9705   -4582.5559            0    2827.3996    17.962118    23.155463    21.928772    9120.6407    2231.7035    3332.8123     2917.683   -358.11044    23.251484    315.76364   -4051.8834 
32551000    94.686622   -4581.0615   -4418.7718   -4581.0615            0     1789.207    17.999585    23.314897    21.849896    9169.4942    1209.7563    2140.4762    2017.3885   -540.86208    30.165699   -64.185863   -4179.5053 
32552000     91.13649   -4581.0045   -4424.7997   -4581.0045            0    2299.3852    17.870004    23.208251    22.047961    9143.9845    2510.7447    1970.0923    2417.3187    89.497997   -47.200351   -634.83231   -4118.1637 
32553000    87.184155   -4580.7085   -4431.2778   -4580.7085            0    1729.7622    17.998292    23.234045    21.907273    9161.0326    1025.0393    2161.8222     2002.425   -445.95022   -698.68914    100.10208   -4200.1742 
32554000    92.622131   -4574.7023   -4415.9511   -4574.7023            0    2218.8301    17.997866    23.326322    21.806264    9154.7934    1176.1841    2838.7791    2641.5271   -122.31225   -346.57799    58.248904   -4119.7078 
32555000     89.44486   -4578.3271   -4425.0217   -4578.3271            0    1389.8055    17.974695    23.306949    21.955487    9197.9287    962.24079    962.11586    2245.0598   -217.40366    597.04963   -84.484976   -4238.5899 
32556000    97.900204   -4578.2657   -4410.4681   -4578.2657            0    1698.8635    17.876858    23.294251    21.978064    9152.2816    1292.4064    1549.1207    2255.0634    170.05564   -171.86667    207.92541   -4183.7095 
32557000    92.070282   -4580.9835   -4423.1782   -4580.9835            0    2340.5672    18.052732    23.209612    21.846763    9153.7261    1382.2054    2894.7143    2744.7818   -142.97711     53.17595   -111.14921   -4110.7178 
32558000     90.73693   -4577.7078   -4422.1878   -4577.7078            0    2815.0507    17.933471    23.202529    21.946968    9132.1746    3388.2388    2293.3286    2763.5847    521.22345   -492.35666    509.60079   -4047.2698 
32559000    88.063422   -4573.6252   -4422.6875   -4573.6252            0    1760.9729    17.879801    23.371166     21.94951     9172.081    1202.1453    2043.0056    2037.7677    -665.3681   -527.57024    404.60197   -4187.1303 
32560000    87.071378   -4586.9237   -4437.6863   -4586.9237            0    1605.5211    17.922735    23.348593    21.923021    9174.1407    1587.0363    2128.5282    1100.9987   -241.99691    279.14119   -101.36347   -4222.8749 
32561000    87.678737     -4573.89   -4423.6117     -4573.89            0    2193.5566    17.790623    23.485035    21.872576    9138.6555    3194.4239    1488.5642    1897.6818   -222.62821    175.76948   -400.52313    -4131.259 
32562000    91.706486    -4576.865   -4419.6832    -4576.865            0    1662.8424    17.884303    23.415812    21.914785     9177.375    2470.3547     1205.512    1312.6605    196.77506   -523.51698    230.65698   -4197.1241 
32563000    95.461798   -4574.8184   -4411.2001   -4574.8184            0     1992.373    17.946912    23.135288     22.05138    9155.8868    931.96481    2627.8531     2417.301    113.24969   -208.52222    42.166882   -4145.1601 
32564000    91.913503   -4580.6794   -4423.1428   -4580.6794            0    2506.5718    17.937088    23.148832    21.999791    9134.8114    1997.2744    2381.1331    3141.3079    401.43554    406.84085    856.46516   -4089.2127 
32565000    84.945264   -4580.2119   -4434.6187   -4580.2119            0    2117.7921    17.981808    23.332233    21.796088     9144.674    1916.8389     1602.819    2833.7185   -147.44966   -557.46944   -85.138512   -4152.1779 
32566000    94.655743   -4578.3188   -4416.0821   -4578.3188            0     2155.183    17.831491    23.370253    21.975662    9157.8398    3077.9793    2189.8322    1197.7375   -621.43508   -17.832983    11.497977   -4128.2409 
32567000     86.65185   -4587.2429   -4438.7246   -4587.2429            0    1490.1992    17.962102     23.27829    21.929957    9169.5077    1764.7887    1468.0058    1237.8033    574.90392   -173.02832     103.2056   -4239.4435 
32568000    90.840452   -4582.6324    -4426.935   -4582.6324            0    1609.1558    17.956665    23.394888    21.881711    9192.3792    2031.5366    1504.8433    1291.0875   -408.00752   -273.53381    127.11469   -4211.2092 
32569000    87.216965   -4585.8614   -4436.3745   -4585.8614            0    2880.2789    17.869472    23.183504    21.971839    9102.4269    3028.2223    2656.4956    2956.1187   -282.92716   -669.45164   -57.053636   -4054.0187 
32570000    90.316664   -4579.4325   -4424.6329   -4579.4325            0    1797.4376    17.967858    23.377705    21.809014    9160.8169    2833.3123     884.2697    1674.7309    -740.9764   -125.96068     11.09042   -4184.4932 
32571000    91.672442    -4582.199   -4425.0756    -4582.199            0    2139.1199    17.888121    23.297687    21.948951    9147.2657    2231.3921    2862.5346    1323.4331    273.69742   -734.31163    497.70625   -4139.7095 
32572000    97.900916   -4576.5048    -4408.706   -4576.5048            0    845.24097    17.966825    23.396084    21.926654    9216.9421     1038.469    822.36199    674.89192    203.36559    486.80556    212.91229    -4295.089 
32573000    88.641811   -4587.5506   -4435.6216   -4587.5506            0    2910.6792    17.972432    23.186941    21.886315    9120.5908    2294.9075    2952.4856    3484.6444    329.13381    115.41534    217.03956   -4048.4591 
32574000    88.274395    -4578.421   -4427.1217    -4578.421            0    2536.5196    17.995317    23.225981    21.858226    9135.8399    1601.2082    2750.2077    3258.1428   -464.69241   -104.20977   -405.58422   -4089.1638 
32575000    85.809631   -4572.9353   -4425.8605   -4572.9353            0    2627.6797    17.979396    23.163593    21.931663    9133.8227    2407.0275    2750.7115    2725.3002     -456.471   -491.19725    582.24355    -4075.834 
32576000    88.829835   -4576.9965   -4424.7452   -4576.9965            0    2727.5836    17.963742    23.227722    21.869036    9125.0041    2341.2235    2878.9303    2962.5972     735.5559    179.64417    467.05847   -4061.7616 
32577000    90.627673   -4585.6783   -4430.3456   -4585.6783            0     1760.871     17.95327     23.32486    21.877543    9161.3856     1553.546    2104.9544    1624.1126    100.48568    141.11985   -144.66799   -4195.0767 
32578000    97.130756     -4575.51   -4409.0312     -4575.51            0    2431.1728    17.906943    23.312227    21.915467    9148.6275    2003.9209    2191.3657    3098.2316    519.10954    556.08907   -172.32933    -4084.656 
32579000    91.497401   -4583.3223   -4426.4989   -4583.3223            0    2133.6449    17.811779    23.475052    21.873406    9145.9808    2685.4253    1129.6063    2585.9032    174.58919    106.59796   -49.675527   -4141.9032 
32580000    94.006949   -4572.2455   -4411.1208   -4572.2455            0    2120.3031    17.791736    23.427185    21.970862    9157.6812     2663.802    1316.8209    2380.2863   -331.04935   -71.599267    505.60831   -4127.9429 
32581000    89.793321   -4577.4506   -4423.5479   -4577.4506            0      2238.92    17.809075    23.471377    21.900502    9154.4866    1523.3315    2417.9238    2775.5046    79.418254    207.60531    366.33556   -4124.6324 
32582000    93.469196    -4591.675    -4431.472    -4591.675            0    2014.1529    17.800291    23.348949     22.00401    9145.2641    1190.4148    1780.6204    3071.4234   -153.90513    80.907506   -488.25131   -4162.8358 
32583000     85.30674   -4580.5388   -4434.3259   -4580.5388            0    2268.0199    17.951975    23.325305    21.839999    9145.1784    2053.6193    2679.9948    2070.4455     430.1188   -120.86885   -444.69346   -4131.8332 
32584000     91.71073   -4566.2873   -4409.0982   -4566.2873            0     3081.539    17.933514    23.261692    21.857073    9117.9812    2658.1136    4036.4548    2550.0486   -787.74125    740.27045    -131.6555   -3999.3262 
32585000    89.408669   -4579.3069   -4426.0635   -4579.3069            0    1866.6173    17.909452    23.276067    22.017472    9178.2388    2294.0647     2106.964    1198.8231   -301.62719   -362.54572    508.31378   -4176.2071 
32586000    87.279251   -4574.4641   -4424.8705   -4574.4641            0    1556.7553    17.967108    23.356917    21.902568    9191.5497     2079.489    1249.6906    1341.0862   -65.475678   -130.36475    62.842214   -4216.1885 
32587000    89.498526   -4582.8579   -4429.4605   -4582.8579            0    2494.9786    17.851503     23.52916    21.772401    9145.0804    1896.7698    2160.7346    3427.4315    782.04844   -217.19741   -5.1538247   -4096.7012 
32588000    94.210517   -4574.6338   -4413.1602   -4574.6338            0      1618.92    17.800068    23.426582    22.024925    9184.2778    2166.7439    1636.9297    1053.0863    639.97623     56.08203    399.59288   -4196.3168 
32589000    85.016852   -4579.6965   -4433.9805   -4579.6965            0    1748.8051    17.937219    23.231643    21.947396    9145.7228    1695.7356    2453.5962    1097.0835   -381.09759    107.42262    95.031133   -4200.7232 
32590000    89.729588   -4575.2373   -4421.4439   -4575.2373            0    2097.7923    17.960551    23.372373    21.798213    9150.4689    2545.7173    1495.7509    2251.9087    167.37032    39.325308   -9.8838106    -4141.493 
32591000    89.719507   -4586.6764   -4432.9002   -4586.6764            0    2612.2326    17.813135    23.220368    22.013827    9105.5251    3953.3807    2271.3971      1611.92   -424.81283   -18.559754    590.19155   -4086.0094 
32592000    89.624902   -4570.7497   -4417.1356   -4570.7497            0    2643.0355    18.019884    23.319918    21.734556     9133.343    2313.1069    3103.5557     2512.444   -404.15324    120.30745    201.81025   -4065.0821 
32593000    84.957915   -4579.1401   -4433.5251   -4579.1401            0    1984.1304    17.985769    23.346724    21.833942    9168.2641    1840.9416    2787.9995    1323.4502     49.11026    667.46171   -120.67552   -4168.2276 
32594000    89.914607   -4580.6404   -4426.5299   -4580.6404            0    1775.6927    17.909826    23.310093     21.92978    9155.2383    1694.9553    1975.0042    1657.1185    -233.1641   -204.62347     325.5907   -4189.4398 
32595000    88.493654   -4583.8114   -4432.1363   -4583.8114            0    2616.5094    17.982835    23.251568    21.863415    9141.7303    3574.1596     2391.857    1883.5116     68.02038   -510.77403    -123.4384    -4083.296 
32596000    90.128696    -4574.137   -4419.6595    -4574.137            0    1063.2893    17.991163    23.235018    22.025427    9207.1792    1788.0291    1439.4016   -37.562733   -545.50867    -445.3608    74.887734   -4276.8839 
32597000     88.27523   -4572.8663   -4421.5656   -4572.8663            0    2262.6682    17.797175    23.399301     21.95527    9143.0847    1834.4773    1762.2663    3191.2609   -77.580431   -127.77369   -210.66971   -4119.8557 
32598000    85.250322   -4583.0986   -4436.9825   -4583.0986            0    1923.5102    17.966175    23.399884    21.789226      9160.33    1738.2843    867.23804    3165.0082   -799.80817   -57.316521    255.61807    -4180.013 
32599000    91.151598   -4577.6729   -4421.4421   -4577.6729            0    2292.4624    17.896937    23.308155    21.936426    9150.6615     2487.775    1924.3612     2465.251   -635.67453    78.185176    599.72761   -4115.5061 
32600000     87.36275   -4582.3029   -4432.5661   -4582.3029            0    1617.5566    17.993487    23.372559    21.824315    9178.2995    939.92268    2029.9849    1882.7623    307.21069    37.303506    171.92189   -4216.0463 
32601000    85.811997   -4582.0558   -4434.9769   -4582.0558            0    2139.7826    17.989728    23.317017    21.816874     9151.454    2009.0946    2071.1779    2339.0753   -387.54712    730.73604   -181.14405   -4149.3918 
32602000    93.862962    -4579.776   -4418.8981    -4579.776            0    2520.8756    17.911747    23.201694    21.966589    9128.9386    2443.2117    2088.2925    3031.1226    218.48822    -1275.813    -84.78335   -4083.2783 
32603000    91.760456   -4578.8893    -4421.615   -4578.8893            0    2153.5978    18.031005     23.30166    21.771942    9147.5322    1488.5386    1763.8693    3208.3853    358.82125     30.85153   -252.64672   -4134.3092 
32604000    86.254845   -4573.6449    -4425.807   -4573.6449            0    2065.2349    17.815637     23.39402    22.027076    9180.4304    2781.3739    1874.4673    1539.8635   -411.85427   -15.841814   -18.806989   -4149.2986 
32605000    89.441775   -4570.0491    -4416.749   -4570.0491            0    3084.1633    17.872453    23.253597    21.976661     9133.474    3554.0938    3407.6124    2290.7837   -630.36316   -499.69454   -39.590397   -4005.9312 
32606000    87.424817   -4586.3452   -4436.5021   -4586.3452            0    1787.1915    17.982383    23.307452    21.892307    9175.5807    1915.6058    1903.0596    1542.9093   -273.01837   -337.65582    416.12573   -4197.3465 
32607000    85.304236   -4576.7478   -4430.5392   -4576.7478            0    2174.1437    17.939315    23.207781    21.995739    9157.5231     2339.915    3109.4428    1073.0732    270.05658    343.13118    273.31857   -4140.1756 
32608000     89.26374   -4577.4439   -4424.4489   -4577.4439            0     2444.725    17.964089    23.380407    21.732868    9127.9718     2427.155    2320.5911    2586.4288    483.27423   -575.63382   -81.553415   -4099.0019 
32609000    84.428564   -4573.3132   -4428.6056   -4573.3132            0    2183.2124    17.906959    23.244764    21.980112    9149.0685    2990.2788    2518.2184      1041.14   -87.768949    -142.4804    -140.0112      -4137.3 
32610000    87.123878   -4576.7055   -4427.3782   -4576.7055            0    1323.3627    18.002726    23.411542    21.802113    9188.9711    1325.4614    284.23817    2360.3885    302.22559   -687.28208    421.81697   -4250.0321 
32611000    89.490601   -4575.4446   -4422.0607   -4575.4446            0    2080.8279    17.903963    23.438856     21.85298    9170.5684    2185.6682    2095.3143    1961.5013   -24.106111    90.710316   -134.00592   -4143.7639 
32612000     92.83994   -4584.0408   -4424.9164   -4584.0408            0    2004.0581    17.783191    23.406305    22.019581    9165.4038    2024.5897    2514.5876    1472.9972   -558.07069   -38.085841   -478.65548   -4157.0379 
32613000    89.394061   -4579.5916   -4426.3733   -4579.5916            0    1594.1188    17.786409    23.474598    21.968765    9172.5917    2330.0311    1594.6865    857.63876   -289.25778   -13.311836    400.46508   -4213.1235 
32614000    91.930007     -4569.37   -4411.8051     -4569.37            0    2337.6018    17.942695    23.344703    21.848106    9151.4482    2259.1963    1978.6767    2774.9325    336.86146    7.1165566    175.48178   -4099.8182 
32615000    95.562349   -4583.7495   -4419.9589   -4583.7495            0    1753.3108     17.95174    23.324273    21.936575    9185.0915    2033.5701    1498.9455    1727.4169    974.74152   -424.62782   -86.407425   -4185.0939 
32616000    82.313716   -4572.9889    -4431.906   -4572.9889            0    1047.0435    18.053361    23.276296    21.891808    9199.2742    826.35123    1150.0026    1164.7768   -289.80149   -82.195998    40.951365   -4291.4326 
32617000    89.800501    -4590.783    -4436.868    -4590.783            0    1954.3412    17.947615    23.365994     21.85108    9163.5532    1469.4585     1182.186    3211.3792    179.25678    203.81913    325.60687   -4175.6878 
32618000    90.314133   -4587.6385   -4432.8431   -4587.6385            0    1740.9037    17.777349     23.47554    21.999164    9180.9745    2623.7637    1630.7849     968.1624    293.92744   -679.86879   -367.89567   -4199.7447 
32619000    91.560797   -4576.6515   -4419.7194   -4576.6515            0    2301.4187    17.861162     23.36668    21.909085    9143.8893    2893.0979    1705.8803     2305.278   -863.32706    83.674006    95.200079   -4112.8155 
32620000    86.938111   -4580.5204   -4431.5115   -4580.5204            0    2272.1553    17.883358    23.411259    21.884672    9162.4976    1271.1625    3094.6488    2450.6545   -207.27122   -375.86454    22.912617   -4127.8933 
32621000    91.696039   -4587.7139     -4430.55   -4587.7139            0      2419.71    17.880716    23.421399     21.85022    9150.6839    2285.8054    2831.7812    2141.5434   -977.47364    -168.5977    -108.1684   -4107.6316 
32622000    96.338913   -4581.1087   -4415.9871   -4581.1087            0     2109.412    17.930537    23.484197      21.7592    9162.4569    2251.0668     1318.852    2758.3173   -122.44234   -437.61275    204.98907   -4134.1169 
32623000     86.21914   -4581.9139   -4434.1373   -4581.9139            0    2288.7739    17.907276     23.32282     21.84754     9124.585    1882.0717    2226.5436    2757.7064   -575.61554   -264.75583     384.9155   -4129.5639 
32624000    89.999062   -4571.3495   -4417.0942   -4571.3495            0     2836.592    17.780709    23.467266    21.901228    9138.6077    3176.0622    2743.6468     2590.067   -366.15581    201.70236    212.53615   -4039.0411 
32625000    93.290844      -4574.4   -4414.5027      -4574.4            0    1870.3487    17.921275    23.353937    21.939017    9182.1878    2422.8809    2044.4251      1143.74   -74.414438    309.28922    413.63694   -4164.0391 
32626000     91.90811   -4582.9036   -4425.3763   -4582.9036            0    1697.8471    17.959728    23.359377    21.879386    9179.0158    2168.6249     1600.988    1323.9285   -258.13186   -331.25152    184.02681   -4198.0914 
32627000     92.57747   -4577.5048   -4418.8302   -4577.5048            0     2853.462    17.931174    23.263917     21.87207      9123.92    2694.4062    2924.3825    2941.5972    187.84012    656.89969   -250.25452   -4039.1399 
32628000    92.925016    -4583.429   -4424.1587    -4583.429            0    1892.3438    17.972714    23.244491     21.96642    9176.8366    1676.5429    1668.5288    2331.9596    103.85422    9.4572499    324.12847   -4170.8974 
32629000    91.345368   -4571.3884   -4414.8255   -4571.3884            0    2580.9966     17.86107    23.475985    21.804412    9142.7253    3340.5811    1858.8701    2543.5387   -240.62842   -96.053504    67.401821   -4070.6825 
32630000    88.444893   -4583.7144   -4432.1229   -4583.7144            0    3882.7044     17.81142     23.32639    21.879406    9090.3707    4183.7018    4717.9537    2746.4576   -472.36118     332.7171   -123.43617   -3917.3783 
32631000    89.080957   -4587.7041   -4435.0224   -4587.7041            0    2320.6986    17.909565    23.341331    21.887015    9149.4967    3152.4267    2298.4487    1511.2204   -499.04373   -651.11456     -162.569   -4125.3576 
32632000     92.27115   -4572.6266    -4414.477   -4572.6266            0    1613.5649    18.018503    23.306404    21.927959      9208.57    1438.2272     1672.094    1730.3735    466.27279    472.79359    310.88889   -4197.7792 
32633000    89.344038      -4583.6   -4430.4674      -4583.6            0    2340.7989    17.952379    23.279353    21.878076    9143.2801    2136.3779    2208.2438    2677.7749     383.0517    2.6571099   -14.492665   -4118.3327 
32634000    89.080455   -4588.3625   -4435.6816   -4588.3625            0    2144.1141    17.926665    23.346684    21.874427    9155.0643    2222.7861    2283.4955    1926.0608   -323.67456   -62.134459    246.48715   -4149.4055 
32635000    89.713909   -4592.9217   -4439.1551   -4592.9217            0    856.53821    17.934187    23.392292    21.935922    9202.5963    807.74913     476.8212    1285.0443   -633.54178   -608.41632   -29.381631   -4324.1987 
32636000    91.277145   -4582.1869    -4425.741   -4582.1869            0    1793.8446     17.84874    23.426219    21.940084    9173.7747    1703.7837    1671.7863     2005.964   -357.64625    177.31767   -8.5603723   -4185.7423 
32637000    90.626671    -4587.733    -4432.402    -4587.733            0    2753.9117     17.78379    23.332842    21.988431    9124.0192    3036.4447    2555.4171    2669.8734   -384.08413    578.91097    190.06036   -4065.9542 
32638000    88.400638   -4577.2643   -4425.7486   -4577.2643            0    2298.4423    17.924817    23.330133    21.896633    9156.9171    2378.5075    2178.7665    2338.0529   -41.728502    209.04539   -436.80037   -4118.8049 
32639000    83.566921   -4588.1886   -4444.9578   -4588.1886            0    1818.2851     18.00274    23.234092    21.910927    9164.8438    2137.2668    963.21817    2354.3704    46.623341    21.449421   -99.590544   -4201.9261 
32640000    88.821882    -4579.998   -4427.7603    -4579.998            0    1374.0035    17.999501    23.264721    21.958459    9195.1789    1486.3939    1939.2269    696.38967    765.07562    285.95831    591.25169   -4243.5034 
32641000    86.095801   -4583.2226   -4435.6573   -4583.2226            0     1843.091    17.938727    23.449893    21.796995    9169.1505    1939.4471    1425.8904    2163.9357    336.42015   -23.529214    123.07247   -4189.1943 
32642000    87.874692   -4583.0598   -4432.4456   -4583.0598            0      2351.34    17.931683    23.460749    21.730997     9142.029    1994.6091    2502.2545    2557.1563    299.61764   -219.90907    491.91088   -4118.9482 
32643000    87.052126   -4581.7945   -4432.5902   -4581.7945            0    1635.7843     17.95559    23.398075    21.841863    9176.3399    1422.4744    1137.3303    2347.5483    54.602681    477.47276    256.86651   -4213.6772 
32644000     84.82392   -4572.6229   -4427.2376   -4572.6229            0    1913.0898    17.719716    23.421525    22.112515    9177.1975    2452.9063    1624.8609    1661.5022    462.85819   -168.99885    947.86769   -4171.1896 
32645000    92.447195   -4574.6099   -4416.1586   -4574.6099            0    2214.9474     17.83925    23.461354    21.863383    9150.5467    2157.1128    1250.4997    3237.2297    505.13719    -243.6055   -523.23398   -4120.5709 
32646000    90.047333   -4582.1949   -4427.8569   -4582.1949            0    2561.0707    17.765322    23.394083    21.929151    9113.8302    2981.8758    2534.4307    2166.9058    202.17623   -209.15957    -72.59393   -4087.4499 
32647000    84.355956   -4580.8739   -4436.2907   -4580.8739            0     2165.298      17.9289    23.386159    21.845255    9159.4556    1343.4498    2309.2548    2843.1894   -399.07009    470.41648   -260.44142   -4147.0475 
32648000    84.442712   -4581.3363   -4436.6044   -4581.3363            0    2417.8299    17.993678    23.396709    21.722536    9145.0317    1698.2628    2545.9908    3009.2362    282.30815   -269.43134    15.283869   -4114.1362 
32649000     90.96376   -4568.3149   -4412.4062   -4568.3149            0    2815.0339    17.834992    23.256835     21.99065    9121.4022     2638.397    3268.8449    2537.8599    257.89175   -45.278144    130.35202   -4037.9326 
32650000    84.329519   -4573.4858   -4428.9479   -4573.4858            0    2057.9306    17.869794    23.330188    22.035107    9186.5605    2100.8164    2274.2812    1798.6942   -546.46927    211.47903    245.24035   -4153.2334 
32651000    91.181291   -4573.3661   -4417.0845   -4573.3661            0    1672.2086    17.968888    23.376123    21.833201     9170.882    1098.4395    852.07872    3066.1075   -517.78084   -370.78215    284.34349   -4193.4301 
32652000    85.290005   -4583.1316   -4436.9475   -4583.1316            0    2570.1923    17.869287    23.219218    22.036126    9143.0282    3165.4964    3268.0946     1276.986    1049.6286    246.81387   -2.2939546   -4094.2337 
32653000    91.278732   -4578.1343   -4421.6857   -4578.1343            0    1961.5548    17.818439    23.437674    21.930372    9158.6224    2894.0145    2330.0026     660.6471   -103.86842    265.96346    55.149204   -4159.6825 
32654000    85.798042   -4580.7304   -4433.6755   -4580.7304            0    2184.0968    17.837915    23.393782     22.00124    9181.0356    2040.4728    2444.3689    2067.4485   -266.70636    548.81326   -75.590438   -4141.2337 
32655000    86.239228   -4577.1661    -4429.355   -4577.1661            0    1809.4406    17.919734    23.401421    21.889122     9179.143    1491.2516    1600.2177    2336.8526   -205.48323    781.23999    343.28305   -4187.1281 
32656000    82.438583   -4584.2676   -4442.9706   -4584.2676            0      1971.83    17.998979    23.359341    21.753268    9146.0373    1147.1047    1918.4512    2849.9343   -139.60734    10.539315   -99.649434    -4179.957 
32657000    89.481191   -4583.9914   -4430.6237   -4583.9914            0    2097.5542    18.041042    23.237872    21.843865     9157.722    2123.0257    2019.0607    2150.5763   -181.09045   -321.62495    138.52985   -4150.4828 
32658000     91.34712   -4588.2859   -4431.7201   -4588.2859            0    1841.9843    18.024511    23.308528    21.816296    9165.5673    2514.4472    1550.9144    1460.5913   -278.89892    281.56975    134.75694   -4185.5013 
32659000    90.690011   -4584.8488   -4429.4092   -4584.8488            0    1425.0613    17.994454     23.29368    21.939284    9196.0055    988.21044    2014.8021    1272.1713    141.82951    30.714601    375.01298   -4238.2881 
32660000    94.147202   -4576.6831   -4415.3181   -4576.6831            0    2446.8974    17.970619    23.242536    21.911473    9152.0448    1981.8556    3151.5963    2207.2404    1058.0404   -290.27654    408.96489   -4088.7229 
32661000    87.038822   -4587.6278   -4438.4462   -4587.6278            0    2124.6567    17.826903    23.325989    21.996763    9146.9169    2168.1211     2487.037    1718.8119     100.4822    262.38476   -213.73191   -4155.0204 
32662000    82.289011   -4570.8983   -4429.8578   -4570.8983            0    2421.4984    17.944473    23.332833     21.84945    9148.2641    1025.9769    3113.6585    3124.8599   -135.57787   -405.42346    75.365921   -4106.7862 
32663000    87.170731   -4574.6233   -4425.2156   -4574.6233            0    2048.2502    18.005327    23.192583    21.977688    9177.6632    1429.9708    2874.9277     1839.852    34.767996    155.92565     -503.225   -4151.0639 
32664000    90.102348   -4585.0453   -4430.6129   -4585.0453            0    1191.5938    17.986676    23.121293    22.126589    9201.8995    1704.1384    1409.4748    461.16827   -716.00851    50.988997    89.698869   -4270.7007 
32665000    88.483096    -4579.093    -4427.436    -4579.093            0    2288.6872    18.045305     23.25758    21.823285    9159.0169    2359.8868     1620.062     2886.113   -130.43247    175.67226    335.77288   -4121.7249 
32666000    88.222537   -4572.7814    -4421.571   -4572.7814            0    1301.6796     17.86094    23.356862    22.007218    9180.8727    1506.2815    1508.4096    890.34762    942.24549   -257.70734    527.83021   -4247.2844 
32667000     86.54188   -4580.8518    -4432.522   -4580.8518            0    2778.4685     17.81014    23.408194    21.873432    9119.1037    2902.8442    2787.2999    2645.2613   -467.27239    105.07563   -303.91971   -4063.0058 
32668000     94.42323   -4575.7238   -4413.8856   -4575.7238            0     1458.606    17.907115    23.417411    21.950253    9204.5816    2063.7522    1400.6054    911.46037   -817.02375   -374.26544    449.70955   -4218.0833 
32669000    92.163757   -4573.5403   -4415.5747   -4573.5403            0    2415.5068    17.941955    23.368939    21.833576    9154.4789    1811.3572    3044.5947    2390.5684   -134.71736    4.2535457    445.69162   -4093.0836 
32670000    88.758595   -4577.1228   -4424.9936   -4577.1228            0    2990.0211    17.952103    23.267253    21.835758     9120.711    2773.4968    3478.3002    2718.2662    246.21197    75.214356    127.50406   -4027.2723 
32671000    89.867485   -4583.5318    -4429.502   -4583.5318            0    2268.7843    17.904923    23.281248    21.964721    9155.9709    2591.6478    3024.3095    1190.3955   -239.77263    153.91341    48.626105   -4126.5502 
32672000    93.693048    -4589.087   -4428.5003    -4589.087            0    1800.2277    17.981502    23.398078    21.818603    9179.7971     1888.579    1456.2486    2055.8555   -686.41988   -10.365913    314.27109   -4187.4896 
32673000     85.89744   -4576.9406   -4429.7153   -4576.9406            0    2016.4284    17.924896    23.493133     21.75728    9162.2507    1127.7053    2212.0267    2709.5533   -644.75106    -477.7918   -136.57869   -4160.2761 
32674000     88.57821   -4583.3071   -4431.4871   -4583.3071            0    2634.3236    17.861771    23.335822    21.941859    9145.7856    2491.9676    2953.1914     2457.812    551.94872    85.440526    188.59408    -4080.116 
32675000    87.893614   -4571.4906    -4420.844   -4571.4906            0    2022.0464    17.960343    23.397991    21.827042    9172.5075     2426.669    1452.5284    2186.9417   -455.67029     319.2696    206.69539   -4150.3515 
32676000    91.912534   -4587.4096   -4429.8746   -4587.4096            0    2160.5404    18.001717     23.20328    21.917792    9155.0374    1336.2955    2470.2198    2675.1059    70.610895    -558.4012    266.88397   -4141.4061 
32677000    88.582721   -4566.6374   -4414.8097   -4566.6374            0    2514.3651    18.005869    23.170441    21.929565    9149.1006    2220.2323    3111.5113    2211.3517    -362.9887   -332.67386   -231.55312   -4079.3173 
32678000     93.97441   -4581.9271   -4420.8582   -4581.9271            0    2213.7068    18.040559    23.178167     21.89349    9154.6991    1647.1092    2627.4816    2366.5296   -486.05716   -226.51678    712.96961    -4125.302 
32679000    87.042815   -4576.5773   -4427.3889   -4576.5773            0    1886.1178     17.84466    23.425159    21.942217    9172.1538     2118.226    1731.6913    1808.4359    91.560042   -479.16682    34.785949   -4175.0896 
32680000    86.807576   -4576.7272    -4427.942   -4576.7272            0    1449.5712    17.743223    23.566941    21.974775    9188.8288    2324.5556    1083.2503    940.90771    194.92591    128.25555    173.49715   -4233.6854 
32681000    91.585133   -4580.6158    -4423.642   -4580.6158            0    1900.9964    17.875327    23.356663    21.986506    9179.5418    1652.4939    1599.1688    2451.3264   -21.952141    -630.8507    48.526643   -4169.1477 
32682000    95.218626   -4575.0308   -4411.8293   -4575.0308            0    2437.8637    17.874032    23.227717     22.04966     9154.423     2235.549    3573.2343    1504.8078    39.608996   -345.47314   -431.15688   -4086.3553 
32683000    86.855635   -4581.4928   -4432.6252   -4581.4928            0    1584.6064    18.011136    23.253483     21.95885    9196.8416    1590.9068    1440.2496    1722.6627   -839.73503    296.74031   -268.67406   -4220.0875 
32684000    91.123308   -4589.1971   -4433.0148   -4589.1971            0    2965.3349     17.90864    23.336339    21.794704    9108.4885     3168.358    2221.7124    3505.9342   -417.46471   -315.80392   -254.39775   -4039.1058 
32685000    92.766183    -4577.584   -4418.5859    -4577.584            0    2374.2753    18.018773    23.360361    21.740098    9150.9518    1461.6394    2627.0715     3034.115   -654.55209   -405.93662    665.02539   -4101.7217 
32686000    89.509699   -4573.1557   -4419.7391   -4573.1557            0    2189.4615    17.965673    23.331048    21.867549    9165.9576     1859.462    2314.0992    2394.8233   -18.302452   -190.71854   -160.28384   -4127.0605 
32687000    86.724121   -4579.6502   -4431.0081   -4579.6502            0     2359.844    18.038831    23.239751    21.828873    9151.0556    1383.7296    2333.6005    3362.2019    71.437404    306.80271    214.00742   -4116.0662 
32688000    98.376263   -4581.9852   -4413.3716   -4581.9852            0     2144.719    18.011884    23.234969    21.892868    9162.2871    1546.5368    2527.7139    2359.9064   -35.985363    1.7759269   -67.356323   -4126.7888 
32689000    84.751993   -4582.1906   -4436.9286   -4582.1906            0     1741.676    17.910302    23.350395    21.951251    9180.2903    2269.8727    1249.1419    1706.0134   -219.73931    176.70824   -559.25284   -4203.7441 
32690000    95.641967   -4574.3142   -4410.3871   -4574.3142            0    1851.7361    17.962866    23.267303      21.9312    9166.0893    1256.8745    2157.9119    2140.4219   -355.05481    92.057459   -124.56504   -4162.8507 
32691000    88.483494   -4576.4248   -4424.7671   -4576.4248            0    2100.5429    17.993423    23.262408     21.88764    9161.5169    1522.5637    2459.0238    2320.0413    57.627567    376.11541    396.22442   -4144.1108 
32692000    88.615976   -4574.2406   -4422.3558   -4574.2406            0    1421.6181    17.978623    23.357354    21.893154    9193.6592    724.19577     1743.454    1797.2046    297.55912    155.47836    303.82419   -4231.7451 
32693000    90.789178   -4579.3894   -4423.7799   -4579.3894            0    2802.3205    17.932554    23.186327    21.948417    9125.9337    3027.6242    3498.1683     1881.169   -350.02637   -156.35081   -129.20695   -4050.8124 
32694000    96.142661   -4580.7947   -4416.0095   -4580.7947            0    2651.8259    17.898617    23.359257    21.900112    9156.4014    2792.8826    2443.9483    2718.6467    738.61003   -334.12407    433.57808   -4061.8933 
32695000    91.075769   -4583.6309   -4427.5302   -4583.6309            0     2246.956    17.911634    23.267731    21.979314    9160.1669    2548.0436    2276.0531    1916.7712    129.71785    270.89041   -115.51762   -4127.3557 
32696000    87.817709    -4575.851   -4425.3344    -4575.851            0     1784.996     17.92081    23.306858    21.977338    9179.4454    1575.2467    2064.6057    1715.1357   -523.65329   -556.27139    373.23482    -4186.372 
32697000     89.15491   -4575.4418   -4422.6333   -4575.4418            0     2219.288    17.931146    23.291962    21.896488    9145.1022    1796.5095    1547.8109    3313.5435   -134.16433   -345.76846   -8.2431365   -4126.6426 
32698000    89.259902   -4575.4175   -4422.4291   -4575.4175            0    2116.2164     17.91997    23.310685    21.943862    9166.5389    2526.8438    1826.6579    1995.1476    803.86559      228.853   -201.92292   -4139.5236 
32699000    96.148585   -4582.7028   -4417.9074   -4582.7028            0    3017.7571    17.863877    23.335215     21.89668    9127.7935    3696.9928    2805.6362    2550.6421   -145.88869   -244.12131   -86.063503    -4016.185 
32700000    91.005148   -4583.7368   -4427.7571   -4583.7368            0    1481.2754    17.916411    23.354313    21.958641    9188.0547     1319.675    1582.1241    1542.0273    243.98011   -68.456274    82.571132   -4229.2686 
32701000     87.93731   -4576.2624   -4425.5408   -4576.2624            0    2006.3072    17.886496    23.399109    21.927042    9177.0826    1823.0565    2210.9762     1984.889   -310.05068    91.598861    481.77178     -4157.02 
32702000    90.264405   -4577.1023   -4422.3922   -4577.1023            0    2038.7255    17.851627    23.334029    22.025004    9174.5242    2269.6544    2403.3228    1443.1994    333.68919   -373.69328   -10.028969   -4149.6087 
32703000    85.270711   -4577.3441    -4431.193   -4577.3441            0    3054.4304    17.881675    23.133999    22.097873    9141.3301     3830.719    3763.5785    1568.9937   -777.11671    140.53199   -434.12787   -4023.9857 
32704000    89.558585   -4585.8407   -4432.3404   -4585.8407            0     2193.693    17.994184    23.271969    21.878408    9161.8044    1736.5197    1983.6636    2860.8959   -88.261163    50.708428    661.17956   -4139.2289 
32705000    86.447258   -4585.9295   -4437.7618   -4585.9295            0    1084.6308    17.891833    23.368118    22.037883    9214.0051    1709.5797    949.46258    594.85022   -106.25973    284.27356   -367.91048   -4292.0126 
32706000    85.529978   -4579.1715    -4432.576   -4579.1715            0    2369.7284    17.871625    23.407269    21.873724    9150.3461    2130.9371    1440.7045    3537.5434   -10.135664    33.697184    89.126282   -4116.3395 
32707000    90.199646   -4583.5477   -4428.9486   -4583.5477            0    2168.8994    17.861514    23.446348    21.876444    9161.5767    2661.9155    1577.2258    2267.5569    31.412018   -308.03102    270.51682   -4139.1572 
32708000    92.542156   -4579.3502   -4420.7361   -4579.3502            0    1840.3711    17.922653    23.538076    21.773485     9185.466     486.8552    1934.1361    3100.1219   -447.76174    138.47789   -331.33964   -4174.1988 
32709000    89.355652   -4582.1229   -4428.9704   -4582.1229            0    1933.2453    17.938541    23.383693    21.886954    9180.9057    1689.7757    1169.7412    2940.2192     28.75649    180.46804    119.24635   -4170.1203 
32710000    93.599964   -4578.1437   -4417.7165   -4578.1437            0    1726.3964    17.936056    23.188167    22.118865    9199.3304    1105.7084    2525.5378    1547.9429   -248.58684   -515.42265     246.2836   -4186.0984 
32711000    91.571251   -4585.3184   -4428.3684   -4585.3184            0    2171.7135     17.96715     23.22964    21.941242    9157.6256    2110.3827    2048.2069    2356.5511    153.61528   -72.580937   -50.357932   -4138.3262 
32712000    95.373685   -4587.7586   -4424.2914   -4587.7586            0    2493.7118     17.92132    23.233248    21.998702    9159.6102    3308.1613    2422.3404    1750.6337   -558.57434    300.95068    561.11147   -4091.1726 
32713000    92.493496   -4580.7703   -4422.2396   -4580.7703            0    2182.3696    17.955637     23.33312     21.86082    9158.8317    1827.8721     1462.192    3257.0448   -33.263431   -88.768999    233.93251   -4130.7358 
32714000    90.284082   -4582.2852   -4427.5413   -4582.2852            0    2069.9068    17.871613    23.364202    21.939847    9161.1145    2246.7262     2196.874    1766.1202   -542.43273   -303.87285    280.26415   -4150.9905 
32715000    87.014668   -4592.3618   -4443.2217   -4592.3618            0    2816.2386    17.881112    23.141855    22.005905    9106.0902    1969.8874    3245.5138    3233.3145   -318.97658    253.92644    375.10566   -4069.2168 
32716000    87.031142   -4581.0902   -4431.9218   -4581.0902            0    1508.7541    17.890071    23.243263    22.075597    9179.5547    1968.8822    1053.1171     1504.263   -117.60729    2.7070815    363.11112   -4229.9383 
32717000    85.856284   -4583.4148     -4436.26   -4583.4148            0    1445.6589    17.981379    23.306846    21.979005    9211.1646    1475.3907    1722.6294    1138.9565   -432.66008    57.944127   -147.05815   -4242.0569 
32718000    90.306306   -4577.6126   -4422.8307   -4577.6126            0    2245.1356    17.927006    23.362082    21.838361    9146.1717    1975.7223    2173.4659    2586.2187    131.10021   -400.06931   -366.45934   -4123.3576 
32719000    93.267534   -4583.1995   -4423.3421   -4583.1995            0    1629.7018     17.94768    23.289035    21.997036    9194.4122    1577.4534    2433.4048    878.24728   -389.16645   -486.07367    254.43748   -4204.8137 
32720000    85.332202   -4580.4517   -4434.1952   -4580.4517            0    1873.9066     17.94337    23.303934    21.947995    9177.5787    1811.3648     2756.925      1053.43   -299.42096    223.84368    154.78668   -4183.3811 
32721000    90.145855   -4581.1412   -4426.6343   -4581.1412            0    2066.4369    18.084479    23.229811    21.786914    9152.6616    1522.9268    1298.5372    3377.8467   -239.14593    126.49537    85.730313   -4150.8018 
32722000    90.354637   -4588.6294   -4433.7646   -4588.6294            0    1551.1193    18.040984    23.239763    21.922797    9191.5311    1493.0547    1665.0386    1495.2646    -86.85573    84.244536   -48.389031   -4225.8385 
32723000     88.12968   -4583.0995   -4432.0482   -4583.0995            0    1403.7683    17.922258    23.460595    21.859636    9191.2525    2145.4207    823.00531     1242.879   -108.71076    67.286592     400.0243   -4243.8801 
32724000    87.826695   -4574.9702   -4424.4382   -4574.9702            0    2969.6986    17.839583    23.391941    21.850051      9118.08    3551.9386    2900.6427    2456.5144   -191.17305    53.125861   -104.28567   -4029.5341 
32725000    88.878831   -4586.3629   -4434.0276   -4586.3629            0    1949.4321    17.897191    23.401164    21.872093    9160.3629    1433.3827    1448.0585     2966.855   -517.28463    149.84598    -304.8864   -4173.5942 
32726000    87.712072   -4574.6554   -4424.3199   -4574.6554            0    1920.7859    17.839042    23.231968    22.105196    9161.1902    2658.8904    2554.5125    548.95494   -408.45524      693.977   -167.77591   -4167.6903 
32727000    92.214766   -4564.2023   -4406.1494   -4564.2023            0    2117.6667    17.948504    23.306712    21.895168    9159.1999    2375.8504    1453.3513    2523.7985   -797.72542   -484.46576     221.8074   -4123.2767 
32728000    89.455163   -4570.2967   -4416.9736   -4570.2967            0     1994.276    17.852658    23.186506    22.128239    9159.7803    2810.5954    2746.3982    425.83447     74.07158    74.675098    852.94827   -4150.5662 
32729000    88.668035   -4572.5702   -4420.5963   -4572.5702            0    1928.0715     17.74454    23.335475    22.120168    9159.4591    2605.0438    1743.2348    1435.9358   -736.58538   -157.34963   -399.33561   -4163.0419 
32730000    90.826264   -4567.3821    -4411.709   -4567.3821            0    2945.0995    17.865201    23.308087    21.892623    9116.1683    2821.5141    2759.7375     3254.047   -162.59157    542.14793    585.70666   -4020.1581 
32731000    89.869139   -4572.1848   -4418.1521   -4572.1848            0    2905.7457    17.801771    23.372868    21.926805    9123.2711    3806.8574     3179.723    1730.6567    399.76029   -474.06529    274.94968   -4031.5323 
32732000    91.333204    -4579.594    -4423.052    -4579.594            0     2652.739    17.832465     23.34986    21.922805    9128.3396    2957.3423    2807.0674    2193.8073    66.013021    61.044843    247.77219   -4069.8995 
32733000     88.22978   -4582.7871   -4431.5642   -4582.7871            0    1635.5356    17.842216    23.500976     21.85868    9165.5518    1982.2379      762.492    2161.8768    311.85282   -226.95586    65.771057   -4212.9419 
32734000    97.541975   -4585.2555   -4418.0719   -4585.2555            0    2075.9597     18.00617    23.406091    21.738715    9161.8695    1965.6755    1703.7438    2558.4598   -133.27629   -155.38625   -167.94801   -4140.6895 
32735000    89.629175   -4586.2305   -4432.6091   -4586.2305            0    2341.5835    17.919278    23.270324    21.960323     9157.178    2281.8185     2409.583    2333.3489    492.41962    108.78002    392.88304   -4119.8952 
32736000    90.211414   -4582.3676   -4427.7483   -4582.3676            0    2127.7583    17.800474    23.396982    21.974942    9152.0663     2297.916    1810.3871    2274.9718    1348.3259    124.23997    280.02385    -4143.749 
32737000    89.298042   -4580.1912   -4427.1374   -4580.1912            0    1981.0802    17.813838    23.546492    21.840459    9161.0544    1751.4872    1711.4173    2480.3361     186.1125   -16.781711      148.418   -4162.4561 
32738000    91.990117   -4579.2545   -4421.5866   -4579.2545            0    1857.5476    17.870893    23.498103    21.828097     9166.318    2045.3295    1484.2338    2043.0797    256.94785   -138.40467    33.559766   -4173.2672 
32739000    93.756562   -4584.9992   -4424.3036   -4584.9992            0    1107.9652    17.931357    23.321231    22.002167    9200.8951    818.75192    1218.7732    1286.3705    90.377525    145.90119    444.77621   -4275.6306 
32740000    89.917473   -4578.9294    -4424.814   -4578.9294            0    1709.1964    18.029366    23.281573     21.89747    9191.5071    1328.8131    2156.8252     1641.951    105.16503    139.45919   -78.292693   -4195.6984 
32741000    88.871077   -4586.4037   -4434.0817   -4586.4037            0    1696.5369    17.877296    23.478367    21.882687     9184.814    1781.7682    809.90512    2497.9373   -152.66906   -254.55042    34.895893   -4206.8288 
32742000    89.999068   -4580.6028   -4426.3474   -4580.6028            0    1936.8852     17.90143    23.321655    21.940824     9160.096    1525.6389    2265.8902    2019.1264    11.649828   -49.622186     8.686069   -4167.5978 
32743000    94.526082   -4577.2399   -4415.2254   -4577.2399            0    2708.8707    17.736422    23.545125    21.870042    9133.0668    2654.8778    2613.5306    2858.2038    259.47766   -109.93879    380.65592   -4054.4135 
32744000    94.233742    -4583.149   -4421.6356    -4583.149            0    2060.3958    17.824546     23.50358     21.90125    9175.3241    1952.1868    1087.6831    3141.3173    640.29551     434.4868   -605.36249   -4145.9285 
32745000    93.253074   -4576.3734   -4416.5408   -4576.3734            0    1994.3132    17.956991    23.383215    21.854459    9176.5165    2077.4187    1270.9661    2634.5548   -932.38879    82.740421    49.103906   -4149.6417 
32746000    90.202226   -4580.4474   -4425.8439   -4580.4474            0    2456.0301    17.962522    23.203867     21.91922      9135.93    1500.0726    3165.6452    2702.3724     135.0954    208.38697    -155.6172   -4098.6069 
32747000    85.482524   -4574.5942   -4428.0801   -4574.5942            0    2196.4797     17.98114    23.331332    21.856673    9169.3976     1485.396    1997.2008    3106.8422   -36.736466   -327.09029   -19.782974   -4134.3531 
32748000    91.385559   -4571.7488   -4415.1171   -4571.7488            0    963.10408     17.86724    23.455249    22.027853    9231.4455    1326.7899   -260.76199    1823.2844    460.98432   -288.18645    -506.1673   -4285.4532 
32749000    87.819608    -4583.868   -4433.3482    -4583.868            0    2708.0323    18.003121    23.275597    21.817487    9142.2555    1949.6859    2450.7639     3723.647   -199.48668    20.757231    23.282919   -4072.2851 
32750000    91.616672   -4568.6543   -4411.6265   -4568.6543            0    2467.6761    17.812953    23.349067    22.012974    9155.5442    3362.3835    2252.8412    1787.8036    820.90226    37.901428    182.74557    -4082.132 
Loop time of 358.337 on 64 procs for 250000 steps with 864 atoms

Performance: 120.557 ns/day, 0.199 hours/ns, 697.668 timesteps/s
194.4% CPU use with 32 MPI tasks x 2 OpenMP threads

MPI task timing breakdown:
Section |  min time  |  avg time  |  max time  |%varavg| %total
---------------------------------------------------------------
Pair    | 16.867     | 25.118     | 34.413     | 116.1 |  7.01
Bond    | 0.96896    | 1.2106     | 1.7018     |  15.8 |  0.34
Kspace  | 178.65     | 189.13     | 200        |  44.3 | 52.78
Neigh   | 0.37762    | 0.40645    | 0.44935    |   3.2 |  0.11
Comm    | 51.958     | 56.807     | 61.197     |  30.3 | 15.85
Output  | 0.59755    | 0.5987     | 0.6008     |   0.1 |  0.17
Modify  | 63.764     | 66.942     | 71.475     |  19.9 | 18.68
Other   |            | 18.12      |            |       |  5.06

Nlocal:        27.0000 ave          38 max          18 min
Histogram: 2 7 4 3 0 3 5 1 3 4
Nghost:        2149.91 ave        2250 max        2049 min
Histogram: 11 5 0 0 0 0 0 0 4 12
Neighs:        6628.84 ave        9027 max        4506 min
Histogram: 5 5 4 2 0 3 5 0 3 5

Total # of neighbors = 212123
Ave neighs/atom = 245.51273
Ave special neighs/atom = 2.0000000
Neighbor list builds = 1478
Dangerous builds = 0

unfix		3
unfix		2
unfix		1

write_data	data.final.${pid} nocoeff
write_data	data.final.0 nocoeff
System init for write_data ...
PPPM initialization ...
  extracting TIP4P info from pair style
  using 12-bit tables for long-range coulomb (../kspace.cpp:340)
  G vector (1/distance) = 0.37192924
  grid = 24 27 25
  stencil order = 5
  estimated absolute RMS force accuracy = 0.0031405781
  estimated relative force accuracy = 9.4577576e-06
  using double precision FFTW3
  3d grid and FFT values/proc = 4410 672
Last active /omp style is kspace_style pppm/tip4p/omp

write_restart   restart.lmp.${pid}
write_restart   restart.lmp.0
System init for write_restart ...
PPPM initialization ...
  extracting TIP4P info from pair style
  using 12-bit tables for long-range coulomb (../kspace.cpp:340)
  G vector (1/distance) = 0.37192924
  grid = 24 27 25
  stencil order = 5
  estimated absolute RMS force accuracy = 0.0031405781
  estimated relative force accuracy = 9.4577576e-06
  using double precision FFTW3
  3d grid and FFT values/proc = 4410 672
Last active /omp style is kspace_style pppm/tip4p/omp
Total wall time: 0:05:58
